<event>
 7    1  0.2450552E-011  0.5052884E+02  0.7816164E-02  0.1300439E+00
        -11   -1    0    0    0    0  0.00000000000E+00  0.00000000000E+00  0.45593999997E+02  0.45594000000E+02  0.51100000000E-03 0.  1.
         11   -1    0    0    0    0 -0.00000000000E+00 -0.00000000000E+00 -0.45593999997E+02  0.45594000000E+02  0.51100000000E-03 0. -1.
    9900012    2    1    2    0    0  0.37948064660E+02  0.10196170636E+02  0.10447496774E+02  0.50528835032E+02  0.29999924562E+02 0.  0.
         12    1    1    2    0    0 -0.37948064660E+02 -0.10196170636E+02 -0.10447496774E+02  0.40659164968E+02  0.00000000000E+00 0. -1.
         11    1    3    3    0    0  0.24259520095E+02  0.12352278801E+02  0.14218748405E+02  0.30712797223E+02  0.51100000000E-03 0. -1.
        -11    1    3    3    0    0  0.82678484302E+01 -0.28293437034E+01  0.45576763246E+01  0.98557048047E+01  0.51100000000E-03 0.  1.
         12    1    3    3    0    0  0.54206961351E+01  0.67323553857E+00 -0.83289279548E+01  0.99603330043E+01  0.00000000000E+00 0. -1.
</event>
<event>
 7    1  0.2450552E-011  0.5052886E+02  0.7816164E-02  0.1300439E+00
        -11   -1    0    0    0    0  0.00000000000E+00  0.00000000000E+00  0.45593999997E+02  0.45594000000E+02  0.51100000000E-03 0. -1.
         11   -1    0    0    0    0 -0.00000000000E+00 -0.00000000000E+00 -0.45593999997E+02  0.45594000000E+02  0.51100000000E-03 0.  1.
    9900012    2    1    2    0    0 -0.48169358344E+01  0.36100144155E+02 -0.18076013761E+02  0.50528861392E+02  0.30000004688E+02 0.  0.
         12    1    1    2    0    0  0.48169358344E+01 -0.36100144155E+02  0.18076013761E+02  0.40659138608E+02  0.00000000000E+00 0. -1.
         11    1    3    3    0    0  0.84240893228E+01  0.86174517170E+01 -0.92897749991E+01  0.15215967758E+02  0.51100000000E-03 0. -1.
        -11    1    3    3    0    0 -0.29545919914E+01 -0.12844926422E+01  0.75058760510E+00  0.33080080408E+01  0.51100000000E-03 0.  1.
        -12    1    3    3    0    0 -0.10286433166E+02  0.28767185080E+02 -0.95368263670E+01  0.32004885594E+02  0.00000000000E+00 0.  1.
</event>
<event>
 7    1  0.2450552E-011  0.5052885E+02  0.7816164E-02  0.1300439E+00
        -11   -1    0    0    0    0  0.00000000000E+00  0.00000000000E+00  0.45593999997E+02  0.45594000000E+02  0.51100000000E-03 0.  1.
         11   -1    0    0    0    0 -0.00000000000E+00 -0.00000000000E+00 -0.45593999997E+02  0.45594000000E+02  0.51100000000E-03 0. -1.
    9900012    2    1    2    0    0 -0.26291424800E+02  0.14369553825E+02 -0.27485327613E+02  0.50528851840E+02  0.29999975652E+02 0.  0.
         12    1    1    2    0    0  0.26291424800E+02 -0.14369553825E+02  0.27485327613E+02  0.40659148160E+02  0.00000000000E+00 0. -1.
         11    1    3    3    0    0 -0.45809171799E+01 -0.61172771068E+01 -0.13459384088E+02  0.15477755060E+02  0.51100000000E-03 0. -1.
        -11    1    3    3    0    0 -0.99543206377E+01  0.51357843577E+01 -0.10586017161E+02  0.15411960937E+02  0.51100000000E-03 0.  1.
        -12    1    3    3    0    0 -0.11756186983E+02  0.15351046574E+02 -0.34399263642E+01  0.19639135843E+02  0.00000000000E+00 0.  1.
</event>
<event>
 7    1  0.2450552E-011  0.5052886E+02  0.7816164E-02  0.1300439E+00
        -11   -1    0    0    0    0  0.00000000000E+00  0.00000000000E+00  0.45593999997E+02  0.45594000000E+02  0.51100000000E-03 0. -1.
         11   -1    0    0    0    0 -0.00000000000E+00 -0.00000000000E+00 -0.45593999997E+02  0.45594000000E+02  0.51100000000E-03 0.  1.
    9900012    2    1    2    0    0 -0.27388659471E+01  0.40326599273E+02 -0.44079093217E+01  0.50528860066E+02  0.30000000656E+02 0.  0.
         12    1    1    2    0    0  0.27388659471E+01 -0.40326599273E+02  0.44079093217E+01  0.40659139934E+02  0.00000000000E+00 0. -1.
         11    1    3    3    0    0 -0.54702110459E+01  0.20265772953E+01  0.38861319916E+00  0.58464728598E+01  0.51100000000E-03 0. -1.
        -11    1    3    3    0    0  0.97524610011E+00  0.87687365260E+01  0.84972599036E+01  0.12249296770E+02  0.51100000000E-03 0.  1.
        -12    1    3    3    0    0  0.17560989987E+01  0.29531285452E+02 -0.13293782424E+02  0.32433090437E+02  0.00000000000E+00 0.  1.
</event>
<event>
 7    1  0.2450552E-011  0.5052885E+02  0.7816164E-02  0.1300439E+00
        -11   -1    0    0    0    0  0.00000000000E+00  0.00000000000E+00  0.45593999997E+02  0.45594000000E+02  0.51100000000E-03 0.  1.
         11   -1    0    0    0    0 -0.00000000000E+00 -0.00000000000E+00 -0.45593999997E+02  0.45594000000E+02  0.51100000000E-03 0. -1.
    9900012    2    1    2    0    0  0.17343389852E+02  0.29981626682E+02  0.21294961599E+02  0.50528849743E+02  0.29999969279E+02 0.  0.
         12    1    1    2    0    0 -0.17343389852E+02 -0.29981626682E+02 -0.21294961599E+02  0.40659150257E+02  0.00000000000E+00 0. -1.
         11    1    3    3    0    0  0.91098185729E+00  0.68902631553E+01  0.15745565848E+02  0.17211288691E+02  0.51100000000E-03 0. -1.
        -11    1    3    3    0    0  0.64257424949E+01  0.20821131343E+02  0.71484989952E+01  0.22932743298E+02  0.51100000000E-03 0.  1.
         12    1    3    3    0    0  0.10006665500E+02  0.22702321839E+01 -0.15991032436E+01  0.10384817754E+02  0.00000000000E+00 0. -1.
</event>
<event>
 7    1  0.2450552E-011  0.5052888E+02  0.7816164E-02  0.1300439E+00
        -11   -1    0    0    0    0  0.00000000000E+00  0.00000000000E+00  0.45593999997E+02  0.45594000000E+02  0.51100000000E-03 0.  1.
         11   -1    0    0    0    0 -0.00000000000E+00 -0.00000000000E+00 -0.45593999997E+02  0.45594000000E+02  0.51100000000E-03 0. -1.
    9900012    2    1    2    0    0 -0.37263740215E+01 -0.25291758435E+02  0.31616527349E+02  0.50528884052E+02  0.30000073565E+02 0.  0.
         12    1    1    2    0    0  0.37263740215E+01  0.25291758435E+02 -0.31616527349E+02  0.40659115948E+02  0.00000000000E+00 0. -1.
         11    1    3    3    0    0 -0.79204960773E+01 -0.82815842839E+01  0.21606098376E+02  0.24456949598E+02  0.51100000000E-03 0. -1.
        -11    1    3    3    0    0  0.54691649962E+01 -0.16812564166E+02  0.13569056593E+02  0.22286618781E+02  0.51100000000E-03 0.  1.
        -12    1    3    3    0    0 -0.12750429405E+01 -0.19760998505E+00 -0.35586276201E+01  0.37853156731E+01  0.00000000000E+00 0.  1.
</event>
<event>
 7    1  0.2450552E-011  0.5052887E+02  0.7816164E-02  0.1300439E+00
        -11   -1    0    0    0    0  0.00000000000E+00  0.00000000000E+00  0.45593999997E+02  0.45594000000E+02  0.51100000000E-03 0.  1.
         11   -1    0    0    0    0 -0.00000000000E+00 -0.00000000000E+00 -0.45593999997E+02  0.45594000000E+02  0.51100000000E-03 0. -1.
    9900012    2    1    2    0    0 -0.39404361423E+02  0.99783770576E+01 -0.94526135686E+00  0.50528865394E+02  0.30000016852E+02 0.  0.
         12    1    1    2    0    0  0.39404361423E+02 -0.99783770576E+01  0.94526135686E+00  0.40659134606E+02  0.00000000000E+00 0. -1.
         11    1    3    3    0    0 -0.20358275973E+02  0.13960526448E+02 -0.85168710004E+01  0.26113077015E+02  0.51100000000E-03 0. -1.
        -11    1    3    3    0    0  0.36561890043E+00  0.26370856217E+01  0.13413555297E+01  0.29811294294E+01  0.51100000000E-03 0.  1.
         12    1    3    3    0    0 -0.19411704351E+02 -0.66192350126E+01  0.62302541139E+01  0.21434658949E+02  0.00000000000E+00 0. -1.
</event>
<event>
 7    1  0.2450552E-011  0.5052882E+02  0.7816164E-02  0.1300439E+00
        -11   -1    0    0    0    0  0.00000000000E+00  0.00000000000E+00  0.45593999997E+02  0.45594000000E+02  0.51100000000E-03 0. -1.
         11   -1    0    0    0    0 -0.00000000000E+00 -0.00000000000E+00 -0.45593999997E+02  0.45594000000E+02  0.51100000000E-03 0.  1.
    9900012    2    1    2    0    0  0.14283867173E+02  0.38056706148E+02 -0.90949097394E+00  0.50528820003E+02  0.29999878880E+02 0.  0.
         12    1    1    2    0    0 -0.14283867173E+02 -0.38056706148E+02  0.90949097394E+00  0.40659179997E+02  0.00000000000E+00 0. -1.
         11    1    3    3    0    0 -0.14992001714E+01  0.67552927109E+00 -0.16013639579E+01  0.22952794464E+01  0.51100000000E-03 0. -1.
        -11    1    3    3    0    0  0.98893350558E+00  0.23943845635E+02 -0.95249425494E+01  0.25787792928E+02  0.51100000000E-03 0.  1.
        -12    1    3    3    0    0  0.14794133839E+02  0.13437331242E+02  0.10216815533E+02  0.22445747628E+02  0.00000000000E+00 0.  1.
</event>
<event>
 7    1  0.2450552E-011  0.5052884E+02  0.7816164E-02  0.1300439E+00
        -11   -1    0    0    0    0  0.00000000000E+00  0.00000000000E+00  0.45593999997E+02  0.45594000000E+02  0.51100000000E-03 0.  1.
         11   -1    0    0    0    0 -0.00000000000E+00 -0.00000000000E+00 -0.45593999997E+02  0.45594000000E+02  0.51100000000E-03 0. -1.
    9900012    2    1    2    0    0  0.21903323380E+02 -0.17766339299E+02  0.29287686398E+02  0.50528844060E+02  0.29999952005E+02 0.  0.
         12    1    1    2    0    0 -0.21903323380E+02  0.17766339299E+02 -0.29287686398E+02  0.40659155940E+02  0.00000000000E+00 0. -1.
         11    1    3    3    0    0  0.44555258560E+01  0.21309590507E+01 -0.41793741368E+01  0.64699200587E+01  0.51100000000E-03 0. -1.
        -11    1    3    3    0    0  0.45393516885E+01 -0.57081394131E+00  0.10169352075E+02  0.11151110447E+02  0.51100000000E-03 0.  1.
        -12    1    3    3    0    0  0.12908445836E+02 -0.19326484408E+02  0.23297708460E+02  0.32907813555E+02  0.00000000000E+00 0.  1.
</event>
<event>
 7    1  0.2450552E-011  0.5052885E+02  0.7816164E-02  0.1300439E+00
        -11   -1    0    0    0    0  0.00000000000E+00  0.00000000000E+00  0.45593999997E+02  0.45594000000E+02  0.51100000000E-03 0.  1.
         11   -1    0    0    0    0 -0.00000000000E+00 -0.00000000000E+00 -0.45593999997E+02  0.45594000000E+02  0.51100000000E-03 0. -1.
    9900012    2    1    2    0    0  0.67392745573E+01  0.33842019421E+02  0.21505035085E+02  0.50528848090E+02  0.29999964254E+02 0.  0.
         12    1    1    2    0    0 -0.67392745573E+01 -0.33842019421E+02 -0.21505035085E+02  0.40659151910E+02  0.00000000000E+00 0. -1.
         11    1    3    3    0    0  0.49577370373E+01  0.38271523197E+01  0.26072393347E+01  0.67840952690E+01  0.51100000000E-03 0. -1.
        -11    1    3    3    0    0  0.34994163234E+01  0.21574387781E+02  0.24986318130E+02  0.33196629599E+02  0.51100000000E-03 0.  1.
         12    1    3    3    0    0 -0.17178788033E+01  0.84404793203E+01 -0.60885223805E+01  0.10548123222E+02  0.00000000000E+00 0. -1.
</event>
<event>
 7    1  0.2450552E-011  0.5052889E+02  0.7816164E-02  0.1300439E+00
        -11   -1    0    0    0    0  0.00000000000E+00  0.00000000000E+00  0.45593999997E+02  0.45594000000E+02  0.51100000000E-03 0. -1.
         11   -1    0    0    0    0 -0.00000000000E+00 -0.00000000000E+00 -0.45593999997E+02  0.45594000000E+02  0.51100000000E-03 0.  1.
    9900012    2    1    2    0    0  0.34375137900E+02 -0.13869327490E+02 -0.16707932083E+02  0.50528888535E+02  0.30000087191E+02 0.  0.
         12    1    1    2    0    0 -0.34375137900E+02  0.13869327490E+02  0.16707932083E+02  0.40659111465E+02  0.00000000000E+00 0. -1.
         11    1    3    3    0    0  0.28418492807E+02 -0.17721354732E+02 -0.57165529126E+01  0.33975522430E+02  0.51100000000E-03 0. -1.
        -11    1    3    3    0    0 -0.15424224284E+01 -0.20173549827E+01 -0.40062731683E+01  0.47433124537E+01  0.51100000000E-03 0.  1.
        -12    1    3    3    0    0  0.74990675214E+01  0.58693822249E+01 -0.69851060020E+01  0.11810053651E+02  0.00000000000E+00 0.  1.
</event>
<event>
 7    1  0.2450552E-011  0.5052898E+02  0.7816164E-02  0.1300438E+00
        -11   -1    0    0    0    0  0.00000000000E+00  0.00000000000E+00  0.45593999997E+02  0.45594000000E+02  0.51100000000E-03 0.  1.
         11   -1    0    0    0    0 -0.00000000000E+00 -0.00000000000E+00 -0.45593999997E+02  0.45594000000E+02  0.51100000000E-03 0. -1.
    9900012    2    1    2    0    0 -0.11997433332E+01 -0.36873423497E+02  0.17089982059E+02  0.50528976017E+02  0.30000353098E+02 0.  0.
         12    1    1    2    0    0  0.11997433332E+01  0.36873423497E+02 -0.17089982059E+02  0.40659023983E+02  0.00000000000E+00 0. -1.
         11    1    3    3    0    0 -0.19468910358E+00 -0.11760119829E+02  0.36704509678E+01  0.12321141701E+02  0.51100000000E-03 0. -1.
        -11    1    3    3    0    0  0.26160269646E+00 -0.25734181056E+01  0.15334665859E+02  0.15551298788E+02  0.51100000000E-03 0.  1.
         12    1    3    3    0    0 -0.12666569261E+01 -0.22539885563E+02 -0.19151347678E+01  0.22656535528E+02  0.00000000000E+00 0. -1.
</event>
<event>
 7    1  0.2450552E-011  0.5052883E+02  0.7816164E-02  0.1300439E+00
        -11   -1    0    0    0    0  0.00000000000E+00  0.00000000000E+00  0.45593999997E+02  0.45594000000E+02  0.51100000000E-03 0.  1.
         11   -1    0    0    0    0 -0.00000000000E+00 -0.00000000000E+00 -0.45593999997E+02  0.45594000000E+02  0.51100000000E-03 0. -1.
    9900012    2    1    2    0    0 -0.42032716104E+00 -0.35324867130E+02  0.20128215199E+02  0.50528831787E+02  0.29999914701E+02 0.  0.
         12    1    1    2    0    0  0.42032716104E+00  0.35324867130E+02 -0.20128215199E+02  0.40659168213E+02  0.00000000000E+00 0. -1.
         11    1    3    3    0    0 -0.18360429952E+01 -0.58454752176E+01  0.92481910143E+00  0.61964445476E+01  0.51100000000E-03 0. -1.
        -11    1    3    3    0    0 -0.30388583089E+01  0.11571042723E+01  0.12153765825E+02  0.12581238973E+02  0.51100000000E-03 0.  1.
        -12    1    3    3    0    0  0.44545741431E+01 -0.30636496184E+02  0.70496302729E+01  0.31751148266E+02  0.00000000000E+00 0.  1.
</event>
<event>
 7    1  0.2450552E-011  0.5052886E+02  0.7816164E-02  0.1300439E+00
        -11   -1    0    0    0    0  0.00000000000E+00  0.00000000000E+00  0.45593999997E+02  0.45594000000E+02  0.51100000000E-03 0.  1.
         11   -1    0    0    0    0 -0.00000000000E+00 -0.00000000000E+00 -0.45593999997E+02  0.45594000000E+02  0.51100000000E-03 0. -1.
    9900012    2    1    2    0    0 -0.39899060825E+02  0.76021901959E+00  0.77880036733E+01  0.50528856023E+02  0.29999988369E+02 0.  0.
         12    1    1    2    0    0  0.39899060825E+02 -0.76021901959E+00 -0.77880036733E+01  0.40659143977E+02  0.00000000000E+00 0. -1.
         11    1    3    3    0    0 -0.46575213415E+01 -0.41583011441E+01  0.13650704490E+01  0.63911963703E+01  0.51100000000E-03 0. -1.
        -11    1    3    3    0    0  0.27650232885E+01  0.48676599526E+01  0.36872044639E-01  0.55982878640E+01  0.51100000000E-03 0.  1.
        -12    1    3    3    0    0 -0.38006562772E+02  0.50860211132E-01  0.63860611797E+01  0.38539371789E+02  0.00000000000E+00 0.  1.
</event>
<event>
 7    1  0.2450552E-011  0.5052886E+02  0.7816164E-02  0.1300439E+00
        -11   -1    0    0    0    0  0.00000000000E+00  0.00000000000E+00  0.45593999997E+02  0.45594000000E+02  0.51100000000E-03 0.  1.
         11   -1    0    0    0    0 -0.00000000000E+00 -0.00000000000E+00 -0.45593999997E+02  0.45594000000E+02  0.51100000000E-03 0. -1.
    9900012    2    1    2    0    0 -0.11752088172E+02 -0.23386063559E+02  0.31115045697E+02  0.50528860635E+02  0.30000002385E+02 0.  0.
         12    1    1    2    0    0  0.11752088172E+02  0.23386063559E+02 -0.31115045697E+02  0.40659139365E+02  0.00000000000E+00 0. -1.
         11    1    3    3    0    0 -0.15602843697E+02 -0.49420133542E+01  0.16595362610E+02  0.23308330868E+02  0.51100000000E-03 0. -1.
        -11    1    3    3    0    0 -0.30280395908E+01 -0.13005641905E+02  0.12345913971E+02  0.18186185338E+02  0.51100000000E-03 0.  1.
         12    1    3    3    0    0  0.68787951154E+01 -0.54384083006E+01  0.21737691159E+01  0.90343444285E+01  0.00000000000E+00 0. -1.
</event>
<event>
 7    1  0.2450552E-011  0.5052886E+02  0.7816164E-02  0.1300439E+00
        -11   -1    0    0    0    0  0.00000000000E+00  0.00000000000E+00  0.45593999997E+02  0.45594000000E+02  0.51100000000E-03 0. -1.
         11   -1    0    0    0    0 -0.00000000000E+00 -0.00000000000E+00 -0.45593999997E+02  0.45594000000E+02  0.51100000000E-03 0.  1.
    9900012    2    1    2    0    0  0.35223953803E+02  0.91832528799E+01  0.18113703225E+02  0.50528864502E+02  0.30000014140E+02 0.  0.
         12    1    1    2    0    0 -0.35223953803E+02 -0.91832528799E+01 -0.18113703225E+02  0.40659135498E+02  0.00000000000E+00 0. -1.
         11    1    3    3    0    0 -0.22862483153E+01  0.50625891897E+00 -0.38022197540E-01  0.23419383854E+01  0.51100000000E-03 0. -1.
        -11    1    3    3    0    0  0.16784829020E+02  0.12565930134E+02  0.17129732033E+02  0.27075095662E+02  0.51100000000E-03 0.  1.
        -12    1    3    3    0    0  0.20725373099E+02 -0.38889361727E+01  0.10219933889E+01  0.21111830454E+02  0.00000000000E+00 0.  1.
</event>
<event>
 7    1  0.2450552E-011  0.5052886E+02  0.7816164E-02  0.1300439E+00
        -11   -1    0    0    0    0  0.00000000000E+00  0.00000000000E+00  0.45593999997E+02  0.45594000000E+02  0.51100000000E-03 0.  1.
         11   -1    0    0    0    0 -0.00000000000E+00 -0.00000000000E+00 -0.45593999997E+02  0.45594000000E+02  0.51100000000E-03 0. -1.
    9900012    2    1    2    0    0 -0.60149349971E+01  0.40075965216E+02  0.33019889949E+01  0.50528861269E+02  0.30000004312E+02 0.  0.
         12    1    1    2    0    0  0.60149349971E+01 -0.40075965216E+02 -0.33019889949E+01  0.40659138731E+02  0.00000000000E+00 0. -1.
         11    1    3    3    0    0  0.84291278132E+01  0.17199915166E+02 -0.11873548090E+01  0.19191067951E+02  0.51100000000E-03 0. -1.
        -11    1    3    3    0    0 -0.38214817959E+01  0.88671289275E+01 -0.55050207558E+01  0.11114627853E+02  0.51100000000E-03 0.  1.
        -12    1    3    3    0    0 -0.10622581014E+02  0.14008921123E+02  0.99943645598E+01  0.20223165464E+02  0.00000000000E+00 0.  1.
</event>
<event>
 7    1  0.2450552E-011  0.5052886E+02  0.7816164E-02  0.1300439E+00
        -11   -1    0    0    0    0  0.00000000000E+00  0.00000000000E+00  0.45593999997E+02  0.45594000000E+02  0.51100000000E-03 0.  1.
         11   -1    0    0    0    0 -0.00000000000E+00 -0.00000000000E+00 -0.45593999997E+02  0.45594000000E+02  0.51100000000E-03 0. -1.
    9900012    2    1    2    0    0  0.28771250596E+02 -0.12468814463E+02  0.25882611624E+02  0.50528858600E+02  0.29999996199E+02 0.  0.
         12    1    1    2    0    0 -0.28771250596E+02  0.12468814463E+02 -0.25882611624E+02  0.40659141400E+02  0.00000000000E+00 0. -1.
         11    1    3    3    0    0  0.12214472613E+02 -0.19281315495E+02  0.11313705516E+02  0.25474740454E+02  0.51100000000E-03 0. -1.
        -11    1    3    3    0    0  0.86217121142E+01 -0.48578205672E+00  0.27637476022E+01  0.90668740510E+01  0.51100000000E-03 0.  1.
        -12    1    3    3    0    0  0.79350658693E+01  0.72982830892E+01  0.11805158506E+02  0.15987244095E+02  0.00000000000E+00 0.  1.
</event>
<event>
 7    1  0.2450552E-011  0.5052886E+02  0.7816164E-02  0.1300439E+00
        -11   -1    0    0    0    0  0.00000000000E+00  0.00000000000E+00  0.45593999997E+02  0.45594000000E+02  0.51100000000E-03 0.  1.
         11   -1    0    0    0    0 -0.00000000000E+00 -0.00000000000E+00 -0.45593999997E+02  0.45594000000E+02  0.51100000000E-03 0. -1.
    9900012    2    1    2    0    0 -0.27428815991E+02 -0.11782835777E+01  0.29990627811E+02  0.50528855207E+02  0.29999985887E+02 0.  0.
         12    1    1    2    0    0  0.27428815991E+02  0.11782835777E+01 -0.29990627811E+02  0.40659144793E+02  0.00000000000E+00 0. -1.
         11    1    3    3    0    0  0.15145592199E+01 -0.33899401266E+00  0.18048512907E+01  0.23803980789E+01  0.51100000000E-03 0.  1.
        -11    1    3    3    0    0 -0.22086354084E+02  0.88439890133E+01  0.27355873422E+02  0.36254199610E+02  0.51100000000E-03 0. -1.
         12    1    3    3    0    0 -0.68570211264E+01 -0.96832785783E+01  0.82990309769E+00  0.11894257518E+02  0.00000000000E+00 0. -1.
</event>
<event>
 7    1  0.2450552E-011  0.5052883E+02  0.7816164E-02  0.1300439E+00
        -11   -1    0    0    0    0  0.00000000000E+00  0.00000000000E+00  0.45593999997E+02  0.45594000000E+02  0.51100000000E-03 0. -1.
         11   -1    0    0    0    0 -0.00000000000E+00 -0.00000000000E+00 -0.45593999997E+02  0.45594000000E+02  0.51100000000E-03 0.  1.
    9900012    2    1    2    0    0 -0.31989443916E+02  0.13831395612E+02 -0.20941247371E+02  0.50528832915E+02  0.29999918128E+02 0.  0.
         12    1    1    2    0    0  0.31989443916E+02 -0.13831395612E+02  0.20941247371E+02  0.40659167085E+02  0.00000000000E+00 0. -1.
         11    1    3    3    0    0 -0.12399706409E+02  0.76523648247E+01 -0.19995765893E+01  0.14707471340E+02  0.51100000000E-03 0.  1.
        -11    1    3    3    0    0 -0.23175944045E+02 -0.74249751968E-02 -0.13367651760E+02  0.26754785579E+02  0.51100000000E-03 0. -1.
         12    1    3    3    0    0  0.35862065383E+01  0.61864557627E+01 -0.55740190212E+01  0.90665759959E+01  0.00000000000E+00 0. -1.
</event>
<event>
 7    1  0.2450552E-011  0.5052887E+02  0.7816164E-02  0.1300439E+00
        -11   -1    0    0    0    0  0.00000000000E+00  0.00000000000E+00  0.45593999997E+02  0.45594000000E+02  0.51100000000E-03 0.  1.
         11   -1    0    0    0    0 -0.00000000000E+00 -0.00000000000E+00 -0.45593999997E+02  0.45594000000E+02  0.51100000000E-03 0. -1.
    9900012    2    1    2    0    0 -0.37937639927E+02 -0.14625312148E+02 -0.23353972058E-01  0.50528870348E+02  0.30000031909E+02 0.  0.
         12    1    1    2    0    0  0.37937639927E+02  0.14625312148E+02  0.23353972058E-01  0.40659129652E+02  0.00000000000E+00 0. -1.
         11    1    3    3    0    0 -0.14641032953E+02  0.41482989908E+00 -0.65676449565E+01  0.16051974654E+02  0.51100000000E-03 0. -1.
        -11    1    3    3    0    0  0.17390816424E+01  0.22338276208E+01 -0.12234175645E+01  0.30840138775E+01  0.51100000000E-03 0.  1.
        -12    1    3    3    0    0 -0.25035688617E+02 -0.17273969668E+02  0.77677085489E+01  0.31392881816E+02  0.00000000000E+00 0.  1.
</event>
<event>
 7    1  0.2450552E-011  0.5052886E+02  0.7816164E-02  0.1300439E+00
        -11   -1    0    0    0    0  0.00000000000E+00  0.00000000000E+00  0.45593999997E+02  0.45594000000E+02  0.51100000000E-03 0. -1.
         11   -1    0    0    0    0 -0.00000000000E+00 -0.00000000000E+00 -0.45593999997E+02  0.45594000000E+02  0.51100000000E-03 0.  1.
    9900012    2    1    2    0    0  0.25501132837E+02 -0.21562018320E+02 -0.23193473516E+02  0.50528860514E+02  0.30000002018E+02 0.  0.
         12    1    1    2    0    0 -0.25501132837E+02  0.21562018320E+02  0.23193473516E+02  0.40659139486E+02  0.00000000000E+00 0. -1.
         11    1    3    3    0    0  0.16174655259E+02 -0.65319982317E+01 -0.16844058036E+02  0.24248892037E+02  0.51100000000E-03 0. -1.
        -11    1    3    3    0    0  0.13978125781E+02 -0.71713813480E+01 -0.11053478164E+01  0.15749238230E+02  0.51100000000E-03 0.  1.
        -12    1    3    3    0    0 -0.46516482031E+01 -0.78586387406E+01 -0.52440676635E+01  0.10530730246E+02  0.00000000000E+00 0.  1.
</event>
<event>
 7    1  0.2450552E-011  0.5052887E+02  0.7816164E-02  0.1300439E+00
        -11   -1    0    0    0    0  0.00000000000E+00  0.00000000000E+00  0.45593999997E+02  0.45594000000E+02  0.51100000000E-03 0.  1.
         11   -1    0    0    0    0 -0.00000000000E+00 -0.00000000000E+00 -0.45593999997E+02  0.45594000000E+02  0.51100000000E-03 0. -1.
    9900012    2    1    2    0    0 -0.25045689014E+02 -0.14809059296E+02  0.28400177505E+02  0.50528869934E+02  0.30000030651E+02 0.  0.
         12    1    1    2    0    0  0.25045689014E+02  0.14809059296E+02 -0.28400177505E+02  0.40659130066E+02  0.00000000000E+00 0. -1.
         11    1    3    3    0    0  0.23576884051E+01  0.27721046765E+01  0.56754418607E+01  0.67419507213E+01  0.51100000000E-03 0. -1.
        -11    1    3    3    0    0 -0.12793200035E+02 -0.48249838784E+00  0.15630183630E+02  0.20203994961E+02  0.51100000000E-03 0.  1.
        -12    1    3    3    0    0 -0.14610177384E+02 -0.17098665585E+02  0.70945520146E+01  0.23582924252E+02  0.00000000000E+00 0.  1.
</event>
<event>
 7    1  0.2450552E-011  0.5052887E+02  0.7816164E-02  0.1300439E+00
        -11   -1    0    0    0    0  0.00000000000E+00  0.00000000000E+00  0.45593999997E+02  0.45594000000E+02  0.51100000000E-03 0.  1.
         11   -1    0    0    0    0 -0.00000000000E+00 -0.00000000000E+00 -0.45593999997E+02  0.45594000000E+02  0.51100000000E-03 0. -1.
    9900012    2    1    2    0    0  0.34431356642E+02 -0.12718174474E+01  0.21587711971E+02  0.50528866364E+02  0.30000019801E+02 0.  0.
         12    1    1    2    0    0 -0.34431356642E+02  0.12718174474E+01 -0.21587711971E+02  0.40659133636E+02  0.00000000000E+00 0. -1.
         11    1    3    3    0    0  0.41547309811E+01 -0.10537878881E+02  0.60683315164E+01  0.12850421335E+02  0.51100000000E-03 0. -1.
        -11    1    3    3    0    0  0.86561036235E+01  0.19314746697E+01 -0.17650389710E+01  0.90429025855E+01  0.51100000000E-03 0.  1.
         12    1    3    3    0    0  0.21620522038E+02  0.73345867637E+01  0.17284419426E+02  0.28635542444E+02  0.00000000000E+00 0. -1.
</event>
<event>
 7    1  0.2450552E-011  0.5052885E+02  0.7816164E-02  0.1300439E+00
        -11   -1    0    0    0    0  0.00000000000E+00  0.00000000000E+00  0.45593999997E+02  0.45594000000E+02  0.51100000000E-03 0.  1.
         11   -1    0    0    0    0 -0.00000000000E+00 -0.00000000000E+00 -0.45593999997E+02  0.45594000000E+02  0.51100000000E-03 0. -1.
    9900012    2    1    2    0    0  0.53579254142E+01  0.39744209578E+02  0.66975254487E+01  0.50528850884E+02  0.29999972746E+02 0.  0.
         12    1    1    2    0    0 -0.53579254142E+01 -0.39744209578E+02 -0.66975254487E+01  0.40659149116E+02  0.00000000000E+00 0. -1.
         11    1    3    3    0    0  0.37561620936E+00 -0.18494605249E+01  0.62587921873E+00  0.19882949548E+01  0.51100000000E-03 0. -1.
        -11    1    3    3    0    0 -0.94125040819E+00  0.16735518898E+02  0.13941447373E+02  0.21802006794E+02  0.51100000000E-03 0.  1.
        -12    1    3    3    0    0  0.59235596130E+01  0.24858151205E+02 -0.78698011430E+01  0.26738549135E+02  0.00000000000E+00 0.  1.
</event>
<event>
 7    1  0.2450552E-011  0.5052886E+02  0.7816164E-02  0.1300439E+00
        -11   -1    0    0    0    0  0.00000000000E+00  0.00000000000E+00  0.45593999997E+02  0.45594000000E+02  0.51100000000E-03 0. -1.
         11   -1    0    0    0    0 -0.00000000000E+00 -0.00000000000E+00 -0.45593999997E+02  0.45594000000E+02  0.51100000000E-03 0.  1.
    9900012    2    1    2    0    0  0.14364772767E+02 -0.33393450056E+02 -0.18212530600E+02  0.50528862353E+02  0.30000007609E+02 0.  0.
         12    1    1    2    0    0 -0.14364772767E+02  0.33393450056E+02  0.18212530600E+02  0.40659137647E+02  0.00000000000E+00 0. -1.
         11    1    3    3    0    0  0.33149776050E+01 -0.17340591893E+01  0.26211812844E+01  0.45680005889E+01  0.51100000000E-03 0. -1.
        -11    1    3    3    0    0  0.11376574546E+02 -0.85446405093E+01 -0.17579558692E+02  0.22615884106E+02  0.51100000000E-03 0.  1.
         12    1    3    3    0    0 -0.32677938399E+00 -0.23114750358E+02 -0.32541531929E+01  0.23344977658E+02  0.00000000000E+00 0. -1.
</event>
<event>
 7    1  0.2450552E-011  0.5052886E+02  0.7816164E-02  0.1300439E+00
        -11   -1    0    0    0    0  0.00000000000E+00  0.00000000000E+00  0.45593999997E+02  0.45594000000E+02  0.51100000000E-03 0.  1.
         11   -1    0    0    0    0 -0.00000000000E+00 -0.00000000000E+00 -0.45593999997E+02  0.45594000000E+02  0.51100000000E-03 0. -1.
    9900012    2    1    2    0    0 -0.27186949766E+02 -0.29963794395E+02 -0.40257253410E+01  0.50528859864E+02  0.30000000042E+02 0.  0.
         12    1    1    2    0    0  0.27186949766E+02  0.29963794395E+02  0.40257253410E+01  0.40659140136E+02  0.00000000000E+00 0. -1.
         11    1    3    3    0    0 -0.33414253428E+01 -0.78056500815E+01 -0.10272484578E+01  0.85526917500E+01  0.51100000000E-03 0. -1.
        -11    1    3    3    0    0 -0.22530881654E+02 -0.13251050263E+02  0.83958034297E+01  0.27453970144E+02  0.51100000000E-03 0.  1.
         12    1    3    3    0    0 -0.13146427691E+01 -0.89070940505E+01 -0.11394280313E+02  0.14522197970E+02  0.00000000000E+00 0. -1.
</event>
<event>
 7    1  0.2450552E-011  0.5052882E+02  0.7816164E-02  0.1300439E+00
        -11   -1    0    0    0    0  0.00000000000E+00  0.00000000000E+00  0.45593999997E+02  0.45594000000E+02  0.51100000000E-03 0. -1.
         11   -1    0    0    0    0 -0.00000000000E+00 -0.00000000000E+00 -0.45593999997E+02  0.45594000000E+02  0.51100000000E-03 0.  1.
    9900012    2    1    2    0    0  0.38302361752E+01  0.34857121166E+02  0.20578612265E+02  0.50528820374E+02  0.29999880007E+02 0.  0.
         12    1    1    2    0    0 -0.38302361752E+01 -0.34857121166E+02 -0.20578612265E+02  0.40659179626E+02  0.00000000000E+00 0. -1.
         11    1    3    3    0    0  0.66443046649E+01  0.85472839262E+01  0.28633789692E+01  0.11198293905E+02  0.51100000000E-03 0. -1.
        -11    1    3    3    0    0 -0.90945521098E+01  0.26183147276E+02  0.10198090669E+02  0.29534202764E+02  0.51100000000E-03 0.  1.
         12    1    3    3    0    0  0.62804836202E+01  0.12668996344E+00  0.75171426272E+01  0.97963237047E+01  0.00000000000E+00 0. -1.
</event>
<event>
 7    1  0.2450552E-011  0.5052885E+02  0.7816164E-02  0.1300439E+00
        -11   -1    0    0    0    0  0.00000000000E+00  0.00000000000E+00  0.45593999997E+02  0.45594000000E+02  0.51100000000E-03 0.  1.
         11   -1    0    0    0    0 -0.00000000000E+00 -0.00000000000E+00 -0.45593999997E+02  0.45594000000E+02  0.51100000000E-03 0. -1.
    9900012    2    1    2    0    0  0.24785144752E+02  0.23998157245E+02  0.21516302806E+02  0.50528852961E+02  0.29999979059E+02 0.  0.
         12    1    1    2    0    0 -0.24785144752E+02 -0.23998157245E+02 -0.21516302806E+02  0.40659147039E+02  0.00000000000E+00 0. -1.
         11    1    3    3    0    0  0.27692021556E+01  0.69116470077E+01 -0.35002615391E+01  0.82274647396E+01  0.51100000000E-03 0. -1.
        -11    1    3    3    0    0  0.24201361148E+02  0.16279000287E+02  0.16582240216E+02  0.33551191076E+02  0.51100000000E-03 0.  1.
         12    1    3    3    0    0 -0.21854185514E+01  0.80750995025E+00  0.84343241294E+01  0.87501971454E+01  0.00000000000E+00 0. -1.
</event>
<event>
 7    1  0.2450552E-011  0.5052888E+02  0.7816164E-02  0.1300439E+00
        -11   -1    0    0    0    0  0.00000000000E+00  0.00000000000E+00  0.45593999997E+02  0.45594000000E+02  0.51100000000E-03 0.  1.
         11   -1    0    0    0    0 -0.00000000000E+00 -0.00000000000E+00 -0.45593999997E+02  0.45594000000E+02  0.51100000000E-03 0. -1.
    9900012    2    1    2    0    0  0.23507897134E+02 -0.33169723942E+02  0.55856193186E+00  0.50528882873E+02  0.30000069982E+02 0.  0.
         12    1    1    2    0    0 -0.23507897134E+02  0.33169723942E+02 -0.55856193186E+00  0.40659117127E+02  0.00000000000E+00 0. -1.
         11    1    3    3    0    0  0.98782099008E+01 -0.12177962040E+01 -0.50997020889E+01  0.11183426134E+02  0.51100000000E-03 0. -1.
        -11    1    3    3    0    0  0.68833834775E+01 -0.21539555118E+02 -0.48026409248E+01  0.23117066486E+02  0.51100000000E-03 0.  1.
        -12    1    3    3    0    0  0.67463037558E+01 -0.10412372620E+02  0.10460904946E+02  0.16228390254E+02  0.00000000000E+00 0.  1.
</event>
<event>
 7    1  0.2450552E-011  0.5052886E+02  0.7816164E-02  0.1300439E+00
        -11   -1    0    0    0    0  0.00000000000E+00  0.00000000000E+00  0.45593999997E+02  0.45594000000E+02  0.51100000000E-03 0.  1.
         11   -1    0    0    0    0 -0.00000000000E+00 -0.00000000000E+00 -0.45593999997E+02  0.45594000000E+02  0.51100000000E-03 0. -1.
    9900012    2    1    2    0    0 -0.96383048312E+01 -0.34928296557E+02  0.18446753748E+02  0.50528861492E+02  0.30000004991E+02 0.  0.
         12    1    1    2    0    0  0.96383048312E+01  0.34928296557E+02 -0.18446753748E+02  0.40659138508E+02  0.00000000000E+00 0. -1.
         11    1    3    3    0    0 -0.13361992576E+01  0.23342634840E+01  0.11689061645E+01  0.29326705153E+01  0.51100000000E-03 0. -1.
        -11    1    3    3    0    0 -0.12342987115E+02 -0.22806465444E+02  0.19468486935E+02  0.32426936037E+02  0.51100000000E-03 0.  1.
         12    1    3    3    0    0  0.40408815417E+01 -0.14456094597E+02 -0.21906393520E+01  0.15169254939E+02  0.00000000000E+00 0. -1.
</event>
<event>
 7    1  0.2450552E-011  0.5052885E+02  0.7816164E-02  0.1300439E+00
        -11   -1    0    0    0    0  0.00000000000E+00  0.00000000000E+00  0.45593999997E+02  0.45594000000E+02  0.51100000000E-03 0.  1.
         11   -1    0    0    0    0 -0.00000000000E+00 -0.00000000000E+00 -0.45593999997E+02  0.45594000000E+02  0.51100000000E-03 0. -1.
    9900012    2    1    2    0    0 -0.23819014434E+02 -0.27545200950E+02  0.18085424002E+02  0.50528854592E+02  0.29999984017E+02 0.  0.
         12    1    1    2    0    0  0.23819014434E+02  0.27545200950E+02 -0.18085424002E+02  0.40659145408E+02  0.00000000000E+00 0. -1.
         11    1    3    3    0    0 -0.22975262347E+02 -0.12946216808E+02  0.11129201979E+02  0.28623877209E+02  0.51100000000E-03 0. -1.
        -11    1    3    3    0    0 -0.62989361901E+01 -0.72124274250E+01 -0.11649139296E+01  0.96463843596E+01  0.51100000000E-03 0.  1.
         12    1    3    3    0    0  0.54551841029E+01 -0.73865567175E+01  0.81211359528E+01  0.12258593023E+02  0.00000000000E+00 0. -1.
</event>
<event>
 7    1  0.2450552E-011  0.5052886E+02  0.7816164E-02  0.1300439E+00
        -11   -1    0    0    0    0  0.00000000000E+00  0.00000000000E+00  0.45593999997E+02  0.45594000000E+02  0.51100000000E-03 0.  1.
         11   -1    0    0    0    0 -0.00000000000E+00 -0.00000000000E+00 -0.45593999997E+02  0.45594000000E+02  0.51100000000E-03 0. -1.
    9900012    2    1    2    0    0  0.21097768127E+02  0.36954216654E+01  0.34560005362E+02  0.50528856725E+02  0.29999990500E+02 0.  0.
         12    1    1    2    0    0 -0.21097768127E+02 -0.36954216654E+01 -0.34560005362E+02  0.40659143275E+02  0.00000000000E+00 0. -1.
         11    1    3    3    0    0  0.46724885309E+01 -0.49804214421E+00  0.15436204813E+02  0.16135569848E+02  0.51100000000E-03 0. -1.
        -11    1    3    3    0    0 -0.28013171966E+01 -0.59463512231E+01  0.25158501238E+01  0.70381796660E+01  0.51100000000E-03 0.  1.
         12    1    3    3    0    0  0.19226596793E+02  0.10139815033E+02  0.16607950426E+02  0.27355107210E+02  0.00000000000E+00 0. -1.
</event>
<event>
 7    1  0.2450552E-011  0.5052888E+02  0.7816164E-02  0.1300439E+00
        -11   -1    0    0    0    0  0.00000000000E+00  0.00000000000E+00  0.45593999997E+02  0.45594000000E+02  0.51100000000E-03 0. -1.
         11   -1    0    0    0    0 -0.00000000000E+00 -0.00000000000E+00 -0.45593999997E+02  0.45594000000E+02  0.51100000000E-03 0.  1.
    9900012    2    1    2    0    0  0.10491609444E+02 -0.36492041499E+02 -0.14540321740E+02  0.50528881493E+02  0.30000065786E+02 0.  0.
         12    1    1    2    0    0 -0.10491609444E+02  0.36492041499E+02  0.14540321740E+02  0.40659118507E+02  0.00000000000E+00 0. -1.
         11    1    3    3    0    0  0.87535298645E+00  0.15298413842E+01 -0.35298676725E+01  0.39454560646E+01  0.51100000000E-03 0. -1.
        -11    1    3    3    0    0  0.13568345685E+02 -0.14479275498E+02 -0.11047947503E+02  0.22711375296E+02  0.51100000000E-03 0.  1.
         12    1    3    3    0    0 -0.39520892268E+01 -0.23542607385E+02  0.37493436297E-01  0.23872050132E+02  0.00000000000E+00 0. -1.
</event>
<event>
 7    1  0.2450552E-011  0.5052885E+02  0.7816164E-02  0.1300439E+00
        -11   -1    0    0    0    0  0.00000000000E+00  0.00000000000E+00  0.45593999997E+02  0.45594000000E+02  0.51100000000E-03 0.  1.
         11   -1    0    0    0    0 -0.00000000000E+00 -0.00000000000E+00 -0.45593999997E+02  0.45594000000E+02  0.51100000000E-03 0. -1.
    9900012    2    1    2    0    0  0.15572101212E+02  0.22171239514E+02  0.30316861666E+02  0.50528852210E+02  0.29999976777E+02 0.  0.
         12    1    1    2    0    0 -0.15572101212E+02 -0.22171239514E+02 -0.30316861666E+02  0.40659147790E+02  0.00000000000E+00 0. -1.
         11    1    3    3    0    0  0.28614940035E+01 -0.14598234554E+01  0.29657064330E+01  0.43720301189E+01  0.51100000000E-03 0. -1.
        -11    1    3    3    0    0  0.17752044677E+02  0.17952805702E+02  0.98889897447E+01  0.27115133067E+02  0.51100000000E-03 0.  1.
        -12    1    3    3    0    0 -0.50414374685E+01  0.56782572673E+01  0.17462165489E+02  0.19041689024E+02  0.00000000000E+00 0.  1.
</event>
<event>
 7    1  0.2450552E-011  0.5052887E+02  0.7816164E-02  0.1300439E+00
        -11   -1    0    0    0    0  0.00000000000E+00  0.00000000000E+00  0.45593999997E+02  0.45594000000E+02  0.51100000000E-03 0.  1.
         11   -1    0    0    0    0 -0.00000000000E+00 -0.00000000000E+00 -0.45593999997E+02  0.45594000000E+02  0.51100000000E-03 0. -1.
    9900012    2    1    2    0    0  0.30817674939E+01 -0.40379164028E+02  0.36319510084E+01  0.50528865151E+02  0.30000016114E+02 0.  0.
         12    1    1    2    0    0 -0.30817674939E+01  0.40379164028E+02 -0.36319510084E+01  0.40659134849E+02  0.00000000000E+00 0. -1.
         11    1    3    3    0    0  0.35060179111E+00 -0.82345506738E+00 -0.35618907756E+01  0.36726102465E+01  0.51100000000E-03 0. -1.
        -11    1    3    3    0    0 -0.98462343156E+01 -0.11290927947E+02  0.51897637922E+01  0.15854558732E+02  0.51100000000E-03 0.  1.
         12    1    3    3    0    0  0.12577400018E+02 -0.28264781014E+02  0.20040779918E+01  0.31001696173E+02  0.00000000000E+00 0. -1.
</event>
<event>
 7    1  0.2450552E-011  0.5052886E+02  0.7816164E-02  0.1300439E+00
        -11   -1    0    0    0    0  0.00000000000E+00  0.00000000000E+00  0.45593999997E+02  0.45594000000E+02  0.51100000000E-03 0.  1.
         11   -1    0    0    0    0 -0.00000000000E+00 -0.00000000000E+00 -0.45593999997E+02  0.45594000000E+02  0.51100000000E-03 0. -1.
    9900012    2    1    2    0    0 -0.11124697973E+02 -0.23503553093E+02  0.31256831570E+02  0.50528862862E+02  0.30000009156E+02 0.  0.
         12    1    1    2    0    0  0.11124697973E+02  0.23503553093E+02 -0.31256831570E+02  0.40659137138E+02  0.00000000000E+00 0. -1.
         11    1    3    3    0    0 -0.10640949144E+00 -0.13726282567E+01  0.10721681756E+02  0.10809712820E+02  0.51100000000E-03 0. -1.
        -11    1    3    3    0    0  0.13054638512E+01  0.34723449936E+01 -0.12495841689E+01  0.39144445938E+01  0.51100000000E-03 0.  1.
         12    1    3    3    0    0 -0.12323752332E+02 -0.25603269830E+02  0.21784733983E+02  0.35804705448E+02  0.00000000000E+00 0. -1.
</event>
<event>
 7    1  0.2450552E-011  0.5052886E+02  0.7816164E-02  0.1300439E+00
        -11   -1    0    0    0    0  0.00000000000E+00  0.00000000000E+00  0.45593999997E+02  0.45594000000E+02  0.51100000000E-03 0.  1.
         11   -1    0    0    0    0 -0.00000000000E+00 -0.00000000000E+00 -0.45593999997E+02  0.45594000000E+02  0.51100000000E-03 0. -1.
    9900012    2    1    2    0    0  0.28343940603E+02  0.27425622235E+02  0.98803703341E+01  0.50528862751E+02  0.30000008819E+02 0.  0.
         12    1    1    2    0    0 -0.28343940603E+02 -0.27425622235E+02 -0.98803703341E+01  0.40659137249E+02  0.00000000000E+00 0. -1.
         11    1    3    3    0    0 -0.17148815010E+00  0.14117128603E+02  0.19548892659E+00  0.14119523518E+02  0.51100000000E-03 0. -1.
        -11    1    3    3    0    0  0.13640190504E+02  0.32032296160E+01 -0.30933761150E+01  0.14348674259E+02  0.51100000000E-03 0.  1.
        -12    1    3    3    0    0  0.14875238249E+02  0.10105264015E+02  0.12778257522E+02  0.22060664974E+02  0.00000000000E+00 0.  1.
</event>
<event>
 7    1  0.2618493E-011  0.5052886E+02  0.7816164E-02  0.1300439E+00
        -11   -1    0    0    0    0  0.00000000000E+00  0.00000000000E+00  0.45593999997E+02  0.45594000000E+02  0.51100000000E-03 0.  1.
         11   -1    0    0    0    0 -0.00000000000E+00 -0.00000000000E+00 -0.45593999997E+02  0.45594000000E+02  0.51100000000E-03 0. -1.
    9900012    2    1    2    0    0 -0.39200637745E+02  0.44797812560E+01  0.98186990194E+01  0.50528864616E+02  0.30000014488E+02 0.  0.
         12    1    1    2    0    0  0.39200637745E+02 -0.44797812560E+01 -0.98186990194E+01  0.40659135384E+02  0.00000000000E+00 0. -1.
         11    1    3    3    0    0 -0.53989900302E+01 -0.37695212438E+01 -0.46540176727E+01  0.80633903858E+01  0.51100000000E-03 0. -1.
        -11    1    3    3    0    0 -0.17066190570E+02 -0.31404627021E+01  0.13866970865E+02  0.22212839705E+02  0.51100000000E-03 0.  1.
        -12    1    3    3    0    0 -0.16735457145E+02  0.11389765202E+02  0.60574582740E+00  0.20252634525E+02  0.00000000000E+00 0.  1.
</event>
<event>
 7    1  0.2450552E-011  0.5052885E+02  0.7816164E-02  0.1300439E+00
        -11   -1    0    0    0    0  0.00000000000E+00  0.00000000000E+00  0.45593999997E+02  0.45594000000E+02  0.51100000000E-03 0.  1.
         11   -1    0    0    0    0 -0.00000000000E+00 -0.00000000000E+00 -0.45593999997E+02  0.45594000000E+02  0.51100000000E-03 0. -1.
    9900012    2    1    2    0    0  0.88434687672E+01 -0.65746278544E+01  0.39137370519E+02  0.50528850446E+02  0.29999971417E+02 0.  0.
         12    1    1    2    0    0 -0.88434687672E+01  0.65746278544E+01 -0.39137370519E+02  0.40659149554E+02  0.00000000000E+00 0. -1.
         11    1    3    3    0    0  0.51823892483E+01  0.86009954252E+01  0.19557517796E+02  0.21984785267E+02  0.51100000000E-03 0. -1.
        -11    1    3    3    0    0  0.82043423804E+01 -0.51323517393E+01  0.79936298577E+01  0.12551907697E+02  0.51100000000E-03 0.  1.
         12    1    3    3    0    0 -0.45432628615E+01 -0.10043271540E+02  0.11586222865E+02  0.15992157483E+02  0.00000000000E+00 0. -1.
</event>
<event>
 7    1  0.2450552E-011  0.5052887E+02  0.7816164E-02  0.1300439E+00
        -11   -1    0    0    0    0  0.00000000000E+00  0.00000000000E+00  0.45593999997E+02  0.45594000000E+02  0.51100000000E-03 0.  1.
         11   -1    0    0    0    0 -0.00000000000E+00 -0.00000000000E+00 -0.45593999997E+02  0.45594000000E+02  0.51100000000E-03 0. -1.
    9900012    2    1    2    0    0  0.64421020124E+01 -0.79875509541E+00  0.40137591484E+02  0.50528868945E+02  0.30000027646E+02 0.  0.
         12    1    1    2    0    0 -0.64421020124E+01  0.79875509541E+00 -0.40137591484E+02  0.40659131055E+02  0.00000000000E+00 0. -1.
         11    1    3    3    0    0  0.12675644621E+02 -0.14997467873E+01  0.24479599528E+02  0.27607462764E+02  0.51100000000E-03 0.  1.
        -11    1    3    3    0    0  0.38157975794E+01  0.13143450907E+01 -0.30639133881E+00  0.40474300609E+01  0.51100000000E-03 0. -1.
         12    1    3    3    0    0 -0.10049340188E+02 -0.61335339884E+00  0.15964383295E+02  0.18873976120E+02  0.00000000000E+00 0. -1.
</event>
<event>
 7    1  0.2450552E-011  0.5052885E+02  0.7816164E-02  0.1300439E+00
        -11   -1    0    0    0    0  0.00000000000E+00  0.00000000000E+00  0.45593999997E+02  0.45594000000E+02  0.51100000000E-03 0.  1.
         11   -1    0    0    0    0 -0.00000000000E+00 -0.00000000000E+00 -0.45593999997E+02  0.45594000000E+02  0.51100000000E-03 0. -1.
    9900012    2    1    2    0    0  0.87265943271E+01 -0.30142280477E+02  0.25854508958E+02  0.50528853989E+02  0.29999982185E+02 0.  0.
         12    1    1    2    0    0 -0.87265943271E+01  0.30142280477E+02 -0.25854508958E+02  0.40659146011E+02  0.00000000000E+00 0. -1.
         11    1    3    3    0    0  0.44096475328E+01  0.11517988122E+01  0.10231379143E+02  0.11200569239E+02  0.51100000000E-03 0. -1.
        -11    1    3    3    0    0  0.31299816202E+01  0.79525682827E+00  0.40842021016E+01  0.52067192582E+01  0.51100000000E-03 0.  1.
        -12    1    3    3    0    0  0.11869651741E+01 -0.32089336118E+02  0.11538927714E+02  0.34121565491E+02  0.00000000000E+00 0.  1.
</event>
<event>
 7    1  0.2450552E-011  0.5052885E+02  0.7816164E-02  0.1300439E+00
        -11   -1    0    0    0    0  0.00000000000E+00  0.00000000000E+00  0.45593999997E+02  0.45594000000E+02  0.51100000000E-03 0.  1.
         11   -1    0    0    0    0 -0.00000000000E+00 -0.00000000000E+00 -0.45593999997E+02  0.45594000000E+02  0.51100000000E-03 0. -1.
    9900012    2    1    2    0    0 -0.13640752458E+02  0.91268457780E+01  0.37199417615E+02  0.50528854505E+02  0.29999983754E+02 0.  0.
         12    1    1    2    0    0  0.13640752458E+02 -0.91268457780E+01 -0.37199417615E+02  0.40659145495E+02  0.00000000000E+00 0. -1.
         11    1    3    3    0    0 -0.12602145548E+01  0.33748900207E+01 -0.39568169342E+00  0.36241671650E+01  0.51100000000E-03 0. -1.
        -11    1    3    3    0    0 -0.17886684366E+02  0.40334989291E+01  0.15316111354E+02  0.23891125099E+02  0.51100000000E-03 0.  1.
        -12    1    3    3    0    0  0.55061464633E+01  0.17184568282E+01  0.22278987954E+02  0.23013562241E+02  0.00000000000E+00 0.  1.
</event>
<event>
 7    1  0.2450552E-011  0.5052887E+02  0.7816164E-02  0.1300439E+00
        -11   -1    0    0    0    0  0.00000000000E+00  0.00000000000E+00  0.45593999997E+02  0.45594000000E+02  0.51100000000E-03 0. -1.
         11   -1    0    0    0    0 -0.00000000000E+00 -0.00000000000E+00 -0.45593999997E+02  0.45594000000E+02  0.51100000000E-03 0.  1.
    9900012    2    1    2    0    0 -0.20925631678E+02  0.15676727926E+02 -0.31137165418E+02  0.50528869047E+02  0.30000027955E+02 0.  0.
         12    1    1    2    0    0  0.20925631678E+02 -0.15676727926E+02  0.31137165418E+02  0.40659130953E+02  0.00000000000E+00 0. -1.
         11    1    3    3    0    0 -0.73530880026E+01  0.11084811158E+02 -0.26126689100E+01  0.13556068039E+02  0.51100000000E-03 0. -1.
        -11    1    3    3    0    0 -0.85075094935E+01  0.11183622821E+02 -0.23127234602E+02  0.27061413817E+02  0.51100000000E-03 0.  1.
        -12    1    3    3    0    0 -0.50650341824E+01 -0.65917060535E+01 -0.53972619061E+01  0.99113871909E+01  0.00000000000E+00 0.  1.
</event>
<event>
 7    1  0.2450552E-011  0.5052876E+02  0.7816164E-02  0.1300439E+00
        -11   -1    0    0    0    0  0.00000000000E+00  0.00000000000E+00  0.45593999997E+02  0.45594000000E+02  0.51100000000E-03 0.  1.
         11   -1    0    0    0    0 -0.00000000000E+00 -0.00000000000E+00 -0.45593999997E+02  0.45594000000E+02  0.51100000000E-03 0. -1.
    9900012    2    1    2    0    0 -0.11923414472E+02  0.55330777609E+01  0.38475850662E+02  0.50528759398E+02  0.29999694664E+02 0.  0.
         12    1    1    2    0    0  0.11923414472E+02 -0.55330777609E+01 -0.38475850662E+02  0.40659240602E+02  0.00000000000E+00 0. -1.
         11    1    3    3    0    0 -0.55612775644E+01 -0.24193373432E+01  0.44397082578E+01  0.75161167503E+01  0.51100000000E-03 0. -1.
        -11    1    3    3    0    0 -0.85774622646E+01  0.62057918126E+01  0.37256421880E+02  0.38731455982E+02  0.51100000000E-03 0.  1.
         12    1    3    3    0    0  0.22153253571E+01  0.17466232915E+01 -0.32202794759E+01  0.42811866653E+01  0.00000000000E+00 0. -1.
</event>
<event>
 7    1  0.2450552E-011  0.5052885E+02  0.7816164E-02  0.1300439E+00
        -11   -1    0    0    0    0  0.00000000000E+00  0.00000000000E+00  0.45593999997E+02  0.45594000000E+02  0.51100000000E-03 0.  1.
         11   -1    0    0    0    0 -0.00000000000E+00 -0.00000000000E+00 -0.45593999997E+02  0.45594000000E+02  0.51100000000E-03 0. -1.
    9900012    2    1    2    0    0  0.29146622295E+02  0.14503172395E+02  0.24357723220E+02  0.50528852429E+02  0.29999977443E+02 0.  0.
         12    1    1    2    0    0 -0.29146622295E+02 -0.14503172395E+02 -0.24357723220E+02  0.40659147571E+02  0.00000000000E+00 0. -1.
         11    1    3    3    0    0  0.18298284194E+01  0.45844694727E+00 -0.39789455105E+01  0.44034592407E+01  0.51100000000E-03 0. -1.
        -11    1    3    3    0    0  0.44139323648E+00  0.70894832170E+01  0.10157161413E+01  0.71754637351E+01  0.51100000000E-03 0.  1.
        -12    1    3    3    0    0  0.26875400639E+02  0.69552422308E+01  0.27320952589E+02  0.38949929453E+02  0.00000000000E+00 0.  1.
</event>
<event>
 7    1  0.2450552E-011  0.5052886E+02  0.7816164E-02  0.1300439E+00
        -11   -1    0    0    0    0  0.00000000000E+00  0.00000000000E+00  0.45593999997E+02  0.45594000000E+02  0.51100000000E-03 0.  1.
         11   -1    0    0    0    0 -0.00000000000E+00 -0.00000000000E+00 -0.45593999997E+02  0.45594000000E+02  0.51100000000E-03 0. -1.
    9900012    2    1    2    0    0 -0.18309882271E+02 -0.25887473211E+02  0.25450983395E+02  0.50528860636E+02  0.30000002391E+02 0.  0.
         12    1    1    2    0    0  0.18309882271E+02  0.25887473211E+02 -0.25450983395E+02  0.40659139364E+02  0.00000000000E+00 0. -1.
         11    1    3    3    0    0  0.19814515048E+01 -0.47056947572E+01  0.40865866911E+01  0.65398703549E+01  0.51100000000E-03 0. -1.
        -11    1    3    3    0    0 -0.17766780857E+02 -0.23256615823E+02  0.25431125803E+02  0.38772036849E+02  0.51100000000E-03 0.  1.
         12    1    3    3    0    0 -0.25245529184E+01  0.20748373696E+01 -0.40667290992E+01  0.52169534322E+01  0.00000000000E+00 0. -1.
</event>
<event>
 7    1  0.2450552E-011  0.5052886E+02  0.7816164E-02  0.1300439E+00
        -11   -1    0    0    0    0  0.00000000000E+00  0.00000000000E+00  0.45593999997E+02  0.45594000000E+02  0.51100000000E-03 0.  1.
         11   -1    0    0    0    0 -0.00000000000E+00 -0.00000000000E+00 -0.45593999997E+02  0.45594000000E+02  0.51100000000E-03 0. -1.
    9900012    2    1    2    0    0 -0.35716015489E+02 -0.49484197390E+01  0.18789490048E+02  0.50528861340E+02  0.30000004528E+02 0.  0.
         12    1    1    2    0    0  0.35716015489E+02  0.49484197390E+01 -0.18789490048E+02  0.40659138660E+02  0.00000000000E+00 0. -1.
         11    1    3    3    0    0  0.15098142104E+01  0.12628227640E+01  0.12542224636E+01  0.23339525557E+01  0.51100000000E-03 0. -1.
        -11    1    3    3    0    0 -0.21312403094E+02  0.83288247679E+01  0.56075009507E+01  0.23559115323E+02  0.51100000000E-03 0.  1.
        -12    1    3    3    0    0 -0.15913426606E+02 -0.14540067271E+02  0.11927766634E+02  0.24635793461E+02  0.00000000000E+00 0.  1.
</event>
<event>
 7    1  0.2450552E-011  0.5052885E+02  0.7816164E-02  0.1300439E+00
        -11   -1    0    0    0    0  0.00000000000E+00  0.00000000000E+00  0.45593999997E+02  0.45594000000E+02  0.51100000000E-03 0.  1.
         11   -1    0    0    0    0 -0.00000000000E+00 -0.00000000000E+00 -0.45593999997E+02  0.45594000000E+02  0.51100000000E-03 0. -1.
    9900012    2    1    2    0    0  0.26073294530E+02  0.19411902846E+02  0.24423913296E+02  0.50528853422E+02  0.29999980461E+02 0.  0.
         12    1    1    2    0    0 -0.26073294530E+02 -0.19411902846E+02 -0.24423913296E+02  0.40659146578E+02  0.00000000000E+00 0. -1.
         11    1    3    3    0    0  0.65014314074E+01  0.59215874854E+01  0.84570396138E+01  0.12200628180E+02  0.51100000000E-03 0. -1.
        -11    1    3    3    0    0  0.11684762614E+02  0.20857175269E+02  0.12590729096E+02  0.27020027701E+02  0.51100000000E-03 0.  1.
         12    1    3    3    0    0  0.78871005088E+01 -0.73668599088E+01  0.33761445862E+01  0.11308197541E+02  0.00000000000E+00 0. -1.
</event>
<event>
 7    1  0.2450552E-011  0.5052886E+02  0.7816164E-02  0.1300439E+00
        -11   -1    0    0    0    0  0.00000000000E+00  0.00000000000E+00  0.45593999997E+02  0.45594000000E+02  0.51100000000E-03 0. -1.
         11   -1    0    0    0    0 -0.00000000000E+00 -0.00000000000E+00 -0.45593999997E+02  0.45594000000E+02  0.51100000000E-03 0.  1.
    9900012    2    1    2    0    0 -0.37328701268E+02  0.14160423838E+02  0.76951986405E+01  0.50528860514E+02  0.30000002020E+02 0.  0.
         12    1    1    2    0    0  0.37328701268E+02 -0.14160423838E+02 -0.76951986405E+01  0.40659139486E+02  0.00000000000E+00 0. -1.
         11    1    3    3    0    0 -0.10354374571E+02  0.12963700378E+02  0.16468516481E+01  0.16672813825E+02  0.51100000000E-03 0.  1.
        -11    1    3    3    0    0 -0.18198254059E+02  0.40050394181E+01 -0.51708511177E+01  0.19337903017E+02  0.51100000000E-03 0. -1.
         12    1    3    3    0    0 -0.87760726373E+01 -0.28083159582E+01  0.11219198110E+02  0.14518143672E+02  0.00000000000E+00 0. -1.
</event>
<event>
 7    1  0.2450552E-011  0.5052886E+02  0.7816164E-02  0.1300439E+00
        -11   -1    0    0    0    0  0.00000000000E+00  0.00000000000E+00  0.45593999997E+02  0.45594000000E+02  0.51100000000E-03 0.  1.
         11   -1    0    0    0    0 -0.00000000000E+00 -0.00000000000E+00 -0.45593999997E+02  0.45594000000E+02  0.51100000000E-03 0. -1.
    9900012    2    1    2    0    0  0.59853099691E+01 -0.16354602763E+02  0.36740556866E+02  0.50528862211E+02  0.30000007176E+02 0.  0.
         12    1    1    2    0    0 -0.59853099691E+01  0.16354602763E+02 -0.36740556866E+02  0.40659137789E+02  0.00000000000E+00 0. -1.
         11    1    3    3    0    0 -0.29706244489E-01  0.27596402741E+01  0.75095085540E+00  0.28601441138E+01  0.51100000000E-03 0. -1.
        -11    1    3    3    0    0  0.56794096615E+01 -0.20032553064E+02  0.12764773881E+02  0.24423315272E+02  0.51100000000E-03 0.  1.
         12    1    3    3    0    0  0.33560655204E+00  0.91831002713E+00  0.23224832130E+02  0.23245402825E+02  0.00000000000E+00 0. -1.
</event>
<event>
 7    1  0.2450552E-011  0.5052885E+02  0.7816164E-02  0.1300439E+00
        -11   -1    0    0    0    0  0.00000000000E+00  0.00000000000E+00  0.45593999997E+02  0.45594000000E+02  0.51100000000E-03 0. -1.
         11   -1    0    0    0    0 -0.00000000000E+00 -0.00000000000E+00 -0.45593999997E+02  0.45594000000E+02  0.51100000000E-03 0.  1.
    9900012    2    1    2    0    0 -0.19320171403E+02 -0.35283812672E+02  0.59118669882E+01  0.50528848128E+02  0.29999964369E+02 0.  0.
         12    1    1    2    0    0  0.19320171403E+02  0.35283812672E+02 -0.59118669882E+01  0.40659151872E+02  0.00000000000E+00 0. -1.
         11    1    3    3    0    0 -0.13134857279E+01 -0.17292467891E+00 -0.13626552897E+01  0.19005202976E+01  0.51100000000E-03 0. -1.
        -11    1    3    3    0    0 -0.20662728018E+02 -0.21305293648E+02 -0.48383012071E+01  0.30071132759E+02  0.51100000000E-03 0.  1.
         12    1    3    3    0    0  0.26560423422E+01 -0.13805594345E+02  0.12112823485E+02  0.18557195071E+02  0.00000000000E+00 0. -1.
</event>
<event>
 7    1  0.2450552E-011  0.5052886E+02  0.7816164E-02  0.1300439E+00
        -11   -1    0    0    0    0  0.00000000000E+00  0.00000000000E+00  0.45593999997E+02  0.45594000000E+02  0.51100000000E-03 0. -1.
         11   -1    0    0    0    0 -0.00000000000E+00 -0.00000000000E+00 -0.45593999997E+02  0.45594000000E+02  0.51100000000E-03 0.  1.
    9900012    2    1    2    0    0 -0.10747271163E+02  0.31001315241E+02 -0.24012085978E+02  0.50528860103E+02  0.30000000770E+02 0.  0.
         12    1    1    2    0    0  0.10747271163E+02 -0.31001315241E+02  0.24012085978E+02  0.40659139897E+02  0.00000000000E+00 0. -1.
         11    1    3    3    0    0 -0.82786676636E+01  0.10076556825E+02 -0.10782498238E+00  0.13041662556E+02  0.51100000000E-03 0. -1.
        -11    1    3    3    0    0 -0.55842913174E+01  0.15396671339E+01  0.88991753054E+00  0.58606175334E+01  0.51100000000E-03 0.  1.
        -12    1    3    3    0    0  0.31156878182E+01  0.19385091282E+02 -0.24794178526E+02  0.31626580014E+02  0.00000000000E+00 0.  1.
</event>
<event>
 7    1  0.2450552E-011  0.5052886E+02  0.7816164E-02  0.1300439E+00
        -11   -1    0    0    0    0  0.00000000000E+00  0.00000000000E+00  0.45593999997E+02  0.45594000000E+02  0.51100000000E-03 0. -1.
         11   -1    0    0    0    0 -0.00000000000E+00 -0.00000000000E+00 -0.45593999997E+02  0.45594000000E+02  0.51100000000E-03 0.  1.
    9900012    2    1    2    0    0 -0.32148211746E+02  0.21153682401E+02 -0.13121730229E+02  0.50528860784E+02  0.30000002838E+02 0.  0.
         12    1    1    2    0    0  0.32148211746E+02 -0.21153682401E+02  0.13121730229E+02  0.40659139216E+02  0.00000000000E+00 0. -1.
         11    1    3    3    0    0 -0.16195691407E+02  0.26228514961E+01  0.26550222039E+01  0.16620135778E+02  0.51100000000E-03 0. -1.
        -11    1    3    3    0    0  0.35251689791E+01  0.24506684171E+01 -0.45887250725E+01  0.62840265812E+01  0.51100000000E-03 0.  1.
         12    1    3    3    0    0 -0.19477689319E+02  0.16080162488E+02 -0.11188027361E+02  0.27624698425E+02  0.00000000000E+00 0. -1.
</event>
<event>
 7    1  0.2450552E-011  0.5052885E+02  0.7816164E-02  0.1300439E+00
        -11   -1    0    0    0    0  0.00000000000E+00  0.00000000000E+00  0.45593999997E+02  0.45594000000E+02  0.51100000000E-03 0.  1.
         11   -1    0    0    0    0 -0.00000000000E+00 -0.00000000000E+00 -0.45593999997E+02  0.45594000000E+02  0.51100000000E-03 0. -1.
    9900012    2    1    2    0    0 -0.29725907843E+01  0.20886095292E+01  0.40496514586E+02  0.50528852452E+02  0.29999977512E+02 0.  0.
         12    1    1    2    0    0  0.29725907843E+01 -0.20886095292E+01 -0.40496514586E+02  0.40659147548E+02  0.00000000000E+00 0. -1.
         11    1    3    3    0    0  0.51950309785E+01  0.33751218231E+01  0.23340855492E+02  0.24149023366E+02  0.51100000000E-03 0.  1.
        -11    1    3    3    0    0 -0.20154719670E+01  0.59339813471E+01 -0.55220777339E+00  0.62911998509E+01  0.51100000000E-03 0. -1.
         12    1    3    3    0    0 -0.61521497959E+01 -0.72204936410E+01  0.17707866867E+02  0.20088629234E+02  0.00000000000E+00 0. -1.
</event>
<event>
 7    1  0.2450552E-011  0.5052887E+02  0.7816164E-02  0.1300439E+00
        -11   -1    0    0    0    0  0.00000000000E+00  0.00000000000E+00  0.45593999997E+02  0.45594000000E+02  0.51100000000E-03 0.  1.
         11   -1    0    0    0    0 -0.00000000000E+00 -0.00000000000E+00 -0.45593999997E+02  0.45594000000E+02  0.51100000000E-03 0. -1.
    9900012    2    1    2    0    0 -0.53928576999E+01  0.38532084963E+02  0.11805086728E+02  0.50528873614E+02  0.30000041838E+02 0.  0.
         12    1    1    2    0    0  0.53928576999E+01 -0.38532084963E+02 -0.11805086728E+02  0.40659126386E+02  0.00000000000E+00 0. -1.
         11    1    3    3    0    0  0.45670730838E+01  0.19550854323E+02 -0.16410125119E+01  0.20144155074E+02  0.51100000000E-03 0.  1.
        -11    1    3    3    0    0 -0.68292889239E+00 -0.29340819823E+01 -0.75801325715E-01  0.30134656217E+01  0.51100000000E-03 0. -1.
        -12    1    3    3    0    0 -0.92770018912E+01  0.21915312622E+02  0.13521900566E+02  0.27371252918E+02  0.00000000000E+00 0.  1.
</event>
<event>
 7    1  0.2450552E-011  0.5052886E+02  0.7816164E-02  0.1300439E+00
        -11   -1    0    0    0    0  0.00000000000E+00  0.00000000000E+00  0.45593999997E+02  0.45594000000E+02  0.51100000000E-03 0.  1.
         11   -1    0    0    0    0 -0.00000000000E+00 -0.00000000000E+00 -0.45593999997E+02  0.45594000000E+02  0.51100000000E-03 0. -1.
    9900012    2    1    2    0    0 -0.38579102547E+02  0.12657986609E+02 -0.21433286985E+01  0.50528860360E+02  0.30000001551E+02 0.  0.
         12    1    1    2    0    0  0.38579102547E+02 -0.12657986609E+02  0.21433286985E+01  0.40659139640E+02  0.00000000000E+00 0. -1.
         11    1    3    3    0    0 -0.46103851960E+01 -0.19990812279E+01 -0.10230519582E+02  0.11398048456E+02  0.51100000000E-03 0. -1.
        -11    1    3    3    0    0 -0.33554898207E+01  0.45353403144E+01  0.32952334306E+01  0.65335432445E+01  0.51100000000E-03 0.  1.
        -12    1    3    3    0    0 -0.30613227530E+02  0.10121727523E+02  0.47919574534E+01  0.32597268660E+02  0.00000000000E+00 0.  1.
</event>
<event>
 7    1  0.2450552E-011  0.5052887E+02  0.7816164E-02  0.1300439E+00
        -11   -1    0    0    0    0  0.00000000000E+00  0.00000000000E+00  0.45593999997E+02  0.45594000000E+02  0.51100000000E-03 0. -1.
         11   -1    0    0    0    0 -0.00000000000E+00 -0.00000000000E+00 -0.45593999997E+02  0.45594000000E+02  0.51100000000E-03 0.  1.
    9900012    2    1    2    0    0 -0.27950055823E+01 -0.13915749000E+02 -0.38101243824E+02  0.50528869324E+02  0.30000028796E+02 0.  0.
         12    1    1    2    0    0  0.27950055823E+01  0.13915749000E+02  0.38101243824E+02  0.40659130676E+02  0.00000000000E+00 0. -1.
         11    1    3    3    0    0  0.47097977417E+01 -0.96328851692E+01 -0.25808082137E+02  0.27946945724E+02  0.51100000000E-03 0. -1.
        -11    1    3    3    0    0  0.54502730247E+01 -0.67307934497E+00 -0.37252684946E+01  0.66359729857E+01  0.51100000000E-03 0.  1.
         12    1    3    3    0    0 -0.12955076349E+02 -0.36097844855E+01 -0.85678931927E+01  0.15945950614E+02  0.00000000000E+00 0. -1.
</event>
<event>
 7    1  0.2450552E-011  0.5052886E+02  0.7816164E-02  0.1300439E+00
        -11   -1    0    0    0    0  0.00000000000E+00  0.00000000000E+00  0.45593999997E+02  0.45594000000E+02  0.51100000000E-03 0.  1.
         11   -1    0    0    0    0 -0.00000000000E+00 -0.00000000000E+00 -0.45593999997E+02  0.45594000000E+02  0.51100000000E-03 0. -1.
    9900012    2    1    2    0    0 -0.30838555983E+02  0.15795806749E+00 -0.26497629444E+02  0.50528857707E+02  0.29999993486E+02 0.  0.
         12    1    1    2    0    0  0.30838555983E+02 -0.15795806749E+00  0.26497629444E+02  0.40659142293E+02  0.00000000000E+00 0. -1.
         11    1    3    3    0    0 -0.45605950747E+01 -0.52685680155E+00  0.26607332258E+01  0.53062328524E+01  0.51100000000E-03 0. -1.
        -11    1    3    3    0    0 -0.19787222120E+02 -0.95743944055E+01 -0.15209757414E+02  0.26730879303E+02  0.51100000000E-03 0.  1.
         12    1    3    3    0    0 -0.64907387881E+01  0.10259209275E+02 -0.13948605256E+02  0.18491745552E+02  0.00000000000E+00 0. -1.
</event>
<event>
 7    1  0.2450552E-011  0.5052886E+02  0.7816164E-02  0.1300439E+00
        -11   -1    0    0    0    0  0.00000000000E+00  0.00000000000E+00  0.45593999997E+02  0.45594000000E+02  0.51100000000E-03 0. -1.
         11   -1    0    0    0    0 -0.00000000000E+00 -0.00000000000E+00 -0.45593999997E+02  0.45594000000E+02  0.51100000000E-03 0.  1.
    9900012    2    1    2    0    0  0.26471245246E+02  0.42581124148E+01 -0.30566435753E+02  0.50528863993E+02  0.30000012592E+02 0.  0.
         12    1    1    2    0    0 -0.26471245246E+02 -0.42581124148E+01  0.30566435753E+02  0.40659136007E+02  0.00000000000E+00 0. -1.
         11    1    3    3    0    0  0.82562065331E+01 -0.38769493022E+01  0.24919458580E+01  0.94554469291E+01  0.51100000000E-03 0. -1.
        -11    1    3    3    0    0 -0.66523573439E+00 -0.24761336623E+01 -0.50950237821E+01  0.57037745482E+01  0.51100000000E-03 0.  1.
         12    1    3    3    0    0  0.18880274447E+02  0.10611195379E+02 -0.27963357829E+02  0.35369642515E+02  0.00000000000E+00 0. -1.
</event>
<event>
 7    1  0.2450552E-011  0.5052888E+02  0.7816164E-02  0.1300439E+00
        -11   -1    0    0    0    0  0.00000000000E+00  0.00000000000E+00  0.45593999997E+02  0.45594000000E+02  0.51100000000E-03 0.  1.
         11   -1    0    0    0    0 -0.00000000000E+00 -0.00000000000E+00 -0.45593999997E+02  0.45594000000E+02  0.51100000000E-03 0. -1.
    9900012    2    1    2    0    0 -0.10612875752E+02 -0.38267283385E+01  0.39062608152E+02  0.50528876335E+02  0.30000050109E+02 0.  0.
         12    1    1    2    0    0  0.10612875752E+02  0.38267283385E+01 -0.39062608152E+02  0.40659123665E+02  0.00000000000E+00 0. -1.
         11    1    3    3    0    0 -0.34130063313E+01 -0.25652655757E+01  0.94580883028E+00  0.43730714945E+01  0.51100000000E-03 0. -1.
        -11    1    3    3    0    0 -0.12505688747E+02 -0.73518639956E+01  0.12025830666E+02  0.18843109051E+02  0.51100000000E-03 0.  1.
         12    1    3    3    0    0  0.53058193257E+01  0.60904012328E+01  0.26090968656E+02  0.27312695790E+02  0.00000000000E+00 0. -1.
</event>
<event>
 7    1  0.2450552E-011  0.5052885E+02  0.7816164E-02  0.1300439E+00
        -11   -1    0    0    0    0  0.00000000000E+00  0.00000000000E+00  0.45593999997E+02  0.45594000000E+02  0.51100000000E-03 0.  1.
         11   -1    0    0    0    0 -0.00000000000E+00 -0.00000000000E+00 -0.45593999997E+02  0.45594000000E+02  0.51100000000E-03 0. -1.
    9900012    2    1    2    0    0  0.24145902309E+01  0.19843307385E+02  0.35405924473E+02  0.50528848733E+02  0.29999966209E+02 0.  0.
         12    1    1    2    0    0 -0.24145902309E+01 -0.19843307385E+02 -0.35405924473E+02  0.40659151267E+02  0.00000000000E+00 0. -1.
         11    1    3    3    0    0  0.11752521937E+02  0.94083238234E+01  0.27235924313E+02  0.31119670668E+02  0.51100000000E-03 0. -1.
        -11    1    3    3    0    0 -0.64565608440E-01  0.19045251272E+01  0.64093044765E+01  0.66865962052E+01  0.51100000000E-03 0.  1.
         12    1    3    3    0    0 -0.92733660981E+01  0.85304584339E+01  0.17606956834E+01  0.12722581860E+02  0.00000000000E+00 0. -1.
</event>
<event>
 7    1  0.2450552E-011  0.5052885E+02  0.7816164E-02  0.1300439E+00
        -11   -1    0    0    0    0  0.00000000000E+00  0.00000000000E+00  0.45593999997E+02  0.45594000000E+02  0.51100000000E-03 0.  1.
         11   -1    0    0    0    0 -0.00000000000E+00 -0.00000000000E+00 -0.45593999997E+02  0.45594000000E+02  0.51100000000E-03 0. -1.
    9900012    2    1    2    0    0  0.24303680477E+02  0.21067440327E+02  0.24872892294E+02  0.50528847307E+02  0.29999961874E+02 0.  0.
         12    1    1    2    0    0 -0.24303680477E+02 -0.21067440327E+02 -0.24872892294E+02  0.40659152693E+02  0.00000000000E+00 0. -1.
         11    1    3    3    0    0  0.15167365780E+02  0.17872215731E+02  0.18378155658E+02  0.29786266726E+02  0.51100000000E-03 0. -1.
        -11    1    3    3    0    0  0.64549157456E+01 -0.54649616546E+01 -0.15778638408E+01  0.86035688949E+01  0.51100000000E-03 0.  1.
         12    1    3    3    0    0  0.26813989507E+01  0.86601862514E+01  0.80726004767E+01  0.12139011685E+02  0.00000000000E+00 0. -1.
</event>
<event>
 7    1  0.2450552E-011  0.5052887E+02  0.7816164E-02  0.1300439E+00
        -11   -1    0    0    0    0  0.00000000000E+00  0.00000000000E+00  0.45593999997E+02  0.45594000000E+02  0.51100000000E-03 0.  1.
         11   -1    0    0    0    0 -0.00000000000E+00 -0.00000000000E+00 -0.45593999997E+02  0.45594000000E+02  0.51100000000E-03 0. -1.
    9900012    2    1    2    0    0  0.26506506175E+02 -0.15330674722E+02  0.26749588360E+02  0.50528868990E+02  0.30000027784E+02 0.  0.
         12    1    1    2    0    0 -0.26506506175E+02  0.15330674722E+02 -0.26749588360E+02  0.40659131010E+02  0.00000000000E+00 0. -1.
         11    1    3    3    0    0  0.11000266116E+02 -0.39727936146E+01 -0.24337631624E+01  0.11946218946E+02  0.51100000000E-03 0. -1.
        -11    1    3    3    0    0 -0.82313348397E+00 -0.28588641612E+01 -0.10759799312E+01  0.31636033409E+01  0.51100000000E-03 0.  1.
        -12    1    3    3    0    0  0.16329373543E+02 -0.84990169463E+01  0.30259331454E+02  0.35419046703E+02  0.00000000000E+00 0.  1.
</event>
<event>
 7    1  0.2450552E-011  0.5052884E+02  0.7816164E-02  0.1300439E+00
        -11   -1    0    0    0    0  0.00000000000E+00  0.00000000000E+00  0.45593999997E+02  0.45594000000E+02  0.51100000000E-03 0.  1.
         11   -1    0    0    0    0 -0.00000000000E+00 -0.00000000000E+00 -0.45593999997E+02  0.45594000000E+02  0.51100000000E-03 0. -1.
    9900012    2    1    2    0    0  0.19298850124E+02  0.28842643866E+02  0.21185452632E+02  0.50528842058E+02  0.29999945920E+02 0.  0.
         12    1    1    2    0    0 -0.19298850124E+02 -0.28842643866E+02 -0.21185452632E+02  0.40659157942E+02  0.00000000000E+00 0. -1.
         11    1    3    3    0    0  0.28363026743E+01  0.44874255340E+01 -0.10594349448E+00  0.53096916171E+01  0.51100000000E-03 0. -1.
        -11    1    3    3    0    0  0.16490798133E+02  0.24164736986E+02  0.59223177023E+01  0.29848865705E+02  0.51100000000E-03 0.  1.
        -12    1    3    3    0    0 -0.28250683061E-01  0.19048134576E+00  0.15369078424E+02  0.15370284736E+02  0.00000000000E+00 0.  1.
</event>
<event>
 7    1  0.2450552E-011  0.5052887E+02  0.7816164E-02  0.1300439E+00
        -11   -1    0    0    0    0  0.00000000000E+00  0.00000000000E+00  0.45593999997E+02  0.45594000000E+02  0.51100000000E-03 0. -1.
         11   -1    0    0    0    0 -0.00000000000E+00 -0.00000000000E+00 -0.45593999997E+02  0.45594000000E+02  0.51100000000E-03 0.  1.
    9900012    2    1    2    0    0  0.55296887375E+01  0.38630221513E+02  0.11414622833E+02  0.50528867126E+02  0.30000022116E+02 0.  0.
         12    1    1    2    0    0 -0.55296887375E+01 -0.38630221513E+02 -0.11414622833E+02  0.40659132874E+02  0.00000000000E+00 0. -1.
         11    1    3    3    0    0  0.20606983227E+01  0.22293432728E+02  0.12159381929E+02  0.25477326970E+02  0.51100000000E-03 0. -1.
        -11    1    3    3    0    0  0.16564018356E+01  0.28693185255E+01  0.81586214008E+01  0.88056663158E+01  0.51100000000E-03 0.  1.
        -12    1    3    3    0    0  0.18125885791E+01  0.13467470259E+02 -0.89033804976E+01  0.16245873840E+02  0.00000000000E+00 0.  1.
</event>
<event>
 7    1  0.2450552E-011  0.5052890E+02  0.7816164E-02  0.1300439E+00
        -11   -1    0    0    0    0  0.00000000000E+00  0.00000000000E+00  0.45593999997E+02  0.45594000000E+02  0.51100000000E-03 0.  1.
         11   -1    0    0    0    0 -0.00000000000E+00 -0.00000000000E+00 -0.45593999997E+02  0.45594000000E+02  0.51100000000E-03 0. -1.
    9900012    2    1    2    0    0 -0.24473796876E+00 -0.58073810398E+01  0.40241483626E+02  0.50528897998E+02  0.30000115953E+02 0.  0.
         12    1    1    2    0    0  0.24473796876E+00  0.58073810398E+01 -0.40241483626E+02  0.40659102002E+02  0.00000000000E+00 0. -1.
         11    1    3    3    0    0 -0.98929427130E+01 -0.62063480102E+01  0.12015245167E+02  0.16755750888E+02  0.51100000000E-03 0. -1.
        -11    1    3    3    0    0  0.25304505084E+01 -0.70970020985E+01  0.16514461134E+02  0.18152081020E+02  0.51100000000E-03 0.  1.
         12    1    3    3    0    0  0.71177542358E+01  0.74959690689E+01  0.11711777325E+02  0.15621066089E+02  0.00000000000E+00 0. -1.
</event>
<event>
 7    1  0.2450552E-011  0.5052886E+02  0.7816164E-02  0.1300439E+00
        -11   -1    0    0    0    0  0.00000000000E+00  0.00000000000E+00  0.45593999997E+02  0.45594000000E+02  0.51100000000E-03 0.  1.
         11   -1    0    0    0    0 -0.00000000000E+00 -0.00000000000E+00 -0.45593999997E+02  0.45594000000E+02  0.51100000000E-03 0. -1.
    9900012    2    1    2    0    0  0.25143156140E+02  0.29221691281E+02  0.12925960371E+02  0.50528855967E+02  0.29999988197E+02 0.  0.
         12    1    1    2    0    0 -0.25143156140E+02 -0.29221691281E+02 -0.12925960371E+02  0.40659144033E+02  0.00000000000E+00 0. -1.
         11    1    3    3    0    0  0.20215153131E+02  0.96186747737E+01  0.35899998561E+01  0.22672878505E+02  0.51100000000E-03 0. -1.
        -11    1    3    3    0    0  0.22016085857E+01  0.95969148869E+01  0.13475529550E+02  0.16689450339E+02  0.51100000000E-03 0.  1.
         12    1    3    3    0    0  0.27263944236E+01  0.10006101620E+02 -0.41395690346E+01  0.11166527123E+02  0.00000000000E+00 0. -1.
</event>
<event>
 7    1  0.2450552E-011  0.5052886E+02  0.7816164E-02  0.1300439E+00
        -11   -1    0    0    0    0  0.00000000000E+00  0.00000000000E+00  0.45593999997E+02  0.45594000000E+02  0.51100000000E-03 0.  1.
         11   -1    0    0    0    0 -0.00000000000E+00 -0.00000000000E+00 -0.45593999997E+02  0.45594000000E+02  0.51100000000E-03 0. -1.
    9900012    2    1    2    0    0 -0.65006244001E+01  0.31864747786E+02  0.24403790651E+02  0.50528864899E+02  0.30000015346E+02 0.  0.
         12    1    1    2    0    0  0.65006244001E+01 -0.31864747786E+02 -0.24403790651E+02  0.40659135101E+02  0.00000000000E+00 0. -1.
         11    1    3    3    0    0  0.60211921905E+01  0.91116840974E+01  0.31131821273E+01  0.11356471534E+02  0.51100000000E-03 0. -1.
        -11    1    3    3    0    0 -0.63214366406E+01  0.16909713887E+02  0.20986095186E+01  0.18174244059E+02  0.51100000000E-03 0.  1.
        -12    1    3    3    0    0 -0.62003799500E+01  0.58433498011E+01  0.19191999005E+02  0.20998149305E+02  0.00000000000E+00 0.  1.
</event>
<event>
 7    1  0.2450552E-011  0.5052888E+02  0.7816164E-02  0.1300439E+00
        -11   -1    0    0    0    0  0.00000000000E+00  0.00000000000E+00  0.45593999997E+02  0.45594000000E+02  0.51100000000E-03 0.  1.
         11   -1    0    0    0    0 -0.00000000000E+00 -0.00000000000E+00 -0.45593999997E+02  0.45594000000E+02  0.51100000000E-03 0. -1.
    9900012    2    1    2    0    0 -0.51893929429E+01 -0.39989013246E+02  0.52070471832E+01  0.50528876548E+02  0.30000050755E+02 0.  0.
         12    1    1    2    0    0  0.51893929429E+01  0.39989013246E+02 -0.52070471832E+01  0.40659123452E+02  0.00000000000E+00 0. -1.
         11    1    3    3    0    0  0.15104422748E+01 -0.26629137893E+02  0.23107825430E+01  0.26771853447E+02  0.51100000000E-03 0. -1.
        -11    1    3    3    0    0 -0.59050940597E+00 -0.38373707902E+01  0.97738866865E+01  0.10516795004E+02  0.51100000000E-03 0.  1.
         12    1    3    3    0    0 -0.61093258117E+01 -0.95225045631E+01 -0.68776220463E+01  0.13240228096E+02  0.00000000000E+00 0. -1.
</event>
<event>
 7    1  0.2450552E-011  0.5052885E+02  0.7816164E-02  0.1300439E+00
        -11   -1    0    0    0    0  0.00000000000E+00  0.00000000000E+00  0.45593999997E+02  0.45594000000E+02  0.51100000000E-03 0. -1.
         11   -1    0    0    0    0 -0.00000000000E+00 -0.00000000000E+00 -0.45593999997E+02  0.45594000000E+02  0.51100000000E-03 0.  1.
    9900012    2    1    2    0    0 -0.65534887186E+01 -0.37664750504E+02 -0.13841408617E+02  0.50528852968E+02  0.29999979081E+02 0.  0.
         12    1    1    2    0    0  0.65534887186E+01  0.37664750504E+02  0.13841408617E+02  0.40659147032E+02  0.00000000000E+00 0. -1.
         11    1    3    3    0    0 -0.65539468430E+00  0.93151281641E+00 -0.57669453556E+01  0.58783430756E+01  0.51100000000E-03 0. -1.
        -11    1    3    3    0    0 -0.11528992271E+02 -0.12241119503E+02 -0.48956956150E+01  0.17513723342E+02  0.51100000000E-03 0.  1.
         12    1    3    3    0    0  0.56308982365E+01 -0.26355143817E+02 -0.31787676461E+01  0.27136786551E+02  0.00000000000E+00 0. -1.
</event>
<event>
 7    1  0.2450552E-011  0.5052883E+02  0.7816164E-02  0.1300439E+00
        -11   -1    0    0    0    0  0.00000000000E+00  0.00000000000E+00  0.45593999997E+02  0.45594000000E+02  0.51100000000E-03 0. -1.
         11   -1    0    0    0    0 -0.00000000000E+00 -0.00000000000E+00 -0.45593999997E+02  0.45594000000E+02  0.51100000000E-03 0.  1.
    9900012    2    1    2    0    0  0.17802183899E+02  0.10101245084E+02 -0.35131398826E+02  0.50528830219E+02  0.29999909933E+02 0.  0.
         12    1    1    2    0    0 -0.17802183899E+02 -0.10101245084E+02  0.35131398826E+02  0.40659169781E+02  0.00000000000E+00 0. -1.
         11    1    3    3    0    0 -0.10529954872E+01  0.50000388359E+01 -0.64846367835E+01  0.82558889486E+01  0.51100000000E-03 0.  1.
        -11    1    3    3    0    0 -0.19222461998E+00  0.11078033405E+02 -0.91637646198E+01  0.14378259863E+02  0.51100000000E-03 0. -1.
        -12    1    3    3    0    0  0.19047404006E+02 -0.59768271563E+01 -0.19482997423E+02  0.27894681407E+02  0.00000000000E+00 0.  1.
</event>
<event>
 7    1  0.2450552E-011  0.5052886E+02  0.7816164E-02  0.1300439E+00
        -11   -1    0    0    0    0  0.00000000000E+00  0.00000000000E+00  0.45593999997E+02  0.45594000000E+02  0.51100000000E-03 0. -1.
         11   -1    0    0    0    0 -0.00000000000E+00 -0.00000000000E+00 -0.45593999997E+02  0.45594000000E+02  0.51100000000E-03 0.  1.
    9900012    2    1    2    0    0 -0.20287161460E+02  0.95295727497E+01 -0.33923212931E+02  0.50528855242E+02  0.29999985994E+02 0.  0.
         12    1    1    2    0    0  0.20287161460E+02 -0.95295727497E+01  0.33923212931E+02  0.40659144758E+02  0.00000000000E+00 0. -1.
         11    1    3    3    0    0 -0.59456129078E+01  0.42961295166E+01  0.33648258599E+01  0.80702599092E+01  0.51100000000E-03 0. -1.
        -11    1    3    3    0    0 -0.93770803609E+01  0.88640695685E+01 -0.17540572636E+02  0.21775515013E+02  0.51100000000E-03 0.  1.
        -12    1    3    3    0    0 -0.49644681914E+01 -0.36306263354E+01 -0.19747466154E+02  0.20683080320E+02  0.00000000000E+00 0.  1.
</event>
<event>
 7    1  0.2450552E-011  0.5052887E+02  0.7816164E-02  0.1300439E+00
        -11   -1    0    0    0    0  0.00000000000E+00  0.00000000000E+00  0.45593999997E+02  0.45594000000E+02  0.51100000000E-03 0.  1.
         11   -1    0    0    0    0 -0.00000000000E+00 -0.00000000000E+00 -0.45593999997E+02  0.45594000000E+02  0.51100000000E-03 0. -1.
    9900012    2    1    2    0    0 -0.85469395598E+01  0.26634887268E+02  0.29507589591E+02  0.50528865244E+02  0.30000016397E+02 0.  0.
         12    1    1    2    0    0  0.85469395598E+01 -0.26634887268E+02 -0.29507589591E+02  0.40659134756E+02  0.00000000000E+00 0. -1.
         11    1    3    3    0    0  0.35024767543E+01  0.10920599115E+02  0.71669129907E+01  0.13523737298E+02  0.51100000000E-03 0. -1.
        -11    1    3    3    0    0 -0.70314057980E+01  0.19268100637E+02  0.91654815772E+01  0.22465672090E+02  0.51100000000E-03 0.  1.
         12    1    3    3    0    0 -0.50180105161E+01 -0.35538124835E+01  0.13175195023E+02  0.14539455856E+02  0.00000000000E+00 0. -1.
</event>
<event>
 7    1  0.2450552E-011  0.5052887E+02  0.7816164E-02  0.1300439E+00
        -11   -1    0    0    0    0  0.00000000000E+00  0.00000000000E+00  0.45593999997E+02  0.45594000000E+02  0.51100000000E-03 0.  1.
         11   -1    0    0    0    0 -0.00000000000E+00 -0.00000000000E+00 -0.45593999997E+02  0.45594000000E+02  0.51100000000E-03 0. -1.
    9900012    2    1    2    0    0  0.30452794562E+01 -0.10868705656E+02  0.39061012066E+02  0.50528866301E+02  0.30000019607E+02 0.  0.
         12    1    1    2    0    0 -0.30452794562E+01  0.10868705656E+02 -0.39061012066E+02  0.40659133699E+02  0.00000000000E+00 0. -1.
         11    1    3    3    0    0  0.14063280578E+02  0.11295193290E+01  0.15312426411E+02  0.20821192986E+02  0.51100000000E-03 0.  1.
        -11    1    3    3    0    0 -0.19397620884E+01 -0.66423089822E+01  0.65021716820E+01  0.94953242398E+01  0.51100000000E-03 0. -1.
        -12    1    3    3    0    0 -0.90782390336E+01 -0.53559160026E+01  0.17246413973E+02  0.20212349074E+02  0.00000000000E+00 0.  1.
</event>
<event>
 7    1  0.2450552E-011  0.5052885E+02  0.7816164E-02  0.1300439E+00
        -11   -1    0    0    0    0  0.00000000000E+00  0.00000000000E+00  0.45593999997E+02  0.45594000000E+02  0.51100000000E-03 0.  1.
         11   -1    0    0    0    0 -0.00000000000E+00 -0.00000000000E+00 -0.45593999997E+02  0.45594000000E+02  0.51100000000E-03 0. -1.
    9900012    2    1    2    0    0 -0.23688428156E+02 -0.30319364265E+02  0.13143856965E+02  0.50528850306E+02  0.29999970990E+02 0.  0.
         12    1    1    2    0    0  0.23688428156E+02  0.30319364265E+02 -0.13143856965E+02  0.40659149694E+02  0.00000000000E+00 0. -1.
         11    1    3    3    0    0  0.21167849923E+01 -0.73165534718E+01 -0.10613070851E+01  0.76901954721E+01  0.51100000000E-03 0. -1.
        -11    1    3    3    0    0 -0.92799170076E+01 -0.13367970063E+02  0.16969132823E+02  0.23511081478E+02  0.51100000000E-03 0.  1.
        -12    1    3    3    0    0 -0.16525296140E+02 -0.96348407305E+01 -0.27639687725E+01  0.19327573355E+02  0.00000000000E+00 0.  1.
</event>
<event>
 7    1  0.2450552E-011  0.5052886E+02  0.7816164E-02  0.1300439E+00
        -11   -1    0    0    0    0  0.00000000000E+00  0.00000000000E+00  0.45593999997E+02  0.45594000000E+02  0.51100000000E-03 0.  1.
         11   -1    0    0    0    0 -0.00000000000E+00 -0.00000000000E+00 -0.45593999997E+02  0.45594000000E+02  0.51100000000E-03 0. -1.
    9900012    2    1    2    0    0  0.29909903308E+02 -0.26756205686E+02 -0.65321226721E+01  0.50528862218E+02  0.30000007197E+02 0.  0.
         12    1    1    2    0    0 -0.29909903308E+02  0.26756205686E+02  0.65321226721E+01  0.40659137782E+02  0.00000000000E+00 0. -1.
         11    1    3    3    0    0  0.63592410188E+01  0.34393408935E+00  0.16209042029E+01  0.65715726952E+01  0.51100000000E-03 0. -1.
        -11    1    3    3    0    0  0.85040777321E+01  0.77403423517E+00  0.47299090801E+01  0.97616856761E+01  0.51100000000E-03 0.  1.
         12    1    3    3    0    0  0.15046584557E+02 -0.27874174011E+02 -0.12882935955E+02  0.34195603846E+02  0.00000000000E+00 0. -1.
</event>
<event>
 7    1  0.2450552E-011  0.5052887E+02  0.7816164E-02  0.1300439E+00
        -11   -1    0    0    0    0  0.00000000000E+00  0.00000000000E+00  0.45593999997E+02  0.45594000000E+02  0.51100000000E-03 0.  1.
         11   -1    0    0    0    0 -0.00000000000E+00 -0.00000000000E+00 -0.45593999997E+02  0.45594000000E+02  0.51100000000E-03 0. -1.
    9900012    2    1    2    0    0 -0.31067290845E+02  0.14370808124E+02  0.21942383446E+02  0.50528869686E+02  0.30000029896E+02 0.  0.
         12    1    1    2    0    0  0.31067290845E+02 -0.14370808124E+02 -0.21942383446E+02  0.40659130314E+02  0.00000000000E+00 0. -1.
         11    1    3    3    0    0 -0.92559704296E+01 -0.68410926088E+00  0.17517907046E+02  0.19824683140E+02  0.51100000000E-03 0. -1.
        -11    1    3    3    0    0 -0.12631094301E+02  0.95840071551E+01  0.99039280983E+01  0.18694532046E+02  0.51100000000E-03 0.  1.
         12    1    3    3    0    0 -0.91802261154E+01  0.54709102301E+01 -0.54794516983E+01  0.12009654499E+02  0.00000000000E+00 0. -1.
</event>
<event>
 7    1  0.2450552E-011  0.5052886E+02  0.7816164E-02  0.1300439E+00
        -11   -1    0    0    0    0  0.00000000000E+00  0.00000000000E+00  0.45593999997E+02  0.45594000000E+02  0.51100000000E-03 0. -1.
         11   -1    0    0    0    0 -0.00000000000E+00 -0.00000000000E+00 -0.45593999997E+02  0.45594000000E+02  0.51100000000E-03 0.  1.
    9900012    2    1    2    0    0  0.23739780604E+02  0.29373567097E+02 -0.15059297523E+02  0.50528855039E+02  0.29999985375E+02 0.  0.
         12    1    1    2    0    0 -0.23739780604E+02 -0.29373567097E+02  0.15059297523E+02  0.40659144961E+02  0.00000000000E+00 0. -1.
         11    1    3    3    0    0  0.11319780625E+02  0.19557540181E+02  0.26289656593E+01  0.22749643338E+02  0.51100000000E-03 0. -1.
        -11    1    3    3    0    0  0.44071116550E+00 -0.13214034603E+01 -0.92871868379E+01  0.93910687922E+01  0.51100000000E-03 0.  1.
         12    1    3    3    0    0  0.11979288813E+02  0.11137430376E+02 -0.84010763447E+01  0.18388142908E+02  0.00000000000E+00 0. -1.
</event>
<event>
 7    1  0.2450552E-011  0.5052884E+02  0.7816164E-02  0.1300439E+00
        -11   -1    0    0    0    0  0.00000000000E+00  0.00000000000E+00  0.45593999997E+02  0.45594000000E+02  0.51100000000E-03 0. -1.
         11   -1    0    0    0    0 -0.00000000000E+00 -0.00000000000E+00 -0.45593999997E+02  0.45594000000E+02  0.51100000000E-03 0.  1.
    9900012    2    1    2    0    0  0.15344691269E+02 -0.28329722652E+02 -0.24801899739E+02  0.50528844003E+02  0.29999951832E+02 0.  0.
         12    1    1    2    0    0 -0.15344691269E+02  0.28329722652E+02  0.24801899739E+02  0.40659155997E+02  0.00000000000E+00 0. -1.
         11    1    3    3    0    0  0.91105280181E+01 -0.31167548027E+02 -0.14560893320E+02  0.35587039570E+02  0.51100000000E-03 0.  1.
        -11    1    3    3    0    0 -0.20583785054E+01  0.12571642319E+01 -0.18561792232E+01  0.30434824704E+01  0.51100000000E-03 0. -1.
        -12    1    3    3    0    0  0.82925417566E+01  0.15806611434E+01 -0.83848271962E+01  0.11898321963E+02  0.00000000000E+00 0.  1.
</event>
<event>
 7    1  0.2450552E-011  0.5052886E+02  0.7816164E-02  0.1300439E+00
        -11   -1    0    0    0    0  0.00000000000E+00  0.00000000000E+00  0.45593999997E+02  0.45594000000E+02  0.51100000000E-03 0.  1.
         11   -1    0    0    0    0 -0.00000000000E+00 -0.00000000000E+00 -0.45593999997E+02  0.45594000000E+02  0.51100000000E-03 0. -1.
    9900012    2    1    2    0    0 -0.10571024886E+02 -0.24790401032E+02  0.30444300212E+02  0.50528856306E+02  0.29999989229E+02 0.  0.
         12    1    1    2    0    0  0.10571024886E+02  0.24790401032E+02 -0.30444300212E+02  0.40659143694E+02  0.00000000000E+00 0. -1.
         11    1    3    3    0    0 -0.66766948618E+01 -0.14100381020E+02  0.96647181210E+01  0.18352268955E+02  0.51100000000E-03 0. -1.
        -11    1    3    3    0    0  0.39449776127E+00 -0.13754832958E+02  0.22717717044E+02  0.26560228277E+02  0.51100000000E-03 0.  1.
         12    1    3    3    0    0 -0.42888277851E+01  0.30648129453E+01 -0.19381349522E+01  0.56163590744E+01  0.00000000000E+00 0. -1.
</event>
<event>
 7    1  0.2450552E-011  0.5052886E+02  0.7816164E-02  0.1300439E+00
        -11   -1    0    0    0    0  0.00000000000E+00  0.00000000000E+00  0.45593999997E+02  0.45594000000E+02  0.51100000000E-03 0.  1.
         11   -1    0    0    0    0 -0.00000000000E+00 -0.00000000000E+00 -0.45593999997E+02  0.45594000000E+02  0.51100000000E-03 0. -1.
    9900012    2    1    2    0    0 -0.12059384057E+02 -0.35693217166E+02  0.15288276291E+02  0.50528857271E+02  0.29999992162E+02 0.  0.
         12    1    1    2    0    0  0.12059384057E+02  0.35693217166E+02 -0.15288276291E+02  0.40659142729E+02  0.00000000000E+00 0. -1.
         11    1    3    3    0    0  0.14407873023E+01 -0.54880679579E+01 -0.30061973476E+01  0.64212133367E+01  0.51100000000E-03 0. -1.
        -11    1    3    3    0    0 -0.12035886211E+02 -0.27880797543E+02  0.53010362905E+01  0.30826975436E+02  0.51100000000E-03 0.  1.
         12    1    3    3    0    0 -0.14642851486E+01 -0.23243516649E+01  0.12993437348E+02  0.13280668499E+02  0.00000000000E+00 0. -1.
</event>
<event>
 7    1  0.2450552E-011  0.5052886E+02  0.7816164E-02  0.1300439E+00
        -11   -1    0    0    0    0  0.00000000000E+00  0.00000000000E+00  0.45593999997E+02  0.45594000000E+02  0.51100000000E-03 0.  1.
         11   -1    0    0    0    0 -0.00000000000E+00 -0.00000000000E+00 -0.45593999997E+02  0.45594000000E+02  0.51100000000E-03 0. -1.
    9900012    2    1    2    0    0  0.23564932798E+02  0.14427906009E+02  0.29827760563E+02  0.50528857980E+02  0.29999994317E+02 0.  0.
         12    1    1    2    0    0 -0.23564932798E+02 -0.14427906009E+02 -0.29827760563E+02  0.40659142020E+02  0.00000000000E+00 0. -1.
         11    1    3    3    0    0  0.15362504702E+00 -0.55997267201E+00  0.13080962310E+02  0.13093843792E+02  0.51100000000E-03 0. -1.
        -11    1    3    3    0    0  0.18351402509E+02  0.13434856525E+02  0.20759283230E+02  0.30793135345E+02  0.51100000000E-03 0.  1.
        -12    1    3    3    0    0  0.50599052424E+01  0.15530221555E+01 -0.40124849765E+01  0.66418788430E+01  0.00000000000E+00 0.  1.
</event>
<event>
 7    1  0.2450552E-011  0.5052887E+02  0.7816164E-02  0.1300439E+00
        -11   -1    0    0    0    0  0.00000000000E+00  0.00000000000E+00  0.45593999997E+02  0.45594000000E+02  0.51100000000E-03 0.  1.
         11   -1    0    0    0    0 -0.00000000000E+00 -0.00000000000E+00 -0.45593999997E+02  0.45594000000E+02  0.51100000000E-03 0. -1.
    9900012    2    1    2    0    0  0.34005253592E+02  0.15997561530E+02  0.15520493595E+02  0.50528868575E+02  0.30000026522E+02 0.  0.
         12    1    1    2    0    0 -0.34005253592E+02 -0.15997561530E+02 -0.15520493595E+02  0.40659131425E+02  0.00000000000E+00 0. -1.
         11    1    3    3    0    0  0.13376683973E+01  0.85230790741E+01 -0.43495549193E+01  0.96618249778E+01  0.51100000000E-03 0. -1.
        -11    1    3    3    0    0  0.81573520880E+01 -0.29274733786E+01  0.76927815817E+01  0.11588415862E+02  0.51100000000E-03 0.  1.
        -12    1    3    3    0    0  0.24510233107E+02  0.10401955835E+02  0.12177266932E+02  0.29278627736E+02  0.00000000000E+00 0.  1.
</event>
<event>
 7    1  0.2450552E-011  0.5052894E+02  0.7816164E-02  0.1300438E+00
        -11   -1    0    0    0    0  0.00000000000E+00  0.00000000000E+00  0.45593999997E+02  0.45594000000E+02  0.51100000000E-03 0.  1.
         11   -1    0    0    0    0 -0.00000000000E+00 -0.00000000000E+00 -0.45593999997E+02  0.45594000000E+02  0.51100000000E-03 0. -1.
    9900012    2    1    2    0    0  0.31419819822E+02  0.45324320687E+01  0.25404936804E+02  0.50528944033E+02  0.30000255882E+02 0.  0.
         12    1    1    2    0    0 -0.31419819822E+02 -0.45324320687E+01 -0.25404936804E+02  0.40659055967E+02  0.00000000000E+00 0. -1.
         11    1    3    3    0    0  0.30279430689E+01  0.22730874196E+01 -0.30601886346E+01  0.48682769422E+01  0.51100000000E-03 0. -1.
        -11    1    3    3    0    0  0.30272666891E+02  0.25126411763E+01  0.18609272190E+02  0.35623766478E+02  0.51100000000E-03 0.  1.
         12    1    3    3    0    0 -0.18807901375E+01 -0.25329652709E+00  0.98558532478E+01  0.10036900613E+02  0.00000000000E+00 0. -1.
</event>
<event>
 7    1  0.2450552E-011  0.5052886E+02  0.7816164E-02  0.1300439E+00
        -11   -1    0    0    0    0  0.00000000000E+00  0.00000000000E+00  0.45593999997E+02  0.45594000000E+02  0.51100000000E-03 0. -1.
         11   -1    0    0    0    0 -0.00000000000E+00 -0.00000000000E+00 -0.45593999997E+02  0.45594000000E+02  0.51100000000E-03 0.  1.
    9900012    2    1    2    0    0 -0.39345925841E+02  0.83067740726E+01  0.60051056804E+01  0.50528859945E+02  0.30000000289E+02 0.  0.
         12    1    1    2    0    0  0.39345925841E+02 -0.83067740726E+01 -0.60051056804E+01  0.40659140055E+02  0.00000000000E+00 0. -1.
         11    1    3    3    0    0 -0.12394728105E+02  0.92253717138E+01 -0.10362727071E+02  0.18604377997E+02  0.51100000000E-03 0. -1.
        -11    1    3    3    0    0 -0.62410789994E+01 -0.99164139503E+00  0.16933670860E+01  0.65423170270E+01  0.51100000000E-03 0.  1.
        -12    1    3    3    0    0 -0.20710118737E+02  0.73043753830E-01  0.14674465666E+02  0.25382164921E+02  0.00000000000E+00 0.  1.
</event>
<event>
 7    1  0.2450552E-011  0.5052885E+02  0.7816164E-02  0.1300439E+00
        -11   -1    0    0    0    0  0.00000000000E+00  0.00000000000E+00  0.45593999997E+02  0.45594000000E+02  0.51100000000E-03 0. -1.
         11   -1    0    0    0    0 -0.00000000000E+00 -0.00000000000E+00 -0.45593999997E+02  0.45594000000E+02  0.51100000000E-03 0.  1.
    9900012    2    1    2    0    0  0.25335521971E+01  0.29553437714E+02 -0.27809019287E+02  0.50528854397E+02  0.29999983426E+02 0.  0.
         12    1    1    2    0    0 -0.25335521971E+01 -0.29553437714E+02  0.27809019287E+02  0.40659145603E+02  0.00000000000E+00 0. -1.
         11    1    3    3    0    0 -0.62156708683E+01 -0.10286710673E+01 -0.60255705995E+01  0.87178110681E+01  0.51100000000E-03 0. -1.
        -11    1    3    3    0    0 -0.41864604381E+01  0.81542236359E+01 -0.24200778842E+01  0.94802210592E+01  0.51100000000E-03 0.  1.
         12    1    3    3    0    0  0.12935683504E+02  0.22427885145E+02 -0.19363370803E+02  0.32330822270E+02  0.00000000000E+00 0. -1.
</event>
<event>
 7    1  0.2450552E-011  0.5052883E+02  0.7816164E-02  0.1300439E+00
        -11   -1    0    0    0    0  0.00000000000E+00  0.00000000000E+00  0.45593999997E+02  0.45594000000E+02  0.51100000000E-03 0.  1.
         11   -1    0    0    0    0 -0.00000000000E+00 -0.00000000000E+00 -0.45593999997E+02  0.45594000000E+02  0.51100000000E-03 0. -1.
    9900012    2    1    2    0    0 -0.10029607547E+02 -0.33141083664E+02  0.21312991875E+02  0.50528830350E+02  0.29999910332E+02 0.  0.
         12    1    1    2    0    0  0.10029607547E+02  0.33141083664E+02 -0.21312991875E+02  0.40659169650E+02  0.00000000000E+00 0. -1.
         11    1    3    3    0    0 -0.42333617127E+01 -0.13934731144E+01  0.68703640208E+01  0.81893235832E+01  0.51100000000E-03 0. -1.
        -11    1    3    3    0    0 -0.38055178239E+01 -0.12662014878E+01 -0.47864904039E+01  0.62446555360E+01  0.51100000000E-03 0.  1.
        -12    1    3    3    0    0 -0.19907280102E+01 -0.30481409062E+02  0.19229118258E+02  0.36094851231E+02  0.00000000000E+00 0.  1.
</event>
<event>
 7    1  0.2450552E-011  0.5052886E+02  0.7816164E-02  0.1300439E+00
        -11   -1    0    0    0    0  0.00000000000E+00  0.00000000000E+00  0.45593999997E+02  0.45594000000E+02  0.51100000000E-03 0.  1.
         11   -1    0    0    0    0 -0.00000000000E+00 -0.00000000000E+00 -0.45593999997E+02  0.45594000000E+02  0.51100000000E-03 0. -1.
    9900012    2    1    2    0    0  0.19734280524E+02  0.10983932018E+02  0.33809419807E+02  0.50528862551E+02  0.30000008211E+02 0.  0.
         12    1    1    2    0    0 -0.19734280524E+02 -0.10983932018E+02 -0.33809419807E+02  0.40659137449E+02  0.00000000000E+00 0. -1.
         11    1    3    3    0    0  0.47929571640E+00  0.86732587048E+01 -0.85854142676E+00  0.87288163337E+01  0.51100000000E-03 0. -1.
        -11    1    3    3    0    0  0.16653281369E+00 -0.30732396720E+01  0.79530170965E+01  0.85277791047E+01  0.51100000000E-03 0.  1.
        -12    1    3    3    0    0  0.19088451994E+02  0.53839129852E+01  0.26714944137E+02  0.33272267113E+02  0.00000000000E+00 0.  1.
</event>
<event>
 7    1  0.2450552E-011  0.5052886E+02  0.7816164E-02  0.1300439E+00
        -11   -1    0    0    0    0  0.00000000000E+00  0.00000000000E+00  0.45593999997E+02  0.45594000000E+02  0.51100000000E-03 0.  1.
         11   -1    0    0    0    0 -0.00000000000E+00 -0.00000000000E+00 -0.45593999997E+02  0.45594000000E+02  0.51100000000E-03 0. -1.
    9900012    2    1    2    0    0  0.13449184408E+02  0.26997906183E+02  0.27265324829E+02  0.50528862804E+02  0.30000008979E+02 0.  0.
         12    1    1    2    0    0 -0.13449184408E+02 -0.26997906183E+02 -0.27265324829E+02  0.40659137196E+02  0.00000000000E+00 0. -1.
         11    1    3    3    0    0 -0.15731563020E+01  0.51954836076E+01  0.10431298335E+02  0.11759245549E+02  0.51100000000E-03 0. -1.
        -11    1    3    3    0    0  0.18240853353E+02  0.24557832810E+02  0.13807637079E+02  0.33562877191E+02  0.51100000000E-03 0.  1.
         12    1    3    3    0    0 -0.32185126433E+01 -0.27554102348E+01  0.30263894148E+01  0.52067400633E+01  0.00000000000E+00 0. -1.
</event>
<event>
 7    1  0.2450552E-011  0.5052885E+02  0.7816164E-02  0.1300439E+00
        -11   -1    0    0    0    0  0.00000000000E+00  0.00000000000E+00  0.45593999997E+02  0.45594000000E+02  0.51100000000E-03 0. -1.
         11   -1    0    0    0    0 -0.00000000000E+00 -0.00000000000E+00 -0.45593999997E+02  0.45594000000E+02  0.51100000000E-03 0.  1.
    9900012    2    1    2    0    0  0.15167836770E+02  0.37382903449E+02  0.50617612519E+01  0.50528853802E+02  0.29999981617E+02 0.  0.
         12    1    1    2    0    0 -0.15167836770E+02 -0.37382903449E+02 -0.50617612519E+01  0.40659146198E+02  0.00000000000E+00 0. -1.
         11    1    3    3    0    0 -0.19625998786E+01 -0.70002860533E+00 -0.18930100855E+01  0.28151955130E+01  0.51100000000E-03 0. -1.
        -11    1    3    3    0    0 -0.41951313015E+01  0.15797293435E+02  0.29621138680E+01  0.16611072372E+02  0.51100000000E-03 0.  1.
         12    1    3    3    0    0  0.21325567950E+02  0.22285638620E+02  0.39926574694E+01  0.31102585917E+02  0.00000000000E+00 0. -1.
</event>
<event>
 7    1  0.2450552E-011  0.5052889E+02  0.7816164E-02  0.1300439E+00
        -11   -1    0    0    0    0  0.00000000000E+00  0.00000000000E+00  0.45593999997E+02  0.45594000000E+02  0.51100000000E-03 0. -1.
         11   -1    0    0    0    0 -0.00000000000E+00 -0.00000000000E+00 -0.45593999997E+02  0.45594000000E+02  0.51100000000E-03 0.  1.
    9900012    2    1    2    0    0  0.20550578958E+02 -0.22422961825E+02 -0.26982360085E+02  0.50528889480E+02  0.30000090065E+02 0.  0.
         12    1    1    2    0    0 -0.20550578958E+02  0.22422961825E+02  0.26982360085E+02  0.40659110520E+02  0.00000000000E+00 0. -1.
         11    1    3    3    0    0 -0.42533777155E+01 -0.48355745921E+01 -0.82162146125E+00  0.64922311814E+01  0.51100000000E-03 0. -1.
        -11    1    3    3    0    0  0.17393058508E+02 -0.18403422549E+02 -0.11974622320E+02  0.28010641295E+02  0.51100000000E-03 0.  1.
        -12    1    3    3    0    0  0.74108981657E+01  0.81603531603E+00 -0.14186116303E+02  0.16026017004E+02  0.00000000000E+00 0.  1.
</event>
<event>
 7    1  0.2450552E-011  0.5052887E+02  0.7816164E-02  0.1300439E+00
        -11   -1    0    0    0    0  0.00000000000E+00  0.00000000000E+00  0.45593999997E+02  0.45594000000E+02  0.51100000000E-03 0.  1.
         11   -1    0    0    0    0 -0.00000000000E+00 -0.00000000000E+00 -0.45593999997E+02  0.45594000000E+02  0.51100000000E-03 0. -1.
    9900012    2    1    2    0    0  0.27343665758E+02 -0.47361702913E+00  0.30087614324E+02  0.50528869342E+02  0.30000028851E+02 0.  0.
         12    1    1    2    0    0 -0.27343665758E+02  0.47361702913E+00 -0.30087614324E+02  0.40659130658E+02  0.00000000000E+00 0. -1.
         11    1    3    3    0    0 -0.95267489529E+00 -0.77883048989E+00  0.13664213422E+02  0.13719507830E+02  0.51100000000E-03 0. -1.
        -11    1    3    3    0    0  0.33051461276E+01  0.25684052751E+01 -0.29387063236E+01  0.51143613189E+01  0.51100000000E-03 0.  1.
        -12    1    3    3    0    0  0.24991194525E+02 -0.22631918144E+01  0.19362107226E+02  0.31695000193E+02  0.00000000000E+00 0.  1.
</event>
<event>
 7    1  0.2450552E-011  0.5052886E+02  0.7816164E-02  0.1300439E+00
        -11   -1    0    0    0    0  0.00000000000E+00  0.00000000000E+00  0.45593999997E+02  0.45594000000E+02  0.51100000000E-03 0. -1.
         11   -1    0    0    0    0 -0.00000000000E+00 -0.00000000000E+00 -0.45593999997E+02  0.45594000000E+02  0.51100000000E-03 0.  1.
    9900012    2    1    2    0    0 -0.20681988280E+02 -0.34868205992E+02 -0.31030858994E+01  0.50528861170E+02  0.30000004012E+02 0.  0.
         12    1    1    2    0    0  0.20681988280E+02  0.34868205992E+02  0.31030858994E+01  0.40659138830E+02  0.00000000000E+00 0. -1.
         11    1    3    3    0    0 -0.19328375469E+02 -0.76311603998E+01 -0.56753644589E+01  0.21541366469E+02  0.51100000000E-03 0. -1.
        -11    1    3    3    0    0 -0.34915431706E+01 -0.33616531001E+01 -0.23647888844E+00  0.48525774392E+01  0.51100000000E-03 0.  1.
        -12    1    3    3    0    0  0.21379303597E+01 -0.23875392492E+02  0.28087574479E+01  0.24134917262E+02  0.00000000000E+00 0.  1.
</event>
<event>
 7    1  0.2450552E-011  0.5052890E+02  0.7816164E-02  0.1300439E+00
        -11   -1    0    0    0    0  0.00000000000E+00  0.00000000000E+00  0.45593999997E+02  0.45594000000E+02  0.51100000000E-03 0.  1.
         11   -1    0    0    0    0 -0.00000000000E+00 -0.00000000000E+00 -0.45593999997E+02  0.45594000000E+02  0.51100000000E-03 0. -1.
    9900012    2    1    2    0    0  0.84639775410E+01  0.37139248343E+02 -0.14219705287E+02  0.50528896447E+02  0.30000111240E+02 0.  0.
         12    1    1    2    0    0 -0.84639775410E+01 -0.37139248343E+02  0.14219705287E+02  0.40659103553E+02  0.00000000000E+00 0. -1.
         11    1    3    3    0    0 -0.16812111915E+01 -0.15494127691E+01 -0.39471585431E+00  0.23201189336E+01  0.51100000000E-03 0. -1.
        -11    1    3    3    0    0  0.11824274764E+02  0.10633881695E+02 -0.12224614827E+02  0.20058268159E+02  0.51100000000E-03 0.  1.
        -12    1    3    3    0    0 -0.16790860317E+01  0.28054779417E+02 -0.16003746047E+01  0.28150509354E+02  0.00000000000E+00 0.  1.
</event>
<event>
 7    1  0.2450552E-011  0.5052887E+02  0.7816164E-02  0.1300439E+00
        -11   -1    0    0    0    0  0.00000000000E+00  0.00000000000E+00  0.45593999997E+02  0.45594000000E+02  0.51100000000E-03 0.  1.
         11   -1    0    0    0    0 -0.00000000000E+00 -0.00000000000E+00 -0.45593999997E+02  0.45594000000E+02  0.51100000000E-03 0. -1.
    9900012    2    1    2    0    0  0.28344008782E+02  0.29055659833E+02 -0.23560553178E+01  0.50528865739E+02  0.30000017901E+02 0.  0.
         12    1    1    2    0    0 -0.28344008782E+02 -0.29055659833E+02  0.23560553178E+01  0.40659134261E+02  0.00000000000E+00 0. -1.
         11    1    3    3    0    0  0.22056015450E+02  0.48938181886E+01  0.36352789739E+01  0.22883018320E+02  0.51100000000E-03 0. -1.
        -11    1    3    3    0    0  0.21070818624E+01  0.11553378632E+02  0.23275693364E+01  0.11972382013E+02  0.51100000000E-03 0.  1.
        -12    1    3    3    0    0  0.41809114702E+01  0.12608463013E+02 -0.83189036282E+01  0.15673465406E+02  0.00000000000E+00 0.  1.
</event>
<event>
 7    1  0.2450552E-011  0.5052886E+02  0.7816164E-02  0.1300439E+00
        -11   -1    0    0    0    0  0.00000000000E+00  0.00000000000E+00  0.45593999997E+02  0.45594000000E+02  0.51100000000E-03 0.  1.
         11   -1    0    0    0    0 -0.00000000000E+00 -0.00000000000E+00 -0.45593999997E+02  0.45594000000E+02  0.51100000000E-03 0. -1.
    9900012    2    1    2    0    0 -0.15790068462E+02 -0.33021258231E+02 -0.17704115594E+02  0.50528862451E+02  0.30000007907E+02 0.  0.
         12    1    1    2    0    0  0.15790068462E+02  0.33021258231E+02  0.17704115594E+02  0.40659137549E+02  0.00000000000E+00 0. -1.
         11    1    3    3    0    0  0.36557521375E+00 -0.71327886460E+01 -0.12794185371E+02  0.14652695952E+02  0.51100000000E-03 0. -1.
        -11    1    3    3    0    0 -0.11359287795E+02 -0.81836154628E+01 -0.95600807282E+01  0.16952879550E+02  0.51100000000E-03 0.  1.
         12    1    3    3    0    0 -0.47963558811E+01 -0.17704854123E+02  0.46501505049E+01  0.18923286949E+02  0.00000000000E+00 0. -1.
</event>
<event>
 7    1  0.2450552E-011  0.5052886E+02  0.7816164E-02  0.1300439E+00
        -11   -1    0    0    0    0  0.00000000000E+00  0.00000000000E+00  0.45593999997E+02  0.45594000000E+02  0.51100000000E-03 0.  1.
         11   -1    0    0    0    0 -0.00000000000E+00 -0.00000000000E+00 -0.45593999997E+02  0.45594000000E+02  0.51100000000E-03 0. -1.
    9900012    2    1    2    0    0 -0.11335403606E+01 -0.17864722372E+02  0.36506606096E+02  0.50528861940E+02  0.30000006351E+02 0.  0.
         12    1    1    2    0    0  0.11335403606E+01  0.17864722372E+02 -0.36506606096E+02  0.40659138060E+02  0.00000000000E+00 0. -1.
         11    1    3    3    0    0  0.14368457663E+01 -0.16000503113E+01 -0.65086834739E+00  0.22468459274E+01  0.51100000000E-03 0. -1.
        -11    1    3    3    0    0  0.60480815858E+01 -0.68008298815E+01  0.33863080543E+02  0.35064780080E+02  0.51100000000E-03 0.  1.
         12    1    3    3    0    0 -0.86184677127E+01 -0.94638421789E+01  0.32943939001E+01  0.13217235932E+02  0.00000000000E+00 0. -1.
</event>
<event>
 7    1  0.2450552E-011  0.5052886E+02  0.7816164E-02  0.1300439E+00
        -11   -1    0    0    0    0  0.00000000000E+00  0.00000000000E+00  0.45593999997E+02  0.45594000000E+02  0.51100000000E-03 0.  1.
         11   -1    0    0    0    0 -0.00000000000E+00 -0.00000000000E+00 -0.45593999997E+02  0.45594000000E+02  0.51100000000E-03 0. -1.
    9900012    2    1    2    0    0 -0.18540438389E+02 -0.37045260727E+01  0.35995752633E+02  0.50528861093E+02  0.30000003778E+02 0.  0.
         12    1    1    2    0    0  0.18540438389E+02  0.37045260727E+01 -0.35995752633E+02  0.40659138907E+02  0.00000000000E+00 0. -1.
         11    1    3    3    0    0 -0.38546872488E+00 -0.26298890525E+01 -0.20270633768E+01  0.33427367173E+01  0.51100000000E-03 0. -1.
        -11    1    3    3    0    0 -0.95777864228E+01  0.95279905264E+01  0.13338369246E+02  0.18984959590E+02  0.51100000000E-03 0.  1.
        -12    1    3    3    0    0 -0.85771832409E+01 -0.10602627547E+02  0.24684446764E+02  0.28201164786E+02  0.00000000000E+00 0.  1.
</event>
<event>
 7    1  0.2450552E-011  0.5052886E+02  0.7816164E-02  0.1300439E+00
        -11   -1    0    0    0    0  0.00000000000E+00  0.00000000000E+00  0.45593999997E+02  0.45594000000E+02  0.51100000000E-03 0.  1.
         11   -1    0    0    0    0 -0.00000000000E+00 -0.00000000000E+00 -0.45593999997E+02  0.45594000000E+02  0.51100000000E-03 0. -1.
    9900012    2    1    2    0    0 -0.17461453960E+02 -0.13540451284E+02  0.34130914835E+02  0.50528861509E+02  0.30000005043E+02 0.  0.
         12    1    1    2    0    0  0.17461453960E+02  0.13540451284E+02 -0.34130914835E+02  0.40659138491E+02  0.00000000000E+00 0. -1.
         11    1    3    3    0    0 -0.17198071579E+01 -0.42378796958E+01  0.23703475952E+02  0.24140673840E+02  0.51100000000E-03 0. -1.
        -11    1    3    3    0    0  0.19893377127E+01  0.12072080211E+00 -0.19598270558E+01  0.27951673290E+01  0.51100000000E-03 0.  1.
         12    1    3    3    0    0 -0.17730984515E+02 -0.94232923904E+01  0.12387265939E+02  0.23593020340E+02  0.00000000000E+00 0. -1.
</event>
<event>
 7    1  0.2450552E-011  0.5052885E+02  0.7816164E-02  0.1300439E+00
        -11   -1    0    0    0    0  0.00000000000E+00  0.00000000000E+00  0.45593999997E+02  0.45594000000E+02  0.51100000000E-03 0.  1.
         11   -1    0    0    0    0 -0.00000000000E+00 -0.00000000000E+00 -0.45593999997E+02  0.45594000000E+02  0.51100000000E-03 0. -1.
    9900012    2    1    2    0    0  0.36079911267E+02 -0.81369515395E+01  0.16887755404E+02  0.50528852690E+02  0.29999978237E+02 0.  0.
         12    1    1    2    0    0 -0.36079911267E+02  0.81369515395E+01 -0.16887755404E+02  0.40659147310E+02  0.00000000000E+00 0. -1.
         11    1    3    3    0    0  0.10242530077E+02  0.10022375708E+01  0.17624300075E+02  0.20409063083E+02  0.51100000000E-03 0. -1.
        -11    1    3    3    0    0  0.18811147023E+02 -0.30156337797E+00 -0.77212195457E+00  0.18829401620E+02  0.51100000000E-03 0.  1.
        -12    1    3    3    0    0  0.70262341672E+01 -0.88376257323E+01  0.35577283278E-01  0.11290387987E+02  0.00000000000E+00 0.  1.
</event>
<event>
 7    1  0.2450552E-011  0.5052883E+02  0.7816164E-02  0.1300439E+00
        -11   -1    0    0    0    0  0.00000000000E+00  0.00000000000E+00  0.45593999997E+02  0.45594000000E+02  0.51100000000E-03 0. -1.
         11   -1    0    0    0    0 -0.00000000000E+00 -0.00000000000E+00 -0.45593999997E+02  0.45594000000E+02  0.51100000000E-03 0.  1.
    9900012    2    1    2    0    0 -0.75252398921E+01  0.39834544633E+02  0.31222106324E+01  0.50528826609E+02  0.29999898961E+02 0.  0.
         12    1    1    2    0    0  0.75252398921E+01 -0.39834544633E+02 -0.31222106324E+01  0.40659173391E+02  0.00000000000E+00 0. -1.
         11    1    3    3    0    0  0.18912392022E+01 -0.62477045046E+00  0.17162572609E+01  0.26291943790E+01  0.51100000000E-03 0. -1.
        -11    1    3    3    0    0 -0.13107325518E+02  0.18501752638E+02  0.89704601716E+01  0.24384133958E+02  0.51100000000E-03 0.  1.
        -12    1    3    3    0    0  0.36908464235E+01  0.21957562446E+02 -0.75645068002E+01  0.23515498273E+02  0.00000000000E+00 0.  1.
</event>
<event>
 7    1  0.2450552E-011  0.5052900E+02  0.7816164E-02  0.1300438E+00
        -11   -1    0    0    0    0  0.00000000000E+00  0.00000000000E+00  0.45593999997E+02  0.45594000000E+02  0.51100000000E-03 0. -1.
         11   -1    0    0    0    0 -0.00000000000E+00 -0.00000000000E+00 -0.45593999997E+02  0.45594000000E+02  0.51100000000E-03 0.  1.
    9900012    2    1    2    0    0  0.17670945186E+02  0.13262799105E+01 -0.36594163616E+02  0.50529001821E+02  0.30000431533E+02 0.  0.
         12    1    1    2    0    0 -0.17670945186E+02 -0.13262799105E+01  0.36594163616E+02  0.40658998179E+02  0.00000000000E+00 0. -1.
         11    1    3    3    0    0  0.14975496373E+02 -0.50750271145E+01 -0.76776501340E+01  0.17577477170E+02  0.51100000000E-03 0. -1.
        -11    1    3    3    0    0  0.78041232134E+01  0.33351386962E+01 -0.23162968824E+02  0.24668818663E+02  0.51100000000E-03 0.  1.
        -12    1    3    3    0    0 -0.51086744004E+01  0.30661683288E+01 -0.57535446581E+01  0.82827059879E+01  0.00000000000E+00 0.  1.
</event>
<event>
 7    1  0.2450552E-011  0.5052886E+02  0.7816164E-02  0.1300439E+00
        -11   -1    0    0    0    0  0.00000000000E+00  0.00000000000E+00  0.45593999997E+02  0.45594000000E+02  0.51100000000E-03 0.  1.
         11   -1    0    0    0    0 -0.00000000000E+00 -0.00000000000E+00 -0.45593999997E+02  0.45594000000E+02  0.51100000000E-03 0. -1.
    9900012    2    1    2    0    0 -0.30520697451E+02  0.26802428752E+02 -0.18117123531E+01  0.50528862509E+02  0.30000008081E+02 0.  0.
         12    1    1    2    0    0  0.30520697451E+02 -0.26802428752E+02  0.18117123531E+01  0.40659137491E+02  0.00000000000E+00 0. -1.
         11    1    3    3    0    0 -0.12723589196E+02  0.11333555141E+02  0.72735071959E+01  0.18526821134E+02  0.51100000000E-03 0.  1.
        -11    1    3    3    0    0  0.11935538738E+01 -0.83923248450E-01  0.40072952104E+01  0.41821082154E+01  0.51100000000E-03 0. -1.
         12    1    3    3    0    0 -0.18990662129E+02  0.15552796859E+02 -0.13092514759E+02  0.27819933159E+02  0.00000000000E+00 0. -1.
</event>
<event>
 7    1  0.2450552E-011  0.5052887E+02  0.7816164E-02  0.1300439E+00
        -11   -1    0    0    0    0  0.00000000000E+00  0.00000000000E+00  0.45593999997E+02  0.45594000000E+02  0.51100000000E-03 0. -1.
         11   -1    0    0    0    0 -0.00000000000E+00 -0.00000000000E+00 -0.45593999997E+02  0.45594000000E+02  0.51100000000E-03 0.  1.
    9900012    2    1    2    0    0  0.88821908963E+01  0.14071977326E+02 -0.37097854728E+02  0.50528872041E+02  0.30000037055E+02 0.  0.
         12    1    1    2    0    0 -0.88821908963E+01 -0.14071977326E+02  0.37097854728E+02  0.40659127959E+02  0.00000000000E+00 0. -1.
         11    1    3    3    0    0  0.14092677485E+02  0.18205197430E+02 -0.29696444725E+02  0.37575412196E+02  0.51100000000E-03 0. -1.
        -11    1    3    3    0    0 -0.20730189292E+01  0.20144717188E+01 -0.47485805977E+01  0.55591835498E+01  0.51100000000E-03 0.  1.
        -12    1    3    3    0    0 -0.31374676592E+01 -0.61476918233E+01 -0.26528294058E+01  0.73942762948E+01  0.00000000000E+00 0.  1.
</event>
<event>
 7    1  0.2450552E-011  0.5052885E+02  0.7816164E-02  0.1300439E+00
        -11   -1    0    0    0    0  0.00000000000E+00  0.00000000000E+00  0.45593999997E+02  0.45594000000E+02  0.51100000000E-03 0.  1.
         11   -1    0    0    0    0 -0.00000000000E+00 -0.00000000000E+00 -0.45593999997E+02  0.45594000000E+02  0.51100000000E-03 0. -1.
    9900012    2    1    2    0    0 -0.96334971263E+01 -0.29257587043E+02  0.26539695983E+02  0.50528854297E+02  0.29999983121E+02 0.  0.
         12    1    1    2    0    0  0.96334971263E+01  0.29257587043E+02 -0.26539695983E+02  0.40659145703E+02  0.00000000000E+00 0. -1.
         11    1    3    3    0    0 -0.87323919210E+01 -0.74486830366E+01  0.59364336484E+00  0.11493039648E+02  0.51100000000E-03 0. -1.
        -11    1    3    3    0    0  0.31727980509E+01  0.29733393175E+00 -0.15311044006E+01  0.35354399847E+01  0.51100000000E-03 0.  1.
        -12    1    3    3    0    0 -0.40739032563E+01 -0.22106237938E+02  0.27477157018E+02  0.35500374664E+02  0.00000000000E+00 0.  1.
</event>
<event>
 7    1  0.2450552E-011  0.5052887E+02  0.7816164E-02  0.1300439E+00
        -11   -1    0    0    0    0  0.00000000000E+00  0.00000000000E+00  0.45593999997E+02  0.45594000000E+02  0.51100000000E-03 0. -1.
         11   -1    0    0    0    0 -0.00000000000E+00 -0.00000000000E+00 -0.45593999997E+02  0.45594000000E+02  0.51100000000E-03 0.  1.
    9900012    2    1    2    0    0  0.93323157135E+01 -0.26426143409E+02 -0.29457291316E+02  0.50528865925E+02  0.30000018466E+02 0.  0.
         12    1    1    2    0    0 -0.93323157135E+01  0.26426143409E+02  0.29457291316E+02  0.40659134075E+02  0.00000000000E+00 0. -1.
         11    1    3    3    0    0  0.71364463819E+01 -0.81611911644E+01 -0.57648640336E+00  0.10856622173E+02  0.51100000000E-03 0. -1.
        -11    1    3    3    0    0  0.51220546821E+01  0.25325761798E+01 -0.95445800544E+01  0.11124225589E+02  0.51100000000E-03 0.  1.
        -12    1    3    3    0    0 -0.29261853505E+01 -0.20797528424E+02 -0.19336224858E+02  0.28548018163E+02  0.00000000000E+00 0.  1.
</event>
<event>
 7    1  0.2450552E-011  0.5052884E+02  0.7816164E-02  0.1300439E+00
        -11   -1    0    0    0    0  0.00000000000E+00  0.00000000000E+00  0.45593999997E+02  0.45594000000E+02  0.51100000000E-03 0.  1.
         11   -1    0    0    0    0 -0.00000000000E+00 -0.00000000000E+00 -0.45593999997E+02  0.45594000000E+02  0.51100000000E-03 0. -1.
    9900012    2    1    2    0    0 -0.33670783678E+02  0.12651049695E+02  0.18957750127E+02  0.50528843322E+02  0.29999949762E+02 0.  0.
         12    1    1    2    0    0  0.33670783678E+02 -0.12651049695E+02 -0.18957750127E+02  0.40659156678E+02  0.00000000000E+00 0. -1.
         11    1    3    3    0    0 -0.11349108361E+02  0.44366389548E+01 -0.12874593252E+01  0.12253308842E+02  0.51100000000E-03 0. -1.
        -11    1    3    3    0    0 -0.15876993907E+02  0.15337300329E+02  0.10009399173E+02  0.24238394934E+02  0.51100000000E-03 0.  1.
         12    1    3    3    0    0 -0.64446814101E+01 -0.71228895885E+01  0.10235810279E+02  0.14037139546E+02  0.00000000000E+00 0. -1.
</event>
<event>
 7    1  0.2450552E-011  0.5052885E+02  0.7816164E-02  0.1300439E+00
        -11   -1    0    0    0    0  0.00000000000E+00  0.00000000000E+00  0.45593999997E+02  0.45594000000E+02  0.51100000000E-03 0.  1.
         11   -1    0    0    0    0 -0.00000000000E+00 -0.00000000000E+00 -0.45593999997E+02  0.45594000000E+02  0.51100000000E-03 0. -1.
    9900012    2    1    2    0    0 -0.62878961004E+00 -0.47523139687E+01  0.40375565538E+02  0.50528853957E+02  0.29999982088E+02 0.  0.
         12    1    1    2    0    0  0.62878961004E+00  0.47523139687E+01 -0.40375565538E+02  0.40659146043E+02  0.00000000000E+00 0. -1.
         11    1    3    3    0    0  0.71305103963E+01 -0.87838610110E+01  0.10194655751E+02  0.15229294105E+02  0.51100000000E-03 0. -1.
        -11    1    3    3    0    0  0.48658756056E+01  0.27705011633E+01  0.10021442106E+02  0.11479622130E+02  0.51100000000E-03 0.  1.
        -12    1    3    3    0    0 -0.12625175612E+02  0.12610458790E+01  0.20159467681E+02  0.23819937723E+02  0.00000000000E+00 0.  1.
</event>
<event>
 7    1  0.2450552E-011  0.5052887E+02  0.7816164E-02  0.1300439E+00
        -11   -1    0    0    0    0  0.00000000000E+00  0.00000000000E+00  0.45593999997E+02  0.45594000000E+02  0.51100000000E-03 0. -1.
         11   -1    0    0    0    0 -0.00000000000E+00 -0.00000000000E+00 -0.45593999997E+02  0.45594000000E+02  0.51100000000E-03 0.  1.
    9900012    2    1    2    0    0 -0.33419380981E+02  0.11891644111E+02 -0.19872066475E+02  0.50528865100E+02  0.30000015959E+02 0.  0.
         12    1    1    2    0    0  0.33419380981E+02 -0.11891644111E+02  0.19872066475E+02  0.40659134900E+02  0.00000000000E+00 0. -1.
         11    1    3    3    0    0  0.12226703612E+01  0.21230751922E+01  0.37557869461E+01  0.44842286883E+01  0.51100000000E-03 0. -1.
        -11    1    3    3    0    0 -0.10416477868E+02  0.94348774470E+01 -0.33433912538E+01  0.14446390170E+02  0.51100000000E-03 0.  1.
         12    1    3    3    0    0 -0.24225573474E+02  0.33369147204E+00 -0.20284462167E+02  0.31598246242E+02  0.00000000000E+00 0. -1.
</event>
<event>
 7    1  0.2450552E-011  0.5052887E+02  0.7816164E-02  0.1300439E+00
        -11   -1    0    0    0    0  0.00000000000E+00  0.00000000000E+00  0.45593999997E+02  0.45594000000E+02  0.51100000000E-03 0.  1.
         11   -1    0    0    0    0 -0.00000000000E+00 -0.00000000000E+00 -0.45593999997E+02  0.45594000000E+02  0.51100000000E-03 0. -1.
    9900012    2    1    2    0    0 -0.66506152268E+01  0.35609043572E+02 -0.18464299397E+02  0.50528867948E+02  0.30000024614E+02 0.  0.
         12    1    1    2    0    0  0.66506152268E+01 -0.35609043572E+02  0.18464299397E+02  0.40659132052E+02  0.00000000000E+00 0. -1.
         11    1    3    3    0    0  0.40111150152E+01  0.21250155594E+01 -0.11381493827E+02  0.12253290855E+02  0.51100000000E-03 0. -1.
        -11    1    3    3    0    0  0.30682805443E+01  0.78109842814E+01 -0.38301406814E+00  0.84007452634E+01  0.51100000000E-03 0.  1.
        -12    1    3    3    0    0 -0.13730010786E+02  0.25673043732E+02 -0.66997915015E+01  0.29874831829E+02  0.00000000000E+00 0.  1.
</event>
<event>
 7    1  0.2450552E-011  0.5052886E+02  0.7816164E-02  0.1300439E+00
        -11   -1    0    0    0    0  0.00000000000E+00  0.00000000000E+00  0.45593999997E+02  0.45594000000E+02  0.51100000000E-03 0.  1.
         11   -1    0    0    0    0 -0.00000000000E+00 -0.00000000000E+00 -0.45593999997E+02  0.45594000000E+02  0.51100000000E-03 0. -1.
    9900012    2    1    2    0    0 -0.10987541325E+02 -0.10821041525E+02  0.37621063667E+02  0.50528862829E+02  0.30000009054E+02 0.  0.
         12    1    1    2    0    0  0.10987541325E+02  0.10821041525E+02 -0.37621063667E+02  0.40659137171E+02  0.00000000000E+00 0. -1.
         11    1    3    3    0    0 -0.39869163105E+00  0.27079970365E+01  0.43873660742E+01  0.51711878999E+01  0.51100000000E-03 0. -1.
        -11    1    3    3    0    0  0.10737177337E+01 -0.14993809334E+02  0.29355031752E+02  0.32980070914E+02  0.51100000000E-03 0.  1.
         12    1    3    3    0    0 -0.11662567428E+02  0.14647707718E+01  0.38786658414E+01  0.12377604014E+02  0.00000000000E+00 0. -1.
</event>
<event>
 7    1  0.2450552E-011  0.5052887E+02  0.7816164E-02  0.1300439E+00
        -11   -1    0    0    0    0  0.00000000000E+00  0.00000000000E+00  0.45593999997E+02  0.45594000000E+02  0.51100000000E-03 0. -1.
         11   -1    0    0    0    0 -0.00000000000E+00 -0.00000000000E+00 -0.45593999997E+02  0.45594000000E+02  0.51100000000E-03 0.  1.
    9900012    2    1    2    0    0  0.31732774612E+02 -0.18700732011E+02 -0.17218562374E+02  0.50528865079E+02  0.30000015893E+02 0.  0.
         12    1    1    2    0    0 -0.31732774612E+02  0.18700732011E+02  0.17218562374E+02  0.40659134921E+02  0.00000000000E+00 0. -1.
         11    1    3    3    0    0  0.13947354451E+02 -0.85424344276E+01 -0.66472042076E+01  0.17654665280E+02  0.51100000000E-03 0. -1.
        -11    1    3    3    0    0  0.69470586505E+01 -0.64772553836E+01 -0.17199035049E+02  0.19647474853E+02  0.51100000000E-03 0.  1.
         12    1    3    3    0    0  0.10838361511E+02 -0.36810421998E+01  0.66276768831E+01  0.13226724945E+02  0.00000000000E+00 0. -1.
</event>
<event>
 7    1  0.2450552E-011  0.5052886E+02  0.7816164E-02  0.1300439E+00
        -11   -1    0    0    0    0  0.00000000000E+00  0.00000000000E+00  0.45593999997E+02  0.45594000000E+02  0.51100000000E-03 0.  1.
         11   -1    0    0    0    0 -0.00000000000E+00 -0.00000000000E+00 -0.45593999997E+02  0.45594000000E+02  0.51100000000E-03 0. -1.
    9900012    2    1    2    0    0 -0.11124724497E+02  0.18673547777E+02  0.34361380802E+02  0.50528863605E+02  0.30000011415E+02 0.  0.
         12    1    1    2    0    0  0.11124724497E+02 -0.18673547777E+02 -0.34361380802E+02  0.40659136395E+02  0.00000000000E+00 0. -1.
         11    1    3    3    0    0 -0.67302557883E+01  0.23589748284E+01  0.10783060041E+02  0.12928089160E+02  0.51100000000E-03 0.  1.
        -11    1    3    3    0    0 -0.45688024539E+01  0.16389137611E+01 -0.40464115070E+01  0.63192911410E+01  0.51100000000E-03 0. -1.
        -12    1    3    3    0    0  0.17433374507E+00  0.14675659188E+02  0.27624732268E+02  0.31281483305E+02  0.00000000000E+00 0.  1.
</event>
<event>
 7    1  0.2450552E-011  0.5052887E+02  0.7816164E-02  0.1300439E+00
        -11   -1    0    0    0    0  0.00000000000E+00  0.00000000000E+00  0.45593999997E+02  0.45594000000E+02  0.51100000000E-03 0.  1.
         11   -1    0    0    0    0 -0.00000000000E+00 -0.00000000000E+00 -0.45593999997E+02  0.45594000000E+02  0.51100000000E-03 0. -1.
    9900012    2    1    2    0    0  0.22985170949E+02 -0.33366219651E+02  0.33973303501E+01  0.50528873708E+02  0.30000042122E+02 0.  0.
         12    1    1    2    0    0 -0.22985170949E+02  0.33366219651E+02 -0.33973303501E+01  0.40659126292E+02  0.00000000000E+00 0. -1.
         11    1    3    3    0    0  0.16608919194E+02 -0.12643437703E+02 -0.89957771763E+01  0.22729644102E+02  0.51100000000E-03 0.  1.
        -11    1    3    3    0    0  0.26931777565E+01 -0.10512927820E+02 -0.60022070014E+00  0.10868998248E+02  0.51100000000E-03 0. -1.
        -12    1    3    3    0    0  0.36830739978E+01 -0.10209854128E+02  0.12993328227E+02  0.16930231357E+02  0.00000000000E+00 0.  1.
</event>
<event>
 7    1  0.2450552E-011  0.5052886E+02  0.7816164E-02  0.1300439E+00
        -11   -1    0    0    0    0  0.00000000000E+00  0.00000000000E+00  0.45593999997E+02  0.45594000000E+02  0.51100000000E-03 0. -1.
         11   -1    0    0    0    0 -0.00000000000E+00 -0.00000000000E+00 -0.45593999997E+02  0.45594000000E+02  0.51100000000E-03 0.  1.
    9900012    2    1    2    0    0 -0.65935021995E+01 -0.27849123594E+02 -0.28881093104E+02  0.50528862096E+02  0.30000006826E+02 0.  0.
         12    1    1    2    0    0  0.65935021995E+01  0.27849123594E+02  0.28881093104E+02  0.40659137904E+02  0.00000000000E+00 0. -1.
         11    1    3    3    0    0  0.27087030480E+01 -0.80122788367E+01 -0.22173645317E+02  0.23731924306E+02  0.51100000000E-03 0. -1.
        -11    1    3    3    0    0 -0.10351059610E+02 -0.82813812778E+01 -0.73845508977E+01  0.15174231550E+02  0.51100000000E-03 0.  1.
         12    1    3    3    0    0  0.10488543622E+01 -0.11555463480E+02  0.67710311055E+00  0.11622706239E+02  0.00000000000E+00 0. -1.
</event>
<event>
 7    1  0.2450552E-011  0.5052885E+02  0.7816164E-02  0.1300439E+00
        -11   -1    0    0    0    0  0.00000000000E+00  0.00000000000E+00  0.45593999997E+02  0.45594000000E+02  0.51100000000E-03 0. -1.
         11   -1    0    0    0    0 -0.00000000000E+00 -0.00000000000E+00 -0.45593999997E+02  0.45594000000E+02  0.51100000000E-03 0.  1.
    9900012    2    1    2    0    0 -0.27492892425E+02 -0.62035688094E+01 -0.29305682860E+02  0.50528850381E+02  0.29999971218E+02 0.  0.
         12    1    1    2    0    0  0.27492892425E+02  0.62035688094E+01  0.29305682860E+02  0.40659149619E+02  0.00000000000E+00 0. -1.
         11    1    3    3    0    0 -0.35387693657E+01  0.51154580825E+01 -0.47023577640E+01  0.77976258450E+01  0.51100000000E-03 0. -1.
        -11    1    3    3    0    0 -0.15001543010E+02 -0.10799755616E+02 -0.27650475829E+02  0.33260033492E+02  0.51100000000E-03 0.  1.
         12    1    3    3    0    0 -0.89525800494E+01 -0.51927127542E+00  0.30471507333E+01  0.94711910439E+01  0.00000000000E+00 0. -1.
</event>
<event>
 7    1  0.2450552E-011  0.5052886E+02  0.7816164E-02  0.1300439E+00
        -11   -1    0    0    0    0  0.00000000000E+00  0.00000000000E+00  0.45593999997E+02  0.45594000000E+02  0.51100000000E-03 0.  1.
         11   -1    0    0    0    0 -0.00000000000E+00 -0.00000000000E+00 -0.45593999997E+02  0.45594000000E+02  0.51100000000E-03 0. -1.
    9900012    2    1    2    0    0 -0.16476356765E+01  0.27041855065E+02  0.30318124813E+02  0.50528864238E+02  0.30000013338E+02 0.  0.
         12    1    1    2    0    0  0.16476356765E+01 -0.27041855065E+02 -0.30318124813E+02  0.40659135762E+02  0.00000000000E+00 0. -1.
         11    1    3    3    0    0  0.11683262844E-01 -0.37291397041E+00 -0.17453751957E+01  0.17848070379E+01  0.51100000000E-03 0. -1.
        -11    1    3    3    0    0 -0.10792296761E+02  0.16983528697E+02  0.94786773855E+01  0.22243184161E+02  0.51100000000E-03 0.  1.
         12    1    3    3    0    0  0.91329778214E+01  0.10431240339E+02  0.22584822624E+02  0.26500873039E+02  0.00000000000E+00 0. -1.
</event>
<event>
 7    1  0.2450552E-011  0.5052888E+02  0.7816164E-02  0.1300439E+00
        -11   -1    0    0    0    0  0.00000000000E+00  0.00000000000E+00  0.45593999997E+02  0.45594000000E+02  0.51100000000E-03 0.  1.
         11   -1    0    0    0    0 -0.00000000000E+00 -0.00000000000E+00 -0.45593999997E+02  0.45594000000E+02  0.51100000000E-03 0. -1.
    9900012    2    1    2    0    0 -0.98661662509E+01 -0.88645136333E+01  0.38434925828E+02  0.50528876032E+02  0.30000049188E+02 0.  0.
         12    1    1    2    0    0  0.98661662509E+01  0.88645136333E+01 -0.38434925828E+02  0.40659123968E+02  0.00000000000E+00 0. -1.
         11    1    3    3    0    0 -0.27508455425E+01 -0.90511990259E+01  0.14678095216E+01  0.95731823371E+01  0.51100000000E-03 0. -1.
        -11    1    3    3    0    0  0.37620971903E+01 -0.23322832901E+01  0.21066567166E+02  0.21526569002E+02  0.51100000000E-03 0.  1.
         12    1    3    3    0    0 -0.10877417899E+02  0.25189686827E+01  0.15900549140E+02  0.19429124693E+02  0.00000000000E+00 0. -1.
</event>
<event>
 7    1  0.2450552E-011  0.5052887E+02  0.7816164E-02  0.1300439E+00
        -11   -1    0    0    0    0  0.00000000000E+00  0.00000000000E+00  0.45593999997E+02  0.45594000000E+02  0.51100000000E-03 0.  1.
         11   -1    0    0    0    0 -0.00000000000E+00 -0.00000000000E+00 -0.45593999997E+02  0.45594000000E+02  0.51100000000E-03 0. -1.
    9900012    2    1    2    0    0 -0.11034735368E+02  0.39106505266E+02  0.14424616495E+01  0.50528870221E+02  0.30000031525E+02 0.  0.
         12    1    1    2    0    0  0.11034735368E+02 -0.39106505266E+02 -0.14424616495E+01  0.40659129779E+02  0.00000000000E+00 0. -1.
         11    1    3    3    0    0  0.28378157938E+01  0.55791397219E+00  0.30913794879E+01  0.42333312981E+01  0.51100000000E-03 0. -1.
        -11    1    3    3    0    0 -0.15090763434E+02  0.13971622831E+02  0.42298022763E+01  0.20995918963E+02  0.51100000000E-03 0.  1.
        -12    1    3    3    0    0  0.12182122719E+01  0.24576968462E+02 -0.58787201147E+01  0.25299619960E+02  0.00000000000E+00 0.  1.
</event>
<event>
 7    1  0.2450552E-011  0.5052886E+02  0.7816164E-02  0.1300439E+00
        -11   -1    0    0    0    0  0.00000000000E+00  0.00000000000E+00  0.45593999997E+02  0.45594000000E+02  0.51100000000E-03 0.  1.
         11   -1    0    0    0    0 -0.00000000000E+00 -0.00000000000E+00 -0.45593999997E+02  0.45594000000E+02  0.51100000000E-03 0. -1.
    9900012    2    1    2    0    0 -0.17393594956E+01  0.34022816763E+02  0.22194333195E+02  0.50528857635E+02  0.29999993266E+02 0.  0.
         12    1    1    2    0    0  0.17393594956E+01 -0.34022816763E+02 -0.22194333195E+02  0.40659142365E+02  0.00000000000E+00 0. -1.
         11    1    3    3    0    0  0.68843712499E+00 -0.27452820784E+01 -0.10281744420E+01  0.30112559356E+01  0.51100000000E-03 0. -1.
        -11    1    3    3    0    0 -0.34292329228E+01  0.35216645465E+01  0.11058294592E+02  0.12101555237E+02  0.51100000000E-03 0.  1.
         12    1    3    3    0    0  0.10014363022E+01  0.33246434295E+02  0.12164213045E+02  0.35416046462E+02  0.00000000000E+00 0. -1.
</event>
<event>
 7    1  0.2450552E-011  0.5052885E+02  0.7816164E-02  0.1300439E+00
        -11   -1    0    0    0    0  0.00000000000E+00  0.00000000000E+00  0.45593999997E+02  0.45594000000E+02  0.51100000000E-03 0.  1.
         11   -1    0    0    0    0 -0.00000000000E+00 -0.00000000000E+00 -0.45593999997E+02  0.45594000000E+02  0.51100000000E-03 0. -1.
    9900012    2    1    2    0    0  0.38161981477E+02 -0.14015556443E+02 -0.62759842272E+00  0.50528849339E+02  0.29999968052E+02 0.  0.
         12    1    1    2    0    0 -0.38161981477E+02  0.14015556443E+02  0.62759842272E+00  0.40659150661E+02  0.00000000000E+00 0. -1.
         11    1    3    3    0    0  0.14277680542E+02 -0.18709749220E+02 -0.40113711631E+01  0.23874630393E+02  0.51100000000E-03 0. -1.
        -11    1    3    3    0    0  0.10717191363E+02 -0.22949637783E+01 -0.12799340698E+01  0.11034640046E+02  0.51100000000E-03 0.  1.
         12    1    3    3    0    0  0.13167109572E+02  0.69891565548E+01  0.46637068102E+01  0.15619578901E+02  0.00000000000E+00 0. -1.
</event>
<event>
 7    1  0.2450552E-011  0.5052886E+02  0.7816164E-02  0.1300439E+00
        -11   -1    0    0    0    0  0.00000000000E+00  0.00000000000E+00  0.45593999997E+02  0.45594000000E+02  0.51100000000E-03 0.  1.
         11   -1    0    0    0    0 -0.00000000000E+00 -0.00000000000E+00 -0.45593999997E+02  0.45594000000E+02  0.51100000000E-03 0. -1.
    9900012    2    1    2    0    0 -0.14639180748E+01 -0.40264128457E+02  0.54609790538E+01  0.50528863404E+02  0.30000010802E+02 0.  0.
         12    1    1    2    0    0  0.14639180748E+01  0.40264128457E+02 -0.54609790538E+01  0.40659136596E+02  0.00000000000E+00 0. -1.
         11    1    3    3    0    0  0.14959032397E+01 -0.12285676522E+02  0.60468107588E+01  0.13774595991E+02  0.51100000000E-03 0. -1.
        -11    1    3    3    0    0 -0.45280801428E+01 -0.29245844683E+02  0.57128927236E+01  0.30140671601E+02  0.51100000000E-03 0.  1.
         12    1    3    3    0    0  0.15682588283E+01  0.12673927483E+01 -0.62987244286E+01  0.66135958115E+01  0.00000000000E+00 0. -1.
</event>
<event>
 7    1  0.2450552E-011  0.5052886E+02  0.7816164E-02  0.1300439E+00
        -11   -1    0    0    0    0  0.00000000000E+00  0.00000000000E+00  0.45593999997E+02  0.45594000000E+02  0.51100000000E-03 0.  1.
         11   -1    0    0    0    0 -0.00000000000E+00 -0.00000000000E+00 -0.45593999997E+02  0.45594000000E+02  0.51100000000E-03 0. -1.
    9900012    2    1    2    0    0 -0.22671626504E+02 -0.21925798524E+02  0.25659744012E+02  0.50528858937E+02  0.29999997224E+02 0.  0.
         12    1    1    2    0    0  0.22671626504E+02  0.21925798524E+02 -0.25659744012E+02  0.40659141063E+02  0.00000000000E+00 0. -1.
         11    1    3    3    0    0  0.28297595927E+01 -0.31516513814E+01  0.26321070625E+01  0.49868260078E+01  0.51100000000E-03 0. -1.
        -11    1    3    3    0    0 -0.95977740213E+01 -0.50286649882E+01  0.21967939624E+02  0.24494797597E+02  0.51100000000E-03 0.  1.
         12    1    3    3    0    0 -0.15903612076E+02 -0.13745482154E+02  0.10596973257E+01  0.21047235332E+02  0.00000000000E+00 0. -1.
</event>
<event>
 7    1  0.2450552E-011  0.5052887E+02  0.7816164E-02  0.1300439E+00
        -11   -1    0    0    0    0  0.00000000000E+00  0.00000000000E+00  0.45593999997E+02  0.45594000000E+02  0.51100000000E-03 0.  1.
         11   -1    0    0    0    0 -0.00000000000E+00 -0.00000000000E+00 -0.45593999997E+02  0.45594000000E+02  0.51100000000E-03 0. -1.
    9900012    2    1    2    0    0 -0.19650333242E+02 -0.17262122575E+02  0.31129547108E+02  0.50528866026E+02  0.30000018774E+02 0.  0.
         12    1    1    2    0    0  0.19650333242E+02  0.17262122575E+02 -0.31129547108E+02  0.40659133974E+02  0.00000000000E+00 0. -1.
         11    1    3    3    0    0 -0.68106412323E+01 -0.11641362903E+01  0.18246294711E+02  0.19510697533E+02  0.51100000000E-03 0.  1.
        -11    1    3    3    0    0 -0.17124418051E+02 -0.10248059359E+02  0.12907225046E+02  0.23766886057E+02  0.51100000000E-03 0. -1.
         12    1    3    3    0    0  0.42847260407E+01 -0.58499269262E+01 -0.23972648536E-01  0.72512824365E+01  0.00000000000E+00 0. -1.
</event>
<event>
 7    1  0.2450552E-011  0.5052884E+02  0.7816164E-02  0.1300439E+00
        -11   -1    0    0    0    0  0.00000000000E+00  0.00000000000E+00  0.45593999997E+02  0.45594000000E+02  0.51100000000E-03 0.  1.
         11   -1    0    0    0    0 -0.00000000000E+00 -0.00000000000E+00 -0.45593999997E+02  0.45594000000E+02  0.51100000000E-03 0. -1.
    9900012    2    1    2    0    0  0.67453987539E+01  0.37506440885E+02  0.14175121767E+02  0.50528836343E+02  0.29999928547E+02 0.  0.
         12    1    1    2    0    0 -0.67453987539E+01 -0.37506440885E+02 -0.14175121767E+02  0.40659163657E+02  0.00000000000E+00 0. -1.
         11    1    3    3    0    0  0.10485321937E+02  0.16027263972E+02 -0.75179022436E+00  0.19167168684E+02  0.51100000000E-03 0. -1.
        -11    1    3    3    0    0  0.61437594743E+01  0.10362552505E+02  0.33256546675E+01  0.12497529921E+02  0.51100000000E-03 0.  1.
        -12    1    3    3    0    0 -0.98836826573E+01  0.11116624408E+02  0.11601257324E+02  0.18864137738E+02  0.00000000000E+00 0.  1.
</event>
<event>
 7    1  0.2450552E-011  0.5052890E+02  0.7816164E-02  0.1300439E+00
        -11   -1    0    0    0    0  0.00000000000E+00  0.00000000000E+00  0.45593999997E+02  0.45594000000E+02  0.51100000000E-03 0.  1.
         11   -1    0    0    0    0 -0.00000000000E+00 -0.00000000000E+00 -0.45593999997E+02  0.45594000000E+02  0.51100000000E-03 0. -1.
    9900012    2    1    2    0    0  0.27478308252E+02  0.41114930141E+01  0.29685017634E+02  0.50528904202E+02  0.30000134811E+02 0.  0.
         12    1    1    2    0    0 -0.27478308252E+02 -0.41114930141E+01 -0.29685017634E+02  0.40659095798E+02  0.00000000000E+00 0. -1.
         11    1    3    3    0    0  0.10185101202E+01  0.23738677207E+01 -0.46991050175E+01  0.53622941962E+01  0.51100000000E-03 0. -1.
        -11    1    3    3    0    0  0.48801636851E+01 -0.39627349213E+01  0.12051441153E+02  0.13592516315E+02  0.51100000000E-03 0.  1.
         12    1    3    3    0    0  0.21579634447E+02  0.57003602148E+01  0.22332681498E+02  0.31574093690E+02  0.00000000000E+00 0. -1.
</event>
<event>
 7    1  0.2450552E-011  0.5052886E+02  0.7816164E-02  0.1300439E+00
        -11   -1    0    0    0    0  0.00000000000E+00  0.00000000000E+00  0.45593999997E+02  0.45594000000E+02  0.51100000000E-03 0.  1.
         11   -1    0    0    0    0 -0.00000000000E+00 -0.00000000000E+00 -0.45593999997E+02  0.45594000000E+02  0.51100000000E-03 0. -1.
    9900012    2    1    2    0    0 -0.22291988426E+02  0.25348478875E+02  0.22664679397E+02  0.50528858083E+02  0.29999994629E+02 0.  0.
         12    1    1    2    0    0  0.22291988426E+02 -0.25348478875E+02 -0.22664679397E+02  0.40659141917E+02  0.00000000000E+00 0. -1.
         11    1    3    3    0    0 -0.18367114752E+02  0.95480279602E+01  0.19210539841E+02  0.28241115124E+02  0.51100000000E-03 0. -1.
        -11    1    3    3    0    0 -0.56480281359E+01  0.42782993109E+01  0.71491796160E+01  0.10065527123E+02  0.51100000000E-03 0.  1.
         12    1    3    3    0    0  0.17231544617E+01  0.11522151604E+02 -0.36950400599E+01  0.12222215836E+02  0.00000000000E+00 0. -1.
</event>
<event>
 7    1  0.2450552E-011  0.5052887E+02  0.7816164E-02  0.1300439E+00
        -11   -1    0    0    0    0  0.00000000000E+00  0.00000000000E+00  0.45593999997E+02  0.45594000000E+02  0.51100000000E-03 0.  1.
         11   -1    0    0    0    0 -0.00000000000E+00 -0.00000000000E+00 -0.45593999997E+02  0.45594000000E+02  0.51100000000E-03 0. -1.
    9900012    2    1    2    0    0  0.20932832872E+02 -0.34338486662E+02  0.59874929390E+01  0.50528865356E+02  0.30000016737E+02 0.  0.
         12    1    1    2    0    0 -0.20932832872E+02  0.34338486662E+02 -0.59874929390E+01  0.40659134644E+02  0.00000000000E+00 0. -1.
         11    1    3    3    0    0  0.31569214702E+00  0.18566188899E+01  0.45232155799E+01  0.48996096454E+01  0.51100000000E-03 0. -1.
        -11    1    3    3    0    0  0.87218165924E+00 -0.19581318466E+02  0.27492674456E+01  0.19792604818E+02  0.51100000000E-03 0.  1.
         12    1    3    3    0    0  0.19744959066E+02 -0.16613787085E+02 -0.12849900865E+01  0.25836650893E+02  0.00000000000E+00 0. -1.
</event>
<event>
 7    1  0.2450552E-011  0.5052886E+02  0.7816164E-02  0.1300439E+00
        -11   -1    0    0    0    0  0.00000000000E+00  0.00000000000E+00  0.45593999997E+02  0.45594000000E+02  0.51100000000E-03 0.  1.
         11   -1    0    0    0    0 -0.00000000000E+00 -0.00000000000E+00 -0.45593999997E+02  0.45594000000E+02  0.51100000000E-03 0. -1.
    9900012    2    1    2    0    0 -0.25324977240E+02  0.10496729536E+02  0.30027152744E+02  0.50528859514E+02  0.29999998979E+02 0.  0.
         12    1    1    2    0    0  0.25324977240E+02 -0.10496729536E+02 -0.30027152744E+02  0.40659140486E+02  0.00000000000E+00 0. -1.
         11    1    3    3    0    0 -0.12258298923E+02  0.61692358934E+01  0.90056445463E+01  0.16414231567E+02  0.51100000000E-03 0. -1.
        -11    1    3    3    0    0 -0.13626165142E+02 -0.69517315932E+01  0.96401342918E+01  0.18081237182E+02  0.51100000000E-03 0.  1.
        -12    1    3    3    0    0  0.55948682477E+00  0.11279225236E+02  0.11381373906E+02  0.16033390765E+02  0.00000000000E+00 0.  1.
</event>
<event>
 7    1  0.2450552E-011  0.5052886E+02  0.7816164E-02  0.1300439E+00
        -11   -1    0    0    0    0  0.00000000000E+00  0.00000000000E+00  0.45593999997E+02  0.45594000000E+02  0.51100000000E-03 0.  1.
         11   -1    0    0    0    0 -0.00000000000E+00 -0.00000000000E+00 -0.45593999997E+02  0.45594000000E+02  0.51100000000E-03 0. -1.
    9900012    2    1    2    0    0  0.53940300236E+01 -0.11367773516E+02  0.38663209374E+02  0.50528860883E+02  0.30000003140E+02 0.  0.
         12    1    1    2    0    0 -0.53940300236E+01  0.11367773516E+02 -0.38663209374E+02  0.40659139117E+02  0.00000000000E+00 0. -1.
         11    1    3    3    0    0 -0.20657052733E+00 -0.33653635788E+01  0.28055440923E+01  0.43862764750E+01  0.51100000000E-03 0. -1.
        -11    1    3    3    0    0  0.77973312717E+01  0.87871854527E+01  0.11203461440E+02  0.16233624107E+02  0.51100000000E-03 0.  1.
        -12    1    3    3    0    0 -0.21967307208E+01 -0.16789595390E+02  0.24654203842E+02  0.29908960301E+02  0.00000000000E+00 0.  1.
</event>
<event>
 7    1  0.2450552E-011  0.5052886E+02  0.7816164E-02  0.1300439E+00
        -11   -1    0    0    0    0  0.00000000000E+00  0.00000000000E+00  0.45593999997E+02  0.45594000000E+02  0.51100000000E-03 0.  1.
         11   -1    0    0    0    0 -0.00000000000E+00 -0.00000000000E+00 -0.45593999997E+02  0.45594000000E+02  0.51100000000E-03 0. -1.
    9900012    2    1    2    0    0  0.28574958377E+02  0.23461374616E+02  0.16917477801E+02  0.50528863262E+02  0.30000010370E+02 0.  0.
         12    1    1    2    0    0 -0.28574958377E+02 -0.23461374616E+02 -0.16917477801E+02  0.40659136738E+02  0.00000000000E+00 0. -1.
         11    1    3    3    0    0  0.36803030960E+01 -0.26343961927E+01 -0.40752635592E+01  0.60903569285E+01  0.51100000000E-03 0. -1.
        -11    1    3    3    0    0  0.44727397588E+01  0.20548756258E+00  0.76545165471E+01  0.88678774190E+01  0.51100000000E-03 0.  1.
        -12    1    3    3    0    0  0.20421915522E+02  0.25890283247E+02  0.13338224813E+02  0.35570628914E+02  0.00000000000E+00 0.  1.
</event>
<event>
 7    1  0.2450552E-011  0.5052888E+02  0.7816164E-02  0.1300439E+00
        -11   -1    0    0    0    0  0.00000000000E+00  0.00000000000E+00  0.45593999997E+02  0.45594000000E+02  0.51100000000E-03 0. -1.
         11   -1    0    0    0    0 -0.00000000000E+00 -0.00000000000E+00 -0.45593999997E+02  0.45594000000E+02  0.51100000000E-03 0.  1.
    9900012    2    1    2    0    0 -0.23718836720E+02 -0.31434386179E+02 -0.10122274206E+02  0.50528876978E+02  0.30000052063E+02 0.  0.
         12    1    1    2    0    0  0.23718836720E+02  0.31434386179E+02  0.10122274206E+02  0.40659123022E+02  0.00000000000E+00 0. -1.
         11    1    3    3    0    0  0.55603291819E+01 -0.67998324882E+01 -0.27488793618E+01  0.92038752972E+01  0.51100000000E-03 0. -1.
        -11    1    3    3    0    0 -0.15763357341E+02 -0.12429297207E+02 -0.10798972418E+02  0.22794487695E+02  0.51100000000E-03 0.  1.
        -12    1    3    3    0    0 -0.13515808561E+02 -0.12205256484E+02  0.34255775737E+01  0.18530513986E+02  0.00000000000E+00 0.  1.
</event>
<event>
 7    1  0.2450552E-011  0.5052886E+02  0.7816164E-02  0.1300439E+00
        -11   -1    0    0    0    0  0.00000000000E+00  0.00000000000E+00  0.45593999997E+02  0.45594000000E+02  0.51100000000E-03 0.  1.
         11   -1    0    0    0    0 -0.00000000000E+00 -0.00000000000E+00 -0.45593999997E+02  0.45594000000E+02  0.51100000000E-03 0. -1.
    9900012    2    1    2    0    0  0.33519151443E+02  0.22983209408E+02 -0.11849336861E+01  0.50528862085E+02  0.30000006794E+02 0.  0.
         12    1    1    2    0    0 -0.33519151443E+02 -0.22983209408E+02  0.11849336861E+01  0.40659137915E+02  0.00000000000E+00 0. -1.
         11    1    3    3    0    0  0.12840502043E+02  0.65262721125E+01  0.14700717718E+01  0.14478668159E+02  0.51100000000E-03 0.  1.
        -11    1    3    3    0    0  0.20831371716E+01 -0.56250339390E+01 -0.38997075314E+01  0.71545919788E+01  0.51100000000E-03 0. -1.
         12    1    3    3    0    0  0.18595512228E+02  0.22081971234E+02  0.12447020735E+01  0.28895601947E+02  0.00000000000E+00 0. -1.
</event>
<event>
 7    1  0.2450552E-011  0.5052886E+02  0.7816164E-02  0.1300439E+00
        -11   -1    0    0    0    0  0.00000000000E+00  0.00000000000E+00  0.45593999997E+02  0.45594000000E+02  0.51100000000E-03 0. -1.
         11   -1    0    0    0    0 -0.00000000000E+00 -0.00000000000E+00 -0.45593999997E+02  0.45594000000E+02  0.51100000000E-03 0.  1.
    9900012    2    1    2    0    0 -0.34908194597E+02 -0.20838721815E+02 -0.57580036084E+00  0.50528856834E+02  0.29999990834E+02 0.  0.
         12    1    1    2    0    0  0.34908194597E+02  0.20838721815E+02  0.57580036084E+00  0.40659143166E+02  0.00000000000E+00 0. -1.
         11    1    3    3    0    0 -0.63368519063E+01 -0.87348545864E+01  0.11290517239E+02  0.15618231543E+02  0.51100000000E-03 0. -1.
        -11    1    3    3    0    0 -0.77653004634E+01 -0.60838841588E+00 -0.73608185603E+01  0.10716887509E+02  0.51100000000E-03 0.  1.
        -12    1    3    3    0    0 -0.20806042227E+02 -0.11495478812E+02 -0.45054990397E+01  0.24193737783E+02  0.00000000000E+00 0.  1.
</event>
<event>
 7    1  0.2450552E-011  0.5052886E+02  0.7816164E-02  0.1300439E+00
        -11   -1    0    0    0    0  0.00000000000E+00  0.00000000000E+00  0.45593999997E+02  0.45594000000E+02  0.51100000000E-03 0.  1.
         11   -1    0    0    0    0 -0.00000000000E+00 -0.00000000000E+00 -0.45593999997E+02  0.45594000000E+02  0.51100000000E-03 0. -1.
    9900012    2    1    2    0    0 -0.31436968861E+02 -0.94988571292E+01  0.23971952368E+02  0.50528858367E+02  0.29999995494E+02 0.  0.
         12    1    1    2    0    0  0.31436968861E+02  0.94988571292E+01 -0.23971952368E+02  0.40659141633E+02  0.00000000000E+00 0. -1.
         11    1    3    3    0    0 -0.68193198276E+01 -0.57848876539E+01  0.13058611326E+02  0.15827045779E+02  0.51100000000E-03 0. -1.
        -11    1    3    3    0    0 -0.25537936565E+02 -0.82491602853E+01  0.51776686984E+01  0.27332089251E+02  0.51100000000E-03 0.  1.
         12    1    3    3    0    0  0.92028753164E+00  0.45351908099E+01  0.57356723441E+01  0.73697233369E+01  0.00000000000E+00 0. -1.
</event>
<event>
 7    1  0.2450552E-011  0.5052883E+02  0.7816164E-02  0.1300439E+00
        -11   -1    0    0    0    0  0.00000000000E+00  0.00000000000E+00  0.45593999997E+02  0.45594000000E+02  0.51100000000E-03 0.  1.
         11   -1    0    0    0    0 -0.00000000000E+00 -0.00000000000E+00 -0.45593999997E+02  0.45594000000E+02  0.51100000000E-03 0. -1.
    9900012    2    1    2    0    0 -0.25394056108E+02  0.25048908971E+01  0.31654949656E+02  0.50528826352E+02  0.29999898181E+02 0.  0.
         12    1    1    2    0    0  0.25394056108E+02 -0.25048908971E+01 -0.31654949656E+02  0.40659173648E+02  0.00000000000E+00 0. -1.
         11    1    3    3    0    0 -0.95500670665E+01 -0.66577670195E+01  0.54527190589E+01  0.12855418626E+02  0.51100000000E-03 0. -1.
        -11    1    3    3    0    0  0.45552731925E+01  0.41664381938E+00  0.67886537375E+01  0.81859590617E+01  0.51100000000E-03 0.  1.
         12    1    3    3    0    0 -0.20399262234E+02  0.87460140972E+01  0.19413576859E+02  0.29487448664E+02  0.00000000000E+00 0. -1.
</event>
<event>
 7    1  0.2450552E-011  0.5052886E+02  0.7816164E-02  0.1300439E+00
        -11   -1    0    0    0    0  0.00000000000E+00  0.00000000000E+00  0.45593999997E+02  0.45594000000E+02  0.51100000000E-03 0. -1.
         11   -1    0    0    0    0 -0.00000000000E+00 -0.00000000000E+00 -0.45593999997E+02  0.45594000000E+02  0.51100000000E-03 0.  1.
    9900012    2    1    2    0    0  0.16245215937E+02  0.37140616269E+02 -0.31358037773E+01  0.50528859785E+02  0.29999999802E+02 0.  0.
         12    1    1    2    0    0 -0.16245215937E+02 -0.37140616269E+02  0.31358037773E+01  0.40659140215E+02  0.00000000000E+00 0. -1.
         11    1    3    3    0    0  0.14967916692E+01 -0.28400968137E+01 -0.15292494179E+01  0.35560004577E+01  0.51100000000E-03 0. -1.
        -11    1    3    3    0    0  0.16063301130E+02  0.19270286416E+02  0.41705271722E+01  0.25431611803E+02  0.51100000000E-03 0.  1.
         12    1    3    3    0    0 -0.13148768618E+01  0.20710426667E+02 -0.57770815316E+01  0.21541247524E+02  0.00000000000E+00 0. -1.
</event>
<event>
 7    1  0.2450552E-011  0.5052887E+02  0.7816164E-02  0.1300439E+00
        -11   -1    0    0    0    0  0.00000000000E+00  0.00000000000E+00  0.45593999997E+02  0.45594000000E+02  0.51100000000E-03 0.  1.
         11   -1    0    0    0    0 -0.00000000000E+00 -0.00000000000E+00 -0.45593999997E+02  0.45594000000E+02  0.51100000000E-03 0. -1.
    9900012    2    1    2    0    0  0.22975973304E+02 -0.92265773460E+00  0.33532349159E+02  0.50528867119E+02  0.30000022093E+02 0.  0.
         12    1    1    2    0    0 -0.22975973304E+02  0.92265773460E+00 -0.33532349159E+02  0.40659132881E+02  0.00000000000E+00 0. -1.
         11    1    3    3    0    0  0.89291092960E+01 -0.21120106960E+01  0.38272277463E+01  0.99416927373E+01  0.51100000000E-03 0. -1.
        -11    1    3    3    0    0  0.34286096650E-01  0.29678301585E+01 -0.34485757474E+01  0.45499303658E+01  0.51100000000E-03 0.  1.
        -12    1    3    3    0    0  0.14012577912E+02 -0.17784771972E+01  0.33153697160E+02  0.36037244016E+02  0.00000000000E+00 0.  1.
</event>
<event>
 7    1  0.2450552E-011  0.5052887E+02  0.7816164E-02  0.1300439E+00
        -11   -1    0    0    0    0  0.00000000000E+00  0.00000000000E+00  0.45593999997E+02  0.45594000000E+02  0.51100000000E-03 0. -1.
         11   -1    0    0    0    0 -0.00000000000E+00 -0.00000000000E+00 -0.45593999997E+02  0.45594000000E+02  0.51100000000E-03 0.  1.
    9900012    2    1    2    0    0  0.27366418008E+01 -0.29398804992E+02  0.27953284456E+02  0.50528867506E+02  0.30000023272E+02 0.  0.
         12    1    1    2    0    0 -0.27366418008E+01  0.29398804992E+02 -0.27953284456E+02  0.40659132494E+02  0.00000000000E+00 0. -1.
         11    1    3    3    0    0 -0.74492450506E+01 -0.36466380192E+01  0.88856441714E+01  0.12154994581E+02  0.51100000000E-03 0. -1.
        -11    1    3    3    0    0 -0.15600438231E+01 -0.17638041115E+02  0.51603317406E+01  0.18443515257E+02  0.51100000000E-03 0.  1.
        -12    1    3    3    0    0  0.11745930674E+02 -0.81141258570E+01  0.13907308544E+02  0.19930357668E+02  0.00000000000E+00 0.  1.
</event>
<event>
 7    1  0.2450552E-011  0.5052886E+02  0.7816164E-02  0.1300439E+00
        -11   -1    0    0    0    0  0.00000000000E+00  0.00000000000E+00  0.45593999997E+02  0.45594000000E+02  0.51100000000E-03 0. -1.
         11   -1    0    0    0    0 -0.00000000000E+00 -0.00000000000E+00 -0.45593999997E+02  0.45594000000E+02  0.51100000000E-03 0.  1.
    9900012    2    1    2    0    0  0.97800130163E+01  0.25861447274E+02 -0.29811121335E+02  0.50528855088E+02  0.29999985525E+02 0.  0.
         12    1    1    2    0    0 -0.97800130163E+01 -0.25861447274E+02  0.29811121335E+02  0.40659144912E+02  0.00000000000E+00 0. -1.
         11    1    3    3    0    0  0.45971973365E+01  0.33034818457E+01 -0.77188580987E+00  0.57134073564E+01  0.51100000000E-03 0.  1.
        -11    1    3    3    0    0  0.29922915186E+01  0.15402411466E+02 -0.91983621264E+00  0.15717321223E+02  0.51100000000E-03 0. -1.
         12    1    3    3    0    0  0.21905241612E+01  0.71555539625E+01 -0.28119399313E+02  0.29098126509E+02  0.00000000000E+00 0. -1.
</event>
<event>
 7    1  0.2450552E-011  0.5052886E+02  0.7816164E-02  0.1300439E+00
        -11   -1    0    0    0    0  0.00000000000E+00  0.00000000000E+00  0.45593999997E+02  0.45594000000E+02  0.51100000000E-03 0.  1.
         11   -1    0    0    0    0 -0.00000000000E+00 -0.00000000000E+00 -0.45593999997E+02  0.45594000000E+02  0.51100000000E-03 0. -1.
    9900012    2    1    2    0    0  0.95012834350E+01  0.36928788022E+02  0.14112258983E+02  0.50528860495E+02  0.30000001961E+02 0.  0.
         12    1    1    2    0    0 -0.95012834350E+01 -0.36928788022E+02 -0.14112258983E+02  0.40659139505E+02  0.00000000000E+00 0. -1.
         11    1    3    3    0    0  0.56405552780E+01 -0.88214933638E+00  0.10490410833E+01  0.58046997124E+01  0.51100000000E-03 0. -1.
        -11    1    3    3    0    0  0.11520398229E+02  0.27793046670E+02  0.79703236026E+01  0.31123930940E+02  0.51100000000E-03 0.  1.
         12    1    3    3    0    0 -0.76596700719E+01  0.10017890688E+02  0.50928942973E+01  0.13600229842E+02  0.00000000000E+00 0. -1.
</event>
<event>
 7    1  0.2450552E-011  0.5052891E+02  0.7816164E-02  0.1300439E+00
        -11   -1    0    0    0    0  0.00000000000E+00  0.00000000000E+00  0.45593999997E+02  0.45594000000E+02  0.51100000000E-03 0.  1.
         11   -1    0    0    0    0 -0.00000000000E+00 -0.00000000000E+00 -0.45593999997E+02  0.45594000000E+02  0.51100000000E-03 0. -1.
    9900012    2    1    2    0    0 -0.73091045537E+01  0.25039221823E+02  0.31189359052E+02  0.50528908065E+02  0.30000146555E+02 0.  0.
         12    1    1    2    0    0  0.73091045537E+01 -0.25039221823E+02 -0.31189359052E+02  0.40659091935E+02  0.00000000000E+00 0. -1.
         11    1    3    3    0    0 -0.42293417522E+01 -0.57218714201E+00  0.20102755228E+02  0.20550802850E+02  0.51100000000E-03 0. -1.
        -11    1    3    3    0    0 -0.95912786641E+00  0.47133570846E+01 -0.20223894088E+01  0.52178271774E+01  0.51100000000E-03 0.  1.
        -12    1    3    3    0    0 -0.21206349351E+01  0.20898051880E+02  0.13108993233E+02  0.24760278038E+02  0.00000000000E+00 0.  1.
</event>
<event>
 7    1  0.2450552E-011  0.5052887E+02  0.7816164E-02  0.1300439E+00
        -11   -1    0    0    0    0  0.00000000000E+00  0.00000000000E+00  0.45593999997E+02  0.45594000000E+02  0.51100000000E-03 0. -1.
         11   -1    0    0    0    0 -0.00000000000E+00 -0.00000000000E+00 -0.45593999997E+02  0.45594000000E+02  0.51100000000E-03 0.  1.
    9900012    2    1    2    0    0 -0.29835278556E+02  0.26898901782E+02 -0.62825100890E+01  0.50528871915E+02  0.30000036674E+02 0.  0.
         12    1    1    2    0    0  0.29835278556E+02 -0.26898901782E+02  0.62825100890E+01  0.40659128085E+02  0.00000000000E+00 0. -1.
         11    1    3    3    0    0 -0.61135807161E+00  0.15058555905E+02 -0.96169614162E-01  0.15071267813E+02  0.51100000000E-03 0. -1.
        -11    1    3    3    0    0 -0.69178577245E+01  0.89510902623E+00 -0.79158683615E+01  0.10550779490E+02  0.51100000000E-03 0.  1.
        -12    1    3    3    0    0 -0.22306062760E+02  0.10945236850E+02  0.17295278867E+01  0.24906824612E+02  0.00000000000E+00 0.  1.
</event>
<event>
 7    1  0.2450552E-011  0.5052886E+02  0.7816164E-02  0.1300439E+00
        -11   -1    0    0    0    0  0.00000000000E+00  0.00000000000E+00  0.45593999997E+02  0.45594000000E+02  0.51100000000E-03 0. -1.
         11   -1    0    0    0    0 -0.00000000000E+00 -0.00000000000E+00 -0.45593999997E+02  0.45594000000E+02  0.51100000000E-03 0.  1.
    9900012    2    1    2    0    0  0.38903584154E+02  0.90375790354E+01 -0.76156986210E+01  0.50528861294E+02  0.30000004389E+02 0.  0.
         12    1    1    2    0    0 -0.38903584154E+02 -0.90375790354E+01  0.76156986210E+01  0.40659138706E+02  0.00000000000E+00 0. -1.
         11    1    3    3    0    0  0.11562267189E+02 -0.88824798218E+00  0.91567044217E+01  0.14775663882E+02  0.51100000000E-03 0. -1.
        -11    1    3    3    0    0  0.61425404388E+01 -0.67172634636E+00  0.82543445452E+00  0.62340485742E+01  0.51100000000E-03 0.  1.
         12    1    3    3    0    0  0.21198776526E+02  0.10597553364E+02 -0.17597837497E+02  0.29519148837E+02  0.00000000000E+00 0. -1.
</event>
<event>
 7    1  0.2450552E-011  0.5052889E+02  0.7816164E-02  0.1300439E+00
        -11   -1    0    0    0    0  0.00000000000E+00  0.00000000000E+00  0.45593999997E+02  0.45594000000E+02  0.51100000000E-03 0.  1.
         11   -1    0    0    0    0 -0.00000000000E+00 -0.00000000000E+00 -0.45593999997E+02  0.45594000000E+02  0.51100000000E-03 0. -1.
    9900012    2    1    2    0    0  0.53841361852E+01  0.22299416168E+02  0.33569483796E+02  0.50528891226E+02  0.30000095371E+02 0.  0.
         12    1    1    2    0    0 -0.53841361852E+01 -0.22299416168E+02 -0.33569483796E+02  0.40659108774E+02  0.00000000000E+00 0. -1.
         11    1    3    3    0    0 -0.42362792298E+00  0.23778268209E+02  0.18985643720E+02  0.30430908092E+02  0.51100000000E-03 0. -1.
        -11    1    3    3    0    0  0.40245862662E+01  0.47717371224E+01  0.11070767742E+02  0.12709392922E+02  0.51100000000E-03 0.  1.
         12    1    3    3    0    0  0.17831778419E+01 -0.62505891625E+01  0.35130723345E+01  0.73885902121E+01  0.00000000000E+00 0. -1.
</event>
<event>
 7    1  0.2450552E-011  0.5052885E+02  0.7816164E-02  0.1300439E+00
        -11   -1    0    0    0    0  0.00000000000E+00  0.00000000000E+00  0.45593999997E+02  0.45594000000E+02  0.51100000000E-03 0.  1.
         11   -1    0    0    0    0 -0.00000000000E+00 -0.00000000000E+00 -0.45593999997E+02  0.45594000000E+02  0.51100000000E-03 0. -1.
    9900012    2    1    2    0    0  0.35802164688E+02  0.50663219545E+01  0.18593105525E+02  0.50528853581E+02  0.29999980944E+02 0.  0.
         12    1    1    2    0    0 -0.35802164688E+02 -0.50663219545E+01 -0.18593105525E+02  0.40659146419E+02  0.00000000000E+00 0. -1.
         11    1    3    3    0    0  0.89191747269E+01 -0.26277200677E+01  0.12529632171E+02  0.15602829012E+02  0.51100000000E-03 0. -1.
        -11    1    3    3    0    0  0.26485703546E+02  0.59860406032E+01  0.11294398659E+02  0.29408988690E+02  0.51100000000E-03 0.  1.
        -12    1    3    3    0    0  0.39728641459E+00  0.17080014190E+01 -0.52309253052E+01  0.55170358790E+01  0.00000000000E+00 0.  1.
</event>
<event>
 7    1  0.2450552E-011  0.5052886E+02  0.7816164E-02  0.1300439E+00
        -11   -1    0    0    0    0  0.00000000000E+00  0.00000000000E+00  0.45593999997E+02  0.45594000000E+02  0.51100000000E-03 0. -1.
         11   -1    0    0    0    0 -0.00000000000E+00 -0.00000000000E+00 -0.45593999997E+02  0.45594000000E+02  0.51100000000E-03 0.  1.
    9900012    2    1    2    0    0  0.61115320754E+01  0.40195832910E+02  0.33131743648E+00  0.50528861065E+02  0.30000003694E+02 0.  0.
         12    1    1    2    0    0 -0.61115320754E+01 -0.40195832910E+02 -0.33131743648E+00  0.40659138935E+02  0.00000000000E+00 0. -1.
         11    1    3    3    0    0  0.10372600555E+02  0.20653570565E+02 -0.36160221953E+01  0.23393085221E+02  0.51100000000E-03 0.  1.
        -11    1    3    3    0    0  0.28126589108E+01  0.15145591712E+02 -0.36846307291E+01  0.15839081486E+02  0.51100000000E-03 0. -1.
         12    1    3    3    0    0 -0.70737273901E+01  0.43966706337E+01  0.76319703608E+01  0.11296694359E+02  0.00000000000E+00 0. -1.
</event>
<event>
 7    1  0.2450552E-011  0.5052886E+02  0.7816164E-02  0.1300439E+00
        -11   -1    0    0    0    0  0.00000000000E+00  0.00000000000E+00  0.45593999997E+02  0.45594000000E+02  0.51100000000E-03 0.  1.
         11   -1    0    0    0    0 -0.00000000000E+00 -0.00000000000E+00 -0.45593999997E+02  0.45594000000E+02  0.51100000000E-03 0. -1.
    9900012    2    1    2    0    0 -0.14897853019E+02  0.10240552579E+01  0.37817600094E+02  0.50528860922E+02  0.30000003257E+02 0.  0.
         12    1    1    2    0    0  0.14897853019E+02 -0.10240552579E+01 -0.37817600094E+02  0.40659139078E+02  0.00000000000E+00 0. -1.
         11    1    3    3    0    0 -0.34169086512E+01  0.75805976775E+00  0.25125698685E+02  0.25368300180E+02  0.51100000000E-03 0. -1.
        -11    1    3    3    0    0 -0.15489756199E+02 -0.74075932760E+00  0.47688048504E+01  0.16224141625E+02  0.51100000000E-03 0.  1.
         12    1    3    3    0    0  0.40088118315E+01  0.10067548177E+01  0.79230965585E+01  0.89364191172E+01  0.00000000000E+00 0. -1.
</event>
<event>
 7    1  0.2450552E-011  0.5052887E+02  0.7816164E-02  0.1300439E+00
        -11   -1    0    0    0    0  0.00000000000E+00  0.00000000000E+00  0.45593999997E+02  0.45594000000E+02  0.51100000000E-03 0.  1.
         11   -1    0    0    0    0 -0.00000000000E+00 -0.00000000000E+00 -0.45593999997E+02  0.45594000000E+02  0.51100000000E-03 0. -1.
    9900012    2    1    2    0    0 -0.26378742703E+02  0.91085839585E+01  0.29569593845E+02  0.50528865129E+02  0.30000016046E+02 0.  0.
         12    1    1    2    0    0  0.26378742703E+02 -0.91085839585E+01 -0.29569593845E+02  0.40659134871E+02  0.00000000000E+00 0. -1.
         11    1    3    3    0    0  0.36427688075E+00  0.23696257147E+01  0.21518891877E+01  0.32215603379E+01  0.51100000000E-03 0. -1.
        -11    1    3    3    0    0 -0.29263966738E+02  0.11519221656E+02  0.27681294515E+02  0.41896614220E+02  0.51100000000E-03 0.  1.
        -12    1    3    3    0    0  0.25209471536E+01 -0.47802634124E+01 -0.26358985857E+00  0.54106905711E+01  0.00000000000E+00 0.  1.
</event>
<event>
 7    1  0.2450552E-011  0.5052885E+02  0.7816164E-02  0.1300439E+00
        -11   -1    0    0    0    0  0.00000000000E+00  0.00000000000E+00  0.45593999997E+02  0.45594000000E+02  0.51100000000E-03 0. -1.
         11   -1    0    0    0    0 -0.00000000000E+00 -0.00000000000E+00 -0.45593999997E+02  0.45594000000E+02  0.51100000000E-03 0.  1.
    9900012    2    1    2    0    0  0.11118969956E+02 -0.17516198147E+02 -0.34967383884E+02  0.50528848188E+02  0.29999964551E+02 0.  0.
         12    1    1    2    0    0 -0.11118969956E+02  0.17516198147E+02  0.34967383884E+02  0.40659151812E+02  0.00000000000E+00 0. -1.
         11    1    3    3    0    0 -0.44648570427E+01 -0.35863566716E+00  0.49301938589E-01  0.44795087784E+01  0.51100000000E-03 0. -1.
        -11    1    3    3    0    0  0.90687477334E+01 -0.82389467029E+01 -0.36342725457E+01  0.12780076894E+02  0.51100000000E-03 0.  1.
         12    1    3    3    0    0  0.65150792653E+01 -0.89186157769E+01 -0.31382413277E+02  0.33269262515E+02  0.00000000000E+00 0. -1.
</event>
<event>
 7    1  0.2450552E-011  0.5052886E+02  0.7816164E-02  0.1300439E+00
        -11   -1    0    0    0    0  0.00000000000E+00  0.00000000000E+00  0.45593999997E+02  0.45594000000E+02  0.51100000000E-03 0. -1.
         11   -1    0    0    0    0 -0.00000000000E+00 -0.00000000000E+00 -0.45593999997E+02  0.45594000000E+02  0.51100000000E-03 0.  1.
    9900012    2    1    2    0    0  0.24469136646E+02  0.22450689073E+02 -0.23460475605E+02  0.50528855842E+02  0.29999987817E+02 0.  0.
         12    1    1    2    0    0 -0.24469136646E+02 -0.22450689073E+02  0.23460475605E+02  0.40659144158E+02  0.00000000000E+00 0. -1.
         11    1    3    3    0    0 -0.11193970452E+01  0.86757279987E+01  0.27038044890E+01  0.91559742807E+01  0.51100000000E-03 0. -1.
        -11    1    3    3    0    0  0.12633143206E+02  0.13859940237E+02 -0.12468309797E+02  0.22520057728E+02  0.51100000000E-03 0.  1.
        -12    1    3    3    0    0  0.12955390486E+02 -0.84979163069E-01 -0.13695970298E+02  0.18852823833E+02  0.00000000000E+00 0.  1.
</event>
<event>
 7    1  0.2450552E-011  0.5052885E+02  0.7816164E-02  0.1300439E+00
        -11   -1    0    0    0    0  0.00000000000E+00  0.00000000000E+00  0.45593999997E+02  0.45594000000E+02  0.51100000000E-03 0. -1.
         11   -1    0    0    0    0 -0.00000000000E+00 -0.00000000000E+00 -0.45593999997E+02  0.45594000000E+02  0.51100000000E-03 0.  1.
    9900012    2    1    2    0    0 -0.35644224102E+02 -0.19506558478E+02 -0.14662716291E+01  0.50528849886E+02  0.29999969715E+02 0.  0.
         12    1    1    2    0    0  0.35644224102E+02  0.19506558478E+02  0.14662716291E+01  0.40659150114E+02  0.00000000000E+00 0. -1.
         11    1    3    3    0    0  0.99402880167E+00 -0.57192957619E+01  0.12743553242E+01  0.59432666964E+01  0.51100000000E-03 0.  1.
        -11    1    3    3    0    0 -0.25739884142E+02 -0.16164442943E+02  0.52759618922E+01  0.30849094402E+02  0.51100000000E-03 0. -1.
        -12    1    3    3    0    0 -0.10898368762E+02  0.23771802271E+01 -0.80165888455E+01  0.13736488788E+02  0.00000000000E+00 0.  1.
</event>
<event>
 7    1  0.2450552E-011  0.5052886E+02  0.7816164E-02  0.1300439E+00
        -11   -1    0    0    0    0  0.00000000000E+00  0.00000000000E+00  0.45593999997E+02  0.45594000000E+02  0.51100000000E-03 0. -1.
         11   -1    0    0    0    0 -0.00000000000E+00 -0.00000000000E+00 -0.45593999997E+02  0.45594000000E+02  0.51100000000E-03 0.  1.
    9900012    2    1    2    0    0 -0.36902435235E+02  0.16336655857E+02 -0.49487029040E+01  0.50528859437E+02  0.29999998745E+02 0.  0.
         12    1    1    2    0    0  0.36902435235E+02 -0.16336655857E+02  0.49487029040E+01  0.40659140563E+02  0.00000000000E+00 0. -1.
         11    1    3    3    0    0 -0.44781196948E+01  0.46004843879E+01  0.66889823807E+00  0.64548770490E+01  0.51100000000E-03 0. -1.
        -11    1    3    3    0    0 -0.34304059315E+02  0.16206647795E+02 -0.19429838746E+01  0.37989460444E+02  0.51100000000E-03 0.  1.
        -12    1    3    3    0    0  0.18797437743E+01 -0.44704763250E+01 -0.36746172674E+01  0.60845219444E+01  0.00000000000E+00 0.  1.
</event>
<event>
 7    1  0.2450552E-011  0.5052885E+02  0.7816164E-02  0.1300439E+00
        -11   -1    0    0    0    0  0.00000000000E+00  0.00000000000E+00  0.45593999997E+02  0.45594000000E+02  0.51100000000E-03 0.  1.
         11   -1    0    0    0    0 -0.00000000000E+00 -0.00000000000E+00 -0.45593999997E+02  0.45594000000E+02  0.51100000000E-03 0. -1.
    9900012    2    1    2    0    0 -0.15269589895E+02  0.24727739868E+02  0.28434920307E+02  0.50528853582E+02  0.29999980949E+02 0.  0.
         12    1    1    2    0    0  0.15269589895E+02 -0.24727739868E+02 -0.28434920307E+02  0.40659146418E+02  0.00000000000E+00 0. -1.
         11    1    3    3    0    0  0.29540263486E+00  0.16951573988E+02  0.12866211211E+02  0.21283385882E+02  0.51100000000E-03 0.  1.
        -11    1    3    3    0    0 -0.47360081579E+01 -0.29495116674E+01  0.12513028005E+02  0.13700557013E+02  0.51100000000E-03 0. -1.
         12    1    3    3    0    0 -0.10828984372E+02  0.10725677547E+02  0.30556810909E+01  0.15544910687E+02  0.00000000000E+00 0. -1.
</event>
<event>
 7    1  0.2450552E-011  0.5052887E+02  0.7816164E-02  0.1300439E+00
        -11   -1    0    0    0    0  0.00000000000E+00  0.00000000000E+00  0.45593999997E+02  0.45594000000E+02  0.51100000000E-03 0. -1.
         11   -1    0    0    0    0 -0.00000000000E+00 -0.00000000000E+00 -0.45593999997E+02  0.45594000000E+02  0.51100000000E-03 0.  1.
    9900012    2    1    2    0    0  0.78736839185E+01  0.36870276029E+02 -0.15223428815E+02  0.50528868949E+02  0.30000027658E+02 0.  0.
         12    1    1    2    0    0 -0.78736839185E+01 -0.36870276029E+02  0.15223428815E+02  0.40659131051E+02  0.00000000000E+00 0. -1.
         11    1    3    3    0    0 -0.15757464550E+01  0.44043307570E+01 -0.69944947292E+01  0.84145150238E+01  0.51100000000E-03 0. -1.
        -11    1    3    3    0    0  0.27274274164E+00 -0.18232346350E+01  0.41345435162E+01  0.45269220764E+01  0.51100000000E-03 0.  1.
        -12    1    3    3    0    0  0.91766876319E+01  0.34289179907E+02 -0.12363477602E+02  0.37587431849E+02  0.00000000000E+00 0.  1.
</event>
<event>
 7    1  0.2450552E-011  0.5052886E+02  0.7816164E-02  0.1300439E+00
        -11   -1    0    0    0    0  0.00000000000E+00  0.00000000000E+00  0.45593999997E+02  0.45594000000E+02  0.51100000000E-03 0. -1.
         11   -1    0    0    0    0 -0.00000000000E+00 -0.00000000000E+00 -0.45593999997E+02  0.45594000000E+02  0.51100000000E-03 0.  1.
    9900012    2    1    2    0    0  0.18604568043E+02  0.35036259068E+02 -0.89160785973E+01  0.50528857620E+02  0.29999993223E+02 0.  0.
         12    1    1    2    0    0 -0.18604568043E+02 -0.35036259068E+02  0.89160785973E+01  0.40659142380E+02  0.00000000000E+00 0. -1.
         11    1    3    3    0    0  0.65098800338E+01  0.91636112100E+01 -0.35589756752E+00  0.11246198104E+02  0.51100000000E-03 0. -1.
        -11    1    3    3    0    0 -0.59222327353E+01  0.17060765734E+02 -0.61701261101E+01  0.19084365970E+02  0.51100000000E-03 0.  1.
         12    1    3    3    0    0  0.18016920744E+02  0.88118821237E+01 -0.23900549198E+01  0.20198293546E+02  0.00000000000E+00 0. -1.
</event>
<event>
 7    1  0.2450552E-011  0.5052886E+02  0.7816164E-02  0.1300439E+00
        -11   -1    0    0    0    0  0.00000000000E+00  0.00000000000E+00  0.45593999997E+02  0.45594000000E+02  0.51100000000E-03 0. -1.
         11   -1    0    0    0    0 -0.00000000000E+00 -0.00000000000E+00 -0.45593999997E+02  0.45594000000E+02  0.51100000000E-03 0.  1.
    9900012    2    1    2    0    0 -0.19004307574E+02 -0.30142766997E+02 -0.19580992467E+02  0.50528863578E+02  0.30000011331E+02 0.  0.
         12    1    1    2    0    0  0.19004307574E+02  0.30142766997E+02  0.19580992467E+02  0.40659136422E+02  0.00000000000E+00 0. -1.
         11    1    3    3    0    0 -0.67364389488E+01 -0.68327491285E+01  0.17471609023E+01  0.97528786439E+01  0.51100000000E-03 0. -1.
        -11    1    3    3    0    0 -0.88786466546E+01 -0.27545906160E+02 -0.15566004041E+02  0.32861950560E+02  0.51100000000E-03 0.  1.
         12    1    3    3    0    0 -0.33892219702E+01  0.42358882911E+01 -0.57621493289E+01  0.79140343735E+01  0.00000000000E+00 0. -1.
</event>
<event>
 7    1  0.2450552E-011  0.5052885E+02  0.7816164E-02  0.1300439E+00
        -11   -1    0    0    0    0  0.00000000000E+00  0.00000000000E+00  0.45593999997E+02  0.45594000000E+02  0.51100000000E-03 0.  1.
         11   -1    0    0    0    0 -0.00000000000E+00 -0.00000000000E+00 -0.45593999997E+02  0.45594000000E+02  0.51100000000E-03 0. -1.
    9900012    2    1    2    0    0 -0.28978057174E+02 -0.95830563073E+01  0.26862688392E+02  0.50528846130E+02  0.29999958297E+02 0.  0.
         12    1    1    2    0    0  0.28978057174E+02  0.95830563073E+01 -0.26862688392E+02  0.40659153870E+02  0.00000000000E+00 0. -1.
         11    1    3    3    0    0 -0.17311991366E+02 -0.46211725581E+01  0.56728016818E+01  0.18794705639E+02  0.51100000000E-03 0. -1.
        -11    1    3    3    0    0 -0.52309663076E+01  0.67142093791E+01  0.26810720107E+01  0.89236631203E+01  0.51100000000E-03 0.  1.
        -12    1    3    3    0    0 -0.64350995007E+01 -0.11676093128E+02  0.18508814699E+02  0.22810477371E+02  0.00000000000E+00 0.  1.
</event>
<event>
 7    1  0.2450552E-011  0.5052886E+02  0.7816164E-02  0.1300439E+00
        -11   -1    0    0    0    0  0.00000000000E+00  0.00000000000E+00  0.45593999997E+02  0.45594000000E+02  0.51100000000E-03 0.  1.
         11   -1    0    0    0    0 -0.00000000000E+00 -0.00000000000E+00 -0.45593999997E+02  0.45594000000E+02  0.51100000000E-03 0. -1.
    9900012    2    1    2    0    0  0.68790208454E+01 -0.14258113945E+02  0.37450644859E+02  0.50528861526E+02  0.30000005095E+02 0.  0.
         12    1    1    2    0    0 -0.68790208454E+01  0.14258113945E+02 -0.37450644859E+02  0.40659138474E+02  0.00000000000E+00 0. -1.
         11    1    3    3    0    0  0.97393190926E+01 -0.37351716996E+01  0.49778670125E+01  0.11557897917E+02  0.51100000000E-03 0. -1.
        -11    1    3    3    0    0  0.57684646542E+01 -0.11303401677E+02  0.16691210828E+02  0.20967560495E+02  0.51100000000E-03 0.  1.
         12    1    3    3    0    0 -0.86287629014E+01  0.78045943137E+00  0.15781567019E+02  0.18003403114E+02  0.00000000000E+00 0. -1.
</event>
<event>
 7    1  0.2450552E-011  0.5052885E+02  0.7816164E-02  0.1300439E+00
        -11   -1    0    0    0    0  0.00000000000E+00  0.00000000000E+00  0.45593999997E+02  0.45594000000E+02  0.51100000000E-03 0.  1.
         11   -1    0    0    0    0 -0.00000000000E+00 -0.00000000000E+00 -0.45593999997E+02  0.45594000000E+02  0.51100000000E-03 0. -1.
    9900012    2    1    2    0    0  0.13615090262E+02  0.18503313624E+02  0.33547322837E+02  0.50528853827E+02  0.29999981694E+02 0.  0.
         12    1    1    2    0    0 -0.13615090262E+02 -0.18503313624E+02 -0.33547322837E+02  0.40659146173E+02  0.00000000000E+00 0. -1.
         11    1    3    3    0    0  0.12458354278E+02  0.90216414119E+01  0.80986471955E+01  0.17383575344E+02  0.51100000000E-03 0. -1.
        -11    1    3    3    0    0 -0.47752996301E+01  0.12951145817E+02  0.20343298705E+02  0.24584252419E+02  0.51100000000E-03 0.  1.
         12    1    3    3    0    0  0.59320356138E+01 -0.34694736040E+01  0.51053769365E+01  0.85610260645E+01  0.00000000000E+00 0. -1.
</event>
<event>
 7    1  0.2450552E-011  0.5052885E+02  0.7816164E-02  0.1300439E+00
        -11   -1    0    0    0    0  0.00000000000E+00  0.00000000000E+00  0.45593999997E+02  0.45594000000E+02  0.51100000000E-03 0.  1.
         11   -1    0    0    0    0 -0.00000000000E+00 -0.00000000000E+00 -0.45593999997E+02  0.45594000000E+02  0.51100000000E-03 0. -1.
    9900012    2    1    2    0    0 -0.13350083139E+02 -0.35303819519E+02  0.15118933818E+02  0.50528849096E+02  0.29999967311E+02 0.  0.
         12    1    1    2    0    0  0.13350083139E+02  0.35303819519E+02 -0.15118933818E+02  0.40659150904E+02  0.00000000000E+00 0. -1.
         11    1    3    3    0    0  0.40433938511E+01  0.11313640713E+01 -0.78288421753E+00  0.42710568313E+01  0.51100000000E-03 0. -1.
        -11    1    3    3    0    0 -0.41434255470E+01 -0.97929931549E+01 -0.29478347395E+01  0.11034510415E+02  0.51100000000E-03 0.  1.
        -12    1    3    3    0    0 -0.13250051443E+02 -0.26642190436E+02  0.18849652775E+02  0.35223281849E+02  0.00000000000E+00 0.  1.
</event>
<event>
 7    1  0.2450552E-011  0.5052887E+02  0.7816164E-02  0.1300439E+00
        -11   -1    0    0    0    0  0.00000000000E+00  0.00000000000E+00  0.45593999997E+02  0.45594000000E+02  0.51100000000E-03 0.  1.
         11   -1    0    0    0    0 -0.00000000000E+00 -0.00000000000E+00 -0.45593999997E+02  0.45594000000E+02  0.51100000000E-03 0. -1.
    9900012    2    1    2    0    0  0.22361830134E+02  0.89759274055E+01  0.32749751264E+02  0.50528869075E+02  0.30000028042E+02 0.  0.
         12    1    1    2    0    0 -0.22361830134E+02 -0.89759274055E+01 -0.32749751264E+02  0.40659130925E+02  0.00000000000E+00 0. -1.
         11    1    3    3    0    0  0.81150873851E+01  0.10927959631E+02  0.11134815415E+02  0.17585762979E+02  0.51100000000E-03 0. -1.
        -11    1    3    3    0    0  0.18286576077E+02 -0.48346304200E+00  0.22018195616E+02  0.28625749590E+02  0.51100000000E-03 0.  1.
         12    1    3    3    0    0 -0.40398333281E+01 -0.14685691834E+01 -0.40325976770E+00  0.43173565067E+01  0.00000000000E+00 0. -1.
</event>
<event>
 7    1  0.2450552E-011  0.5052886E+02  0.7816164E-02  0.1300439E+00
        -11   -1    0    0    0    0  0.00000000000E+00  0.00000000000E+00  0.45593999997E+02  0.45594000000E+02  0.51100000000E-03 0.  1.
         11   -1    0    0    0    0 -0.00000000000E+00 -0.00000000000E+00 -0.45593999997E+02  0.45594000000E+02  0.51100000000E-03 0. -1.
    9900012    2    1    2    0    0 -0.83043655512E+01 -0.39215826044E+02  0.68060272728E+01  0.50528861953E+02  0.30000006392E+02 0.  0.
         12    1    1    2    0    0  0.83043655512E+01  0.39215826044E+02 -0.68060272728E+01  0.40659138047E+02  0.00000000000E+00 0. -1.
         11    1    3    3    0    0  0.43257622210E+01 -0.99072536794E+01 -0.11763607624E+01  0.10874268673E+02  0.51100000000E-03 0. -1.
        -11    1    3    3    0    0 -0.25103607675E+01 -0.75977384341E+01  0.12920303224E+02  0.15197426629E+02  0.51100000000E-03 0.  1.
         12    1    3    3    0    0 -0.10119767005E+02 -0.21710833930E+02 -0.49379151888E+01  0.24457166651E+02  0.00000000000E+00 0. -1.
</event>
<event>
 7    1  0.2450552E-011  0.5052886E+02  0.7816164E-02  0.1300439E+00
        -11   -1    0    0    0    0  0.00000000000E+00  0.00000000000E+00  0.45593999997E+02  0.45594000000E+02  0.51100000000E-03 0. -1.
         11   -1    0    0    0    0 -0.00000000000E+00 -0.00000000000E+00 -0.45593999997E+02  0.45594000000E+02  0.51100000000E-03 0.  1.
    9900012    2    1    2    0    0 -0.28523226293E+02  0.28181765281E+02  0.67364410349E+01  0.50528856252E+02  0.29999989063E+02 0.  0.
         12    1    1    2    0    0  0.28523226293E+02 -0.28181765281E+02 -0.67364410349E+01  0.40659143748E+02  0.00000000000E+00 0. -1.
         11    1    3    3    0    0 -0.24554247261E+02  0.30003404667E+02  0.68369003489E+01  0.39368242999E+02  0.51100000000E-03 0. -1.
        -11    1    3    3    0    0 -0.53287124225E+01  0.62113155712E+00  0.36456587715E+01  0.64862784886E+01  0.51100000000E-03 0.  1.
         12    1    3    3    0    0  0.13597333908E+01 -0.24427709432E+01 -0.37461180855E+01  0.46743347639E+01  0.00000000000E+00 0. -1.
</event>
<event>
 7    1  0.2450552E-011  0.5052886E+02  0.7816164E-02  0.1300439E+00
        -11   -1    0    0    0    0  0.00000000000E+00  0.00000000000E+00  0.45593999997E+02  0.45594000000E+02  0.51100000000E-03 0. -1.
         11   -1    0    0    0    0 -0.00000000000E+00 -0.00000000000E+00 -0.45593999997E+02  0.45594000000E+02  0.51100000000E-03 0.  1.
    9900012    2    1    2    0    0 -0.19423819118E+02  0.16539344893E+02 -0.31659605388E+02  0.50528864594E+02  0.30000014419E+02 0.  0.
         12    1    1    2    0    0  0.19423819118E+02 -0.16539344893E+02  0.31659605388E+02  0.40659135406E+02  0.00000000000E+00 0. -1.
         11    1    3    3    0    0 -0.15106829008E+02  0.37251459479E+01 -0.15058098109E+02  0.21652697613E+02  0.51100000000E-03 0. -1.
        -11    1    3    3    0    0 -0.10762807103E+02  0.36887388343E+01 -0.12678714359E+02  0.17035099324E+02  0.51100000000E-03 0.  1.
         12    1    3    3    0    0  0.64458169927E+01  0.91254601112E+01 -0.39227929207E+01  0.11841067656E+02  0.00000000000E+00 0. -1.
</event>
<event>
 7    1  0.2450552E-011  0.5052886E+02  0.7816164E-02  0.1300439E+00
        -11   -1    0    0    0    0  0.00000000000E+00  0.00000000000E+00  0.45593999997E+02  0.45594000000E+02  0.51100000000E-03 0. -1.
         11   -1    0    0    0    0 -0.00000000000E+00 -0.00000000000E+00 -0.45593999997E+02  0.45594000000E+02  0.51100000000E-03 0.  1.
    9900012    2    1    2    0    0  0.28854194621E+02  0.10175697915E+02 -0.26777906284E+02  0.50528860311E+02  0.30000001403E+02 0.  0.
         12    1    1    2    0    0 -0.28854194621E+02 -0.10175697915E+02  0.26777906284E+02  0.40659139689E+02  0.00000000000E+00 0. -1.
         11    1    3    3    0    0 -0.20212163912E+01  0.49301338220E+01 -0.61504975179E+00  0.53637507083E+01  0.51100000000E-03 0. -1.
        -11    1    3    3    0    0  0.24137573019E+02 -0.73819582425E+00 -0.89833341344E+01  0.25765629368E+02  0.51100000000E-03 0.  1.
        -12    1    3    3    0    0  0.67378379932E+01  0.59837599176E+01 -0.17179522398E+02  0.19399480235E+02  0.00000000000E+00 0.  1.
</event>
<event>
 7    1  0.2450552E-011  0.5052886E+02  0.7816164E-02  0.1300439E+00
        -11   -1    0    0    0    0  0.00000000000E+00  0.00000000000E+00  0.45593999997E+02  0.45594000000E+02  0.51100000000E-03 0.  1.
         11   -1    0    0    0    0 -0.00000000000E+00 -0.00000000000E+00 -0.45593999997E+02  0.45594000000E+02  0.51100000000E-03 0. -1.
    9900012    2    1    2    0    0 -0.28533635015E+01  0.31972590408E+02  0.24955507113E+02  0.50528861348E+02  0.30000004553E+02 0.  0.
         12    1    1    2    0    0  0.28533635015E+01 -0.31972590408E+02 -0.24955507113E+02  0.40659138652E+02  0.00000000000E+00 0. -1.
         11    1    3    3    0    0  0.54924321979E+00 -0.65934385218E+00  0.90047491556E+00  0.12438881640E+01  0.51100000000E-03 0. -1.
        -11    1    3    3    0    0 -0.10882340856E+02  0.31504835500E+02  0.12758401200E+02  0.35689729669E+02  0.51100000000E-03 0.  1.
        -12    1    3    3    0    0  0.74797341347E+01  0.11270987600E+01  0.11296630997E+02  0.13595243515E+02  0.00000000000E+00 0.  1.
</event>
<event>
 7    1  0.2450552E-011  0.5052887E+02  0.7816164E-02  0.1300439E+00
        -11   -1    0    0    0    0  0.00000000000E+00  0.00000000000E+00  0.45593999997E+02  0.45594000000E+02  0.51100000000E-03 0. -1.
         11   -1    0    0    0    0 -0.00000000000E+00 -0.00000000000E+00 -0.45593999997E+02  0.45594000000E+02  0.51100000000E-03 0.  1.
    9900012    2    1    2    0    0  0.38990815989E+02 -0.96385245798E+01 -0.63229842596E+01  0.50528867969E+02  0.30000024678E+02 0.  0.
         12    1    1    2    0    0 -0.38990815989E+02  0.96385245798E+01  0.63229842596E+01  0.40659132031E+02  0.00000000000E+00 0. -1.
         11    1    3    3    0    0 -0.34136316740E+01 -0.11247747090E+01  0.20869150599E+01  0.41561056387E+01  0.51100000000E-03 0. -1.
        -11    1    3    3    0    0  0.63197880873E+01  0.14330009289E+01 -0.60541072394E+01  0.88682257447E+01  0.51100000000E-03 0.  1.
         12    1    3    3    0    0  0.36084659576E+02 -0.99467507997E+01 -0.23557920801E+01  0.37504536586E+02  0.00000000000E+00 0. -1.
</event>
<event>
 7    1  0.2450552E-011  0.5052884E+02  0.7816164E-02  0.1300439E+00
        -11   -1    0    0    0    0  0.00000000000E+00  0.00000000000E+00  0.45593999997E+02  0.45594000000E+02  0.51100000000E-03 0.  1.
         11   -1    0    0    0    0 -0.00000000000E+00 -0.00000000000E+00 -0.45593999997E+02  0.45594000000E+02  0.51100000000E-03 0. -1.
    9900012    2    1    2    0    0 -0.30741698110E+02 -0.19602504679E+01  0.26538133483E+02  0.50528842196E+02  0.29999946338E+02 0.  0.
         12    1    1    2    0    0  0.30741698110E+02  0.19602504679E+01 -0.26538133483E+02  0.40659157804E+02  0.00000000000E+00 0. -1.
         11    1    3    3    0    0 -0.10238672756E+02 -0.15636309239E+01  0.17436937502E+02  0.20281078649E+02  0.51100000000E-03 0. -1.
        -11    1    3    3    0    0 -0.23513312220E+02  0.20954966047E+01  0.10832718177E+02  0.25973346741E+02  0.51100000000E-03 0.  1.
         12    1    3    3    0    0  0.30102868663E+01 -0.24921161488E+01 -0.17315221947E+01  0.42744168055E+01  0.00000000000E+00 0. -1.
</event>
<event>
 7    1  0.2450552E-011  0.5052888E+02  0.7816164E-02  0.1300439E+00
        -11   -1    0    0    0    0  0.00000000000E+00  0.00000000000E+00  0.45593999997E+02  0.45594000000E+02  0.51100000000E-03 0.  1.
         11   -1    0    0    0    0 -0.00000000000E+00 -0.00000000000E+00 -0.45593999997E+02  0.45594000000E+02  0.51100000000E-03 0. -1.
    9900012    2    1    2    0    0 -0.31915969848E+02  0.23299637510E+02  0.95740325264E+01  0.50528876323E+02  0.30000050070E+02 0.  0.
         12    1    1    2    0    0  0.31915969848E+02 -0.23299637510E+02 -0.95740325264E+01  0.40659123677E+02  0.00000000000E+00 0. -1.
         11    1    3    3    0    0 -0.40098232246E+00  0.38933119430E+00  0.50115037649E+01  0.50425723444E+01  0.51100000000E-03 0. -1.
        -11    1    3    3    0    0 -0.25206162295E+02  0.50711595981E+01  0.63393470183E+01  0.26481212173E+02  0.51100000000E-03 0.  1.
        -12    1    3    3    0    0 -0.63088252307E+01  0.17839146717E+02 -0.17768182567E+01  0.19005091805E+02  0.00000000000E+00 0.  1.
</event>
<event>
 7    1  0.2450552E-011  0.5052892E+02  0.7816164E-02  0.1300439E+00
        -11   -1    0    0    0    0  0.00000000000E+00  0.00000000000E+00  0.45593999997E+02  0.45594000000E+02  0.51100000000E-03 0. -1.
         11   -1    0    0    0    0 -0.00000000000E+00 -0.00000000000E+00 -0.45593999997E+02  0.45594000000E+02  0.51100000000E-03 0.  1.
    9900012    2    1    2    0    0 -0.38712802833E+02 -0.80050638769E+01 -0.95078138719E+01  0.50528921364E+02  0.30000186979E+02 0.  0.
         12    1    1    2    0    0  0.38712802833E+02  0.80050638769E+01  0.95078138719E+01  0.40659078636E+02  0.00000000000E+00 0. -1.
         11    1    3    3    0    0 -0.16001795756E+00  0.12112810987E+01  0.43664644569E+01  0.45341834724E+01  0.51100000000E-03 0. -1.
        -11    1    3    3    0    0 -0.11473388009E+02  0.53819336870E+01 -0.12249823727E+01  0.12732023590E+02  0.51100000000E-03 0.  1.
        -12    1    3    3    0    0 -0.27079396866E+02 -0.14598278663E+02 -0.12649295956E+02  0.33262714302E+02  0.00000000000E+00 0.  1.
</event>
<event>
 7    1  0.2450552E-011  0.5052886E+02  0.7816164E-02  0.1300439E+00
        -11   -1    0    0    0    0  0.00000000000E+00  0.00000000000E+00  0.45593999997E+02  0.45594000000E+02  0.51100000000E-03 0.  1.
         11   -1    0    0    0    0 -0.00000000000E+00 -0.00000000000E+00 -0.45593999997E+02  0.45594000000E+02  0.51100000000E-03 0. -1.
    9900012    2    1    2    0    0 -0.81554039836E+01 -0.25891110831E+02  0.30270540771E+02  0.50528857452E+02  0.29999992710E+02 0.  0.
         12    1    1    2    0    0  0.81554039836E+01  0.25891110831E+02 -0.30270540771E+02  0.40659142548E+02  0.00000000000E+00 0. -1.
         11    1    3    3    0    0  0.63531512755E+01  0.28249871337E+01  0.55678281454E+01  0.89075133429E+01  0.51100000000E-03 0. -1.
        -11    1    3    3    0    0 -0.29616960817E+00 -0.99179119992E+01  0.77735825611E+01  0.12604811818E+02  0.51100000000E-03 0.  1.
        -12    1    3    3    0    0 -0.14212385651E+02 -0.18798185965E+02  0.16929130065E+02  0.29016532291E+02  0.00000000000E+00 0.  1.
</event>
<event>
 7    1  0.2450552E-011  0.5052886E+02  0.7816164E-02  0.1300439E+00
        -11   -1    0    0    0    0  0.00000000000E+00  0.00000000000E+00  0.45593999997E+02  0.45594000000E+02  0.51100000000E-03 0.  1.
         11   -1    0    0    0    0 -0.00000000000E+00 -0.00000000000E+00 -0.45593999997E+02  0.45594000000E+02  0.51100000000E-03 0. -1.
    9900012    2    1    2    0    0 -0.27927243911E+02  0.17240018649E+01  0.29500218079E+02  0.50528855867E+02  0.29999987895E+02 0.  0.
         12    1    1    2    0    0  0.27927243911E+02 -0.17240018649E+01 -0.29500218079E+02  0.40659144133E+02  0.00000000000E+00 0. -1.
         11    1    3    3    0    0 -0.15394291727E+02 -0.48944032576E+01  0.86884209371E+01  0.18341975348E+02  0.51100000000E-03 0. -1.
        -11    1    3    3    0    0 -0.84554879050E+01  0.36543459368E+01  0.24346073297E+02  0.26030382348E+02  0.51100000000E-03 0.  1.
         12    1    3    3    0    0 -0.40774642781E+01  0.29640591857E+01 -0.35342761547E+01  0.61564981713E+01  0.00000000000E+00 0. -1.
</event>
<event>
 7    1  0.2450552E-011  0.5052886E+02  0.7816164E-02  0.1300439E+00
        -11   -1    0    0    0    0  0.00000000000E+00  0.00000000000E+00  0.45593999997E+02  0.45594000000E+02  0.51100000000E-03 0.  1.
         11   -1    0    0    0    0 -0.00000000000E+00 -0.00000000000E+00 -0.45593999997E+02  0.45594000000E+02  0.51100000000E-03 0. -1.
    9900012    2    1    2    0    0  0.34302936071E+02  0.31641666123E+01  0.21597733887E+02  0.50528862251E+02  0.30000007299E+02 0.  0.
         12    1    1    2    0    0 -0.34302936071E+02 -0.31641666123E+01 -0.21597733887E+02  0.40659137749E+02  0.00000000000E+00 0. -1.
         11    1    3    3    0    0  0.11873144717E+02 -0.69249339572E+01  0.19121848465E+02  0.23549338945E+02  0.51100000000E-03 0. -1.
        -11    1    3    3    0    0  0.62676544374E+01  0.40005772090E+01 -0.41095455924E+01  0.84956739220E+01  0.51100000000E-03 0.  1.
        -12    1    3    3    0    0  0.16162136916E+02  0.60885233605E+01  0.65854310142E+01  0.18483849384E+02  0.00000000000E+00 0.  1.
</event>
<event>
 7    1  0.2450552E-011  0.5052886E+02  0.7816164E-02  0.1300439E+00
        -11   -1    0    0    0    0  0.00000000000E+00  0.00000000000E+00  0.45593999997E+02  0.45594000000E+02  0.51100000000E-03 0. -1.
         11   -1    0    0    0    0 -0.00000000000E+00 -0.00000000000E+00 -0.45593999997E+02  0.45594000000E+02  0.51100000000E-03 0.  1.
    9900012    2    1    2    0    0  0.32242858991E+02 -0.24477946272E+02  0.37939690697E+01  0.50528855753E+02  0.29999987546E+02 0.  0.
         12    1    1    2    0    0 -0.32242858991E+02  0.24477946272E+02 -0.37939690697E+01  0.40659144247E+02  0.00000000000E+00 0. -1.
         11    1    3    3    0    0 -0.85197834247E+00 -0.31993505085E+01  0.10847974748E+01  0.34840345284E+01  0.51100000000E-03 0. -1.
        -11    1    3    3    0    0  0.32483485676E+02 -0.22116232382E+02 -0.46871292386E+01  0.39576176637E+02  0.51100000000E-03 0.  1.
         12    1    3    3    0    0  0.61135165766E+00  0.83763661859E+00  0.73963008335E+01  0.74686445874E+01  0.00000000000E+00 0. -1.
</event>
<event>
 7    1  0.2450552E-011  0.5052886E+02  0.7816164E-02  0.1300439E+00
        -11   -1    0    0    0    0  0.00000000000E+00  0.00000000000E+00  0.45593999997E+02  0.45594000000E+02  0.51100000000E-03 0.  1.
         11   -1    0    0    0    0 -0.00000000000E+00 -0.00000000000E+00 -0.45593999997E+02  0.45594000000E+02  0.51100000000E-03 0. -1.
    9900012    2    1    2    0    0  0.32611782160E+02  0.20012551867E+02  0.13752643928E+02  0.50528858557E+02  0.29999996068E+02 0.  0.
         12    1    1    2    0    0 -0.32611782160E+02 -0.20012551867E+02 -0.13752643928E+02  0.40659141443E+02  0.00000000000E+00 0. -1.
         11    1    3    3    0    0  0.14265218935E+02 -0.33955533613E+01  0.13631029020E+02  0.20020769374E+02  0.51100000000E-03 0. -1.
        -11    1    3    3    0    0  0.46646309488E+00  0.40403308385E+01  0.77698060441E+00  0.41407197712E+01  0.51100000000E-03 0.  1.
        -12    1    3    3    0    0  0.17880100130E+02  0.19367774390E+02 -0.65536569678E+00  0.26367369412E+02  0.00000000000E+00 0.  1.
</event>
<event>
 7    1  0.2450552E-011  0.5052886E+02  0.7816164E-02  0.1300439E+00
        -11   -1    0    0    0    0  0.00000000000E+00  0.00000000000E+00  0.45593999997E+02  0.45594000000E+02  0.51100000000E-03 0. -1.
         11   -1    0    0    0    0 -0.00000000000E+00 -0.00000000000E+00 -0.45593999997E+02  0.45594000000E+02  0.51100000000E-03 0.  1.
    9900012    2    1    2    0    0 -0.29883886935E+02 -0.22368595832E+02 -0.16117223420E+02  0.50528859962E+02  0.30000000341E+02 0.  0.
         12    1    1    2    0    0  0.29883886935E+02  0.22368595832E+02  0.16117223420E+02  0.40659140038E+02  0.00000000000E+00 0. -1.
         11    1    3    3    0    0 -0.42498161727E+01  0.22839402805E+01 -0.14441092658E+01  0.50361465963E+01  0.51100000000E-03 0. -1.
        -11    1    3    3    0    0 -0.50689054754E+01 -0.12518886429E+02 -0.16758981790E+02  0.21523935306E+02  0.51100000000E-03 0.  1.
         12    1    3    3    0    0 -0.20565165287E+02 -0.12133649683E+02  0.20858676351E+01  0.23968778060E+02  0.00000000000E+00 0. -1.
</event>
<event>
 7    1  0.2450552E-011  0.5052886E+02  0.7816164E-02  0.1300439E+00
        -11   -1    0    0    0    0  0.00000000000E+00  0.00000000000E+00  0.45593999997E+02  0.45594000000E+02  0.51100000000E-03 0. -1.
         11   -1    0    0    0    0 -0.00000000000E+00 -0.00000000000E+00 -0.45593999997E+02  0.45594000000E+02  0.51100000000E-03 0.  1.
    9900012    2    1    2    0    0  0.82563641734E+01  0.37191650311E+02 -0.14204906263E+02  0.50528858787E+02  0.29999996770E+02 0.  0.
         12    1    1    2    0    0 -0.82563641734E+01 -0.37191650311E+02  0.14204906263E+02  0.40659141213E+02  0.00000000000E+00 0. -1.
         11    1    3    3    0    0  0.10032273631E+02  0.14298354317E+02  0.11810715061E+00  0.17467209277E+02  0.51100000000E-03 0. -1.
        -11    1    3    3    0    0  0.76082406230E+01  0.77158232577E+01 -0.98997269378E+01  0.14677324267E+02  0.51100000000E-03 0.  1.
        -12    1    3    3    0    0 -0.93841500808E+01  0.15177472736E+02 -0.44232864760E+01  0.18384325243E+02  0.00000000000E+00 0.  1.
</event>
<event>
 7    1  0.2450552E-011  0.5052886E+02  0.7816164E-02  0.1300439E+00
        -11   -1    0    0    0    0  0.00000000000E+00  0.00000000000E+00  0.45593999997E+02  0.45594000000E+02  0.51100000000E-03 0. -1.
         11   -1    0    0    0    0 -0.00000000000E+00 -0.00000000000E+00 -0.45593999997E+02  0.45594000000E+02  0.51100000000E-03 0.  1.
    9900012    2    1    2    0    0  0.17319577642E+02 -0.12197388843E+02 -0.34704781802E+02  0.50528856573E+02  0.29999990038E+02 0.  0.
         12    1    1    2    0    0 -0.17319577642E+02  0.12197388843E+02  0.34704781802E+02  0.40659143427E+02  0.00000000000E+00 0. -1.
         11    1    3    3    0    0  0.13078428394E+02 -0.15773273231E+02 -0.19442994261E+02  0.28246618625E+02  0.51100000000E-03 0. -1.
        -11    1    3    3    0    0  0.23136645085E+00 -0.28591469898E+01  0.19539879112E+01  0.34707810305E+01  0.51100000000E-03 0.  1.
        -12    1    3    3    0    0  0.40097827973E+01  0.64350313772E+01 -0.17215775453E+02  0.18811456917E+02  0.00000000000E+00 0.  1.
</event>
<event>
 7    1  0.2450552E-011  0.5052892E+02  0.7816164E-02  0.1300439E+00
        -11   -1    0    0    0    0  0.00000000000E+00  0.00000000000E+00  0.45593999997E+02  0.45594000000E+02  0.51100000000E-03 0.  1.
         11   -1    0    0    0    0 -0.00000000000E+00 -0.00000000000E+00 -0.45593999997E+02  0.45594000000E+02  0.51100000000E-03 0. -1.
    9900012    2    1    2    0    0 -0.10363646253E+02 -0.21319945675E+02  0.33033557819E+02  0.50528915045E+02  0.30000167770E+02 0.  0.
         12    1    1    2    0    0  0.10363646253E+02  0.21319945675E+02 -0.33033557819E+02  0.40659084955E+02  0.00000000000E+00 0. -1.
         11    1    3    3    0    0 -0.72280829368E+01 -0.12810202949E+02  0.10025802072E+02  0.17800651393E+02  0.51100000000E-03 0. -1.
        -11    1    3    3    0    0 -0.12015434471E+02 -0.43236469998E+01  0.16841287390E+02  0.21135125978E+02  0.51100000000E-03 0.  1.
        -12    1    3    3    0    0  0.88798711543E+01 -0.41860957253E+01  0.61664683561E+01  0.11593137674E+02  0.00000000000E+00 0.  1.
</event>
<event>
 7    1  0.2450552E-011  0.5052886E+02  0.7816164E-02  0.1300439E+00
        -11   -1    0    0    0    0  0.00000000000E+00  0.00000000000E+00  0.45593999997E+02  0.45594000000E+02  0.51100000000E-03 0. -1.
         11   -1    0    0    0    0 -0.00000000000E+00 -0.00000000000E+00 -0.45593999997E+02  0.45594000000E+02  0.51100000000E-03 0.  1.
    9900012    2    1    2    0    0  0.37904392679E+02  0.11116206529E+02 -0.96360202532E+01  0.50528856892E+02  0.29999991009E+02 0.  0.
         12    1    1    2    0    0 -0.37904392679E+02 -0.11116206529E+02  0.96360202532E+01  0.40659143108E+02  0.00000000000E+00 0. -1.
         11    1    3    3    0    0 -0.16952729352E+01  0.37532806422E+01 -0.23462481958E+01  0.47398256045E+01  0.51100000000E-03 0. -1.
        -11    1    3    3    0    0  0.35381172132E+02 -0.37903323055E+00 -0.18547959505E+01  0.35431783414E+02  0.51100000000E-03 0.  1.
         12    1    3    3    0    0  0.42184934820E+01  0.77419591173E+01 -0.54349761069E+01  0.10357247874E+02  0.00000000000E+00 0. -1.
</event>
<event>
 7    1  0.2450552E-011  0.5052886E+02  0.7816164E-02  0.1300439E+00
        -11   -1    0    0    0    0  0.00000000000E+00  0.00000000000E+00  0.45593999997E+02  0.45594000000E+02  0.51100000000E-03 0. -1.
         11   -1    0    0    0    0 -0.00000000000E+00 -0.00000000000E+00 -0.45593999997E+02  0.45594000000E+02  0.51100000000E-03 0.  1.
    9900012    2    1    2    0    0  0.26844765910E+02  0.11986241884E+02 -0.28086554847E+02  0.50528855709E+02  0.29999987414E+02 0.  0.
         12    1    1    2    0    0 -0.26844765910E+02 -0.11986241884E+02  0.28086554847E+02  0.40659144291E+02  0.00000000000E+00 0. -1.
         11    1    3    3    0    0  0.12915603695E+02  0.61864972399E+01 -0.60695262838E+01  0.15553929294E+02  0.51100000000E-03 0. -1.
        -11    1    3    3    0    0  0.64123927109E+01 -0.66682683961E+01 -0.17391872044E+02  0.19699284178E+02  0.51100000000E-03 0.  1.
         12    1    3    3    0    0  0.75167695046E+01  0.12468013040E+02 -0.46251565195E+01  0.15275642238E+02  0.00000000000E+00 0. -1.
</event>
<event>
 7    1  0.2450552E-011  0.5052886E+02  0.7816164E-02  0.1300439E+00
        -11   -1    0    0    0    0  0.00000000000E+00  0.00000000000E+00  0.45593999997E+02  0.45594000000E+02  0.51100000000E-03 0.  1.
         11   -1    0    0    0    0 -0.00000000000E+00 -0.00000000000E+00 -0.45593999997E+02  0.45594000000E+02  0.51100000000E-03 0. -1.
    9900012    2    1    2    0    0 -0.77468646157E+01 -0.34407336374E+02  0.20230849339E+02  0.50528856223E+02  0.29999988976E+02 0.  0.
         12    1    1    2    0    0  0.77468646157E+01  0.34407336374E+02 -0.20230849339E+02  0.40659143777E+02  0.00000000000E+00 0. -1.
         11    1    3    3    0    0  0.84445551587E+01 -0.20759052098E+02  0.12870099747E+02  0.25843533497E+02  0.51100000000E-03 0. -1.
        -11    1    3    3    0    0 -0.27598314120E+01 -0.48669561248E+01  0.65544107443E+01  0.86176697436E+01  0.51100000000E-03 0.  1.
         12    1    3    3    0    0 -0.13431588362E+02 -0.87813281514E+01  0.80633884692E+00  0.16067652983E+02  0.00000000000E+00 0. -1.
</event>
<event>
 7    1  0.2450552E-011  0.5052886E+02  0.7816164E-02  0.1300439E+00
        -11   -1    0    0    0    0  0.00000000000E+00  0.00000000000E+00  0.45593999997E+02  0.45594000000E+02  0.51100000000E-03 0.  1.
         11   -1    0    0    0    0 -0.00000000000E+00 -0.00000000000E+00 -0.45593999997E+02  0.45594000000E+02  0.51100000000E-03 0. -1.
    9900012    2    1    2    0    0 -0.15204532475E+02  0.17763616027E+02  0.33263215992E+02  0.50528863262E+02  0.30000010372E+02 0.  0.
         12    1    1    2    0    0  0.15204532475E+02 -0.17763616027E+02 -0.33263215992E+02  0.40659136738E+02  0.00000000000E+00 0. -1.
         11    1    3    3    0    0 -0.10322498637E+02  0.11369852797E+02  0.18369929470E+02  0.23943304696E+02  0.51100000000E-03 0. -1.
        -11    1    3    3    0    0 -0.57772820503E+01 -0.98934432724E+00  0.17693180789E+02  0.18638788501E+02  0.51100000000E-03 0.  1.
         12    1    3    3    0    0  0.89524821227E+00  0.73831075569E+01 -0.27998942680E+01  0.79467700653E+01  0.00000000000E+00 0. -1.
</event>
<event>
 7    1  0.2450552E-011  0.5052889E+02  0.7816164E-02  0.1300439E+00
        -11   -1    0    0    0    0  0.00000000000E+00  0.00000000000E+00  0.45593999997E+02  0.45594000000E+02  0.51100000000E-03 0.  1.
         11   -1    0    0    0    0 -0.00000000000E+00 -0.00000000000E+00 -0.45593999997E+02  0.45594000000E+02  0.51100000000E-03 0. -1.
    9900012    2    1    2    0    0 -0.11754905865E+02 -0.17509529360E+02  0.34762073033E+02  0.50528890912E+02  0.30000094415E+02 0.  0.
         12    1    1    2    0    0  0.11754905865E+02  0.17509529360E+02 -0.34762073033E+02  0.40659109088E+02  0.00000000000E+00 0. -1.
         11    1    3    3    0    0 -0.74523371900E+00  0.51552140461E+01 -0.14127276989E+01  0.53969810977E+01  0.51100000000E-03 0. -1.
        -11    1    3    3    0    0 -0.20253993877E+01 -0.21838971422E+01  0.11279478614E+02  0.11666117069E+02  0.51100000000E-03 0.  1.
        -12    1    3    3    0    0 -0.89842727584E+01 -0.20480846264E+02  0.24895322118E+02  0.33465792745E+02  0.00000000000E+00 0.  1.
</event>
<event>
 7    1  0.2450552E-011  0.5052886E+02  0.7816164E-02  0.1300439E+00
        -11   -1    0    0    0    0  0.00000000000E+00  0.00000000000E+00  0.45593999997E+02  0.45594000000E+02  0.51100000000E-03 0.  1.
         11   -1    0    0    0    0 -0.00000000000E+00 -0.00000000000E+00 -0.45593999997E+02  0.45594000000E+02  0.51100000000E-03 0. -1.
    9900012    2    1    2    0    0  0.74320131111E+01  0.19605589504E+02  0.34836068746E+02  0.50528860260E+02  0.30000001247E+02 0.  0.
         12    1    1    2    0    0 -0.74320131111E+01 -0.19605589504E+02 -0.34836068746E+02  0.40659139740E+02  0.00000000000E+00 0. -1.
         11    1    3    3    0    0 -0.45719915730E+00 -0.10440382281E+01  0.31347950494E+01  0.33355639934E+01  0.51100000000E-03 0. -1.
        -11    1    3    3    0    0 -0.20363980479E+01  0.15327243589E+02  0.22029916728E+01  0.15618082008E+02  0.51100000000E-03 0.  1.
        -12    1    3    3    0    0  0.99256103163E+01  0.53223841439E+01  0.29498282024E+02  0.31575214259E+02  0.00000000000E+00 0.  1.
</event>
<event>
 7    1  0.2450552E-011  0.5052886E+02  0.7816164E-02  0.1300439E+00
        -11   -1    0    0    0    0  0.00000000000E+00  0.00000000000E+00  0.45593999997E+02  0.45594000000E+02  0.51100000000E-03 0. -1.
         11   -1    0    0    0    0 -0.00000000000E+00 -0.00000000000E+00 -0.45593999997E+02  0.45594000000E+02  0.51100000000E-03 0.  1.
    9900012    2    1    2    0    0  0.13239901905E+02 -0.14655808887E+02 -0.35539802031E+02  0.50528864926E+02  0.30000015428E+02 0.  0.
         12    1    1    2    0    0 -0.13239901905E+02  0.14655808887E+02  0.35539802031E+02  0.40659135074E+02  0.00000000000E+00 0. -1.
         11    1    3    3    0    0 -0.43775024387E+01 -0.54017709068E+01  0.92486924716E+00  0.70140601591E+01  0.51100000000E-03 0. -1.
        -11    1    3    3    0    0  0.16792908974E+01 -0.52492696977E+01 -0.17862401731E+02  0.18693320896E+02  0.51100000000E-03 0.  1.
        -12    1    3    3    0    0  0.15938113446E+02 -0.40047682828E+01 -0.18602269548E+02  0.24821483871E+02  0.00000000000E+00 0.  1.
</event>
<event>
 7    1  0.2450552E-011  0.5052888E+02  0.7816164E-02  0.1300439E+00
        -11   -1    0    0    0    0  0.00000000000E+00  0.00000000000E+00  0.45593999997E+02  0.45594000000E+02  0.51100000000E-03 0.  1.
         11   -1    0    0    0    0 -0.00000000000E+00 -0.00000000000E+00 -0.45593999997E+02  0.45594000000E+02  0.51100000000E-03 0. -1.
    9900012    2    1    2    0    0  0.51938037774E+01 -0.28266519006E+02  0.28760956128E+02  0.50528876894E+02  0.30000051807E+02 0.  0.
         12    1    1    2    0    0 -0.51938037774E+01  0.28266519006E+02 -0.28760956128E+02  0.40659123106E+02  0.00000000000E+00 0. -1.
         11    1    3    3    0    0  0.27416068548E+01 -0.28373129444E+00 -0.18212484004E+01  0.33036128088E+01  0.51100000000E-03 0. -1.
        -11    1    3    3    0    0  0.87623113167E+00  0.16184414502E+01 -0.23053666568E+01  0.29498897280E+01  0.51100000000E-03 0.  1.
        -12    1    3    3    0    0  0.15759657909E+01 -0.29601229161E+02  0.32887571185E+02  0.44275374357E+02  0.00000000000E+00 0.  1.
</event>
<event>
 7    1  0.2450552E-011  0.5052886E+02  0.7816164E-02  0.1300439E+00
        -11   -1    0    0    0    0  0.00000000000E+00  0.00000000000E+00  0.45593999997E+02  0.45594000000E+02  0.51100000000E-03 0.  1.
         11   -1    0    0    0    0 -0.00000000000E+00 -0.00000000000E+00 -0.45593999997E+02  0.45594000000E+02  0.51100000000E-03 0. -1.
    9900012    2    1    2    0    0  0.90684517794E+01 -0.25002152546E+01  0.39556011004E+02  0.50528857110E+02  0.29999991671E+02 0.  0.
         12    1    1    2    0    0 -0.90684517794E+01  0.25002152546E+01 -0.39556011004E+02  0.40659142890E+02  0.00000000000E+00 0. -1.
         11    1    3    3    0    0 -0.20228449344E+01 -0.92051570913E+00  0.29834519784E+01  0.37202468692E+01  0.51100000000E-03 0. -1.
        -11    1    3    3    0    0  0.16208812367E+02 -0.26131541128E+01  0.38000901020E+02  0.41395925541E+02  0.51100000000E-03 0.  1.
        -12    1    3    3    0    0 -0.51175156533E+01  0.10334545673E+01 -0.14283419943E+01  0.54126846996E+01  0.00000000000E+00 0.  1.
</event>
<event>
 7    1  0.2450552E-011  0.5052886E+02  0.7816164E-02  0.1300439E+00
        -11   -1    0    0    0    0  0.00000000000E+00  0.00000000000E+00  0.45593999997E+02  0.45594000000E+02  0.51100000000E-03 0.  1.
         11   -1    0    0    0    0 -0.00000000000E+00 -0.00000000000E+00 -0.45593999997E+02  0.45594000000E+02  0.51100000000E-03 0. -1.
    9900012    2    1    2    0    0 -0.30156843341E+01 -0.28383681614E+02  0.28955793038E+02  0.50528859768E+02  0.29999999751E+02 0.  0.
         12    1    1    2    0    0  0.30156843341E+01  0.28383681614E+02 -0.28955793038E+02  0.40659140232E+02  0.00000000000E+00 0. -1.
         11    1    3    3    0    0 -0.54087281576E+01  0.13970104129E+01 -0.10066605542E+00  0.55871381129E+01  0.51100000000E-03 0. -1.
        -11    1    3    3    0    0  0.53512554092E+01 -0.15593960687E+01  0.73024501341E+01  0.91865896162E+01  0.51100000000E-03 0.  1.
        -12    1    3    3    0    0 -0.29582115857E+01 -0.28221295958E+02  0.21754008959E+02  0.35755132039E+02  0.00000000000E+00 0.  1.
</event>
<event>
 7    1  0.2450552E-011  0.5052884E+02  0.7816164E-02  0.1300439E+00
        -11   -1    0    0    0    0  0.00000000000E+00  0.00000000000E+00  0.45593999997E+02  0.45594000000E+02  0.51100000000E-03 0.  1.
         11   -1    0    0    0    0 -0.00000000000E+00 -0.00000000000E+00 -0.45593999997E+02  0.45594000000E+02  0.51100000000E-03 0. -1.
    9900012    2    1    2    0    0  0.29192053398E+02  0.24339337488E+02  0.14442588629E+02  0.50528835015E+02  0.29999924513E+02 0.  0.
         12    1    1    2    0    0 -0.29192053398E+02 -0.24339337488E+02 -0.14442588629E+02  0.40659164985E+02  0.00000000000E+00 0. -1.
         11    1    3    3    0    0  0.21247464709E+02  0.23935438281E+02  0.49562505543E+01  0.32387102095E+02  0.51100000000E-03 0. -1.
        -11    1    3    3    0    0  0.62320534740E+01  0.61528614139E+01  0.82197762394E+01  0.12010866570E+02  0.51100000000E-03 0.  1.
        -12    1    3    3    0    0  0.17125352146E+01 -0.57489622072E+01  0.12665618358E+01  0.61308663503E+01  0.00000000000E+00 0.  1.
</event>
<event>
 7    1  0.2450552E-011  0.5052887E+02  0.7816164E-02  0.1300439E+00
        -11   -1    0    0    0    0  0.00000000000E+00  0.00000000000E+00  0.45593999997E+02  0.45594000000E+02  0.51100000000E-03 0.  1.
         11   -1    0    0    0    0 -0.00000000000E+00 -0.00000000000E+00 -0.45593999997E+02  0.45594000000E+02  0.51100000000E-03 0. -1.
    9900012    2    1    2    0    0 -0.33248193103E+01 -0.30741315597E+02  0.26402315477E+02  0.50528866086E+02  0.30000018956E+02 0.  0.
         12    1    1    2    0    0  0.33248193103E+01  0.30741315597E+02 -0.26402315477E+02  0.40659133914E+02  0.00000000000E+00 0. -1.
         11    1    3    3    0    0  0.38838993437E+01 -0.15898360389E+01 -0.27952797536E+01  0.50424043773E+01  0.51100000000E-03 0. -1.
        -11    1    3    3    0    0 -0.58773611849E+01 -0.13697039201E+02  0.32486706216E+01  0.15254708074E+02  0.51100000000E-03 0.  1.
         12    1    3    3    0    0 -0.13313574690E+01 -0.15454440357E+02  0.25948924609E+02  0.30231753635E+02  0.00000000000E+00 0. -1.
</event>
<event>
 7    1  0.2450552E-011  0.5052886E+02  0.7816164E-02  0.1300439E+00
        -11   -1    0    0    0    0  0.00000000000E+00  0.00000000000E+00  0.45593999997E+02  0.45594000000E+02  0.51100000000E-03 0.  1.
         11   -1    0    0    0    0 -0.00000000000E+00 -0.00000000000E+00 -0.45593999997E+02  0.45594000000E+02  0.51100000000E-03 0. -1.
    9900012    2    1    2    0    0  0.40315802677E+02 -0.30618795138E+01 -0.42925960472E+01  0.50528862866E+02  0.30000009168E+02 0.  0.
         12    1    1    2    0    0 -0.40315802677E+02  0.30618795138E+01  0.42925960472E+01  0.40659137134E+02  0.00000000000E+00 0. -1.
         11    1    3    3    0    0  0.68644761599E+00 -0.53258313972E+01  0.59367311710E+00  0.54026047822E+01  0.51100000000E-03 0. -1.
        -11    1    3    3    0    0  0.13468000114E+02  0.37357722510E+01  0.78089570524E+01  0.16010085318E+02  0.51100000000E-03 0.  1.
        -12    1    3    3    0    0  0.26161354947E+02 -0.14718203675E+01 -0.12695226217E+02  0.29116172766E+02  0.00000000000E+00 0.  1.
</event>
<event>
 7    1  0.2450552E-011  0.5052885E+02  0.7816164E-02  0.1300439E+00
        -11   -1    0    0    0    0  0.00000000000E+00  0.00000000000E+00  0.45593999997E+02  0.45594000000E+02  0.51100000000E-03 0.  1.
         11   -1    0    0    0    0 -0.00000000000E+00 -0.00000000000E+00 -0.45593999997E+02  0.45594000000E+02  0.51100000000E-03 0. -1.
    9900012    2    1    2    0    0 -0.15608141273E+02 -0.15751119991E+02  0.34080114722E+02  0.50528854971E+02  0.29999985171E+02 0.  0.
         12    1    1    2    0    0  0.15608141273E+02  0.15751119991E+02 -0.34080114722E+02  0.40659145029E+02  0.00000000000E+00 0. -1.
         11    1    3    3    0    0 -0.74571449638E+01  0.65663833232E+01  0.87008791505E+01  0.13207259338E+02  0.51100000000E-03 0. -1.
        -11    1    3    3    0    0 -0.33683759161E+01 -0.44177069906E+01  0.15196421382E+02  0.16180028258E+02  0.51100000000E-03 0.  1.
         12    1    3    3    0    0 -0.47826203934E+01 -0.17899796324E+02  0.10182814190E+02  0.21141567375E+02  0.00000000000E+00 0. -1.
</event>
<event>
 7    1  0.2450552E-011  0.5052886E+02  0.7816164E-02  0.1300439E+00
        -11   -1    0    0    0    0  0.00000000000E+00  0.00000000000E+00  0.45593999997E+02  0.45594000000E+02  0.51100000000E-03 0.  1.
         11   -1    0    0    0    0 -0.00000000000E+00 -0.00000000000E+00 -0.45593999997E+02  0.45594000000E+02  0.51100000000E-03 0. -1.
    9900012    2    1    2    0    0 -0.39533915512E+02 -0.62861909488E+01  0.71217343049E+01  0.50528858693E+02  0.29999996483E+02 0.  0.
         12    1    1    2    0    0  0.39533915512E+02  0.62861909488E+01 -0.71217343049E+01  0.40659141307E+02  0.00000000000E+00 0. -1.
         11    1    3    3    0    0 -0.10031841672E+02 -0.78711276752E+01  0.51218035439E+01  0.13741374386E+02  0.51100000000E-03 0. -1.
        -11    1    3    3    0    0 -0.28424777645E+02 -0.60063942799E+01  0.11803656088E+01  0.29076416898E+02  0.51100000000E-03 0.  1.
        -12    1    3    3    0    0 -0.10772961940E+01  0.75913310063E+01  0.81956515218E+00  0.77110674083E+01  0.00000000000E+00 0.  1.
</event>
<event>
 7    1  0.2450552E-011  0.5052886E+02  0.7816164E-02  0.1300439E+00
        -11   -1    0    0    0    0  0.00000000000E+00  0.00000000000E+00  0.45593999997E+02  0.45594000000E+02  0.51100000000E-03 0. -1.
         11   -1    0    0    0    0 -0.00000000000E+00 -0.00000000000E+00 -0.45593999997E+02  0.45594000000E+02  0.51100000000E-03 0.  1.
    9900012    2    1    2    0    0  0.35618868144E+02 -0.16387474299E+02 -0.10766260748E+02  0.50528862623E+02  0.30000008428E+02 0.  0.
         12    1    1    2    0    0 -0.35618868144E+02  0.16387474299E+02  0.10766260748E+02  0.40659137377E+02  0.00000000000E+00 0. -1.
         11    1    3    3    0    0 -0.93261890095E-01 -0.92720631133E+01  0.39219287973E+00  0.92808225752E+01  0.51100000000E-03 0. -1.
        -11    1    3    3    0    0  0.12891754444E+02 -0.10510744705E+02 -0.49976484125E+01  0.17368061976E+02  0.51100000000E-03 0.  1.
        -12    1    3    3    0    0  0.22820375591E+02  0.33953335188E+01 -0.61608052148E+01  0.23879978071E+02  0.00000000000E+00 0.  1.
</event>
<event>
 7    1  0.2450552E-011  0.5052886E+02  0.7816164E-02  0.1300439E+00
        -11   -1    0    0    0    0  0.00000000000E+00  0.00000000000E+00  0.45593999997E+02  0.45594000000E+02  0.51100000000E-03 0. -1.
         11   -1    0    0    0    0 -0.00000000000E+00 -0.00000000000E+00 -0.45593999997E+02  0.45594000000E+02  0.51100000000E-03 0.  1.
    9900012    2    1    2    0    0 -0.81686277431E+01 -0.11404556958E+02 -0.38162485546E+02  0.50528859556E+02  0.29999999105E+02 0.  0.
         12    1    1    2    0    0  0.81686277431E+01  0.11404556958E+02  0.38162485546E+02  0.40659140444E+02  0.00000000000E+00 0. -1.
         11    1    3    3    0    0  0.22677293325E+01 -0.13749267829E+02 -0.20175431471E+02  0.24520052966E+02  0.51100000000E-03 0. -1.
        -11    1    3    3    0    0 -0.52126245394E+01 -0.22653019684E+01 -0.18171221071E+02  0.19039336203E+02  0.51100000000E-03 0.  1.
         12    1    3    3    0    0 -0.52237325362E+01  0.46100128392E+01  0.18416699535E+00  0.69694703866E+01  0.00000000000E+00 0. -1.
</event>
<event>
 7    1  0.2450552E-011  0.5052886E+02  0.7816164E-02  0.1300439E+00
        -11   -1    0    0    0    0  0.00000000000E+00  0.00000000000E+00  0.45593999997E+02  0.45594000000E+02  0.51100000000E-03 0. -1.
         11   -1    0    0    0    0 -0.00000000000E+00 -0.00000000000E+00 -0.45593999997E+02  0.45594000000E+02  0.51100000000E-03 0.  1.
    9900012    2    1    2    0    0 -0.10969335115E+02 -0.31614594602E+01 -0.39023645638E+02  0.50528855178E+02  0.29999985798E+02 0.  0.
         12    1    1    2    0    0  0.10969335115E+02  0.31614594602E+01  0.39023645638E+02  0.40659144822E+02  0.00000000000E+00 0. -1.
         11    1    3    3    0    0  0.49770222234E+01 -0.31526984713E+01 -0.75414352840E+01  0.95699270774E+01  0.51100000000E-03 0. -1.
        -11    1    3    3    0    0 -0.50092175811E+01 -0.96394437312E+01 -0.18440512359E+02  0.21402421184E+02  0.51100000000E-03 0.  1.
         12    1    3    3    0    0 -0.10937139757E+02  0.96306827423E+01 -0.13041697995E+02  0.19556506916E+02  0.00000000000E+00 0. -1.
</event>
<event>
 7    1  0.2450552E-011  0.5052886E+02  0.7816164E-02  0.1300439E+00
        -11   -1    0    0    0    0  0.00000000000E+00  0.00000000000E+00  0.45593999997E+02  0.45594000000E+02  0.51100000000E-03 0.  1.
         11   -1    0    0    0    0 -0.00000000000E+00 -0.00000000000E+00 -0.45593999997E+02  0.45594000000E+02  0.51100000000E-03 0. -1.
    9900012    2    1    2    0    0  0.24253985603E+02 -0.24985187073E+02 -0.20991674190E+02  0.50528858642E+02  0.29999996327E+02 0.  0.
         12    1    1    2    0    0 -0.24253985603E+02  0.24985187073E+02  0.20991674190E+02  0.40659141358E+02  0.00000000000E+00 0. -1.
         11    1    3    3    0    0  0.20900656499E+01  0.21806078794E+01  0.25920300486E+01  0.39802066754E+01  0.51100000000E-03 0. -1.
        -11    1    3    3    0    0  0.27476739083E+01  0.30961921972E+01 -0.30637402746E+01  0.51500119184E+01  0.51100000000E-03 0.  1.
        -12    1    3    3    0    0  0.19416246045E+02 -0.30261987150E+02 -0.20519963964E+02  0.41398640048E+02  0.00000000000E+00 0.  1.
</event>
<event>
 7    1  0.2450552E-011  0.5052875E+02  0.7816164E-02  0.1300439E+00
        -11   -1    0    0    0    0  0.00000000000E+00  0.00000000000E+00  0.45593999997E+02  0.45594000000E+02  0.51100000000E-03 0.  1.
         11   -1    0    0    0    0 -0.00000000000E+00 -0.00000000000E+00 -0.45593999997E+02  0.45594000000E+02  0.51100000000E-03 0. -1.
    9900012    2    1    2    0    0 -0.23562667751E+02  0.20062830316E+02  0.26371542253E+02  0.50528748745E+02  0.29999662283E+02 0.  0.
         12    1    1    2    0    0  0.23562667751E+02 -0.20062830316E+02 -0.26371542253E+02  0.40659251255E+02  0.00000000000E+00 0. -1.
         11    1    3    3    0    0 -0.94176365244E+01  0.18132202668E+01  0.82366330150E+01  0.12642063484E+02  0.51100000000E-03 0. -1.
        -11    1    3    3    0    0 -0.19087040619E+02  0.72410368891E+01  0.15244723953E+02  0.25478409360E+02  0.51100000000E-03 0.  1.
         12    1    3    3    0    0  0.49420093931E+01  0.11008573161E+02  0.28901852849E+01  0.12408275902E+02  0.00000000000E+00 0. -1.
</event>
<event>
 7    1  0.2450552E-011  0.5052890E+02  0.7816164E-02  0.1300439E+00
        -11   -1    0    0    0    0  0.00000000000E+00  0.00000000000E+00  0.45593999997E+02  0.45594000000E+02  0.51100000000E-03 0.  1.
         11   -1    0    0    0    0 -0.00000000000E+00 -0.00000000000E+00 -0.45593999997E+02  0.45594000000E+02  0.51100000000E-03 0. -1.
    9900012    2    1    2    0    0 -0.16355113707E+02 -0.37219404310E+02  0.62365851568E+00  0.50528895835E+02  0.30000109380E+02 0.  0.
         12    1    1    2    0    0  0.16355113707E+02  0.37219404310E+02 -0.62365851568E+00  0.40659104165E+02  0.00000000000E+00 0. -1.
         11    1    3    3    0    0 -0.65385622422E+01  0.32574273397E+01 -0.20666700699E+01  0.75917556933E+01  0.51100000000E-03 0. -1.
        -11    1    3    3    0    0 -0.84938152610E+01 -0.19061210889E+02  0.46873159920E+01  0.21387977691E+02  0.51100000000E-03 0.  1.
        -12    1    3    3    0    0 -0.13227362042E+01 -0.21415620760E+02 -0.19969874064E+01  0.21549162450E+02  0.00000000000E+00 0.  1.
</event>
<event>
 7    1  0.2450552E-011  0.5052886E+02  0.7816164E-02  0.1300439E+00
        -11   -1    0    0    0    0  0.00000000000E+00  0.00000000000E+00  0.45593999997E+02  0.45594000000E+02  0.51100000000E-03 0. -1.
         11   -1    0    0    0    0 -0.00000000000E+00 -0.00000000000E+00 -0.45593999997E+02  0.45594000000E+02  0.51100000000E-03 0.  1.
    9900012    2    1    2    0    0  0.35017183521E+01  0.40155851898E+01 -0.40308540278E+02  0.50528863570E+02  0.30000011308E+02 0.  0.
         12    1    1    2    0    0 -0.35017183521E+01 -0.40155851898E+01  0.40308540278E+02  0.40659136430E+02  0.00000000000E+00 0. -1.
         11    1    3    3    0    0  0.40129966674E+01 -0.70679735471E+01 -0.11972760897E+02  0.14470915523E+02  0.51100000000E-03 0. -1.
        -11    1    3    3    0    0 -0.95634804400E+01  0.79083110551E+01 -0.13026323113E+02  0.17991293338E+02  0.51100000000E-03 0.  1.
         12    1    3    3    0    0  0.90522021247E+01  0.31752476818E+01 -0.15309456268E+02  0.18066654709E+02  0.00000000000E+00 0. -1.
</event>
<event>
 7    1  0.2450552E-011  0.5052886E+02  0.7816164E-02  0.1300439E+00
        -11   -1    0    0    0    0  0.00000000000E+00  0.00000000000E+00  0.45593999997E+02  0.45594000000E+02  0.51100000000E-03 0.  1.
         11   -1    0    0    0    0 -0.00000000000E+00 -0.00000000000E+00 -0.45593999997E+02  0.45594000000E+02  0.51100000000E-03 0. -1.
    9900012    2    1    2    0    0 -0.20437390938E+01  0.38320246363E+02  0.13436797426E+02  0.50528859873E+02  0.30000000071E+02 0.  0.
         12    1    1    2    0    0  0.20437390938E+01 -0.38320246363E+02 -0.13436797426E+02  0.40659140127E+02  0.00000000000E+00 0. -1.
         11    1    3    3    0    0 -0.34383893840E+01  0.14473597407E+02 -0.11644159939E+01  0.14921910344E+02  0.51100000000E-03 0. -1.
        -11    1    3    3    0    0 -0.10251184281E+02  0.12868177362E+02  0.80020124229E+01  0.18295053180E+02  0.51100000000E-03 0.  1.
        -12    1    3    3    0    0  0.11645834571E+02  0.10978471594E+02  0.65992009968E+01  0.17311896349E+02  0.00000000000E+00 0.  1.
</event>
<event>
 7    1  0.2450552E-011  0.5052886E+02  0.7816164E-02  0.1300439E+00
        -11   -1    0    0    0    0  0.00000000000E+00  0.00000000000E+00  0.45593999997E+02  0.45594000000E+02  0.51100000000E-03 0. -1.
         11   -1    0    0    0    0 -0.00000000000E+00 -0.00000000000E+00 -0.45593999997E+02  0.45594000000E+02  0.51100000000E-03 0.  1.
    9900012    2    1    2    0    0 -0.26230632704E+02  0.92303058428E+00 -0.31052655088E+02  0.50528862460E+02  0.30000007934E+02 0.  0.
         12    1    1    2    0    0  0.26230632704E+02 -0.92303058428E+00  0.31052655088E+02  0.40659137540E+02  0.00000000000E+00 0. -1.
         11    1    3    3    0    0  0.46989695904E+01 -0.12868234494E+01 -0.70767528772E+01  0.85916623158E+01  0.51100000000E-03 0. -1.
        -11    1    3    3    0    0 -0.52441731150E+01  0.35149138044E+01 -0.12016573919E+02  0.13574020028E+02  0.51100000000E-03 0.  1.
        -12    1    3    3    0    0 -0.25685429179E+02 -0.13050597707E+01 -0.11959328292E+02  0.28363180116E+02  0.00000000000E+00 0.  1.
</event>
<event>
 7    1  0.2450552E-011  0.5052885E+02  0.7816164E-02  0.1300439E+00
        -11   -1    0    0    0    0  0.00000000000E+00  0.00000000000E+00  0.45593999997E+02  0.45594000000E+02  0.51100000000E-03 0. -1.
         11   -1    0    0    0    0 -0.00000000000E+00 -0.00000000000E+00 -0.45593999997E+02  0.45594000000E+02  0.51100000000E-03 0.  1.
    9900012    2    1    2    0    0  0.28874767275E+02 -0.10236038690E+02 -0.26732706484E+02  0.50528852576E+02  0.29999977890E+02 0.  0.
         12    1    1    2    0    0 -0.28874767275E+02  0.10236038690E+02  0.26732706484E+02  0.40659147424E+02  0.00000000000E+00 0. -1.
         11    1    3    3    0    0  0.17183200072E+02 -0.54399689394E+01 -0.16190659975E+02  0.24227940430E+02  0.51100000000E-03 0.  1.
        -11    1    3    3    0    0 -0.45838907460E+01 -0.57748696312E+00  0.22840825501E+01  0.51538896885E+01  0.51100000000E-03 0. -1.
         12    1    3    3    0    0  0.16275457949E+02 -0.42185827876E+01 -0.12826129059E+02  0.21147022458E+02  0.00000000000E+00 0. -1.
</event>
<event>
 7    1  0.2450552E-011  0.5052889E+02  0.7816164E-02  0.1300439E+00
        -11   -1    0    0    0    0  0.00000000000E+00  0.00000000000E+00  0.45593999997E+02  0.45594000000E+02  0.51100000000E-03 0.  1.
         11   -1    0    0    0    0 -0.00000000000E+00 -0.00000000000E+00 -0.45593999997E+02  0.45594000000E+02  0.51100000000E-03 0. -1.
    9900012    2    1    2    0    0  0.11197214071E+02  0.37202595309E+02  0.11989699787E+02  0.50528885380E+02  0.30000077602E+02 0.  0.
         12    1    1    2    0    0 -0.11197214071E+02 -0.37202595309E+02 -0.11989699787E+02  0.40659114620E+02  0.00000000000E+00 0. -1.
         11    1    3    3    0    0  0.95937461614E+01  0.46126766250E+01  0.33307779279E+01  0.11153960414E+02  0.51100000000E-03 0. -1.
        -11    1    3    3    0    0  0.46497606131E+01  0.25274325287E+02 -0.23552914564E+01  0.25806185122E+02  0.51100000000E-03 0.  1.
        -12    1    3    3    0    0 -0.30462927035E+01  0.73155933972E+01  0.11014213316E+02  0.13568739844E+02  0.00000000000E+00 0.  1.
</event>
<event>
 7    1  0.2450552E-011  0.5052886E+02  0.7816164E-02  0.1300439E+00
        -11   -1    0    0    0    0  0.00000000000E+00  0.00000000000E+00  0.45593999997E+02  0.45594000000E+02  0.51100000000E-03 0.  1.
         11   -1    0    0    0    0 -0.00000000000E+00 -0.00000000000E+00 -0.45593999997E+02  0.45594000000E+02  0.51100000000E-03 0. -1.
    9900012    2    1    2    0    0 -0.42896645095E+00  0.39068008901E+02  0.11254894039E+02  0.50528856237E+02  0.29999989018E+02 0.  0.
         12    1    1    2    0    0  0.42896645095E+00 -0.39068008901E+02 -0.11254894039E+02  0.40659143763E+02  0.00000000000E+00 0. -1.
         11    1    3    3    0    0 -0.32299423014E+01  0.21201790954E+02  0.42677318574E+01  0.21866915704E+02  0.51100000000E-03 0.  1.
        -11    1    3    3    0    0 -0.66880713847E+01  0.80077094163E+01  0.10216858640E+02  0.14602667895E+02  0.51100000000E-03 0. -1.
        -12    1    3    3    0    0  0.94890472351E+01  0.98585085307E+01 -0.32296964581E+01  0.14059272637E+02  0.00000000000E+00 0.  1.
</event>
<event>
 7    1  0.2450552E-011  0.5052885E+02  0.7816164E-02  0.1300439E+00
        -11   -1    0    0    0    0  0.00000000000E+00  0.00000000000E+00  0.45593999997E+02  0.45594000000E+02  0.51100000000E-03 0.  1.
         11   -1    0    0    0    0 -0.00000000000E+00 -0.00000000000E+00 -0.45593999997E+02  0.45594000000E+02  0.51100000000E-03 0. -1.
    9900012    2    1    2    0    0  0.24250601047E+02  0.68477701243E+00  0.32628296815E+02  0.50528851905E+02  0.29999975851E+02 0.  0.
         12    1    1    2    0    0 -0.24250601047E+02 -0.68477701243E+00 -0.32628296815E+02  0.40659148095E+02  0.00000000000E+00 0. -1.
         11    1    3    3    0    0  0.20820497955E+02 -0.92277373776E+00  0.21939892808E+02  0.30260593899E+02  0.51100000000E-03 0. -1.
        -11    1    3    3    0    0  0.22716807280E+01 -0.70580283144E+01  0.14615487343E+01  0.75572760953E+01  0.51100000000E-03 0.  1.
        -12    1    3    3    0    0  0.11584223647E+01  0.86655790646E+01  0.92268552730E+01  0.12710981910E+02  0.00000000000E+00 0.  1.
</event>
<event>
 7    1  0.2450552E-011  0.5052886E+02  0.7816164E-02  0.1300439E+00
        -11   -1    0    0    0    0  0.00000000000E+00  0.00000000000E+00  0.45593999997E+02  0.45594000000E+02  0.51100000000E-03 0.  1.
         11   -1    0    0    0    0 -0.00000000000E+00 -0.00000000000E+00 -0.45593999997E+02  0.45594000000E+02  0.51100000000E-03 0. -1.
    9900012    2    1    2    0    0 -0.34738987999E+02 -0.19189784969E+02  0.88385839778E+01  0.50528859563E+02  0.29999999128E+02 0.  0.
         12    1    1    2    0    0  0.34738987999E+02  0.19189784969E+02 -0.88385839778E+01  0.40659140437E+02  0.00000000000E+00 0. -1.
         11    1    3    3    0    0 -0.67461432575E+00  0.89490094634E-01  0.69842121218E+01  0.70172880936E+01  0.51100000000E-03 0. -1.
        -11    1    3    3    0    0 -0.13317096235E+02  0.84680003158E+00 -0.41797597354E+01  0.13983294109E+02  0.51100000000E-03 0.  1.
         12    1    3    3    0    0 -0.20747277438E+02 -0.20126075095E+02  0.60341315914E+01  0.29528277361E+02  0.00000000000E+00 0. -1.
</event>
<event>
 7    1  0.2450552E-011  0.5052880E+02  0.7816164E-02  0.1300439E+00
        -11   -1    0    0    0    0  0.00000000000E+00  0.00000000000E+00  0.45593999997E+02  0.45594000000E+02  0.51100000000E-03 0.  1.
         11   -1    0    0    0    0 -0.00000000000E+00 -0.00000000000E+00 -0.45593999997E+02  0.45594000000E+02  0.51100000000E-03 0. -1.
    9900012    2    1    2    0    0  0.17216623197E+02  0.26302710715E+02  0.25786163251E+02  0.50528795378E+02  0.29999804030E+02 0.  0.
         12    1    1    2    0    0 -0.17216623197E+02 -0.26302710715E+02 -0.25786163251E+02  0.40659204622E+02  0.00000000000E+00 0. -1.
         11    1    3    3    0    0  0.16362217521E+02  0.12862837705E+02  0.77140353419E+01  0.22196420827E+02  0.51100000000E-03 0. -1.
        -11    1    3    3    0    0  0.42770014806E+01 -0.11048221176E+01  0.10894229804E+02  0.11755748247E+02  0.51100000000E-03 0.  1.
         12    1    3    3    0    0 -0.34225958037E+01  0.14544695128E+02  0.71778981057E+01  0.16576626304E+02  0.00000000000E+00 0. -1.
</event>
<event>
 7    1  0.2450552E-011  0.5052886E+02  0.7816164E-02  0.1300439E+00
        -11   -1    0    0    0    0  0.00000000000E+00  0.00000000000E+00  0.45593999997E+02  0.45594000000E+02  0.51100000000E-03 0.  1.
         11   -1    0    0    0    0 -0.00000000000E+00 -0.00000000000E+00 -0.45593999997E+02  0.45594000000E+02  0.51100000000E-03 0. -1.
    9900012    2    1    2    0    0  0.39743262405E+02 -0.43167851676E+01  0.74164977623E+01  0.50528856135E+02  0.29999988707E+02 0.  0.
         12    1    1    2    0    0 -0.39743262405E+02  0.43167851676E+01 -0.74164977623E+01  0.40659143865E+02  0.00000000000E+00 0. -1.
         11    1    3    3    0    0  0.19136850836E+02  0.91004446668E+01 -0.47785925872E+01  0.21722617255E+02  0.51100000000E-03 0. -1.
        -11    1    3    3    0    0  0.44233312744E+01 -0.36749155025E+01 -0.90142875607E+00  0.58209481682E+01  0.51100000000E-03 0.  1.
        -12    1    3    3    0    0  0.16183080295E+02 -0.97423143319E+01  0.13096519106E+02  0.22985290711E+02  0.00000000000E+00 0.  1.
</event>
<event>
 7    1  0.2450552E-011  0.5052891E+02  0.7816164E-02  0.1300439E+00
        -11   -1    0    0    0    0  0.00000000000E+00  0.00000000000E+00  0.45593999997E+02  0.45594000000E+02  0.51100000000E-03 0.  1.
         11   -1    0    0    0    0 -0.00000000000E+00 -0.00000000000E+00 -0.45593999997E+02  0.45594000000E+02  0.51100000000E-03 0. -1.
    9900012    2    1    2    0    0 -0.68492903900E+00 -0.31983072694E+01  0.40527318888E+02  0.50528906633E+02  0.30000142200E+02 0.  0.
         12    1    1    2    0    0  0.68492903900E+00  0.31983072694E+01 -0.40527318888E+02  0.40659093367E+02  0.00000000000E+00 0. -1.
         11    1    3    3    0    0  0.18002419005E+01  0.16053000426E+01  0.12538401989E+02  0.12768296043E+02  0.51100000000E-03 0. -1.
        -11    1    3    3    0    0 -0.11606175137E+02 -0.16860087147E+01  0.25088854900E+02  0.27694702872E+02  0.51100000000E-03 0.  1.
         12    1    3    3    0    0  0.91210041978E+01 -0.31175985974E+01  0.29000619989E+01  0.10065907718E+02  0.00000000000E+00 0. -1.
</event>
<event>
 7    1  0.2450552E-011  0.5052886E+02  0.7816164E-02  0.1300439E+00
        -11   -1    0    0    0    0  0.00000000000E+00  0.00000000000E+00  0.45593999997E+02  0.45594000000E+02  0.51100000000E-03 0. -1.
         11   -1    0    0    0    0 -0.00000000000E+00 -0.00000000000E+00 -0.45593999997E+02  0.45594000000E+02  0.51100000000E-03 0.  1.
    9900012    2    1    2    0    0 -0.31247835123E+02 -0.19766348991E+02  0.16912426881E+02  0.50528856682E+02  0.29999990371E+02 0.  0.
         12    1    1    2    0    0  0.31247835123E+02  0.19766348991E+02 -0.16912426881E+02  0.40659143318E+02  0.00000000000E+00 0. -1.
         11    1    3    3    0    0  0.36368849862E+01 -0.45272563323E+01  0.15401524643E+01  0.60079157930E+01  0.51100000000E-03 0.  1.
        -11    1    3    3    0    0 -0.82817073922E+01 -0.90430255222E+00  0.11284277033E+02  0.14026380462E+02  0.51100000000E-03 0. -1.
        -12    1    3    3    0    0 -0.26603012717E+02 -0.14334790107E+02  0.40879973837E+01  0.30494560427E+02  0.00000000000E+00 0.  1.
</event>
<event>
 7    1  0.2450552E-011  0.5052890E+02  0.7816164E-02  0.1300439E+00
        -11   -1    0    0    0    0  0.00000000000E+00  0.00000000000E+00  0.45593999997E+02  0.45594000000E+02  0.51100000000E-03 0. -1.
         11   -1    0    0    0    0 -0.00000000000E+00 -0.00000000000E+00 -0.45593999997E+02  0.45594000000E+02  0.51100000000E-03 0.  1.
    9900012    2    1    2    0    0 -0.21760521159E+02  0.31916472340E+02 -0.12687829678E+02  0.50528898809E+02  0.30000118419E+02 0.  0.
         12    1    1    2    0    0  0.21760521159E+02 -0.31916472340E+02  0.12687829678E+02  0.40659101191E+02  0.00000000000E+00 0. -1.
         11    1    3    3    0    0 -0.40354316394E+01  0.13259419585E+02 -0.82610678107E+01  0.16135121874E+02  0.51100000000E-03 0. -1.
        -11    1    3    3    0    0 -0.10947401292E+02  0.60065641945E+01 -0.12714578977E+02  0.17820912639E+02  0.51100000000E-03 0.  1.
         12    1    3    3    0    0 -0.67776882278E+01  0.12650488560E+02  0.82878171097E+01  0.16572864296E+02  0.00000000000E+00 0. -1.
</event>
<event>
 7    1  0.2450552E-011  0.5052888E+02  0.7816164E-02  0.1300439E+00
        -11   -1    0    0    0    0  0.00000000000E+00  0.00000000000E+00  0.45593999997E+02  0.45594000000E+02  0.51100000000E-03 0. -1.
         11   -1    0    0    0    0 -0.00000000000E+00 -0.00000000000E+00 -0.45593999997E+02  0.45594000000E+02  0.51100000000E-03 0.  1.
    9900012    2    1    2    0    0 -0.16642863627E+02  0.13890585988E+02  0.34398121511E+02  0.50528879839E+02  0.30000060759E+02 0.  0.
         12    1    1    2    0    0  0.16642863627E+02 -0.13890585988E+02 -0.34398121511E+02  0.40659120161E+02  0.00000000000E+00 0. -1.
         11    1    3    3    0    0 -0.56336858421E+01  0.46601974908E+01  0.63233924789E+01  0.96664962383E+01  0.51100000000E-03 0.  1.
        -11    1    3    3    0    0 -0.12563050728E+02 -0.61966208731E+01  0.15562303049E+02  0.20938329215E+02  0.51100000000E-03 0. -1.
         12    1    3    3    0    0  0.15538729431E+01  0.15427009370E+02  0.12512425982E+02  0.19924054386E+02  0.00000000000E+00 0. -1.
</event>
<event>
 7    1  0.2450552E-011  0.5052885E+02  0.7816164E-02  0.1300439E+00
        -11   -1    0    0    0    0  0.00000000000E+00  0.00000000000E+00  0.45593999997E+02  0.45594000000E+02  0.51100000000E-03 0.  1.
         11   -1    0    0    0    0 -0.00000000000E+00 -0.00000000000E+00 -0.45593999997E+02  0.45594000000E+02  0.51100000000E-03 0. -1.
    9900012    2    1    2    0    0 -0.27633231456E+02 -0.25458089706E+01  0.29716821595E+02  0.50528854538E+02  0.29999983853E+02 0.  0.
         12    1    1    2    0    0  0.27633231456E+02  0.25458089706E+01 -0.29716821595E+02  0.40659145462E+02  0.00000000000E+00 0. -1.
         11    1    3    3    0    0 -0.20691046050E+02  0.99202312357E+01  0.12041816655E+02  0.25914006310E+02  0.51100000000E-03 0.  1.
        -11    1    3    3    0    0 -0.48326731276E+01 -0.72687784463E+01  0.35609771782E+01  0.94271113489E+01  0.51100000000E-03 0. -1.
        -12    1    3    3    0    0 -0.21095122784E+01 -0.51972617600E+01  0.14114027761E+02  0.15187736879E+02  0.00000000000E+00 0.  1.
</event>
<event>
 7    1  0.2450552E-011  0.5052886E+02  0.7816164E-02  0.1300439E+00
        -11   -1    0    0    0    0  0.00000000000E+00  0.00000000000E+00  0.45593999997E+02  0.45594000000E+02  0.51100000000E-03 0.  1.
         11   -1    0    0    0    0 -0.00000000000E+00 -0.00000000000E+00 -0.45593999997E+02  0.45594000000E+02  0.51100000000E-03 0. -1.
    9900012    2    1    2    0    0  0.30029949487E+02  0.40391666473E+01  0.27111861112E+02  0.50528859006E+02  0.29999997436E+02 0.  0.
         12    1    1    2    0    0 -0.30029949487E+02 -0.40391666473E+01 -0.27111861112E+02  0.40659140994E+02  0.00000000000E+00 0. -1.
         11    1    3    3    0    0 -0.48406879157E+01  0.53173185540E+00 -0.12046847973E+01  0.50165988463E+01  0.51100000000E-03 0. -1.
        -11    1    3    3    0    0  0.12352293139E+02  0.35350798654E+01  0.76827322904E+01  0.14969980332E+02  0.51100000000E-03 0.  1.
        -12    1    3    3    0    0  0.22518344264E+02 -0.27645073458E-01  0.20633813619E+02  0.30542279828E+02  0.00000000000E+00 0.  1.
</event>
<event>
 7    1  0.2450552E-011  0.5052886E+02  0.7816164E-02  0.1300439E+00
        -11   -1    0    0    0    0  0.00000000000E+00  0.00000000000E+00  0.45593999997E+02  0.45594000000E+02  0.51100000000E-03 0.  1.
         11   -1    0    0    0    0 -0.00000000000E+00 -0.00000000000E+00 -0.45593999997E+02  0.45594000000E+02  0.51100000000E-03 0. -1.
    9900012    2    1    2    0    0  0.15035291473E+00  0.22809787787E+02  0.33657940409E+02  0.50528856164E+02  0.29999988796E+02 0.  0.
         12    1    1    2    0    0 -0.15035291473E+00 -0.22809787787E+02 -0.33657940409E+02  0.40659143836E+02  0.00000000000E+00 0. -1.
         11    1    3    3    0    0 -0.44630214164E+01  0.14483889668E+01 -0.41033720519E-01  0.46923421433E+01  0.51100000000E-03 0. -1.
        -11    1    3    3    0    0 -0.31962538369E+01  0.22737823854E+02  0.22804406540E+02  0.32361483743E+02  0.51100000000E-03 0.  1.
        -12    1    3    3    0    0  0.78096281681E+01 -0.13764250336E+01  0.10894567590E+02  0.13475030277E+02  0.00000000000E+00 0.  1.
</event>
<event>
 7    1  0.2450552E-011  0.5052886E+02  0.7816164E-02  0.1300439E+00
        -11   -1    0    0    0    0  0.00000000000E+00  0.00000000000E+00  0.45593999997E+02  0.45594000000E+02  0.51100000000E-03 0.  1.
         11   -1    0    0    0    0 -0.00000000000E+00 -0.00000000000E+00 -0.45593999997E+02  0.45594000000E+02  0.51100000000E-03 0. -1.
    9900012    2    1    2    0    0 -0.16937043161E+02 -0.27609391269E+02  0.24576892283E+02  0.50528861401E+02  0.30000004715E+02 0.  0.
         12    1    1    2    0    0  0.16937043161E+02  0.27609391269E+02 -0.24576892283E+02  0.40659138599E+02  0.00000000000E+00 0. -1.
         11    1    3    3    0    0 -0.81759967291E+01 -0.10740670400E+02  0.13498490838E+02  0.19089740132E+02  0.51100000000E-03 0. -1.
        -11    1    3    3    0    0  0.30078025938E+01 -0.11704064126E+02 -0.29235243043E+01  0.12432979857E+02  0.51100000000E-03 0.  1.
         12    1    3    3    0    0 -0.11768849026E+02 -0.51646567439E+01  0.14001925749E+02  0.19006141412E+02  0.00000000000E+00 0. -1.
</event>
<event>
 7    1  0.2450552E-011  0.5052887E+02  0.7816164E-02  0.1300439E+00
        -11   -1    0    0    0    0  0.00000000000E+00  0.00000000000E+00  0.45593999997E+02  0.45594000000E+02  0.51100000000E-03 0.  1.
         11   -1    0    0    0    0 -0.00000000000E+00 -0.00000000000E+00 -0.45593999997E+02  0.45594000000E+02  0.51100000000E-03 0. -1.
    9900012    2    1    2    0    0 -0.24237054425E+02  0.22099033419E+02  0.24028374888E+02  0.50528869599E+02  0.30000029632E+02 0.  0.
         12    1    1    2    0    0  0.24237054425E+02 -0.22099033419E+02 -0.24028374888E+02  0.40659130401E+02  0.00000000000E+00 0. -1.
         11    1    3    3    0    0 -0.78839353841E+01  0.19210158848E+01  0.39669495672E+01  0.90323545269E+01  0.51100000000E-03 0. -1.
        -11    1    3    3    0    0 -0.69003488580E+01  0.72899805293E+01  0.23136706091E+02  0.25220344951E+02  0.51100000000E-03 0.  1.
         12    1    3    3    0    0 -0.94527701824E+01  0.12888037005E+02 -0.30752807701E+01  0.16276170120E+02  0.00000000000E+00 0. -1.
</event>
<event>
 7    1  0.2450552E-011  0.5052885E+02  0.7816164E-02  0.1300439E+00
        -11   -1    0    0    0    0  0.00000000000E+00  0.00000000000E+00  0.45593999997E+02  0.45594000000E+02  0.51100000000E-03 0.  1.
         11   -1    0    0    0    0 -0.00000000000E+00 -0.00000000000E+00 -0.45593999997E+02  0.45594000000E+02  0.51100000000E-03 0. -1.
    9900012    2    1    2    0    0 -0.21114273126E+02 -0.15492639860E+02  0.31101956000E+02  0.50528854823E+02  0.29999984720E+02 0.  0.
         12    1    1    2    0    0  0.21114273126E+02  0.15492639860E+02 -0.31101956000E+02  0.40659145177E+02  0.00000000000E+00 0. -1.
         11    1    3    3    0    0 -0.89589123244E+01  0.13021376196E+01 -0.39092519855E+00  0.90614841603E+01  0.51100000000E-03 0. -1.
        -11    1    3    3    0    0 -0.13488695464E+02 -0.40319700330E+01  0.17919974261E+02  0.22788750853E+02  0.51100000000E-03 0.  1.
         12    1    3    3    0    0  0.13333346624E+01 -0.12762807447E+02  0.13572906938E+02  0.18678619810E+02  0.00000000000E+00 0. -1.
</event>
<event>
 7    1  0.2450552E-011  0.5052887E+02  0.7816164E-02  0.1300439E+00
        -11   -1    0    0    0    0  0.00000000000E+00  0.00000000000E+00  0.45593999997E+02  0.45594000000E+02  0.51100000000E-03 0. -1.
         11   -1    0    0    0    0 -0.00000000000E+00 -0.00000000000E+00 -0.45593999997E+02  0.45594000000E+02  0.51100000000E-03 0.  1.
    9900012    2    1    2    0    0 -0.28600971479E+02 -0.85331599347E+01 -0.27610409934E+02  0.50528866650E+02  0.30000020670E+02 0.  0.
         12    1    1    2    0    0  0.28600971479E+02  0.85331599347E+01  0.27610409934E+02  0.40659133350E+02  0.00000000000E+00 0. -1.
         11    1    3    3    0    0  0.33682290027E+01  0.29180082747E+01 -0.65786025176E+01  0.79459266453E+01  0.51100000000E-03 0. -1.
        -11    1    3    3    0    0 -0.11896099539E+02  0.13632188137E+01 -0.20925352110E+01  0.12155420751E+02  0.51100000000E-03 0.  1.
        -12    1    3    3    0    0 -0.20073100943E+02 -0.12814387023E+02 -0.18939272205E+02  0.30427519254E+02  0.00000000000E+00 0.  1.
</event>
<event>
 7    1  0.2450552E-011  0.5052887E+02  0.7816164E-02  0.1300439E+00
        -11   -1    0    0    0    0  0.00000000000E+00  0.00000000000E+00  0.45593999997E+02  0.45594000000E+02  0.51100000000E-03 0. -1.
         11   -1    0    0    0    0 -0.00000000000E+00 -0.00000000000E+00 -0.45593999997E+02  0.45594000000E+02  0.51100000000E-03 0.  1.
    9900012    2    1    2    0    0 -0.58462991748E+01 -0.45417558376E-01 -0.40236599442E+02  0.50528865584E+02  0.30000017430E+02 0.  0.
         12    1    1    2    0    0  0.58462991748E+01  0.45417558376E-01  0.40236599442E+02  0.40659134416E+02  0.00000000000E+00 0. -1.
         11    1    3    3    0    0 -0.13458395649E+02  0.57943595062E+00 -0.11998679609E+02  0.18039747007E+02  0.51100000000E-03 0. -1.
        -11    1    3    3    0    0  0.21271874000E+01  0.31636149460E+01 -0.36448643988E+00  0.38296522540E+01  0.51100000000E-03 0.  1.
        -12    1    3    3    0    0  0.54849090742E+01 -0.37884684550E+01 -0.27873433393E+02  0.28659466323E+02  0.00000000000E+00 0.  1.
</event>
<event>
 7    1  0.2450552E-011  0.5052887E+02  0.7816164E-02  0.1300439E+00
        -11   -1    0    0    0    0  0.00000000000E+00  0.00000000000E+00  0.45593999997E+02  0.45594000000E+02  0.51100000000E-03 0.  1.
         11   -1    0    0    0    0 -0.00000000000E+00 -0.00000000000E+00 -0.45593999997E+02  0.45594000000E+02  0.51100000000E-03 0. -1.
    9900012    2    1    2    0    0  0.47571748668E+01  0.24151958276E+02  0.32360736001E+02  0.50528867744E+02  0.30000023994E+02 0.  0.
         12    1    1    2    0    0 -0.47571748668E+01 -0.24151958276E+02 -0.32360736001E+02  0.40659132256E+02  0.00000000000E+00 0. -1.
         11    1    3    3    0    0  0.65105786128E+01  0.21059510164E+01 -0.35458476461E+01  0.77068605377E+01  0.51100000000E-03 0. -1.
        -11    1    3    3    0    0 -0.24036255719E+01  0.38958496865E+01  0.38649037990E+01  0.59910384998E+01  0.51100000000E-03 0.  1.
        -12    1    3    3    0    0  0.65022182586E+00  0.18150157573E+02  0.32041679848E+02  0.36830968706E+02  0.00000000000E+00 0.  1.
</event>
<event>
 7    1  0.2450552E-011  0.5052884E+02  0.7816164E-02  0.1300439E+00
        -11   -1    0    0    0    0  0.00000000000E+00  0.00000000000E+00  0.45593999997E+02  0.45594000000E+02  0.51100000000E-03 0.  1.
         11   -1    0    0    0    0 -0.00000000000E+00 -0.00000000000E+00 -0.45593999997E+02  0.45594000000E+02  0.51100000000E-03 0. -1.
    9900012    2    1    2    0    0  0.50899709799E+01 -0.79739853569E+01  0.39543333698E+02  0.50528837601E+02  0.29999932372E+02 0.  0.
         12    1    1    2    0    0 -0.50899709799E+01  0.79739853569E+01 -0.39543333698E+02  0.40659162399E+02  0.00000000000E+00 0. -1.
         11    1    3    3    0    0 -0.22390444114E+01 -0.42966291237E+01 -0.10313394825E+01  0.49535848728E+01  0.51100000000E-03 0. -1.
        -11    1    3    3    0    0  0.73875299500E+01 -0.67275655432E+01  0.78445486516E+01  0.12703254729E+02  0.51100000000E-03 0.  1.
        -12    1    3    3    0    0 -0.58514558618E-01  0.30502093101E+01  0.32730124529E+02  0.32871997999E+02  0.00000000000E+00 0.  1.
</event>
<event>
 7    1  0.2450552E-011  0.5052886E+02  0.7816164E-02  0.1300439E+00
        -11   -1    0    0    0    0  0.00000000000E+00  0.00000000000E+00  0.45593999997E+02  0.45594000000E+02  0.51100000000E-03 0.  1.
         11   -1    0    0    0    0 -0.00000000000E+00 -0.00000000000E+00 -0.45593999997E+02  0.45594000000E+02  0.51100000000E-03 0. -1.
    9900012    2    1    2    0    0 -0.18290491072E+02 -0.22128451737E+02  0.28791582425E+02  0.50528860087E+02  0.30000000720E+02 0.  0.
         12    1    1    2    0    0  0.18290491072E+02  0.22128451737E+02 -0.28791582425E+02  0.40659139913E+02  0.00000000000E+00 0. -1.
         11    1    3    3    0    0  0.27958981559E+01 -0.61454674892E+01  0.12841907809E+02  0.14508563457E+02  0.51100000000E-03 0. -1.
        -11    1    3    3    0    0 -0.37534874579E+01 -0.14100537657E+02  0.49628717574E+01  0.15412460111E+02  0.51100000000E-03 0.  1.
         12    1    3    3    0    0 -0.17332901770E+02 -0.18824465903E+01  0.10986802859E+02  0.20607836519E+02  0.00000000000E+00 0. -1.
</event>
<event>
 7    1  0.2450552E-011  0.5052886E+02  0.7816164E-02  0.1300439E+00
        -11   -1    0    0    0    0  0.00000000000E+00  0.00000000000E+00  0.45593999997E+02  0.45594000000E+02  0.51100000000E-03 0.  1.
         11   -1    0    0    0    0 -0.00000000000E+00 -0.00000000000E+00 -0.45593999997E+02  0.45594000000E+02  0.51100000000E-03 0. -1.
    9900012    2    1    2    0    0 -0.24740764442E+02 -0.29249294907E+02  0.13621263007E+02  0.50528862236E+02  0.30000007254E+02 0.  0.
         12    1    1    2    0    0  0.24740764442E+02  0.29249294907E+02 -0.13621263007E+02  0.40659137764E+02  0.00000000000E+00 0. -1.
         11    1    3    3    0    0 -0.10591339976E+02 -0.15035591719E+02 -0.21516804500E+01  0.18516890394E+02  0.51100000000E-03 0. -1.
        -11    1    3    3    0    0 -0.89811769296E+01 -0.13320607672E+01 -0.21622855365E+01  0.93333490201E+01  0.51100000000E-03 0.  1.
        -12    1    3    3    0    0 -0.51682475362E+01 -0.12881642421E+02  0.17935228994E+02  0.22678622822E+02  0.00000000000E+00 0.  1.
</event>
<event>
 7    1  0.2450552E-011  0.5052886E+02  0.7816164E-02  0.1300439E+00
        -11   -1    0    0    0    0  0.00000000000E+00  0.00000000000E+00  0.45593999997E+02  0.45594000000E+02  0.51100000000E-03 0.  1.
         11   -1    0    0    0    0 -0.00000000000E+00 -0.00000000000E+00 -0.45593999997E+02  0.45594000000E+02  0.51100000000E-03 0. -1.
    9900012    2    1    2    0    0 -0.39366923146E+02  0.10612513230E+01  0.10113597647E+02  0.50528858965E+02  0.29999997309E+02 0.  0.
         12    1    1    2    0    0  0.39366923146E+02 -0.10612513230E+01 -0.10113597647E+02  0.40659141035E+02  0.00000000000E+00 0. -1.
         11    1    3    3    0    0  0.22525859039E+01  0.62113522088E+01 -0.22806274554E+00  0.66111309466E+01  0.51100000000E-03 0. -1.
        -11    1    3    3    0    0 -0.83497446709E+01  0.21205556223E+01  0.25246800708E+01  0.89771377363E+01  0.51100000000E-03 0.  1.
         12    1    3    3    0    0 -0.33269764379E+02 -0.72706565081E+01  0.78169803216E+01  0.34940590282E+02  0.00000000000E+00 0. -1.
</event>
<event>
 7    1  0.2450552E-011  0.5052886E+02  0.7816164E-02  0.1300439E+00
        -11   -1    0    0    0    0  0.00000000000E+00  0.00000000000E+00  0.45593999997E+02  0.45594000000E+02  0.51100000000E-03 0.  1.
         11   -1    0    0    0    0 -0.00000000000E+00 -0.00000000000E+00 -0.45593999997E+02  0.45594000000E+02  0.51100000000E-03 0. -1.
    9900012    2    1    2    0    0 -0.15539033973E+02  0.65235565559E+01  0.37001994407E+02  0.50528856415E+02  0.29999989559E+02 0.  0.
         12    1    1    2    0    0  0.15539033973E+02 -0.65235565559E+01 -0.37001994407E+02  0.40659143585E+02  0.00000000000E+00 0. -1.
         11    1    3    3    0    0 -0.77579905014E+00  0.83112067413E+01  0.76813302202E+01  0.11343758455E+02  0.51100000000E-03 0. -1.
        -11    1    3    3    0    0 -0.63913228925E+01  0.97722021220E+01  0.12040947085E+02  0.16772875412E+02  0.51100000000E-03 0.  1.
        -12    1    3    3    0    0 -0.83719120304E+01 -0.11559852308E+02  0.17279717102E+02  0.22412222548E+02  0.00000000000E+00 0.  1.
</event>
<event>
 7    1  0.2450552E-011  0.5052886E+02  0.7816164E-02  0.1300439E+00
        -11   -1    0    0    0    0  0.00000000000E+00  0.00000000000E+00  0.45593999997E+02  0.45594000000E+02  0.51100000000E-03 0.  1.
         11   -1    0    0    0    0 -0.00000000000E+00 -0.00000000000E+00 -0.45593999997E+02  0.45594000000E+02  0.51100000000E-03 0. -1.
    9900012    2    1    2    0    0  0.31270229027E+02  0.25273738852E+02  0.60478820032E+01  0.50528856186E+02  0.29999988863E+02 0.  0.
         12    1    1    2    0    0 -0.31270229027E+02 -0.25273738852E+02 -0.60478820032E+01  0.40659143814E+02  0.00000000000E+00 0. -1.
         11    1    3    3    0    0  0.13116907473E+02  0.42097893373E+01  0.90969129542E+01  0.16508464904E+02  0.51100000000E-03 0.  1.
        -11    1    3    3    0    0  0.17502912059E+02  0.18155754922E+02  0.47582719930E+01  0.25663680951E+02  0.51100000000E-03 0. -1.
         12    1    3    3    0    0  0.65040949515E+00  0.29081945929E+01 -0.78073029440E+01  0.83567103313E+01  0.00000000000E+00 0. -1.
</event>
<event>
 7    1  0.2450552E-011  0.5052885E+02  0.7816164E-02  0.1300439E+00
        -11   -1    0    0    0    0  0.00000000000E+00  0.00000000000E+00  0.45593999997E+02  0.45594000000E+02  0.51100000000E-03 0.  1.
         11   -1    0    0    0    0 -0.00000000000E+00 -0.00000000000E+00 -0.45593999997E+02  0.45594000000E+02  0.51100000000E-03 0. -1.
    9900012    2    1    2    0    0 -0.25105238018E+02 -0.27428474489E+02  0.16449078919E+02  0.50528851140E+02  0.29999973525E+02 0.  0.
         12    1    1    2    0    0  0.25105238018E+02  0.27428474489E+02 -0.16449078919E+02  0.40659148860E+02  0.00000000000E+00 0. -1.
         11    1    3    3    0    0 -0.22194886433E+01 -0.26833164484E+00 -0.50270925696E+01  0.55017989488E+01  0.51100000000E-03 0. -1.
        -11    1    3    3    0    0 -0.55741148151E+01 -0.90336570663E+01  0.16270604085E+02  0.19427050047E+02  0.51100000000E-03 0.  1.
        -12    1    3    3    0    0 -0.17311634560E+02 -0.18126485778E+02  0.52055674031E+01  0.25600002144E+02  0.00000000000E+00 0.  1.
</event>
<event>
 7    1  0.2450552E-011  0.5052886E+02  0.7816164E-02  0.1300439E+00
        -11   -1    0    0    0    0  0.00000000000E+00  0.00000000000E+00  0.45593999997E+02  0.45594000000E+02  0.51100000000E-03 0.  1.
         11   -1    0    0    0    0 -0.00000000000E+00 -0.00000000000E+00 -0.45593999997E+02  0.45594000000E+02  0.51100000000E-03 0. -1.
    9900012    2    1    2    0    0  0.29362015343E+02  0.27256561257E+01  0.27993008268E+02  0.50528860090E+02  0.30000000730E+02 0.  0.
         12    1    1    2    0    0 -0.29362015343E+02 -0.27256561257E+01 -0.27993008268E+02  0.40659139910E+02  0.00000000000E+00 0. -1.
         11    1    3    3    0    0 -0.95393028123E+00  0.46234087923E+00  0.96492588877E+01  0.97073137073E+01  0.51100000000E-03 0. -1.
        -11    1    3    3    0    0  0.13188671673E+02 -0.33616997140E+01  0.18284698827E+02  0.22794128562E+02  0.51100000000E-03 0.  1.
         12    1    3    3    0    0  0.17127273951E+02  0.56250149605E+01  0.59050553633E-01  0.18027417820E+02  0.00000000000E+00 0. -1.
</event>
<event>
 7    1  0.2450552E-011  0.5052893E+02  0.7816164E-02  0.1300439E+00
        -11   -1    0    0    0    0  0.00000000000E+00  0.00000000000E+00  0.45593999997E+02  0.45594000000E+02  0.51100000000E-03 0. -1.
         11   -1    0    0    0    0 -0.00000000000E+00 -0.00000000000E+00 -0.45593999997E+02  0.45594000000E+02  0.51100000000E-03 0.  1.
    9900012    2    1    2    0    0 -0.22426389615E+02 -0.32220419483E+02 -0.10585925201E+02  0.50528927272E+02  0.30000204934E+02 0.  0.
         12    1    1    2    0    0  0.22426389615E+02  0.32220419483E+02  0.10585925201E+02  0.40659072728E+02  0.00000000000E+00 0. -1.
         11    1    3    3    0    0  0.25090303659E+01 -0.67969291629E+01 -0.71143117321E+01  0.10154157331E+02  0.51100000000E-03 0. -1.
        -11    1    3    3    0    0 -0.11318263253E+02 -0.12737408104E+02 -0.11018815662E+02  0.20291844350E+02  0.51100000000E-03 0.  1.
         12    1    3    3    0    0 -0.13617156727E+02 -0.12686082215E+02  0.75472021933E+01  0.20082925590E+02  0.00000000000E+00 0. -1.
</event>
<event>
 7    1  0.2450552E-011  0.5052887E+02  0.7816164E-02  0.1300439E+00
        -11   -1    0    0    0    0  0.00000000000E+00  0.00000000000E+00  0.45593999997E+02  0.45594000000E+02  0.51100000000E-03 0.  1.
         11   -1    0    0    0    0 -0.00000000000E+00 -0.00000000000E+00 -0.45593999997E+02  0.45594000000E+02  0.51100000000E-03 0. -1.
    9900012    2    1    2    0    0 -0.22882740349E+00 -0.38550640642E+02 -0.12921333099E+02  0.50528866894E+02  0.30000021412E+02 0.  0.
         12    1    1    2    0    0  0.22882740349E+00  0.38550640642E+02  0.12921333099E+02  0.40659133106E+02  0.00000000000E+00 0. -1.
         11    1    3    3    0    0 -0.90383812719E+01 -0.61060637069E+01 -0.21959475308E+01  0.11126479040E+02  0.51100000000E-03 0. -1.
        -11    1    3    3    0    0  0.21806044393E+00 -0.31609642554E+01 -0.81874013997E+01  0.87791108503E+01  0.51100000000E-03 0.  1.
        -12    1    3    3    0    0  0.85914934245E+01 -0.29283612679E+02 -0.25379841686E+01  0.30623277004E+02  0.00000000000E+00 0.  1.
</event>
<event>
 7    1  0.2450552E-011  0.5052886E+02  0.7816164E-02  0.1300439E+00
        -11   -1    0    0    0    0  0.00000000000E+00  0.00000000000E+00  0.45593999997E+02  0.45594000000E+02  0.51100000000E-03 0.  1.
         11   -1    0    0    0    0 -0.00000000000E+00 -0.00000000000E+00 -0.45593999997E+02  0.45594000000E+02  0.51100000000E-03 0. -1.
    9900012    2    1    2    0    0  0.33132869450E+02 -0.19700816700E+01  0.23483980198E+02  0.50528860982E+02  0.30000003440E+02 0.  0.
         12    1    1    2    0    0 -0.33132869450E+02  0.19700816700E+01 -0.23483980198E+02  0.40659139018E+02  0.00000000000E+00 0. -1.
         11    1    3    3    0    0  0.15602186263E+02 -0.63494805660E+01  0.77241439018E+01  0.18531230906E+02  0.51100000000E-03 0. -1.
        -11    1    3    3    0    0  0.20766865798E+02  0.37631286707E+01  0.18223432080E+02  0.27883997731E+02  0.51100000000E-03 0.  1.
        -12    1    3    3    0    0 -0.32361826108E+01  0.61627022524E+00 -0.24635957829E+01  0.41136323441E+01  0.00000000000E+00 0.  1.
</event>
<event>
 7    1  0.2450552E-011  0.5052885E+02  0.7816164E-02  0.1300439E+00
        -11   -1    0    0    0    0  0.00000000000E+00  0.00000000000E+00  0.45593999997E+02  0.45594000000E+02  0.51100000000E-03 0. -1.
         11   -1    0    0    0    0 -0.00000000000E+00 -0.00000000000E+00 -0.45593999997E+02  0.45594000000E+02  0.51100000000E-03 0.  1.
    9900012    2    1    2    0    0  0.24223722391E+02 -0.11720103296E+02 -0.30479783309E+02  0.50528846808E+02  0.29999960357E+02 0.  0.
         12    1    1    2    0    0 -0.24223722391E+02  0.11720103296E+02  0.30479783309E+02  0.40659153192E+02  0.00000000000E+00 0. -1.
         11    1    3    3    0    0 -0.30608278093E+01  0.28884486797E+01 -0.36058996923E+01  0.55420497567E+01  0.51100000000E-03 0. -1.
        -11    1    3    3    0    0  0.78398661346E+01 -0.13342861454E+00 -0.17170058760E+02  0.18875704551E+02  0.51100000000E-03 0.  1.
         12    1    3    3    0    0  0.19444684065E+02 -0.14475123361E+02 -0.97038248571E+01  0.26111092500E+02  0.00000000000E+00 0. -1.
</event>
<event>
 7    1  0.2450552E-011  0.5052886E+02  0.7816164E-02  0.1300439E+00
        -11   -1    0    0    0    0  0.00000000000E+00  0.00000000000E+00  0.45593999997E+02  0.45594000000E+02  0.51100000000E-03 0. -1.
         11   -1    0    0    0    0 -0.00000000000E+00 -0.00000000000E+00 -0.45593999997E+02  0.45594000000E+02  0.51100000000E-03 0.  1.
    9900012    2    1    2    0    0  0.16949522582E+02  0.26597111459E+02 -0.25660733383E+02  0.50528857222E+02  0.29999992012E+02 0.  0.
         12    1    1    2    0    0 -0.16949522582E+02 -0.26597111459E+02  0.25660733383E+02  0.40659142778E+02  0.00000000000E+00 0. -1.
         11    1    3    3    0    0  0.98720873820E+01  0.26224329481E+02 -0.16245665066E+02  0.32389739112E+02  0.51100000000E-03 0.  1.
        -11    1    3    3    0    0  0.72784216988E+01  0.47839769162E+01 -0.11727659166E+01  0.87884718647E+01  0.51100000000E-03 0. -1.
        -12    1    3    3    0    0 -0.20098649907E+00 -0.44111949388E+01 -0.82423023998E+01  0.93506462456E+01  0.00000000000E+00 0.  1.
</event>
<event>
 7    1  0.2450552E-011  0.5052885E+02  0.7816164E-02  0.1300439E+00
        -11   -1    0    0    0    0  0.00000000000E+00  0.00000000000E+00  0.45593999997E+02  0.45594000000E+02  0.51100000000E-03 0.  1.
         11   -1    0    0    0    0 -0.00000000000E+00 -0.00000000000E+00 -0.45593999997E+02  0.45594000000E+02  0.51100000000E-03 0. -1.
    9900012    2    1    2    0    0 -0.31900159173E+02 -0.16735976529E+02  0.18853467729E+02  0.50528852062E+02  0.29999976328E+02 0.  0.
         12    1    1    2    0    0  0.31900159173E+02  0.16735976529E+02 -0.18853467729E+02  0.40659147938E+02  0.00000000000E+00 0. -1.
         11    1    3    3    0    0 -0.45864289423E+01 -0.55069081564E+01 -0.44960709187E+01  0.84602613348E+01  0.51100000000E-03 0. -1.
        -11    1    3    3    0    0  0.14614815126E-01 -0.68999972927E+01  0.74591916695E+01  0.10161186784E+02  0.51100000000E-03 0.  1.
        -12    1    3    3    0    0 -0.27328345045E+02 -0.43290710803E+01  0.15890346978E+02  0.31907403944E+02  0.00000000000E+00 0.  1.
</event>
<event>
 7    1  0.2450552E-011  0.5052886E+02  0.7816164E-02  0.1300439E+00
        -11   -1    0    0    0    0  0.00000000000E+00  0.00000000000E+00  0.45593999997E+02  0.45594000000E+02  0.51100000000E-03 0.  1.
         11   -1    0    0    0    0 -0.00000000000E+00 -0.00000000000E+00 -0.45593999997E+02  0.45594000000E+02  0.51100000000E-03 0. -1.
    9900012    2    1    2    0    0  0.36202300387E+01  0.11754957019E+01  0.40480586127E+02  0.50528859467E+02  0.29999998837E+02 0.  0.
         12    1    1    2    0    0 -0.36202300387E+01 -0.11754957019E+01 -0.40480586127E+02  0.40659140533E+02  0.00000000000E+00 0. -1.
         11    1    3    3    0    0 -0.19011958854E+01 -0.73599646185E+01  0.12470240927E+02  0.14604469659E+02  0.51100000000E-03 0. -1.
        -11    1    3    3    0    0 -0.70307968951E+01  0.65633048690E+01  0.99157635686E+01  0.13814175444E+02  0.51100000000E-03 0.  1.
        -12    1    3    3    0    0  0.12552222819E+02  0.19721554515E+01  0.18094581631E+02  0.22110214364E+02  0.00000000000E+00 0.  1.
</event>
<event>
 7    1  0.2450552E-011  0.5052886E+02  0.7816164E-02  0.1300439E+00
        -11   -1    0    0    0    0  0.00000000000E+00  0.00000000000E+00  0.45593999997E+02  0.45594000000E+02  0.51100000000E-03 0.  1.
         11   -1    0    0    0    0 -0.00000000000E+00 -0.00000000000E+00 -0.45593999997E+02  0.45594000000E+02  0.51100000000E-03 0. -1.
    9900012    2    1    2    0    0  0.26080279458E+02  0.47461172125E+01  0.30829517530E+02  0.50528858883E+02  0.29999997062E+02 0.  0.
         12    1    1    2    0    0 -0.26080279458E+02 -0.47461172125E+01 -0.30829517530E+02  0.40659141117E+02  0.00000000000E+00 0. -1.
         11    1    3    3    0    0  0.17588465535E+01 -0.24610266439E+01 -0.17486023989E+01  0.34939667931E+01  0.51100000000E-03 0. -1.
        -11    1    3    3    0    0  0.16049433410E+02  0.12287366965E+02  0.10197404640E+02  0.22639583949E+02  0.51100000000E-03 0.  1.
        -12    1    3    3    0    0  0.82719994945E+01 -0.50802231089E+01  0.22380715289E+02  0.24395308141E+02  0.00000000000E+00 0.  1.
</event>
<event>
 7    1  0.2450552E-011  0.5052889E+02  0.7816164E-02  0.1300439E+00
        -11   -1    0    0    0    0  0.00000000000E+00  0.00000000000E+00  0.45593999997E+02  0.45594000000E+02  0.51100000000E-03 0.  1.
         11   -1    0    0    0    0 -0.00000000000E+00 -0.00000000000E+00 -0.45593999997E+02  0.45594000000E+02  0.51100000000E-03 0. -1.
    9900012    2    1    2    0    0  0.16166566103E+02 -0.35838656402E+01  0.37134366586E+02  0.50528891128E+02  0.30000095074E+02 0.  0.
         12    1    1    2    0    0 -0.16166566103E+02  0.35838656402E+01 -0.37134366586E+02  0.40659108872E+02  0.00000000000E+00 0. -1.
         11    1    3    3    0    0 -0.36626587425E+01  0.13968903990E+01  0.92820335503E-01  0.39210952203E+01  0.51100000000E-03 0. -1.
        -11    1    3    3    0    0  0.31317767676E+00  0.83521357467E+00  0.20094603509E+02  0.20114391674E+02  0.51100000000E-03 0.  1.
         12    1    3    3    0    0  0.19516047168E+02 -0.58159696138E+01  0.16946942741E+02  0.26493404234E+02  0.00000000000E+00 0. -1.
</event>
<event>
 7    1  0.2450552E-011  0.5052878E+02  0.7816164E-02  0.1300439E+00
        -11   -1    0    0    0    0  0.00000000000E+00  0.00000000000E+00  0.45593999997E+02  0.45594000000E+02  0.51100000000E-03 0.  1.
         11   -1    0    0    0    0 -0.00000000000E+00 -0.00000000000E+00 -0.45593999997E+02  0.45594000000E+02  0.51100000000E-03 0. -1.
    9900012    2    1    2    0    0 -0.81851827027E+01  0.92718185510E+01  0.38732522923E+02  0.50528780048E+02  0.29999757432E+02 0.  0.
         12    1    1    2    0    0  0.81851827027E+01 -0.92718185510E+01 -0.38732522923E+02  0.40659219952E+02  0.00000000000E+00 0. -1.
         11    1    3    3    0    0 -0.82943144003E+01  0.66443714943E+01  0.28045618779E+02  0.29991666457E+02  0.51100000000E-03 0.  1.
        -11    1    3    3    0    0 -0.77754519233E+01  0.49235689315E+01  0.68512193976E+01  0.11473377494E+02  0.51100000000E-03 0. -1.
        -12    1    3    3    0    0  0.78845836209E+01 -0.22961218748E+01  0.38356847466E+01  0.90637360958E+01  0.00000000000E+00 0.  1.
</event>
<event>
 7    1  0.2450552E-011  0.5052886E+02  0.7816164E-02  0.1300439E+00
        -11   -1    0    0    0    0  0.00000000000E+00  0.00000000000E+00  0.45593999997E+02  0.45594000000E+02  0.51100000000E-03 0.  1.
         11   -1    0    0    0    0 -0.00000000000E+00 -0.00000000000E+00 -0.45593999997E+02  0.45594000000E+02  0.51100000000E-03 0. -1.
    9900012    2    1    2    0    0 -0.19232370899E+02 -0.34616267303E+02  0.92193181462E+01  0.50528857369E+02  0.29999992459E+02 0.  0.
         12    1    1    2    0    0  0.19232370899E+02  0.34616267303E+02 -0.92193181462E+01  0.40659142631E+02  0.00000000000E+00 0. -1.
         11    1    3    3    0    0 -0.21560711286E+01  0.34115596244E+01  0.15332852713E+01  0.43172150475E+01  0.51100000000E-03 0. -1.
        -11    1    3    3    0    0 -0.54558380676E+01  0.20322449358E+00  0.21681101431E+01  0.58743655886E+01  0.51100000000E-03 0.  1.
         12    1    3    3    0    0 -0.11620461703E+02 -0.38231051421E+02  0.55179227318E+01  0.40337276733E+02  0.00000000000E+00 0. -1.
</event>
<event>
 7    1  0.2450552E-011  0.5052885E+02  0.7816164E-02  0.1300439E+00
        -11   -1    0    0    0    0  0.00000000000E+00  0.00000000000E+00  0.45593999997E+02  0.45594000000E+02  0.51100000000E-03 0.  1.
         11   -1    0    0    0    0 -0.00000000000E+00 -0.00000000000E+00 -0.45593999997E+02  0.45594000000E+02  0.51100000000E-03 0. -1.
    9900012    2    1    2    0    0 -0.32456896376E+02 -0.22420366179E+02  0.98510666296E+01  0.50528850284E+02  0.29999970922E+02 0.  0.
         12    1    1    2    0    0  0.32456896376E+02  0.22420366179E+02 -0.98510666296E+01  0.40659149716E+02  0.00000000000E+00 0. -1.
         11    1    3    3    0    0 -0.21485676831E+02 -0.19087101381E+02  0.27279517684E+01  0.28868555023E+02  0.51100000000E-03 0. -1.
        -11    1    3    3    0    0 -0.12989013848E+02 -0.65294681294E+01  0.93387826530E+01  0.17278926370E+02  0.51100000000E-03 0.  1.
         12    1    3    3    0    0  0.20177943033E+01  0.31962033319E+01 -0.22156677918E+01  0.43813688903E+01  0.00000000000E+00 0. -1.
</event>
<event>
 7    1  0.2450552E-011  0.5052887E+02  0.7816164E-02  0.1300439E+00
        -11   -1    0    0    0    0  0.00000000000E+00  0.00000000000E+00  0.45593999997E+02  0.45594000000E+02  0.51100000000E-03 0. -1.
         11   -1    0    0    0    0 -0.00000000000E+00 -0.00000000000E+00 -0.45593999997E+02  0.45594000000E+02  0.51100000000E-03 0.  1.
    9900012    2    1    2    0    0 -0.16778401396E+02 -0.28310352745E+01 -0.36927433334E+02  0.50528870069E+02  0.30000031062E+02 0.  0.
         12    1    1    2    0    0  0.16778401396E+02  0.28310352745E+01  0.36927433334E+02  0.40659129931E+02  0.00000000000E+00 0. -1.
         11    1    3    3    0    0 -0.10367858871E+02 -0.70530565784E+01 -0.13545086752E+02  0.18458263191E+02  0.51100000000E-03 0. -1.
        -11    1    3    3    0    0 -0.91575502210E+01  0.42089970872E+01 -0.17072017497E+01  0.10222080053E+02  0.51100000000E-03 0.  1.
        -12    1    3    3    0    0  0.27470076965E+01  0.13024216758E-01 -0.21675144832E+02  0.21848526825E+02  0.00000000000E+00 0.  1.
</event>
<event>
 7    1  0.2450552E-011  0.5052886E+02  0.7816164E-02  0.1300439E+00
        -11   -1    0    0    0    0  0.00000000000E+00  0.00000000000E+00  0.45593999997E+02  0.45594000000E+02  0.51100000000E-03 0.  1.
         11   -1    0    0    0    0 -0.00000000000E+00 -0.00000000000E+00 -0.45593999997E+02  0.45594000000E+02  0.51100000000E-03 0. -1.
    9900012    2    1    2    0    0 -0.17941553925E+02 -0.34346053168E+02  0.12313208205E+02  0.50528858079E+02  0.29999994617E+02 0.  0.
         12    1    1    2    0    0  0.17941553925E+02  0.34346053168E+02 -0.12313208205E+02  0.40659141921E+02  0.00000000000E+00 0. -1.
         11    1    3    3    0    0  0.12848392637E+01 -0.13521530211E+02  0.95207664124E+01  0.16586970324E+02  0.51100000000E-03 0. -1.
        -11    1    3    3    0    0 -0.93444708622E+01 -0.21366511360E+02 -0.10035046056E+01  0.23342107128E+02  0.51100000000E-03 0.  1.
         12    1    3    3    0    0 -0.98819223267E+01  0.54198840335E+00  0.37959463979E+01  0.10599780628E+02  0.00000000000E+00 0. -1.
</event>
<event>
 7    1  0.2450552E-011  0.5052888E+02  0.7816164E-02  0.1300439E+00
        -11   -1    0    0    0    0  0.00000000000E+00  0.00000000000E+00  0.45593999997E+02  0.45594000000E+02  0.51100000000E-03 0.  1.
         11   -1    0    0    0    0 -0.00000000000E+00 -0.00000000000E+00 -0.45593999997E+02  0.45594000000E+02  0.51100000000E-03 0. -1.
    9900012    2    1    2    0    0  0.85158304228E+00 -0.12003627551E+02  0.38837504586E+02  0.50528880106E+02  0.30000061570E+02 0.  0.
         12    1    1    2    0    0 -0.85158304228E+00  0.12003627551E+02 -0.38837504586E+02  0.40659119894E+02  0.00000000000E+00 0. -1.
         11    1    3    3    0    0  0.34498792632E+01 -0.34906038289E+01  0.49191752999E+01  0.69486882153E+01  0.51100000000E-03 0. -1.
        -11    1    3    3    0    0 -0.76297138597E+01 -0.71156899331E+01  0.12619495977E+01  0.10508953033E+02  0.51100000000E-03 0.  1.
        -12    1    3    3    0    0  0.50314176388E+01 -0.13973337892E+01  0.32656379689E+02  0.33071238857E+02  0.00000000000E+00 0.  1.
</event>
<event>
 7    1  0.2450552E-011  0.5052886E+02  0.7816164E-02  0.1300439E+00
        -11   -1    0    0    0    0  0.00000000000E+00  0.00000000000E+00  0.45593999997E+02  0.45594000000E+02  0.51100000000E-03 0.  1.
         11   -1    0    0    0    0 -0.00000000000E+00 -0.00000000000E+00 -0.45593999997E+02  0.45594000000E+02  0.51100000000E-03 0. -1.
    9900012    2    1    2    0    0 -0.76432418984E+01 -0.16355500856E+02  0.36431359018E+02  0.50528862344E+02  0.30000007582E+02 0.  0.
         12    1    1    2    0    0  0.76432418984E+01  0.16355500856E+02 -0.36431359018E+02  0.40659137656E+02  0.00000000000E+00 0. -1.
         11    1    3    3    0    0 -0.23094247781E+01 -0.69934753757E+01 -0.96784861609E+00  0.74282482350E+01  0.51100000000E-03 0. -1.
        -11    1    3    3    0    0  0.39885873453E+01 -0.11069600267E+02  0.23449611388E+02  0.26236027779E+02  0.51100000000E-03 0.  1.
         12    1    3    3    0    0 -0.93224044656E+01  0.17075747868E+01  0.13949596246E+02  0.16864586330E+02  0.00000000000E+00 0. -1.
</event>
<event>
 7    1  0.2450552E-011  0.5052885E+02  0.7816164E-02  0.1300439E+00
        -11   -1    0    0    0    0  0.00000000000E+00  0.00000000000E+00  0.45593999997E+02  0.45594000000E+02  0.51100000000E-03 0.  1.
         11   -1    0    0    0    0 -0.00000000000E+00 -0.00000000000E+00 -0.45593999997E+02  0.45594000000E+02  0.51100000000E-03 0. -1.
    9900012    2    1    2    0    0  0.34411357541E+02  0.11683164584E+02  0.18235358407E+02  0.50528853935E+02  0.29999982020E+02 0.  0.
         12    1    1    2    0    0 -0.34411357541E+02 -0.11683164584E+02 -0.18235358407E+02  0.40659146065E+02  0.00000000000E+00 0. -1.
         11    1    3    3    0    0  0.20065144363E+02  0.18420712187E+02  0.20751330997E+02  0.34242523187E+02  0.51100000000E-03 0. -1.
        -11    1    3    3    0    0  0.29348488128E+01 -0.15599812600E+01  0.59114722073E+00  0.33758457286E+01  0.51100000000E-03 0.  1.
         12    1    3    3    0    0  0.11411364365E+02 -0.51775663431E+01 -0.31071198113E+01  0.12910485019E+02  0.00000000000E+00 0. -1.
</event>
<event>
 7    1  0.2450552E-011  0.5052886E+02  0.7816164E-02  0.1300439E+00
        -11   -1    0    0    0    0  0.00000000000E+00  0.00000000000E+00  0.45593999997E+02  0.45594000000E+02  0.51100000000E-03 0. -1.
         11   -1    0    0    0    0 -0.00000000000E+00 -0.00000000000E+00 -0.45593999997E+02  0.45594000000E+02  0.51100000000E-03 0.  1.
    9900012    2    1    2    0    0 -0.34002662760E+01  0.42140085695E+01 -0.40296976355E+02  0.50528856104E+02  0.29999988615E+02 0.  0.
         12    1    1    2    0    0  0.34002662760E+01 -0.42140085695E+01  0.40296976355E+02  0.40659143896E+02  0.00000000000E+00 0. -1.
         11    1    3    3    0    0 -0.50603128721E+01  0.20492121168E+01 -0.49700123613E+01  0.73828896643E+01  0.51100000000E-03 0. -1.
        -11    1    3    3    0    0  0.84016569382E+00  0.98979831951E+01 -0.33788861345E+02  0.35218789033E+02  0.51100000000E-03 0.  1.
        -12    1    3    3    0    0  0.81988090227E+00 -0.77331867424E+01 -0.15381026491E+01  0.79271774072E+01  0.00000000000E+00 0.  1.
</event>
<event>
 7    1  0.2450552E-011  0.5052886E+02  0.7816164E-02  0.1300439E+00
        -11   -1    0    0    0    0  0.00000000000E+00  0.00000000000E+00  0.45593999997E+02  0.45594000000E+02  0.51100000000E-03 0. -1.
         11   -1    0    0    0    0 -0.00000000000E+00 -0.00000000000E+00 -0.45593999997E+02  0.45594000000E+02  0.51100000000E-03 0.  1.
    9900012    2    1    2    0    0 -0.96806850548E+01  0.27684745634E+02 -0.28160343689E+02  0.50528858830E+02  0.29999996901E+02 0.  0.
         12    1    1    2    0    0  0.96806850548E+01 -0.27684745634E+02  0.28160343689E+02  0.40659141170E+02  0.00000000000E+00 0. -1.
         11    1    3    3    0    0 -0.11115876717E+01  0.68048640855E+01 -0.14182980366E+02  0.15770184992E+02  0.51100000000E-03 0. -1.
        -11    1    3    3    0    0 -0.12148253126E+02  0.19319041905E+02 -0.18064949422E+02  0.29105804095E+02  0.51100000000E-03 0.  1.
         12    1    3    3    0    0  0.35791557428E+01  0.15608396433E+01  0.40875860981E+01  0.56528697432E+01  0.00000000000E+00 0. -1.
</event>
<event>
 7    1  0.2450552E-011  0.5052886E+02  0.7816164E-02  0.1300439E+00
        -11   -1    0    0    0    0  0.00000000000E+00  0.00000000000E+00  0.45593999997E+02  0.45594000000E+02  0.51100000000E-03 0.  1.
         11   -1    0    0    0    0 -0.00000000000E+00 -0.00000000000E+00 -0.45593999997E+02  0.45594000000E+02  0.51100000000E-03 0. -1.
    9900012    2    1    2    0    0  0.32345000591E+02  0.24583484392E+02  0.16183937635E+01  0.50528856300E+02  0.29999989209E+02 0.  0.
         12    1    1    2    0    0 -0.32345000591E+02 -0.24583484392E+02 -0.16183937635E+01  0.40659143700E+02  0.00000000000E+00 0. -1.
         11    1    3    3    0    0 -0.73755995369E-01 -0.99781327420E+00  0.41822479703E+01  0.43002639016E+01  0.51100000000E-03 0. -1.
        -11    1    3    3    0    0  0.24864752174E+02  0.75243077046E+01 -0.51538387294E+01  0.26484583460E+02  0.51100000000E-03 0.  1.
         12    1    3    3    0    0  0.75540044115E+01  0.18056989962E+02  0.25899845226E+01  0.19744008938E+02  0.00000000000E+00 0. -1.
</event>
<event>
 7    1  0.2450552E-011  0.5052892E+02  0.7816164E-02  0.1300439E+00
        -11   -1    0    0    0    0  0.00000000000E+00  0.00000000000E+00  0.45593999997E+02  0.45594000000E+02  0.51100000000E-03 0. -1.
         11   -1    0    0    0    0 -0.00000000000E+00 -0.00000000000E+00 -0.45593999997E+02  0.45594000000E+02  0.51100000000E-03 0.  1.
    9900012    2    1    2    0    0  0.47043530085E+01  0.17007874406E+02 -0.36630065851E+02  0.50528924097E+02  0.30000195284E+02 0.  0.
         12    1    1    2    0    0 -0.47043530085E+01 -0.17007874406E+02  0.36630065851E+02  0.40659075903E+02  0.00000000000E+00 0. -1.
         11    1    3    3    0    0  0.60241708480E+00 -0.12760068575E+01  0.10926727154E+01  0.17846662905E+01  0.51100000000E-03 0. -1.
        -11    1    3    3    0    0  0.39909254192E+01 -0.51232310508E+01 -0.37837162058E+01  0.75160821368E+01  0.51100000000E-03 0.  1.
        -12    1    3    3    0    0  0.11101050451E+00  0.23407112315E+02 -0.33939022361E+02  0.41228175669E+02  0.00000000000E+00 0.  1.
</event>
<event>
 7    1  0.2450552E-011  0.5052886E+02  0.7816164E-02  0.1300439E+00
        -11   -1    0    0    0    0  0.00000000000E+00  0.00000000000E+00  0.45593999997E+02  0.45594000000E+02  0.51100000000E-03 0.  1.
         11   -1    0    0    0    0 -0.00000000000E+00 -0.00000000000E+00 -0.45593999997E+02  0.45594000000E+02  0.51100000000E-03 0. -1.
    9900012    2    1    2    0    0  0.25203084599E+02  0.16718520867E+02  0.27174642728E+02  0.50528860551E+02  0.30000002131E+02 0.  0.
         12    1    1    2    0    0 -0.25203084599E+02 -0.16718520867E+02 -0.27174642728E+02  0.40659139449E+02  0.00000000000E+00 0. -1.
         11    1    3    3    0    0 -0.17205934937E+01 -0.17156731586E+01  0.52468398650E+01  0.57821540267E+01  0.51100000000E-03 0. -1.
        -11    1    3    3    0    0  0.15101279945E+02  0.12170823748E+02  0.39905770158E+00  0.19399403444E+02  0.51100000000E-03 0.  1.
         12    1    3    3    0    0  0.11822398148E+02  0.62633702784E+01  0.21528745162E+02  0.25347303080E+02  0.00000000000E+00 0. -1.
</event>
<event>
 7    1  0.2450552E-011  0.5052886E+02  0.7816164E-02  0.1300439E+00
        -11   -1    0    0    0    0  0.00000000000E+00  0.00000000000E+00  0.45593999997E+02  0.45594000000E+02  0.51100000000E-03 0. -1.
         11   -1    0    0    0    0 -0.00000000000E+00 -0.00000000000E+00 -0.45593999997E+02  0.45594000000E+02  0.51100000000E-03 0.  1.
    9900012    2    1    2    0    0  0.66789980419E+01  0.34244859161E+02 -0.20876939049E+02  0.50528856159E+02  0.29999988781E+02 0.  0.
         12    1    1    2    0    0 -0.66789980419E+01 -0.34244859161E+02  0.20876939049E+02  0.40659143841E+02  0.00000000000E+00 0. -1.
         11    1    3    3    0    0 -0.68500854018E+01  0.45846032589E+01 -0.10268719717E+02  0.13167720453E+02  0.51100000000E-03 0. -1.
        -11    1    3    3    0    0  0.98019004487E+00  0.73079568264E+01 -0.90589584500E+01  0.11680399563E+02  0.51100000000E-03 0.  1.
        -12    1    3    3    0    0  0.12548893399E+02  0.22352299076E+02 -0.15492608825E+01  0.25680736142E+02  0.00000000000E+00 0.  1.
</event>
<event>
 7    1  0.2450552E-011  0.5052886E+02  0.7816164E-02  0.1300439E+00
        -11   -1    0    0    0    0  0.00000000000E+00  0.00000000000E+00  0.45593999997E+02  0.45594000000E+02  0.51100000000E-03 0.  1.
         11   -1    0    0    0    0 -0.00000000000E+00 -0.00000000000E+00 -0.45593999997E+02  0.45594000000E+02  0.51100000000E-03 0. -1.
    9900012    2    1    2    0    0  0.11433982065E+02 -0.11652103603E+02  0.37237859586E+02  0.50528860182E+02  0.30000001008E+02 0.  0.
         12    1    1    2    0    0 -0.11433982065E+02  0.11652103603E+02 -0.37237859586E+02  0.40659139818E+02  0.00000000000E+00 0. -1.
         11    1    3    3    0    0 -0.12001106821E+01 -0.39110911797E+01 -0.25580511954E+01  0.48249897455E+01  0.51100000000E-03 0. -1.
        -11    1    3    3    0    0  0.43922232109E+00 -0.10047937259E+02  0.18356841574E+02  0.20931497612E+02  0.51100000000E-03 0.  1.
         12    1    3    3    0    0  0.12194870426E+02  0.23069248361E+01  0.21439069207E+02  0.24772372825E+02  0.00000000000E+00 0. -1.
</event>
<event>
 7    1  0.2450552E-011  0.5052887E+02  0.7816164E-02  0.1300439E+00
        -11   -1    0    0    0    0  0.00000000000E+00  0.00000000000E+00  0.45593999997E+02  0.45594000000E+02  0.51100000000E-03 0.  1.
         11   -1    0    0    0    0 -0.00000000000E+00 -0.00000000000E+00 -0.45593999997E+02  0.45594000000E+02  0.51100000000E-03 0. -1.
    9900012    2    1    2    0    0 -0.23748643297E+02 -0.59040895872E+01  0.32470120288E+02  0.50528867645E+02  0.30000023695E+02 0.  0.
         12    1    1    2    0    0  0.23748643297E+02  0.59040895872E+01 -0.32470120288E+02  0.40659132355E+02  0.00000000000E+00 0. -1.
         11    1    3    3    0    0  0.20067219343E+01 -0.12261789057E+01  0.30221997191E+01  0.38293784135E+01  0.51100000000E-03 0. -1.
        -11    1    3    3    0    0 -0.13752380402E+02  0.77466591228E+01  0.46082534901E+01  0.16443074371E+02  0.51100000000E-03 0.  1.
        -12    1    3    3    0    0 -0.12002984829E+02 -0.12424569804E+02  0.24839667079E+02  0.30256414861E+02  0.00000000000E+00 0.  1.
</event>
<event>
 7    1  0.2450552E-011  0.5052887E+02  0.7816164E-02  0.1300439E+00
        -11   -1    0    0    0    0  0.00000000000E+00  0.00000000000E+00  0.45593999997E+02  0.45594000000E+02  0.51100000000E-03 0.  1.
         11   -1    0    0    0    0 -0.00000000000E+00 -0.00000000000E+00 -0.45593999997E+02  0.45594000000E+02  0.51100000000E-03 0. -1.
    9900012    2    1    2    0    0  0.11053193580E+01 -0.46712117109E+01  0.40374781258E+02  0.50528869275E+02  0.30000028647E+02 0.  0.
         12    1    1    2    0    0 -0.11053193580E+01  0.46712117109E+01 -0.40374781258E+02  0.40659130725E+02  0.00000000000E+00 0. -1.
         11    1    3    3    0    0 -0.10899198203E+01 -0.72323655104E+01  0.94563610009E+01  0.11954823283E+02  0.51100000000E-03 0. -1.
        -11    1    3    3    0    0 -0.53225929972E+01  0.72599882353E+01  0.33334453585E+01  0.95994418384E+01  0.51100000000E-03 0.  1.
         12    1    3    3    0    0  0.75178321755E+01 -0.46988344358E+01  0.27584974898E+02  0.28974604153E+02  0.00000000000E+00 0. -1.
</event>
<event>
 7    1  0.2450552E-011  0.5052886E+02  0.7816164E-02  0.1300439E+00
        -11   -1    0    0    0    0  0.00000000000E+00  0.00000000000E+00  0.45593999997E+02  0.45594000000E+02  0.51100000000E-03 0. -1.
         11   -1    0    0    0    0 -0.00000000000E+00 -0.00000000000E+00 -0.45593999997E+02  0.45594000000E+02  0.51100000000E-03 0.  1.
    9900012    2    1    2    0    0 -0.35525322630E+02  0.19391343192E+02 -0.38849600290E+01  0.50528860152E+02  0.30000000917E+02 0.  0.
         12    1    1    2    0    0  0.35525322630E+02 -0.19391343192E+02  0.38849600290E+01  0.40659139848E+02  0.00000000000E+00 0. -1.
         11    1    3    3    0    0 -0.17312022729E+02 -0.40067426333E+01 -0.22533531519E+01  0.17911943451E+02  0.51100000000E-03 0. -1.
        -11    1    3    3    0    0 -0.17677628397E+02  0.20801406187E+02  0.28116678377E+01  0.27442713449E+02  0.51100000000E-03 0.  1.
        -12    1    3    3    0    0 -0.53567150347E+00  0.25966796382E+01 -0.44432747148E+01  0.51742032521E+01  0.00000000000E+00 0.  1.
</event>
<event>
 7    1  0.2450552E-011  0.5052885E+02  0.7816164E-02  0.1300439E+00
        -11   -1    0    0    0    0  0.00000000000E+00  0.00000000000E+00  0.45593999997E+02  0.45594000000E+02  0.51100000000E-03 0. -1.
         11   -1    0    0    0    0 -0.00000000000E+00 -0.00000000000E+00 -0.45593999997E+02  0.45594000000E+02  0.51100000000E-03 0.  1.
    9900012    2    1    2    0    0 -0.27135688795E+02  0.29495167383E+02  0.68451485019E+01  0.50528848959E+02  0.29999966897E+02 0.  0.
         12    1    1    2    0    0  0.27135688795E+02 -0.29495167383E+02 -0.68451485019E+01  0.40659151041E+02  0.00000000000E+00 0. -1.
         11    1    3    3    0    0 -0.22210784588E+01 -0.10585090811E+01  0.41761933653E+01  0.48470838946E+01  0.51100000000E-03 0. -1.
        -11    1    3    3    0    0 -0.81951954155E+01  0.26997162820E+02 -0.86461398663E+00  0.28226859298E+02  0.51100000000E-03 0.  1.
         12    1    3    3    0    0 -0.16719414920E+02  0.35565136447E+01  0.35335691231E+01  0.17454905767E+02  0.00000000000E+00 0. -1.
</event>
<event>
 7    1  0.2450552E-011  0.5052886E+02  0.7816164E-02  0.1300439E+00
        -11   -1    0    0    0    0  0.00000000000E+00  0.00000000000E+00  0.45593999997E+02  0.45594000000E+02  0.51100000000E-03 0.  1.
         11   -1    0    0    0    0 -0.00000000000E+00 -0.00000000000E+00 -0.45593999997E+02  0.45594000000E+02  0.51100000000E-03 0. -1.
    9900012    2    1    2    0    0 -0.17807680110E+02  0.31859397486E+02  0.17917346934E+02  0.50528855884E+02  0.29999987946E+02 0.  0.
         12    1    1    2    0    0  0.17807680110E+02 -0.31859397486E+02 -0.17917346934E+02  0.40659144116E+02  0.00000000000E+00 0. -1.
         11    1    3    3    0    0 -0.15498987916E+02  0.21392868956E+02  0.17219227329E+02  0.31533716220E+02  0.51100000000E-03 0. -1.
        -11    1    3    3    0    0 -0.74691783603E+01  0.10013508841E+02 -0.27248374231E+01  0.12786075392E+02  0.51100000000E-03 0.  1.
         12    1    3    3    0    0  0.51604861667E+01  0.45301968861E+00  0.34229570280E+01  0.62090642717E+01  0.00000000000E+00 0. -1.
</event>
<event>
 7    1  0.2450552E-011  0.5052886E+02  0.7816164E-02  0.1300439E+00
        -11   -1    0    0    0    0  0.00000000000E+00  0.00000000000E+00  0.45593999997E+02  0.45594000000E+02  0.51100000000E-03 0. -1.
         11   -1    0    0    0    0 -0.00000000000E+00 -0.00000000000E+00 -0.45593999997E+02  0.45594000000E+02  0.51100000000E-03 0.  1.
    9900012    2    1    2    0    0  0.38133704925E+02  0.12503649705E+02  0.65302868008E+01  0.50528863843E+02  0.30000012139E+02 0.  0.
         12    1    1    2    0    0 -0.38133704925E+02 -0.12503649705E+02 -0.65302868008E+01  0.40659136157E+02  0.00000000000E+00 0. -1.
         11    1    3    3    0    0  0.27459577146E+02  0.16153706357E+02 -0.52124255802E+00  0.31862867105E+02  0.51100000000E-03 0. -1.
        -11    1    3    3    0    0 -0.53894598895E+00  0.33771786489E+01  0.36518264516E+01  0.50031625097E+01  0.51100000000E-03 0.  1.
        -12    1    3    3    0    0  0.11213073769E+02 -0.70272353003E+01  0.33997029072E+01  0.13662834229E+02  0.00000000000E+00 0.  1.
</event>
<event>
 7    1  0.2450552E-011  0.5052890E+02  0.7816164E-02  0.1300439E+00
        -11   -1    0    0    0    0  0.00000000000E+00  0.00000000000E+00  0.45593999997E+02  0.45594000000E+02  0.51100000000E-03 0.  1.
         11   -1    0    0    0    0 -0.00000000000E+00 -0.00000000000E+00 -0.45593999997E+02  0.45594000000E+02  0.51100000000E-03 0. -1.
    9900012    2    1    2    0    0 -0.30997540344E+02 -0.28322158617E+00  0.26310353043E+02  0.50528900169E+02  0.30000122554E+02 0.  0.
         12    1    1    2    0    0  0.30997540344E+02  0.28322158617E+00 -0.26310353043E+02  0.40659099831E+02  0.00000000000E+00 0. -1.
         11    1    3    3    0    0 -0.69606065477E+01  0.56667219296E+01  0.39983499434E+01  0.98259138746E+01  0.51100000000E-03 0. -1.
        -11    1    3    3    0    0  0.40006845440E+01  0.25487657904E+01  0.29664785749E+01  0.55947903688E+01  0.51100000000E-03 0.  1.
        -12    1    3    3    0    0 -0.28037618340E+02 -0.84987093062E+01  0.19345524524E+02  0.35108195926E+02  0.00000000000E+00 0.  1.
</event>
<event>
 7    1  0.2450552E-011  0.5052886E+02  0.7816164E-02  0.1300439E+00
        -11   -1    0    0    0    0  0.00000000000E+00  0.00000000000E+00  0.45593999997E+02  0.45594000000E+02  0.51100000000E-03 0.  1.
         11   -1    0    0    0    0 -0.00000000000E+00 -0.00000000000E+00 -0.45593999997E+02  0.45594000000E+02  0.51100000000E-03 0. -1.
    9900012    2    1    2    0    0 -0.46731503114E+01 -0.13597918862E+02  0.38031878766E+02  0.50528861622E+02  0.30000005385E+02 0.  0.
         12    1    1    2    0    0  0.46731503114E+01  0.13597918862E+02 -0.38031878766E+02  0.40659138378E+02  0.00000000000E+00 0. -1.
         11    1    3    3    0    0  0.51352049787E+00  0.30615313059E+01  0.53880248700E+01  0.62183188645E+01  0.51100000000E-03 0. -1.
        -11    1    3    3    0    0  0.53748101104E+01 -0.91534024454E+01  0.28953873405E+02  0.30838290248E+02  0.51100000000E-03 0.  1.
        -12    1    3    3    0    0 -0.10561480920E+02 -0.75060477228E+01  0.36899804912E+01  0.13472252509E+02  0.00000000000E+00 0.  1.
</event>
<event>
 7    1  0.2450552E-011  0.5052886E+02  0.7816164E-02  0.1300439E+00
        -11   -1    0    0    0    0  0.00000000000E+00  0.00000000000E+00  0.45593999997E+02  0.45594000000E+02  0.51100000000E-03 0.  1.
         11   -1    0    0    0    0 -0.00000000000E+00 -0.00000000000E+00 -0.45593999997E+02  0.45594000000E+02  0.51100000000E-03 0. -1.
    9900012    2    1    2    0    0 -0.28785776386E+02 -0.16103719819E+02  0.23774251435E+02  0.50528859018E+02  0.29999997470E+02 0.  0.
         12    1    1    2    0    0  0.28785776386E+02  0.16103719819E+02 -0.23774251435E+02  0.40659140982E+02  0.00000000000E+00 0. -1.
         11    1    3    3    0    0 -0.16074814326E+01  0.44855614872E+01 -0.84077391958E+00  0.48385079783E+01  0.51100000000E-03 0. -1.
        -11    1    3    3    0    0 -0.14977204913E+02 -0.83198446613E+00  0.12344242072E+02  0.19426507091E+02  0.51100000000E-03 0.  1.
        -12    1    3    3    0    0 -0.12201090040E+02 -0.19757296840E+02  0.12270783282E+02  0.26263843948E+02  0.00000000000E+00 0.  1.
</event>
<event>
 7    1  0.2450552E-011  0.5052888E+02  0.7816164E-02  0.1300439E+00
        -11   -1    0    0    0    0  0.00000000000E+00  0.00000000000E+00  0.45593999997E+02  0.45594000000E+02  0.51100000000E-03 0.  1.
         11   -1    0    0    0    0 -0.00000000000E+00 -0.00000000000E+00 -0.45593999997E+02  0.45594000000E+02  0.51100000000E-03 0. -1.
    9900012    2    1    2    0    0  0.19706960867E+02  0.29069170640E+02  0.20488598968E+02  0.50528884466E+02  0.30000074823E+02 0.  0.
         12    1    1    2    0    0 -0.19706960867E+02 -0.29069170640E+02 -0.20488598968E+02  0.40659115534E+02  0.00000000000E+00 0. -1.
         11    1    3    3    0    0 -0.47430872865E+01  0.27639401192E+01 -0.12559951045E+01  0.56314976653E+01  0.51100000000E-03 0. -1.
        -11    1    3    3    0    0  0.10754754321E+02  0.10561954638E+02  0.18364825103E+02  0.23758923115E+02  0.51100000000E-03 0.  1.
        -12    1    3    3    0    0  0.13695293833E+02  0.15743275883E+02  0.33797689692E+01  0.21138463685E+02  0.00000000000E+00 0.  1.
</event>
<event>
 7    1  0.2450552E-011  0.5052887E+02  0.7816164E-02  0.1300439E+00
        -11   -1    0    0    0    0  0.00000000000E+00  0.00000000000E+00  0.45593999997E+02  0.45594000000E+02  0.51100000000E-03 0. -1.
         11   -1    0    0    0    0 -0.00000000000E+00 -0.00000000000E+00 -0.45593999997E+02  0.45594000000E+02  0.51100000000E-03 0.  1.
    9900012    2    1    2    0    0  0.36317618696E+02 -0.98800944684E+01  0.15381129444E+02  0.50528870183E+02  0.30000031409E+02 0.  0.
         12    1    1    2    0    0 -0.36317618696E+02  0.98800944684E+01 -0.15381129444E+02  0.40659129817E+02  0.00000000000E+00 0. -1.
         11    1    3    3    0    0  0.14976042129E+02 -0.25074530478E+01  0.12874119390E+02  0.19907589230E+02  0.51100000000E-03 0. -1.
        -11    1    3    3    0    0  0.22277637462E+02 -0.12180008769E+02  0.69565206958E+00  0.25399403075E+02  0.51100000000E-03 0.  1.
        -12    1    3    3    0    0 -0.93606089494E+00  0.48073673487E+01  0.18113579849E+01  0.52218778781E+01  0.00000000000E+00 0.  1.
</event>
<event>
 7    1  0.2450552E-011  0.5052884E+02  0.7816164E-02  0.1300439E+00
        -11   -1    0    0    0    0  0.00000000000E+00  0.00000000000E+00  0.45593999997E+02  0.45594000000E+02  0.51100000000E-03 0. -1.
         11   -1    0    0    0    0 -0.00000000000E+00 -0.00000000000E+00 -0.45593999997E+02  0.45594000000E+02  0.51100000000E-03 0.  1.
    9900012    2    1    2    0    0  0.31023203496E+02 -0.68263507400E+01 -0.25379696497E+02  0.50528840960E+02  0.29999942581E+02 0.  0.
         12    1    1    2    0    0 -0.31023203496E+02  0.68263507400E+01  0.25379696497E+02  0.40659159040E+02  0.00000000000E+00 0. -1.
         11    1    3    3    0    0  0.83374946772E+01  0.55288055822E+01 -0.19334620301E+02  0.21769452246E+02  0.51100000000E-03 0. -1.
        -11    1    3    3    0    0  0.41096820973E+01 -0.62240598678E+01 -0.53619319746E+01  0.91857891844E+01  0.51100000000E-03 0.  1.
        -12    1    3    3    0    0  0.18576026722E+02 -0.61310964544E+01 -0.68314422130E+00  0.19573599529E+02  0.00000000000E+00 0.  1.
</event>
<event>
 7    1  0.2450552E-011  0.5052886E+02  0.7816164E-02  0.1300439E+00
        -11   -1    0    0    0    0  0.00000000000E+00  0.00000000000E+00  0.45593999997E+02  0.45594000000E+02  0.51100000000E-03 0.  1.
         11   -1    0    0    0    0 -0.00000000000E+00 -0.00000000000E+00 -0.45593999997E+02  0.45594000000E+02  0.51100000000E-03 0. -1.
    9900012    2    1    2    0    0 -0.69635243259E+01 -0.25113312243E+02  0.31208917412E+02  0.50528860205E+02  0.30000001079E+02 0.  0.
         12    1    1    2    0    0  0.69635243259E+01  0.25113312243E+02 -0.31208917412E+02  0.40659139795E+02  0.00000000000E+00 0. -1.
         11    1    3    3    0    0 -0.30282450096E+01 -0.14783908725E+02  0.61903623062E+01  0.16311186676E+02  0.51100000000E-03 0. -1.
        -11    1    3    3    0    0 -0.57293083642E+00 -0.14415129196E+02  0.25071730666E+02  0.28926041526E+02  0.51100000000E-03 0.  1.
         12    1    3    3    0    0 -0.33623484799E+01  0.40857256785E+01 -0.53175560530E-01  0.52916320035E+01  0.00000000000E+00 0. -1.
</event>
<event>
 7    1  0.2450552E-011  0.5052886E+02  0.7816164E-02  0.1300439E+00
        -11   -1    0    0    0    0  0.00000000000E+00  0.00000000000E+00  0.45593999997E+02  0.45594000000E+02  0.51100000000E-03 0.  1.
         11   -1    0    0    0    0 -0.00000000000E+00 -0.00000000000E+00 -0.45593999997E+02  0.45594000000E+02  0.51100000000E-03 0. -1.
    9900012    2    1    2    0    0  0.28356801210E+01  0.27926784831E+02  0.29414602957E+02  0.50528864989E+02  0.30000015619E+02 0.  0.
         12    1    1    2    0    0 -0.28356801210E+01 -0.27926784831E+02 -0.29414602957E+02  0.40659135011E+02  0.00000000000E+00 0. -1.
         11    1    3    3    0    0 -0.67430359517E+01  0.14692423374E+02  0.23936087460E+01  0.16342129651E+02  0.51100000000E-03 0. -1.
        -11    1    3    3    0    0  0.97544666329E+00  0.11480590128E+02  0.11065885712E+02  0.15975270662E+02  0.51100000000E-03 0.  1.
         12    1    3    3    0    0  0.86032694094E+01  0.17537713292E+01  0.15955108499E+02  0.18211464675E+02  0.00000000000E+00 0. -1.
</event>
<event>
 7    1  0.2450552E-011  0.5052886E+02  0.7816164E-02  0.1300439E+00
        -11   -1    0    0    0    0  0.00000000000E+00  0.00000000000E+00  0.45593999997E+02  0.45594000000E+02  0.51100000000E-03 0.  1.
         11   -1    0    0    0    0 -0.00000000000E+00 -0.00000000000E+00 -0.45593999997E+02  0.45594000000E+02  0.51100000000E-03 0. -1.
    9900012    2    1    2    0    0  0.34282439468E+02 -0.79945255970E+01  0.20346199722E+02  0.50528856643E+02  0.29999990252E+02 0.  0.
         12    1    1    2    0    0 -0.34282439468E+02  0.79945255970E+01 -0.20346199722E+02  0.40659143357E+02  0.00000000000E+00 0. -1.
         11    1    3    3    0    0  0.26805230151E+01 -0.14847113839E+01  0.87546148259E+01  0.92753896166E+01  0.51100000000E-03 0. -1.
        -11    1    3    3    0    0  0.30325423030E+02  0.19592889192E+01  0.58618360614E+01  0.30948848400E+02  0.51100000000E-03 0.  1.
         12    1    3    3    0    0  0.12764934232E+01 -0.84691031324E+01  0.57297488347E+01  0.10304618626E+02  0.00000000000E+00 0. -1.
</event>
<event>
 7    1  0.2450552E-011  0.5052886E+02  0.7816164E-02  0.1300439E+00
        -11   -1    0    0    0    0  0.00000000000E+00  0.00000000000E+00  0.45593999997E+02  0.45594000000E+02  0.51100000000E-03 0.  1.
         11   -1    0    0    0    0 -0.00000000000E+00 -0.00000000000E+00 -0.45593999997E+02  0.45594000000E+02  0.51100000000E-03 0. -1.
    9900012    2    1    2    0    0  0.19056012232E+02  0.34513884232E+02 -0.99411311248E+01  0.50528857178E+02  0.29999991880E+02 0.  0.
         12    1    1    2    0    0 -0.19056012232E+02 -0.34513884232E+02  0.99411311248E+01  0.40659142822E+02  0.00000000000E+00 0. -1.
         11    1    3    3    0    0  0.13502175133E+02  0.29932839040E+01 -0.73467604226E+01  0.15660248109E+02  0.51100000000E-03 0. -1.
        -11    1    3    3    0    0  0.33327762322E+01  0.96323358396E+01 -0.70865094183E+01  0.12414020587E+02  0.51100000000E-03 0.  1.
         12    1    3    3    0    0  0.22210608662E+01  0.21888264488E+02  0.44921387161E+01  0.22454588483E+02  0.00000000000E+00 0. -1.
</event>
<event>
 7    1  0.2450552E-011  0.5052886E+02  0.7816164E-02  0.1300439E+00
        -11   -1    0    0    0    0  0.00000000000E+00  0.00000000000E+00  0.45593999997E+02  0.45594000000E+02  0.51100000000E-03 0. -1.
         11   -1    0    0    0    0 -0.00000000000E+00 -0.00000000000E+00 -0.45593999997E+02  0.45594000000E+02  0.51100000000E-03 0.  1.
    9900012    2    1    2    0    0 -0.12717557079E+02  0.36096653756E+01 -0.38449963486E+02  0.50528860385E+02  0.30000001625E+02 0.  0.
         12    1    1    2    0    0  0.12717557079E+02 -0.36096653756E+01  0.38449963486E+02  0.40659139615E+02  0.00000000000E+00 0. -1.
         11    1    3    3    0    0 -0.11250420999E+02  0.42367886283E+01 -0.47191440956E+01  0.12914823723E+02  0.51100000000E-03 0. -1.
        -11    1    3    3    0    0 -0.30588123709E+00 -0.72240547251E+01 -0.70258808823E+01  0.10081841718E+02  0.51100000000E-03 0.  1.
        -12    1    3    3    0    0 -0.11612548424E+01  0.65969314724E+01 -0.26704938508E+02  0.27532194943E+02  0.00000000000E+00 0.  1.
</event>
<event>
 7    1  0.2450552E-011  0.5052886E+02  0.7816164E-02  0.1300439E+00
        -11   -1    0    0    0    0  0.00000000000E+00  0.00000000000E+00  0.45593999997E+02  0.45594000000E+02  0.51100000000E-03 0.  1.
         11   -1    0    0    0    0 -0.00000000000E+00 -0.00000000000E+00 -0.45593999997E+02  0.45594000000E+02  0.51100000000E-03 0. -1.
    9900012    2    1    2    0    0 -0.18491865468E+02 -0.32253197903E+02  0.16460485709E+02  0.50528862611E+02  0.30000008392E+02 0.  0.
         12    1    1    2    0    0  0.18491865468E+02  0.32253197903E+02 -0.16460485709E+02  0.40659137389E+02  0.00000000000E+00 0. -1.
         11    1    3    3    0    0  0.45524332863E+01 -0.17493245150E+02  0.23300855766E+01  0.18225464981E+02  0.51100000000E-03 0. -1.
        -11    1    3    3    0    0 -0.53269078400E+01 -0.87031986544E+01  0.35943162461E+01  0.10818536107E+02  0.51100000000E-03 0.  1.
         12    1    3    3    0    0 -0.17717390914E+02 -0.60567540981E+01  0.10536083887E+02  0.21484861523E+02  0.00000000000E+00 0. -1.
</event>
<event>
 7    1  0.2450552E-011  0.5052886E+02  0.7816164E-02  0.1300439E+00
        -11   -1    0    0    0    0  0.00000000000E+00  0.00000000000E+00  0.45593999997E+02  0.45594000000E+02  0.51100000000E-03 0.  1.
         11   -1    0    0    0    0 -0.00000000000E+00 -0.00000000000E+00 -0.45593999997E+02  0.45594000000E+02  0.51100000000E-03 0. -1.
    9900012    2    1    2    0    0 -0.46618849206E+01 -0.30023706497E+02  0.27018686502E+02  0.50528861506E+02  0.30000005033E+02 0.  0.
         12    1    1    2    0    0  0.46618849206E+01  0.30023706497E+02 -0.27018686502E+02  0.40659138494E+02  0.00000000000E+00 0. -1.
         11    1    3    3    0    0  0.16307421372E+00  0.65984015805E+00 -0.91112936984E+00  0.11367230195E+01  0.51100000000E-03 0. -1.
        -11    1    3    3    0    0  0.62451015717E+01 -0.22222125203E+02  0.26862608354E+02  0.35417846772E+02  0.51100000000E-03 0.  1.
        -12    1    3    3    0    0 -0.11070060706E+02 -0.84614214520E+01  0.10672075180E+01  0.13974291714E+02  0.00000000000E+00 0.  1.
</event>
<event>
 7    1  0.2450552E-011  0.5052886E+02  0.7816164E-02  0.1300439E+00
        -11   -1    0    0    0    0  0.00000000000E+00  0.00000000000E+00  0.45593999997E+02  0.45594000000E+02  0.51100000000E-03 0.  1.
         11   -1    0    0    0    0 -0.00000000000E+00 -0.00000000000E+00 -0.45593999997E+02  0.45594000000E+02  0.51100000000E-03 0. -1.
    9900012    2    1    2    0    0 -0.10315143379E+02 -0.13365671479E+02  0.36988137049E+02  0.50528860322E+02  0.30000001435E+02 0.  0.
         12    1    1    2    0    0  0.10315143379E+02  0.13365671479E+02 -0.36988137049E+02  0.40659139678E+02  0.00000000000E+00 0. -1.
         11    1    3    3    0    0  0.43429229083E+01 -0.12133981421E+02  0.18455141708E+02  0.22509703246E+02  0.51100000000E-03 0. -1.
        -11    1    3    3    0    0 -0.84323709124E+01 -0.80848501593E+01  0.91684045366E+01  0.14850229739E+02  0.51100000000E-03 0.  1.
         12    1    3    3    0    0 -0.62256953745E+01  0.68531601013E+01  0.93645908043E+01  0.13168927337E+02  0.00000000000E+00 0. -1.
</event>
<event>
 7    1  0.2450552E-011  0.5052886E+02  0.7816164E-02  0.1300439E+00
        -11   -1    0    0    0    0  0.00000000000E+00  0.00000000000E+00  0.45593999997E+02  0.45594000000E+02  0.51100000000E-03 0.  1.
         11   -1    0    0    0    0 -0.00000000000E+00 -0.00000000000E+00 -0.45593999997E+02  0.45594000000E+02  0.51100000000E-03 0. -1.
    9900012    2    1    2    0    0  0.83467214267E+01 -0.11427274170E+02  0.38117124949E+02  0.50528861201E+02  0.30000004107E+02 0.  0.
         12    1    1    2    0    0 -0.83467214267E+01  0.11427274170E+02 -0.38117124949E+02  0.40659138799E+02  0.00000000000E+00 0. -1.
         11    1    3    3    0    0  0.45943249062E-01  0.22094155019E+01  0.41882604272E+01  0.47355203842E+01  0.51100000000E-03 0. -1.
        -11    1    3    3    0    0  0.80262499312E+01  0.65285867722E+01  0.14303877709E+02  0.17653443035E+02  0.51100000000E-03 0.  1.
        -12    1    3    3    0    0  0.27452824651E+00 -0.20165276444E+02  0.19624986812E+02  0.28139897782E+02  0.00000000000E+00 0.  1.
</event>
<event>
 7    1  0.2450552E-011  0.5052885E+02  0.7816164E-02  0.1300439E+00
        -11   -1    0    0    0    0  0.00000000000E+00  0.00000000000E+00  0.45593999997E+02  0.45594000000E+02  0.51100000000E-03 0. -1.
         11   -1    0    0    0    0 -0.00000000000E+00 -0.00000000000E+00 -0.45593999997E+02  0.45594000000E+02  0.51100000000E-03 0.  1.
    9900012    2    1    2    0    0  0.35668100698E+02 -0.18361877838E+02 -0.66177489105E+01  0.50528848929E+02  0.29999966805E+02 0.  0.
         12    1    1    2    0    0 -0.35668100698E+02  0.18361877838E+02  0.66177489105E+01  0.40659151071E+02  0.00000000000E+00 0. -1.
         11    1    3    3    0    0  0.18315165431E+02 -0.79844007036E+01 -0.94648308182E+01  0.22108345982E+02  0.51100000000E-03 0. -1.
        -11    1    3    3    0    0 -0.10101585700E+01 -0.39439157480E+01 -0.58341454591E+01  0.71142213392E+01  0.51100000000E-03 0.  1.
         12    1    3    3    0    0  0.18363093837E+02 -0.64335613867E+01  0.86812273668E+01  0.21306281608E+02  0.00000000000E+00 0. -1.
</event>
<event>
 7    1  0.2450552E-011  0.5052887E+02  0.7816164E-02  0.1300439E+00
        -11   -1    0    0    0    0  0.00000000000E+00  0.00000000000E+00  0.45593999997E+02  0.45594000000E+02  0.51100000000E-03 0.  1.
         11   -1    0    0    0    0 -0.00000000000E+00 -0.00000000000E+00 -0.45593999997E+02  0.45594000000E+02  0.51100000000E-03 0. -1.
    9900012    2    1    2    0    0 -0.17628240572E+02 -0.17109136423E+02  0.32398875022E+02  0.50528874118E+02  0.30000043368E+02 0.  0.
         12    1    1    2    0    0  0.17628240572E+02  0.17109136423E+02 -0.32398875022E+02  0.40659125882E+02  0.00000000000E+00 0. -1.
         11    1    3    3    0    0 -0.11157247437E+01  0.45305964775E+01  0.21419185101E+01  0.51340979062E+01  0.51100000000E-03 0. -1.
        -11    1    3    3    0    0 -0.14108238475E+01 -0.54259338892E+01 -0.22613248444E+01  0.60452272755E+01  0.51100000000E-03 0.  1.
        -12    1    3    3    0    0 -0.15101691980E+02 -0.16213799012E+02  0.32518281357E+02  0.39349548936E+02  0.00000000000E+00 0.  1.
</event>
<event>
 7    1  0.2450552E-011  0.5052886E+02  0.7816164E-02  0.1300439E+00
        -11   -1    0    0    0    0  0.00000000000E+00  0.00000000000E+00  0.45593999997E+02  0.45594000000E+02  0.51100000000E-03 0.  1.
         11   -1    0    0    0    0 -0.00000000000E+00 -0.00000000000E+00 -0.45593999997E+02  0.45594000000E+02  0.51100000000E-03 0. -1.
    9900012    2    1    2    0    0  0.19650060757E+02 -0.34501803710E+02 -0.87559339152E+01  0.50528859260E+02  0.29999998206E+02 0.  0.
         12    1    1    2    0    0 -0.19650060757E+02  0.34501803710E+02  0.87559339152E+01  0.40659140740E+02  0.00000000000E+00 0. -1.
         11    1    3    3    0    0  0.21883929032E+01  0.11209120476E+01  0.15629290019E+01  0.29134609390E+01  0.51100000000E-03 0. -1.
        -11    1    3    3    0    0  0.23599751891E+02 -0.29873976490E+02 -0.82412887684E+01  0.38952812497E+02  0.51100000000E-03 0.  1.
         12    1    3    3    0    0 -0.61380840363E+01 -0.57487392677E+01 -0.20775741488E+01  0.86625858234E+01  0.00000000000E+00 0. -1.
</event>
<event>
 7    1  0.2450552E-011  0.5052886E+02  0.7816164E-02  0.1300439E+00
        -11   -1    0    0    0    0  0.00000000000E+00  0.00000000000E+00  0.45593999997E+02  0.45594000000E+02  0.51100000000E-03 0. -1.
         11   -1    0    0    0    0 -0.00000000000E+00 -0.00000000000E+00 -0.45593999997E+02  0.45594000000E+02  0.51100000000E-03 0.  1.
    9900012    2    1    2    0    0 -0.38602663114E+02  0.96559935635E+01 -0.83523413293E+01  0.50528863058E+02  0.30000009751E+02 0.  0.
         12    1    1    2    0    0  0.38602663114E+02 -0.96559935635E+01  0.83523413293E+01  0.40659136942E+02  0.00000000000E+00 0. -1.
         11    1    3    3    0    0 -0.39424997518E+01  0.25375553410E+01 -0.91251603453E+01  0.10259193096E+02  0.51100000000E-03 0. -1.
        -11    1    3    3    0    0 -0.25335884495E+02  0.83483494982E+00 -0.73557119638E+01  0.26395274033E+02  0.51100000000E-03 0.  1.
         12    1    3    3    0    0 -0.93242788670E+01  0.62836032727E+01  0.81285309798E+01  0.13874395928E+02  0.00000000000E+00 0. -1.
</event>
<event>
 7    1  0.2450552E-011  0.5052883E+02  0.7816164E-02  0.1300439E+00
        -11   -1    0    0    0    0  0.00000000000E+00  0.00000000000E+00  0.45593999997E+02  0.45594000000E+02  0.51100000000E-03 0.  1.
         11   -1    0    0    0    0 -0.00000000000E+00 -0.00000000000E+00 -0.45593999997E+02  0.45594000000E+02  0.51100000000E-03 0. -1.
    9900012    2    1    2    0    0  0.12200281884E+02 -0.38052583882E+02  0.75047960689E+01  0.50528831511E+02  0.29999913861E+02 0.  0.
         12    1    1    2    0    0 -0.12200281884E+02  0.38052583882E+02 -0.75047960689E+01  0.40659168489E+02  0.00000000000E+00 0. -1.
         11    1    3    3    0    0  0.73728966064E+01 -0.22213683584E+02  0.70841275630E+01  0.24453879167E+02  0.51100000000E-03 0. -1.
        -11    1    3    3    0    0  0.81165295100E+01 -0.51043665394E+01  0.80346324309E+01  0.12509513484E+02  0.51100000000E-03 0.  1.
         12    1    3    3    0    0 -0.32891442325E+01 -0.10734533759E+02 -0.76139639250E+01  0.13565438860E+02  0.00000000000E+00 0. -1.
</event>
<event>
 7    1  0.2450552E-011  0.5052887E+02  0.7816164E-02  0.1300439E+00
        -11   -1    0    0    0    0  0.00000000000E+00  0.00000000000E+00  0.45593999997E+02  0.45594000000E+02  0.51100000000E-03 0.  1.
         11   -1    0    0    0    0 -0.00000000000E+00 -0.00000000000E+00 -0.45593999997E+02  0.45594000000E+02  0.51100000000E-03 0. -1.
    9900012    2    1    2    0    0  0.64128809688E+01 -0.32848472697E+02  0.23087181179E+02  0.50528866516E+02  0.30000020263E+02 0.  0.
         12    1    1    2    0    0 -0.64128809688E+01  0.32848472697E+02 -0.23087181179E+02  0.40659133484E+02  0.00000000000E+00 0. -1.
         11    1    3    3    0    0  0.19459969379E+01  0.30526230569E+01 -0.34935012185E+01  0.50309007777E+01  0.51100000000E-03 0. -1.
        -11    1    3    3    0    0 -0.16740060697E+01 -0.10864886783E+02  0.98967822460E+01  0.14791699031E+02  0.51100000000E-03 0.  1.
        -12    1    3    3    0    0  0.61408901005E+01 -0.25036208971E+02  0.16683900151E+02  0.30706266708E+02  0.00000000000E+00 0.  1.
</event>
<event>
 7    1  0.2450552E-011  0.5052885E+02  0.7816164E-02  0.1300439E+00
        -11   -1    0    0    0    0  0.00000000000E+00  0.00000000000E+00  0.45593999997E+02  0.45594000000E+02  0.51100000000E-03 0.  1.
         11   -1    0    0    0    0 -0.00000000000E+00 -0.00000000000E+00 -0.45593999997E+02  0.45594000000E+02  0.51100000000E-03 0. -1.
    9900012    2    1    2    0    0  0.12987921296E+02 -0.11237340750E+01  0.38512565395E+02  0.50528848864E+02  0.29999966606E+02 0.  0.
         12    1    1    2    0    0 -0.12987921296E+02  0.11237340750E+01 -0.38512565395E+02  0.40659151136E+02  0.00000000000E+00 0. -1.
         11    1    3    3    0    0 -0.88213929306E+00  0.30735180107E+01  0.68479926333E+01  0.75577566818E+01  0.51100000000E-03 0. -1.
        -11    1    3    3    0    0  0.64126861350E+01  0.38202857229E+01  0.31125738276E+02  0.32008260027E+02  0.51100000000E-03 0.  1.
         12    1    3    3    0    0  0.74573744542E+01 -0.80175378085E+01  0.53883448567E+00  0.10962832155E+02  0.00000000000E+00 0. -1.
</event>
<event>
 7    1  0.2450552E-011  0.5052886E+02  0.7816164E-02  0.1300439E+00
        -11   -1    0    0    0    0  0.00000000000E+00  0.00000000000E+00  0.45593999997E+02  0.45594000000E+02  0.51100000000E-03 0. -1.
         11   -1    0    0    0    0 -0.00000000000E+00 -0.00000000000E+00 -0.45593999997E+02  0.45594000000E+02  0.51100000000E-03 0.  1.
    9900012    2    1    2    0    0 -0.72946141098E+01 -0.35876010082E+02 -0.17688025352E+02  0.50528859143E+02  0.29999997850E+02 0.  0.
         12    1    1    2    0    0  0.72946141098E+01  0.35876010082E+02  0.17688025352E+02  0.40659140857E+02  0.00000000000E+00 0. -1.
         11    1    3    3    0    0 -0.10292356813E+02 -0.69419092111E+01 -0.12522787564E+01  0.12477616544E+02  0.51100000000E-03 0.  1.
        -11    1    3    3    0    0  0.16831394393E+01  0.23874963918E+01 -0.85520986229E+00  0.30437610883E+01  0.51100000000E-03 0. -1.
        -12    1    3    3    0    0  0.13146032641E+01 -0.31321597263E+02 -0.15580536733E+02  0.35007481511E+02  0.00000000000E+00 0.  1.
</event>
<event>
 7    1  0.2450552E-011  0.5052886E+02  0.7816164E-02  0.1300439E+00
        -11   -1    0    0    0    0  0.00000000000E+00  0.00000000000E+00  0.45593999997E+02  0.45594000000E+02  0.51100000000E-03 0.  1.
         11   -1    0    0    0    0 -0.00000000000E+00 -0.00000000000E+00 -0.45593999997E+02  0.45594000000E+02  0.51100000000E-03 0. -1.
    9900012    2    1    2    0    0  0.62800638104E+01 -0.19578759433E+02  0.35077035529E+02  0.50528862725E+02  0.30000008740E+02 0.  0.
         12    1    1    2    0    0 -0.62800638104E+01  0.19578759433E+02 -0.35077035529E+02  0.40659137275E+02  0.00000000000E+00 0. -1.
         11    1    3    3    0    0 -0.62981344824E+01  0.40296783452E+00  0.47173683848E+00  0.63286188809E+01  0.51100000000E-03 0. -1.
        -11    1    3    3    0    0  0.26221228243E+01 -0.36292511488E+01  0.18943017519E+02  0.19464966093E+02  0.51100000000E-03 0.  1.
         12    1    3    3    0    0  0.99560754685E+01 -0.16352476119E+02  0.15662281171E+02  0.24735277752E+02  0.00000000000E+00 0. -1.
</event>
<event>
 7    1  0.2450552E-011  0.5052885E+02  0.7816164E-02  0.1300439E+00
        -11   -1    0    0    0    0  0.00000000000E+00  0.00000000000E+00  0.45593999997E+02  0.45594000000E+02  0.51100000000E-03 0.  1.
         11   -1    0    0    0    0 -0.00000000000E+00 -0.00000000000E+00 -0.45593999997E+02  0.45594000000E+02  0.51100000000E-03 0. -1.
    9900012    2    1    2    0    0 -0.23285528930E+02  0.80355594782E+00  0.33321236043E+02  0.50528851815E+02  0.29999975577E+02 0.  0.
         12    1    1    2    0    0  0.23285528930E+02 -0.80355594782E+00 -0.33321236043E+02  0.40659148185E+02  0.00000000000E+00 0. -1.
         11    1    3    3    0    0 -0.17326427567E+02 -0.22383634388E+01  0.19895115185E+02  0.26476989474E+02  0.51100000000E-03 0. -1.
        -11    1    3    3    0    0  0.53494448490E+01 -0.54471735658E+00  0.10554948063E+02  0.11845683014E+02  0.51100000000E-03 0.  1.
         12    1    3    3    0    0 -0.11308546212E+02  0.35866367432E+01  0.28711727946E+01  0.12206179327E+02  0.00000000000E+00 0. -1.
</event>
<event>
 7    1  0.2450552E-011  0.5052886E+02  0.7816164E-02  0.1300439E+00
        -11   -1    0    0    0    0  0.00000000000E+00  0.00000000000E+00  0.45593999997E+02  0.45594000000E+02  0.51100000000E-03 0. -1.
         11   -1    0    0    0    0 -0.00000000000E+00 -0.00000000000E+00 -0.45593999997E+02  0.45594000000E+02  0.51100000000E-03 0.  1.
    9900012    2    1    2    0    0 -0.29218649775E+02  0.19707908181E+02  0.20273984516E+02  0.50528860957E+02  0.30000003365E+02 0.  0.
         12    1    1    2    0    0  0.29218649775E+02 -0.19707908181E+02 -0.20273984516E+02  0.40659139043E+02  0.00000000000E+00 0. -1.
         11    1    3    3    0    0  0.13914334248E+01  0.11960245609E+01 -0.24833055969E+01  0.30876153702E+01  0.51100000000E-03 0. -1.
        -11    1    3    3    0    0  0.22957732189E+01  0.54475353890E+01  0.13355148275E+01  0.60605128993E+01  0.51100000000E-03 0.  1.
        -12    1    3    3    0    0 -0.32905856419E+02  0.13064348231E+02  0.21421775285E+02  0.41380732687E+02  0.00000000000E+00 0.  1.
</event>
<event>
 7    1  0.2450552E-011  0.5052886E+02  0.7816164E-02  0.1300439E+00
        -11   -1    0    0    0    0  0.00000000000E+00  0.00000000000E+00  0.45593999997E+02  0.45594000000E+02  0.51100000000E-03 0.  1.
         11   -1    0    0    0    0 -0.00000000000E+00 -0.00000000000E+00 -0.45593999997E+02  0.45594000000E+02  0.51100000000E-03 0. -1.
    9900012    2    1    2    0    0  0.40388641231E+01  0.33868641710E+02  0.22130702660E+02  0.50528864312E+02  0.30000013563E+02 0.  0.
         12    1    1    2    0    0 -0.40388641231E+01 -0.33868641710E+02 -0.22130702660E+02  0.40659135688E+02  0.00000000000E+00 0. -1.
         11    1    3    3    0    0  0.27193504795E+01  0.36132465263E+02  0.21072119335E+02  0.41916394484E+02  0.51100000000E-03 0.  1.
        -11    1    3    3    0    0  0.53867687973E+00  0.47293810604E+00  0.42652193923E+01  0.43250364112E+01  0.51100000000E-03 0. -1.
        -12    1    3    3    0    0  0.78083676384E+00 -0.27367616597E+01 -0.32066360670E+01  0.42874334164E+01  0.00000000000E+00 0.  1.
</event>
<event>
 7    1  0.2450552E-011  0.5052891E+02  0.7816164E-02  0.1300439E+00
        -11   -1    0    0    0    0  0.00000000000E+00  0.00000000000E+00  0.45593999997E+02  0.45594000000E+02  0.51100000000E-03 0.  1.
         11   -1    0    0    0    0 -0.00000000000E+00 -0.00000000000E+00 -0.45593999997E+02  0.45594000000E+02  0.51100000000E-03 0. -1.
    9900012    2    1    2    0    0  0.61725955653E+01  0.43783191988E+01  0.39948600383E+02  0.50528913837E+02  0.30000164099E+02 0.  0.
         12    1    1    2    0    0 -0.61725955653E+01 -0.43783191988E+01 -0.39948600383E+02  0.40659086163E+02  0.00000000000E+00 0. -1.
         11    1    3    3    0    0 -0.23828236378E+01  0.71799310646E+01  0.11576952449E+02  0.13829500600E+02  0.51100000000E-03 0. -1.
        -11    1    3    3    0    0  0.67874471540E+00 -0.76722172389E+01  0.95531444579E+00  0.77612007899E+01  0.51100000000E-03 0.  1.
        -12    1    3    3    0    0  0.78766744876E+01  0.48706053731E+01  0.27416333488E+02  0.28938212447E+02  0.00000000000E+00 0.  1.
</event>
<event>
 7    1  0.2450552E-011  0.5052885E+02  0.7816164E-02  0.1300439E+00
        -11   -1    0    0    0    0  0.00000000000E+00  0.00000000000E+00  0.45593999997E+02  0.45594000000E+02  0.51100000000E-03 0. -1.
         11   -1    0    0    0    0 -0.00000000000E+00 -0.00000000000E+00 -0.45593999997E+02  0.45594000000E+02  0.51100000000E-03 0.  1.
    9900012    2    1    2    0    0  0.31499280598E+01 -0.13548744031E+02 -0.38205701193E+02  0.50528854470E+02  0.29999983647E+02 0.  0.
         12    1    1    2    0    0 -0.31499280598E+01  0.13548744031E+02  0.38205701193E+02  0.40659145530E+02  0.00000000000E+00 0. -1.
         11    1    3    3    0    0  0.24624601391E+01 -0.70532541459E+00  0.34596134384E+01  0.43046625049E+01  0.51100000000E-03 0. -1.
        -11    1    3    3    0    0  0.78456609148E+01 -0.60026920613E+01 -0.17262911837E+02  0.19889565921E+02  0.51100000000E-03 0.  1.
         12    1    3    3    0    0 -0.71581929940E+01 -0.68407265549E+01 -0.24402402795E+02  0.26334626044E+02  0.00000000000E+00 0. -1.
</event>
<event>
 7    1  0.2450552E-011  0.5052887E+02  0.7816164E-02  0.1300439E+00
        -11   -1    0    0    0    0  0.00000000000E+00  0.00000000000E+00  0.45593999997E+02  0.45594000000E+02  0.51100000000E-03 0.  1.
         11   -1    0    0    0    0 -0.00000000000E+00 -0.00000000000E+00 -0.45593999997E+02  0.45594000000E+02  0.51100000000E-03 0. -1.
    9900012    2    1    2    0    0  0.13165719071E+02 -0.47544626343E+01  0.38173602553E+02  0.50528868117E+02  0.30000025128E+02 0.  0.
         12    1    1    2    0    0 -0.13165719071E+02  0.47544626343E+01 -0.38173602553E+02  0.40659131883E+02  0.00000000000E+00 0. -1.
         11    1    3    3    0    0  0.50047104876E+01  0.97350042173E+01  0.11609094745E+02  0.15955830133E+02  0.51100000000E-03 0. -1.
        -11    1    3    3    0    0  0.25053823617E+01  0.29050487317E+01  0.45298646126E+01  0.59359853926E+01  0.51100000000E-03 0.  1.
         12    1    3    3    0    0  0.56556262221E+01 -0.17394515583E+02  0.22034643196E+02  0.28637052591E+02  0.00000000000E+00 0. -1.
</event>
<event>
 7    1  0.2450552E-011  0.5052886E+02  0.7816164E-02  0.1300439E+00
        -11   -1    0    0    0    0  0.00000000000E+00  0.00000000000E+00  0.45593999997E+02  0.45594000000E+02  0.51100000000E-03 0.  1.
         11   -1    0    0    0    0 -0.00000000000E+00 -0.00000000000E+00 -0.45593999997E+02  0.45594000000E+02  0.51100000000E-03 0. -1.
    9900012    2    1    2    0    0  0.19182071552E+02  0.35171983494E+02 -0.69386852944E+01  0.50528860246E+02  0.30000001204E+02 0.  0.
         12    1    1    2    0    0 -0.19182071552E+02 -0.35171983494E+02  0.69386852944E+01  0.40659139754E+02  0.00000000000E+00 0. -1.
         11    1    3    3    0    0  0.18926107553E+02  0.74584400637E+01 -0.86579298651E+01  0.22108496672E+02  0.51100000000E-03 0. -1.
        -11    1    3    3    0    0 -0.14188531082E+01  0.41637289594E+01  0.19458023498E+01  0.48099823322E+01  0.51100000000E-03 0.  1.
        -12    1    3    3    0    0  0.16748171069E+01  0.23549814471E+02 -0.22655777914E+00  0.23610381242E+02  0.00000000000E+00 0.  1.
</event>
<event>
 7    1  0.2450552E-011  0.5052886E+02  0.7816164E-02  0.1300439E+00
        -11   -1    0    0    0    0  0.00000000000E+00  0.00000000000E+00  0.45593999997E+02  0.45594000000E+02  0.51100000000E-03 0.  1.
         11   -1    0    0    0    0 -0.00000000000E+00 -0.00000000000E+00 -0.45593999997E+02  0.45594000000E+02  0.51100000000E-03 0. -1.
    9900012    2    1    2    0    0  0.36518699588E+02  0.43169504263E+01 -0.17346888605E+02  0.50528855581E+02  0.29999987024E+02 0.  0.
         12    1    1    2    0    0 -0.36518699588E+02 -0.43169504263E+01  0.17346888605E+02  0.40659144419E+02  0.00000000000E+00 0. -1.
         11    1    3    3    0    0 -0.16396354516E+01  0.55575145666E+01 -0.24478746705E+01  0.62901878538E+01  0.51100000000E-03 0. -1.
        -11    1    3    3    0    0  0.25979975634E+02  0.44298762726E+01 -0.34342104114E+01  0.26577748948E+02  0.51100000000E-03 0.  1.
         12    1    3    3    0    0  0.12178359406E+02 -0.56704404130E+01 -0.11464803523E+02  0.17660918779E+02  0.00000000000E+00 0. -1.
</event>
<event>
 7    1  0.2450552E-011  0.5052885E+02  0.7816164E-02  0.1300439E+00
        -11   -1    0    0    0    0  0.00000000000E+00  0.00000000000E+00  0.45593999997E+02  0.45594000000E+02  0.51100000000E-03 0.  1.
         11   -1    0    0    0    0 -0.00000000000E+00 -0.00000000000E+00 -0.45593999997E+02  0.45594000000E+02  0.51100000000E-03 0. -1.
    9900012    2    1    2    0    0 -0.91951368771E+00 -0.24851737087E+02  0.32166937509E+02  0.50528853300E+02  0.29999980090E+02 0.  0.
         12    1    1    2    0    0  0.91951368771E+00  0.24851737087E+02 -0.32166937509E+02  0.40659146700E+02  0.00000000000E+00 0. -1.
         11    1    3    3    0    0  0.51070984870E+01 -0.14841230460E+02  0.90250820335E+01  0.18105156241E+02  0.51100000000E-03 0.  1.
        -11    1    3    3    0    0 -0.99574554800E+01 -0.89741146342E+01  0.57894692274E+01  0.14601493324E+02  0.51100000000E-03 0. -1.
         12    1    3    3    0    0  0.39308433053E+01 -0.10363919926E+01  0.17352386248E+02  0.17822203735E+02  0.00000000000E+00 0. -1.
</event>
<event>
 7    1  0.2450552E-011  0.5052886E+02  0.7816164E-02  0.1300439E+00
        -11   -1    0    0    0    0  0.00000000000E+00  0.00000000000E+00  0.45593999997E+02  0.45594000000E+02  0.51100000000E-03 0.  1.
         11   -1    0    0    0    0 -0.00000000000E+00 -0.00000000000E+00 -0.45593999997E+02  0.45594000000E+02  0.51100000000E-03 0. -1.
    9900012    2    1    2    0    0 -0.35591525874E+02  0.18305229208E+02 -0.71643334697E+01  0.50528858292E+02  0.29999995265E+02 0.  0.
         12    1    1    2    0    0  0.35591525874E+02 -0.18305229208E+02  0.71643334697E+01  0.40659141708E+02  0.00000000000E+00 0. -1.
         11    1    3    3    0    0  0.16666977009E+00  0.12575483664E+02 -0.25846071701E+01  0.12839422210E+02  0.51100000000E-03 0. -1.
        -11    1    3    3    0    0 -0.93377860294E+01  0.57457252168E+01 -0.19818821421E+01  0.11141609546E+02  0.51100000000E-03 0.  1.
         12    1    3    3    0    0 -0.26420409614E+02 -0.15979673028E-01 -0.25978441575E+01  0.26547826536E+02  0.00000000000E+00 0. -1.
</event>
<event>
 7    1  0.2450552E-011  0.5052886E+02  0.7816164E-02  0.1300439E+00
        -11   -1    0    0    0    0  0.00000000000E+00  0.00000000000E+00  0.45593999997E+02  0.45594000000E+02  0.51100000000E-03 0. -1.
         11   -1    0    0    0    0 -0.00000000000E+00 -0.00000000000E+00 -0.45593999997E+02  0.45594000000E+02  0.51100000000E-03 0.  1.
    9900012    2    1    2    0    0  0.33233778111E+02  0.12307868461E+01 -0.23391599968E+02  0.50528858434E+02  0.29999995696E+02 0.  0.
         12    1    1    2    0    0 -0.33233778111E+02 -0.12307868461E+01  0.23391599968E+02  0.40659141566E+02  0.00000000000E+00 0. -1.
         11    1    3    3    0    0 -0.30252203679E+00 -0.49148029079E+01 -0.31684517773E+01  0.58554157950E+01  0.51100000000E-03 0. -1.
        -11    1    3    3    0    0  0.31634178920E+02 -0.48894473124E+00 -0.20613185036E+02  0.37760610966E+02  0.51100000000E-03 0.  1.
         12    1    3    3    0    0  0.19021212276E+01  0.66345344852E+01  0.39003684558E+00  0.69128316732E+01  0.00000000000E+00 0. -1.
</event>
<event>
 7    1  0.2450552E-011  0.5052884E+02  0.7816164E-02  0.1300439E+00
        -11   -1    0    0    0    0  0.00000000000E+00  0.00000000000E+00  0.45593999997E+02  0.45594000000E+02  0.51100000000E-03 0. -1.
         11   -1    0    0    0    0 -0.00000000000E+00 -0.00000000000E+00 -0.45593999997E+02  0.45594000000E+02  0.51100000000E-03 0.  1.
    9900012    2    1    2    0    0 -0.28159021308E+02 -0.16590878375E+02 -0.24186344076E+02  0.50528844007E+02  0.29999951843E+02 0.  0.
         12    1    1    2    0    0  0.28159021308E+02  0.16590878375E+02  0.24186344076E+02  0.40659155993E+02  0.00000000000E+00 0. -1.
         11    1    3    3    0    0 -0.11893729704E+01 -0.13731785004E+01  0.62200666915E+01  0.64799272499E+01  0.51100000000E-03 0. -1.
        -11    1    3    3    0    0 -0.45666617968E+01 -0.66143014173E+00 -0.77470837322E+01  0.90171612170E+01  0.51100000000E-03 0.  1.
        -12    1    3    3    0    0 -0.22402986541E+02 -0.14556269733E+02 -0.22659327036E+02  0.35031755540E+02  0.00000000000E+00 0.  1.
</event>
<event>
 7    1  0.2450552E-011  0.5052898E+02  0.7816164E-02  0.1300438E+00
        -11   -1    0    0    0    0  0.00000000000E+00  0.00000000000E+00  0.45593999997E+02  0.45594000000E+02  0.51100000000E-03 0.  1.
         11   -1    0    0    0    0 -0.00000000000E+00 -0.00000000000E+00 -0.45593999997E+02  0.45594000000E+02  0.51100000000E-03 0. -1.
    9900012    2    1    2    0    0  0.26406969991E+02  0.27107779047E+02  0.14865937879E+02  0.50528980607E+02  0.30000367051E+02 0.  0.
         12    1    1    2    0    0 -0.26406969991E+02 -0.27107779047E+02 -0.14865937879E+02  0.40659019393E+02  0.00000000000E+00 0. -1.
         11    1    3    3    0    0 -0.68426474231E+00 -0.16431197281E+01 -0.31021574652E+01  0.35765125301E+01  0.51100000000E-03 0. -1.
        -11    1    3    3    0    0  0.97226360691E+01  0.19641002005E+02  0.16213836750E+02  0.27261458404E+02  0.51100000000E-03 0.  1.
         12    1    3    3    0    0  0.17368598664E+02  0.91098967701E+01  0.17542585943E+01  0.19691009673E+02  0.00000000000E+00 0. -1.
</event>
<event>
 7    1  0.2450552E-011  0.5052882E+02  0.7816164E-02  0.1300439E+00
        -11   -1    0    0    0    0  0.00000000000E+00  0.00000000000E+00  0.45593999997E+02  0.45594000000E+02  0.51100000000E-03 0.  1.
         11   -1    0    0    0    0 -0.00000000000E+00 -0.00000000000E+00 -0.45593999997E+02  0.45594000000E+02  0.51100000000E-03 0. -1.
    9900012    2    1    2    0    0  0.21120065661E+01  0.35465948437E+02  0.19770552315E+02  0.50528821342E+02  0.29999882951E+02 0.  0.
         12    1    1    2    0    0 -0.21120065661E+01 -0.35465948437E+02 -0.19770552315E+02  0.40659178658E+02  0.00000000000E+00 0. -1.
         11    1    3    3    0    0 -0.52995402674E+01  0.16094346701E+02  0.10190408964E+02  0.19772646709E+02  0.51100000000E-03 0. -1.
        -11    1    3    3    0    0 -0.11158722089E+01  0.16410206840E+02 -0.14397651711E+01  0.16510995831E+02  0.51100000000E-03 0.  1.
        -12    1    3    3    0    0  0.85274190424E+01  0.29613948966E+01  0.11019908522E+02  0.14245178802E+02  0.00000000000E+00 0.  1.
</event>
<event>
 7    1  0.2450552E-011  0.5052887E+02  0.7816164E-02  0.1300439E+00
        -11   -1    0    0    0    0  0.00000000000E+00  0.00000000000E+00  0.45593999997E+02  0.45594000000E+02  0.51100000000E-03 0.  1.
         11   -1    0    0    0    0 -0.00000000000E+00 -0.00000000000E+00 -0.45593999997E+02  0.45594000000E+02  0.51100000000E-03 0. -1.
    9900012    2    1    2    0    0 -0.37175758557E+02  0.10314531628E+02  0.12835032686E+02  0.50528872475E+02  0.30000038376E+02 0.  0.
         12    1    1    2    0    0  0.37175758557E+02 -0.10314531628E+02 -0.12835032686E+02  0.40659127525E+02  0.00000000000E+00 0. -1.
         11    1    3    3    0    0 -0.80291168171E+01  0.19841848916E+01  0.13940493811E+02  0.16209289760E+02  0.51100000000E-03 0. -1.
        -11    1    3    3    0    0 -0.70062953498E+01 -0.36117700836E+01 -0.42715207168E+01  0.89654306735E+01  0.51100000000E-03 0.  1.
        -12    1    3    3    0    0 -0.22140346390E+02  0.11942116820E+02  0.31660595919E+01  0.25354152042E+02  0.00000000000E+00 0.  1.
</event>
<event>
 7    1  0.2450552E-011  0.5052886E+02  0.7816164E-02  0.1300439E+00
        -11   -1    0    0    0    0  0.00000000000E+00  0.00000000000E+00  0.45593999997E+02  0.45594000000E+02  0.51100000000E-03 0.  1.
         11   -1    0    0    0    0 -0.00000000000E+00 -0.00000000000E+00 -0.45593999997E+02  0.45594000000E+02  0.51100000000E-03 0. -1.
    9900012    2    1    2    0    0 -0.19205394190E+02 -0.27825051888E+02  0.22585062138E+02  0.50528859448E+02  0.29999998780E+02 0.  0.
         12    1    1    2    0    0  0.19205394190E+02  0.27825051888E+02 -0.22585062138E+02  0.40659140552E+02  0.00000000000E+00 0. -1.
         11    1    3    3    0    0 -0.19251107352E+02 -0.12227868161E+02  0.71075043903E+01  0.23888124936E+02  0.51100000000E-03 0. -1.
        -11    1    3    3    0    0 -0.54987722587E+01 -0.13583587544E+02  0.14583876520E+02  0.20674617325E+02  0.51100000000E-03 0.  1.
         12    1    3    3    0    0  0.55444854201E+01 -0.20135961829E+01  0.89368122850E+00  0.59661171879E+01  0.00000000000E+00 0. -1.
</event>
<event>
 7    1  0.2450552E-011  0.5052888E+02  0.7816164E-02  0.1300439E+00
        -11   -1    0    0    0    0  0.00000000000E+00  0.00000000000E+00  0.45593999997E+02  0.45594000000E+02  0.51100000000E-03 0.  1.
         11   -1    0    0    0    0 -0.00000000000E+00 -0.00000000000E+00 -0.45593999997E+02  0.45594000000E+02  0.51100000000E-03 0. -1.
    9900012    2    1    2    0    0 -0.80373113912E+01 -0.28756928907E+02  0.27597179661E+02  0.50528884665E+02  0.30000075429E+02 0.  0.
         12    1    1    2    0    0  0.80373113912E+01  0.28756928907E+02 -0.27597179661E+02  0.40659115335E+02  0.00000000000E+00 0. -1.
         11    1    3    3    0    0 -0.71376062162E+01 -0.23931226407E+02  0.21643048004E+02  0.33046490691E+02  0.51100000000E-03 0. -1.
        -11    1    3    3    0    0 -0.45651988816E+01 -0.90371135996E+01  0.12884900516E+01  0.10206403378E+02  0.51100000000E-03 0.  1.
        -12    1    3    3    0    0  0.36654937066E+01  0.42114110997E+01  0.46656416061E+01  0.72759905965E+01  0.00000000000E+00 0.  1.
</event>
<event>
 7    1  0.2450552E-011  0.5052885E+02  0.7816164E-02  0.1300439E+00
        -11   -1    0    0    0    0  0.00000000000E+00  0.00000000000E+00  0.45593999997E+02  0.45594000000E+02  0.51100000000E-03 0. -1.
         11   -1    0    0    0    0 -0.00000000000E+00 -0.00000000000E+00 -0.45593999997E+02  0.45594000000E+02  0.51100000000E-03 0.  1.
    9900012    2    1    2    0    0  0.40239376074E+02  0.47117407723E+01  0.34290288769E+01  0.50528854326E+02  0.29999983209E+02 0.  0.
         12    1    1    2    0    0 -0.40239376074E+02 -0.47117407723E+01 -0.34290288769E+01  0.40659145674E+02  0.00000000000E+00 0. -1.
         11    1    3    3    0    0  0.13193390707E+02  0.84205743216E+01  0.50853910393E+01  0.16456999500E+02  0.51100000000E-03 0.  1.
        -11    1    3    3    0    0  0.17791447463E+02 -0.33135939292E+01  0.87824173946E+01  0.20115823700E+02  0.51100000000E-03 0. -1.
        -12    1    3    3    0    0  0.92545379031E+01 -0.39523962002E+00 -0.10438779557E+02  0.13956031126E+02  0.00000000000E+00 0.  1.
</event>
<event>
 7    1  0.2450552E-011  0.5052887E+02  0.7816164E-02  0.1300439E+00
        -11   -1    0    0    0    0  0.00000000000E+00  0.00000000000E+00  0.45593999997E+02  0.45594000000E+02  0.51100000000E-03 0.  1.
         11   -1    0    0    0    0 -0.00000000000E+00 -0.00000000000E+00 -0.45593999997E+02  0.45594000000E+02  0.51100000000E-03 0. -1.
    9900012    2    1    2    0    0  0.31352886046E+02 -0.19363023598E+02  0.17182401453E+02  0.50528867374E+02  0.30000022869E+02 0.  0.
         12    1    1    2    0    0 -0.31352886046E+02  0.19363023598E+02 -0.17182401453E+02  0.40659132626E+02  0.00000000000E+00 0. -1.
         11    1    3    3    0    0  0.66108914478E+01  0.62511715269E+01  0.90586166739E+00  0.91433919753E+01  0.51100000000E-03 0. -1.
        -11    1    3    3    0    0  0.10908913093E+02 -0.26468594181E+01  0.53092443524E+01  0.12417661837E+02  0.51100000000E-03 0.  1.
         12    1    3    3    0    0  0.13833081505E+02 -0.22967335707E+02  0.10967295433E+02  0.28967813561E+02  0.00000000000E+00 0. -1.
</event>
<event>
 7    1  0.2450552E-011  0.5052887E+02  0.7816164E-02  0.1300439E+00
        -11   -1    0    0    0    0  0.00000000000E+00  0.00000000000E+00  0.45593999997E+02  0.45594000000E+02  0.51100000000E-03 0.  1.
         11   -1    0    0    0    0 -0.00000000000E+00 -0.00000000000E+00 -0.45593999997E+02  0.45594000000E+02  0.51100000000E-03 0. -1.
    9900012    2    1    2    0    0 -0.12125531373E+02 -0.22437096407E+02  0.31665650894E+02  0.50528865076E+02  0.30000015884E+02 0.  0.
         12    1    1    2    0    0  0.12125531373E+02  0.22437096407E+02 -0.31665650894E+02  0.40659134924E+02  0.00000000000E+00 0. -1.
         11    1    3    3    0    0  0.20685119832E+01 -0.74396071015E+01  0.17163378567E+02  0.18820416036E+02  0.51100000000E-03 0. -1.
        -11    1    3    3    0    0 -0.26262482700E+01 -0.16262135381E+02  0.72568625154E+01  0.18000452243E+02  0.51100000000E-03 0.  1.
        -12    1    3    3    0    0 -0.11567795086E+02  0.12646460754E+01  0.72454098111E+01  0.13707996797E+02  0.00000000000E+00 0.  1.
</event>
<event>
 7    1  0.2450552E-011  0.5052886E+02  0.7816164E-02  0.1300439E+00
        -11   -1    0    0    0    0  0.00000000000E+00  0.00000000000E+00  0.45593999997E+02  0.45594000000E+02  0.51100000000E-03 0.  1.
         11   -1    0    0    0    0 -0.00000000000E+00 -0.00000000000E+00 -0.45593999997E+02  0.45594000000E+02  0.51100000000E-03 0. -1.
    9900012    2    1    2    0    0  0.15712184365E+02 -0.32837080355E+02  0.18111290125E+02  0.50528863096E+02  0.30000009867E+02 0.  0.
         12    1    1    2    0    0 -0.15712184365E+02  0.32837080355E+02 -0.18111290125E+02  0.40659136904E+02  0.00000000000E+00 0. -1.
         11    1    3    3    0    0  0.43590075241E+01 -0.13152858758E+02  0.51349758688E+01  0.14777233081E+02  0.51100000000E-03 0. -1.
        -11    1    3    3    0    0 -0.61904520336E+01 -0.42062818076E+01 -0.22769912278E+01  0.78229912653E+01  0.51100000000E-03 0.  1.
         12    1    3    3    0    0  0.17543628874E+02 -0.15477939789E+02  0.15253305484E+02  0.27928638749E+02  0.00000000000E+00 0. -1.
</event>
<event>
 7    1  0.2450552E-011  0.5052879E+02  0.7816164E-02  0.1300439E+00
        -11   -1    0    0    0    0  0.00000000000E+00  0.00000000000E+00  0.45593999997E+02  0.45594000000E+02  0.51100000000E-03 0. -1.
         11   -1    0    0    0    0 -0.00000000000E+00 -0.00000000000E+00 -0.45593999997E+02  0.45594000000E+02  0.51100000000E-03 0.  1.
    9900012    2    1    2    0    0 -0.24134817151E+02  0.21358491506E+01 -0.32651488783E+02  0.50528794767E+02  0.29999802172E+02 0.  0.
         12    1    1    2    0    0  0.24134817151E+02 -0.21358491506E+01  0.32651488783E+02  0.40659205233E+02  0.00000000000E+00 0. -1.
         11    1    3    3    0    0 -0.13513937085E+02  0.49417679595E+01 -0.51152080507E+01  0.15271310349E+02  0.51100000000E-03 0. -1.
        -11    1    3    3    0    0  0.37729153220E+01 -0.22850205215E+01 -0.26805882303E+00  0.44190569814E+01  0.51100000000E-03 0.  1.
        -12    1    3    3    0    0 -0.14393795388E+02 -0.52089828741E+00 -0.27268221909E+02  0.30838427437E+02  0.00000000000E+00 0.  1.
</event>
<event>
 7    1  0.2450552E-011  0.5052889E+02  0.7816164E-02  0.1300439E+00
        -11   -1    0    0    0    0  0.00000000000E+00  0.00000000000E+00  0.45593999997E+02  0.45594000000E+02  0.51100000000E-03 0. -1.
         11   -1    0    0    0    0 -0.00000000000E+00 -0.00000000000E+00 -0.45593999997E+02  0.45594000000E+02  0.51100000000E-03 0.  1.
    9900012    2    1    2    0    0  0.15483216493E+02  0.29981293874E+02 -0.22683811575E+02  0.50528889300E+02  0.30000089516E+02 0.  0.
         12    1    1    2    0    0 -0.15483216493E+02 -0.29981293874E+02  0.22683811575E+02  0.40659110700E+02  0.00000000000E+00 0. -1.
         11    1    3    3    0    0 -0.19293879948E+01  0.90979074552E+01 -0.24879557513E+00  0.93035669287E+01  0.51100000000E-03 0. -1.
        -11    1    3    3    0    0 -0.20475398053E+00 -0.31292130795E+01 -0.70237468370E+01  0.76920035479E+01  0.51100000000E-03 0.  1.
         12    1    3    3    0    0  0.17617358469E+02  0.24012599499E+02 -0.15411269162E+02  0.33533318823E+02  0.00000000000E+00 0. -1.
</event>
<event>
 7    1  0.2450552E-011  0.5052885E+02  0.7816164E-02  0.1300439E+00
        -11   -1    0    0    0    0  0.00000000000E+00  0.00000000000E+00  0.45593999997E+02  0.45594000000E+02  0.51100000000E-03 0. -1.
         11   -1    0    0    0    0 -0.00000000000E+00 -0.00000000000E+00 -0.45593999997E+02  0.45594000000E+02  0.51100000000E-03 0.  1.
    9900012    2    1    2    0    0  0.40622680356E+02 -0.10207674928E+01  0.13864967577E+01  0.50528849752E+02  0.29999969307E+02 0.  0.
         12    1    1    2    0    0 -0.40622680356E+02  0.10207674928E+01 -0.13864967577E+01  0.40659150248E+02  0.00000000000E+00 0. -1.
         11    1    3    3    0    0  0.94126372320E+01 -0.10284515998E+02 -0.55753089534E+01  0.15015095043E+02  0.51100000000E-03 0. -1.
        -11    1    3    3    0    0  0.20733521122E+02  0.16811122410E+01 -0.51950810574E-01  0.20801628196E+02  0.51100000000E-03 0.  1.
        -12    1    3    3    0    0  0.10476522002E+02  0.75826362641E+01  0.70137565216E+01  0.14712126513E+02  0.00000000000E+00 0.  1.
</event>
<event>
 7    1  0.2450552E-011  0.5052882E+02  0.7816164E-02  0.1300439E+00
        -11   -1    0    0    0    0  0.00000000000E+00  0.00000000000E+00  0.45593999997E+02  0.45594000000E+02  0.51100000000E-03 0. -1.
         11   -1    0    0    0    0 -0.00000000000E+00 -0.00000000000E+00 -0.45593999997E+02  0.45594000000E+02  0.51100000000E-03 0.  1.
    9900012    2    1    2    0    0  0.14188689553E+02 -0.81850184306E+01 -0.37213646297E+02  0.50528820118E+02  0.29999879231E+02 0.  0.
         12    1    1    2    0    0 -0.14188689553E+02  0.81850184306E+01  0.37213646297E+02  0.40659179882E+02  0.00000000000E+00 0. -1.
         11    1    3    3    0    0 -0.22329485706E+00 -0.11483116193E+02 -0.62224685195E+01  0.13062577572E+02  0.51100000000E-03 0. -1.
        -11    1    3    3    0    0  0.82194755942E+01 -0.36783560864E+01 -0.24497768281E+02  0.26100397191E+02  0.51100000000E-03 0.  1.
        -12    1    3    3    0    0  0.61925088161E+01  0.69764538486E+01 -0.64934094970E+01  0.11365845355E+02  0.00000000000E+00 0.  1.
</event>
<event>
 7    1  0.2450552E-011  0.5052886E+02  0.7816164E-02  0.1300439E+00
        -11   -1    0    0    0    0  0.00000000000E+00  0.00000000000E+00  0.45593999997E+02  0.45594000000E+02  0.51100000000E-03 0.  1.
         11   -1    0    0    0    0 -0.00000000000E+00 -0.00000000000E+00 -0.45593999997E+02  0.45594000000E+02  0.51100000000E-03 0. -1.
    9900012    2    1    2    0    0 -0.54674918015E+01 -0.54635285456E+01  0.39917693399E+02  0.50528857645E+02  0.29999993298E+02 0.  0.
         12    1    1    2    0    0  0.54674918015E+01  0.54635285456E+01 -0.39917693399E+02  0.40659142355E+02  0.00000000000E+00 0. -1.
         11    1    3    3    0    0 -0.55030958687E+01  0.10592828471E+01  0.28059615603E+01  0.62673411292E+01  0.51100000000E-03 0. -1.
        -11    1    3    3    0    0 -0.64916159826E+01 -0.12728138104E+02  0.16875979194E+02  0.22112106451E+02  0.51100000000E-03 0.  1.
        -12    1    3    3    0    0  0.65272200498E+01  0.62053267112E+01  0.20235752644E+02  0.22149410065E+02  0.00000000000E+00 0.  1.
</event>
<event>
 7    1  0.2450552E-011  0.5052885E+02  0.7816164E-02  0.1300439E+00
        -11   -1    0    0    0    0  0.00000000000E+00  0.00000000000E+00  0.45593999997E+02  0.45594000000E+02  0.51100000000E-03 0. -1.
         11   -1    0    0    0    0 -0.00000000000E+00 -0.00000000000E+00 -0.45593999997E+02  0.45594000000E+02  0.51100000000E-03 0.  1.
    9900012    2    1    2    0    0  0.20796089644E+02 -0.34844566752E+02 -0.25583692433E+01  0.50528850602E+02  0.29999971889E+02 0.  0.
         12    1    1    2    0    0 -0.20796089644E+02  0.34844566752E+02  0.25583692433E+01  0.40659149398E+02  0.00000000000E+00 0. -1.
         11    1    3    3    0    0  0.16229986687E+02 -0.24806026099E+02  0.73439175998E+01  0.30539884162E+02  0.51100000000E-03 0.  1.
        -11    1    3    3    0    0  0.82610144984E+01 -0.32212824218E+01 -0.23687732935E+01  0.91778051930E+01  0.51100000000E-03 0. -1.
        -12    1    3    3    0    0 -0.36949115414E+01 -0.68172582318E+01 -0.75335135496E+01  0.10811161247E+02  0.00000000000E+00 0.  1.
</event>
<event>
 7    1  0.2450552E-011  0.5052884E+02  0.7816164E-02  0.1300439E+00
        -11   -1    0    0    0    0  0.00000000000E+00  0.00000000000E+00  0.45593999997E+02  0.45594000000E+02  0.51100000000E-03 0. -1.
         11   -1    0    0    0    0 -0.00000000000E+00 -0.00000000000E+00 -0.45593999997E+02  0.45594000000E+02  0.51100000000E-03 0.  1.
    9900012    2    1    2    0    0 -0.38429482533E+01 -0.40320457435E+02  0.35580246326E+01  0.50528842626E+02  0.29999947646E+02 0.  0.
         12    1    1    2    0    0  0.38429482533E+01  0.40320457435E+02 -0.35580246326E+01  0.40659157374E+02  0.00000000000E+00 0. -1.
         11    1    3    3    0    0  0.29642246708E+01 -0.39683751548E+01 -0.44535084150E+01  0.66609583944E+01  0.51100000000E-03 0. -1.
        -11    1    3    3    0    0 -0.29311955050E+01 -0.37226518441E+02  0.29854291813E+01  0.37460891206E+02  0.51100000000E-03 0.  1.
         12    1    3    3    0    0 -0.38759774192E+01  0.87443616020E+00  0.50261038664E+01  0.64069930254E+01  0.00000000000E+00 0. -1.
</event>
<event>
 7    1  0.2450552E-011  0.5052886E+02  0.7816164E-02  0.1300439E+00
        -11   -1    0    0    0    0  0.00000000000E+00  0.00000000000E+00  0.45593999997E+02  0.45594000000E+02  0.51100000000E-03 0.  1.
         11   -1    0    0    0    0 -0.00000000000E+00 -0.00000000000E+00 -0.45593999997E+02  0.45594000000E+02  0.51100000000E-03 0. -1.
    9900012    2    1    2    0    0  0.36979658571E+02 -0.15616878706E+02  0.64640096915E+01  0.50528862407E+02  0.30000007772E+02 0.  0.
         12    1    1    2    0    0 -0.36979658571E+02  0.15616878706E+02 -0.64640096915E+01  0.40659137593E+02  0.00000000000E+00 0. -1.
         11    1    3    3    0    0  0.92957004256E+01 -0.27339331480E+01 -0.74980505907E+01  0.12251742724E+02  0.51100000000E-03 0. -1.
        -11    1    3    3    0    0  0.64299309163E+01  0.47722006137E+01  0.33110998852E+01  0.86649462201E+01  0.51100000000E-03 0.  1.
        -12    1    3    3    0    0  0.21254027229E+02 -0.17655146172E+02  0.10650960397E+02  0.29612173462E+02  0.00000000000E+00 0.  1.
</event>
<event>
 7    1  0.2450552E-011  0.5052886E+02  0.7816164E-02  0.1300439E+00
        -11   -1    0    0    0    0  0.00000000000E+00  0.00000000000E+00  0.45593999997E+02  0.45594000000E+02  0.51100000000E-03 0.  1.
         11   -1    0    0    0    0 -0.00000000000E+00 -0.00000000000E+00 -0.45593999997E+02  0.45594000000E+02  0.51100000000E-03 0. -1.
    9900012    2    1    2    0    0  0.42291225174E+01  0.39252117982E+02  0.97237700943E+01  0.50528856524E+02  0.29999989890E+02 0.  0.
         12    1    1    2    0    0 -0.42291225174E+01 -0.39252117982E+02 -0.97237700943E+01  0.40659143476E+02  0.00000000000E+00 0. -1.
         11    1    3    3    0    0  0.68726657374E+01  0.33153853641E+02  0.48519025899E+01  0.34204568475E+02  0.51100000000E-03 0. -1.
        -11    1    3    3    0    0  0.57608349485E+01  0.32679446974E+01  0.29490063084E+01  0.72500565734E+01  0.51100000000E-03 0.  1.
        -12    1    3    3    0    0 -0.84043781684E+01  0.28303196441E+01  0.19228611960E+01  0.90742314752E+01  0.00000000000E+00 0.  1.
</event>
<event>
 7    1  0.2450552E-011  0.5052887E+02  0.7816164E-02  0.1300439E+00
        -11   -1    0    0    0    0  0.00000000000E+00  0.00000000000E+00  0.45593999997E+02  0.45594000000E+02  0.51100000000E-03 0.  1.
         11   -1    0    0    0    0 -0.00000000000E+00 -0.00000000000E+00 -0.45593999997E+02  0.45594000000E+02  0.51100000000E-03 0. -1.
    9900012    2    1    2    0    0  0.28143129322E+02  0.17675866611E+02  0.23424196494E+02  0.50528868555E+02  0.30000026459E+02 0.  0.
         12    1    1    2    0    0 -0.28143129322E+02 -0.17675866611E+02 -0.23424196494E+02  0.40659131445E+02  0.00000000000E+00 0. -1.
         11    1    3    3    0    0  0.32411715871E+00 -0.43506081428E+00 -0.31176673712E+01  0.31645189119E+01  0.51100000000E-03 0. -1.
        -11    1    3    3    0    0  0.29693874731E+01  0.13601061497E+02  0.82749758105E+01  0.16195102986E+02  0.51100000000E-03 0.  1.
        -12    1    3    3    0    0  0.24849624691E+02  0.45098659287E+01  0.18266888054E+02  0.31169246657E+02  0.00000000000E+00 0.  1.
</event>
<event>
 7    1  0.2450552E-011  0.5052890E+02  0.7816164E-02  0.1300439E+00
        -11   -1    0    0    0    0  0.00000000000E+00  0.00000000000E+00  0.45593999997E+02  0.45594000000E+02  0.51100000000E-03 0. -1.
         11   -1    0    0    0    0 -0.00000000000E+00 -0.00000000000E+00 -0.45593999997E+02  0.45594000000E+02  0.51100000000E-03 0.  1.
    9900012    2    1    2    0    0  0.10707699371E+02 -0.37664569992E+02 -0.10949335240E+02  0.50528897690E+02  0.30000115017E+02 0.  0.
         12    1    1    2    0    0 -0.10707699371E+02  0.37664569992E+02  0.10949335240E+02  0.40659102310E+02  0.00000000000E+00 0. -1.
         11    1    3    3    0    0  0.25525493668E+01 -0.17586058563E+01 -0.66919579431E+01  0.73749918102E+01  0.51100000000E-03 0. -1.
        -11    1    3    3    0    0  0.20329443710E+01 -0.33229868227E+02 -0.95449498066E+01  0.34633265400E+02  0.51100000000E-03 0.  1.
         12    1    3    3    0    0  0.61222056334E+01 -0.26760959084E+01  0.52875725099E+01  0.85206404792E+01  0.00000000000E+00 0. -1.
</event>
<event>
 7    1  0.2450552E-011  0.5052886E+02  0.7816164E-02  0.1300439E+00
        -11   -1    0    0    0    0  0.00000000000E+00  0.00000000000E+00  0.45593999997E+02  0.45594000000E+02  0.51100000000E-03 0. -1.
         11   -1    0    0    0    0 -0.00000000000E+00 -0.00000000000E+00 -0.45593999997E+02  0.45594000000E+02  0.51100000000E-03 0.  1.
    9900012    2    1    2    0    0 -0.36417850557E+02 -0.75447079459E+01 -0.16431160822E+02  0.50528861997E+02  0.30000006526E+02 0.  0.
         12    1    1    2    0    0  0.36417850557E+02  0.75447079459E+01  0.16431160822E+02  0.40659138003E+02  0.00000000000E+00 0. -1.
         11    1    3    3    0    0 -0.94760857994E+01  0.68263546816E+01  0.18158448603E+01  0.11819162963E+02  0.51100000000E-03 0. -1.
        -11    1    3    3    0    0 -0.21576954494E+02 -0.11052851462E+02 -0.60633543091E+01  0.24989893085E+02  0.51100000000E-03 0.  1.
        -12    1    3    3    0    0 -0.53648102637E+01 -0.33182111660E+01 -0.12183651373E+02  0.13719805950E+02  0.00000000000E+00 0.  1.
</event>
<event>
 7    1  0.2450552E-011  0.5052887E+02  0.7816164E-02  0.1300439E+00
        -11   -1    0    0    0    0  0.00000000000E+00  0.00000000000E+00  0.45593999997E+02  0.45594000000E+02  0.51100000000E-03 0. -1.
         11   -1    0    0    0    0 -0.00000000000E+00 -0.00000000000E+00 -0.45593999997E+02  0.45594000000E+02  0.51100000000E-03 0.  1.
    9900012    2    1    2    0    0  0.25702108651E+02 -0.24814080773E+01 -0.31407156565E+02  0.50528865004E+02  0.30000015665E+02 0.  0.
         12    1    1    2    0    0 -0.25702108651E+02  0.24814080773E+01  0.31407156565E+02  0.40659134996E+02  0.00000000000E+00 0. -1.
         11    1    3    3    0    0  0.45009697726E+01 -0.16248541485E+01  0.31913540914E+01  0.57518363238E+01  0.51100000000E-03 0. -1.
        -11    1    3    3    0    0 -0.73739446253E+00 -0.58277169180E+01 -0.83341370609E+01  0.10196267743E+02  0.51100000000E-03 0.  1.
         12    1    3    3    0    0  0.21938533341E+02  0.49711629892E+01 -0.26264373595E+02  0.34580760937E+02  0.00000000000E+00 0. -1.
</event>
<event>
 7    1  0.2450552E-011  0.5052886E+02  0.7816164E-02  0.1300439E+00
        -11   -1    0    0    0    0  0.00000000000E+00  0.00000000000E+00  0.45593999997E+02  0.45594000000E+02  0.51100000000E-03 0.  1.
         11   -1    0    0    0    0 -0.00000000000E+00 -0.00000000000E+00 -0.45593999997E+02  0.45594000000E+02  0.51100000000E-03 0. -1.
    9900012    2    1    2    0    0 -0.40421777534E+02  0.27719792887E+01  0.34002509031E+01  0.50528859892E+02  0.30000000126E+02 0.  0.
         12    1    1    2    0    0  0.40421777534E+02 -0.27719792887E+01 -0.34002509031E+01  0.40659140108E+02  0.00000000000E+00 0. -1.
         11    1    3    3    0    0 -0.20417051929E+02  0.73383863121E+01 -0.22998020809E+01  0.21817355775E+02  0.51100000000E-03 0. -1.
        -11    1    3    3    0    0  0.16950683744E+00  0.51371528545E+01 -0.12143386262E+01  0.52814477730E+01  0.51100000000E-03 0.  1.
        -12    1    3    3    0    0 -0.20174232442E+02 -0.97035598778E+01  0.69143916102E+01  0.23430056344E+02  0.00000000000E+00 0.  1.
</event>
<event>
 7    1  0.2450552E-011  0.5052886E+02  0.7816164E-02  0.1300439E+00
        -11   -1    0    0    0    0  0.00000000000E+00  0.00000000000E+00  0.45593999997E+02  0.45594000000E+02  0.51100000000E-03 0. -1.
         11   -1    0    0    0    0 -0.00000000000E+00 -0.00000000000E+00 -0.45593999997E+02  0.45594000000E+02  0.51100000000E-03 0.  1.
    9900012    2    1    2    0    0  0.33232202077E+02  0.21052738695E+02  0.10274653414E+02  0.50528861246E+02  0.30000004244E+02 0.  0.
         12    1    1    2    0    0 -0.33232202077E+02 -0.21052738695E+02 -0.10274653414E+02  0.40659138754E+02  0.00000000000E+00 0. -1.
         11    1    3    3    0    0  0.11204373528E+02  0.38134486155E+00 -0.63829447430E+00  0.11229017328E+02  0.51100000000E-03 0. -1.
        -11    1    3    3    0    0  0.22721413896E+02  0.19556161391E+02  0.17351975716E+01  0.30028603175E+02  0.51100000000E-03 0.  1.
         12    1    3    3    0    0 -0.69358534666E+00  0.11152324419E+01  0.91777503169E+01  0.92712407428E+01  0.00000000000E+00 0. -1.
</event>
<event>
 7    1  0.2450552E-011  0.5052882E+02  0.7816164E-02  0.1300439E+00
        -11   -1    0    0    0    0  0.00000000000E+00  0.00000000000E+00  0.45593999997E+02  0.45594000000E+02  0.51100000000E-03 0.  1.
         11   -1    0    0    0    0 -0.00000000000E+00 -0.00000000000E+00 -0.45593999997E+02  0.45594000000E+02  0.51100000000E-03 0. -1.
    9900012    2    1    2    0    0  0.34081853442E+02 -0.20950962794E+02  0.72562451146E+01  0.50528823063E+02  0.29999888181E+02 0.  0.
         12    1    1    2    0    0 -0.34081853442E+02  0.20950962794E+02 -0.72562451146E+01  0.40659176937E+02  0.00000000000E+00 0. -1.
         11    1    3    3    0    0  0.21378769551E+02 -0.40282979469E+01 -0.34824368143E+01  0.22031939050E+02  0.51100000000E-03 0. -1.
        -11    1    3    3    0    0  0.37759641777E+01  0.26517536094E+01  0.35223648489E+01  0.58048907885E+01  0.51100000000E-03 0.  1.
        -12    1    3    3    0    0  0.89271197131E+01 -0.19574418457E+02  0.72163170800E+01  0.22691993224E+02  0.00000000000E+00 0.  1.
</event>
<event>
 7    1  0.2450552E-011  0.5052887E+02  0.7816164E-02  0.1300439E+00
        -11   -1    0    0    0    0  0.00000000000E+00  0.00000000000E+00  0.45593999997E+02  0.45594000000E+02  0.51100000000E-03 0.  1.
         11   -1    0    0    0    0 -0.00000000000E+00 -0.00000000000E+00 -0.45593999997E+02  0.45594000000E+02  0.51100000000E-03 0. -1.
    9900012    2    1    2    0    0  0.22268111003E+02 -0.13452996190E+02  0.31246011737E+02  0.50528866665E+02  0.30000020714E+02 0.  0.
         12    1    1    2    0    0 -0.22268111003E+02  0.13452996190E+02 -0.31246011737E+02  0.40659133335E+02  0.00000000000E+00 0. -1.
         11    1    3    3    0    0 -0.10326892514E+00  0.24456319564E+01  0.32825509559E+01  0.40947431148E+01  0.51100000000E-03 0. -1.
        -11    1    3    3    0    0  0.22163864398E+02 -0.39983551715E+01  0.25954575559E+02  0.34363697732E+02  0.51100000000E-03 0.  1.
         12    1    3    3    0    0  0.20751553009E+00 -0.11900272975E+02  0.20088852213E+01  0.12070425818E+02  0.00000000000E+00 0. -1.
</event>
<event>
 7    1  0.2450552E-011  0.5052886E+02  0.7816164E-02  0.1300439E+00
        -11   -1    0    0    0    0  0.00000000000E+00  0.00000000000E+00  0.45593999997E+02  0.45594000000E+02  0.51100000000E-03 0. -1.
         11   -1    0    0    0    0 -0.00000000000E+00 -0.00000000000E+00 -0.45593999997E+02  0.45594000000E+02  0.51100000000E-03 0.  1.
    9900012    2    1    2    0    0 -0.34995873121E+01  0.28942331603E+02 -0.28341835381E+02  0.50528864462E+02  0.30000014017E+02 0.  0.
         12    1    1    2    0    0  0.34995873121E+01 -0.28942331603E+02  0.28341835381E+02  0.40659135538E+02  0.00000000000E+00 0. -1.
         11    1    3    3    0    0 -0.86068072930E+01  0.74973902063E+01 -0.19795102014E+02  0.22850252859E+02  0.51100000000E-03 0.  1.
        -11    1    3    3    0    0  0.67929246540E+01  0.12458733436E+02 -0.11289305153E+02  0.18133181610E+02  0.51100000000E-03 0. -1.
         12    1    3    3    0    0 -0.16857046732E+01  0.89862079604E+01  0.27425717864E+01  0.95454299932E+01  0.00000000000E+00 0. -1.
</event>
<event>
 7    1  0.2450552E-011  0.5052886E+02  0.7816164E-02  0.1300439E+00
        -11   -1    0    0    0    0  0.00000000000E+00  0.00000000000E+00  0.45593999997E+02  0.45594000000E+02  0.51100000000E-03 0.  1.
         11   -1    0    0    0    0 -0.00000000000E+00 -0.00000000000E+00 -0.45593999997E+02  0.45594000000E+02  0.51100000000E-03 0. -1.
    9900012    2    1    2    0    0  0.70611998636E+01  0.19354369936E+02  0.35053014262E+02  0.50528856035E+02  0.29999988403E+02 0.  0.
         12    1    1    2    0    0 -0.70611998636E+01 -0.19354369936E+02 -0.35053014262E+02  0.40659143965E+02  0.00000000000E+00 0. -1.
         11    1    3    3    0    0  0.22208507257E+01  0.46944141152E+01  0.42360713108E+00  0.52104841515E+01  0.51100000000E-03 0. -1.
        -11    1    3    3    0    0 -0.71498880611E+01  0.15640549232E+02  0.20797544989E+02  0.26986766339E+02  0.51100000000E-03 0.  1.
         12    1    3    3    0    0  0.11990237199E+02 -0.98059341205E+00  0.13831862142E+02  0.18331605545E+02  0.00000000000E+00 0. -1.
</event>
<event>
 7    1  0.2450552E-011  0.5052885E+02  0.7816164E-02  0.1300439E+00
        -11   -1    0    0    0    0  0.00000000000E+00  0.00000000000E+00  0.45593999997E+02  0.45594000000E+02  0.51100000000E-03 0.  1.
         11   -1    0    0    0    0 -0.00000000000E+00 -0.00000000000E+00 -0.45593999997E+02  0.45594000000E+02  0.51100000000E-03 0. -1.
    9900012    2    1    2    0    0 -0.17760220562E+02  0.26089169159E+02  0.25633893854E+02  0.50528847329E+02  0.29999961941E+02 0.  0.
         12    1    1    2    0    0  0.17760220562E+02 -0.26089169159E+02 -0.25633893854E+02  0.40659152671E+02  0.00000000000E+00 0. -1.
         11    1    3    3    0    0 -0.11660698327E+02  0.78527051593E+01  0.79510100730E+01  0.16151019325E+02  0.51100000000E-03 0. -1.
        -11    1    3    3    0    0 -0.55821093313E+01  0.23427671070E+02  0.15925827919E+02  0.28872958136E+02  0.51100000000E-03 0.  1.
         12    1    3    3    0    0 -0.51741290422E+00 -0.51912070707E+01  0.17570558615E+01  0.55048698681E+01  0.00000000000E+00 0. -1.
</event>
<event>
 7    1  0.2450552E-011  0.5052886E+02  0.7816164E-02  0.1300439E+00
        -11   -1    0    0    0    0  0.00000000000E+00  0.00000000000E+00  0.45593999997E+02  0.45594000000E+02  0.51100000000E-03 0.  1.
         11   -1    0    0    0    0 -0.00000000000E+00 -0.00000000000E+00 -0.45593999997E+02  0.45594000000E+02  0.51100000000E-03 0. -1.
    9900012    2    1    2    0    0 -0.20350997621E+02 -0.19184895005E+02  0.29511734379E+02  0.50528858757E+02  0.29999996679E+02 0.  0.
         12    1    1    2    0    0  0.20350997621E+02  0.19184895005E+02 -0.29511734379E+02  0.40659141243E+02  0.00000000000E+00 0. -1.
         11    1    3    3    0    0 -0.93337091149E+01  0.14551952498E+01  0.73165906243E+00  0.94747582714E+01  0.51100000000E-03 0. -1.
        -11    1    3    3    0    0 -0.12698593843E+02 -0.88411828847E+01  0.23219112659E+02  0.27902472889E+02  0.51100000000E-03 0.  1.
         12    1    3    3    0    0  0.16813053370E+01 -0.11798907370E+02  0.55609626578E+01  0.13151627597E+02  0.00000000000E+00 0. -1.
</event>
<event>
 7    1  0.2450552E-011  0.5052886E+02  0.7816164E-02  0.1300439E+00
        -11   -1    0    0    0    0  0.00000000000E+00  0.00000000000E+00  0.45593999997E+02  0.45594000000E+02  0.51100000000E-03 0.  1.
         11   -1    0    0    0    0 -0.00000000000E+00 -0.00000000000E+00 -0.45593999997E+02  0.45594000000E+02  0.51100000000E-03 0. -1.
    9900012    2    1    2    0    0 -0.11816760117E+02  0.22608998117E+02  0.31660119118E+02  0.50528858862E+02  0.29999996996E+02 0.  0.
         12    1    1    2    0    0  0.11816760117E+02 -0.22608998117E+02 -0.31660119118E+02  0.40659141138E+02  0.00000000000E+00 0. -1.
         11    1    3    3    0    0  0.22707346178E+01  0.55877059346E+01  0.75219535010E+01  0.96414977078E+01  0.51100000000E-03 0. -1.
        -11    1    3    3    0    0 -0.11347035218E+02  0.22838921620E+02  0.14606294136E+02  0.29389034990E+02  0.51100000000E-03 0.  1.
        -12    1    3    3    0    0 -0.27404595167E+01 -0.58176294372E+01  0.95318714812E+01  0.11498326164E+02  0.00000000000E+00 0.  1.
</event>
<event>
 7    1  0.2450552E-011  0.5052886E+02  0.7816164E-02  0.1300439E+00
        -11   -1    0    0    0    0  0.00000000000E+00  0.00000000000E+00  0.45593999997E+02  0.45594000000E+02  0.51100000000E-03 0.  1.
         11   -1    0    0    0    0 -0.00000000000E+00 -0.00000000000E+00 -0.45593999997E+02  0.45594000000E+02  0.51100000000E-03 0. -1.
    9900012    2    1    2    0    0  0.97284425584E+01  0.29922596200E+01  0.39364566173E+02  0.50528864714E+02  0.30000014783E+02 0.  0.
         12    1    1    2    0    0 -0.97284425584E+01 -0.29922596200E+01 -0.39364566173E+02  0.40659135286E+02  0.00000000000E+00 0. -1.
         11    1    3    3    0    0 -0.22559011631E+01 -0.23583525695E+01 -0.15920394171E+00  0.32674551345E+01  0.51100000000E-03 0. -1.
        -11    1    3    3    0    0  0.12278910705E+02 -0.27389449231E+01  0.36521587447E+02  0.38627707896E+02  0.51100000000E-03 0.  1.
         12    1    3    3    0    0 -0.29456698311E+00  0.80895571127E+01  0.30021826682E+01  0.86337016835E+01  0.00000000000E+00 0. -1.
</event>
<event>
 7    1  0.2450552E-011  0.5052886E+02  0.7816164E-02  0.1300439E+00
        -11   -1    0    0    0    0  0.00000000000E+00  0.00000000000E+00  0.45593999997E+02  0.45594000000E+02  0.51100000000E-03 0. -1.
         11   -1    0    0    0    0 -0.00000000000E+00 -0.00000000000E+00 -0.45593999997E+02  0.45594000000E+02  0.51100000000E-03 0.  1.
    9900012    2    1    2    0    0 -0.14009768557E+02 -0.16009177131E+02 -0.34649647077E+02  0.50528863142E+02  0.30000010008E+02 0.  0.
         12    1    1    2    0    0  0.14009768557E+02  0.16009177131E+02  0.34649647077E+02  0.40659136858E+02  0.00000000000E+00 0. -1.
         11    1    3    3    0    0 -0.13124696291E+02 -0.19886817081E+01 -0.70034444283E+01  0.15008688876E+02  0.51100000000E-03 0. -1.
        -11    1    3    3    0    0  0.71425794413E+01 -0.30356569557E+01 -0.54407302319E+01  0.94780377687E+01  0.51100000000E-03 0.  1.
         12    1    3    3    0    0 -0.80276517072E+01 -0.10984838467E+02 -0.22205472417E+02  0.26042136497E+02  0.00000000000E+00 0. -1.
</event>
<event>
 7    1  0.2450552E-011  0.5052886E+02  0.7816164E-02  0.1300439E+00
        -11   -1    0    0    0    0  0.00000000000E+00  0.00000000000E+00  0.45593999997E+02  0.45594000000E+02  0.51100000000E-03 0.  1.
         11   -1    0    0    0    0 -0.00000000000E+00 -0.00000000000E+00 -0.45593999997E+02  0.45594000000E+02  0.51100000000E-03 0. -1.
    9900012    2    1    2    0    0  0.35954389647E+02  0.46874261409E+00  0.18979660498E+02  0.50528863670E+02  0.30000011610E+02 0.  0.
         12    1    1    2    0    0 -0.35954389647E+02 -0.46874261409E+00 -0.18979660498E+02  0.40659136330E+02  0.00000000000E+00 0. -1.
         11    1    3    3    0    0  0.35397780568E+02 -0.87991443740E+01  0.10932337063E+02  0.38078127643E+02  0.51100000000E-03 0.  1.
        -11    1    3    3    0    0  0.75261115215E+00  0.11355756376E+01  0.10364841915E+01  0.17117988537E+01  0.51100000000E-03 0. -1.
        -12    1    3    3    0    0 -0.19600207334E+00  0.81323113505E+01  0.70108392435E+01  0.10738937173E+02  0.00000000000E+00 0.  1.
</event>
<event>
 7    1  0.2450552E-011  0.5052878E+02  0.7816164E-02  0.1300439E+00
        -11   -1    0    0    0    0  0.00000000000E+00  0.00000000000E+00  0.45593999997E+02  0.45594000000E+02  0.51100000000E-03 0.  1.
         11   -1    0    0    0    0 -0.00000000000E+00 -0.00000000000E+00 -0.45593999997E+02  0.45594000000E+02  0.51100000000E-03 0. -1.
    9900012    2    1    2    0    0  0.32983088985E+02  0.23594269665E+02  0.29322713536E+01  0.50528782899E+02  0.29999766098E+02 0.  0.
         12    1    1    2    0    0 -0.32983088985E+02 -0.23594269665E+02 -0.29322713536E+01  0.40659217101E+02  0.00000000000E+00 0. -1.
         11    1    3    3    0    0  0.11130830558E+02  0.33214094621E+00 -0.46482231598E+01  0.12066966700E+02  0.51100000000E-03 0. -1.
        -11    1    3    3    0    0  0.65620635985E+01  0.18395211005E+02 -0.22249534949E+01  0.19656929692E+02  0.51100000000E-03 0.  1.
         12    1    3    3    0    0  0.15290194828E+02  0.48669177134E+01  0.98054480083E+01  0.18804886507E+02  0.00000000000E+00 0. -1.
</event>
<event>
 7    1  0.2450552E-011  0.5052888E+02  0.7816164E-02  0.1300439E+00
        -11   -1    0    0    0    0  0.00000000000E+00  0.00000000000E+00  0.45593999997E+02  0.45594000000E+02  0.51100000000E-03 0.  1.
         11   -1    0    0    0    0 -0.00000000000E+00 -0.00000000000E+00 -0.45593999997E+02  0.45594000000E+02  0.51100000000E-03 0. -1.
    9900012    2    1    2    0    0  0.25498885365E+02  0.31141484412E+02  0.57601421008E+01  0.50528875030E+02  0.30000046142E+02 0.  0.
         12    1    1    2    0    0 -0.25498885365E+02 -0.31141484412E+02 -0.57601421008E+01  0.40659124970E+02  0.00000000000E+00 0. -1.
         11    1    3    3    0    0 -0.35548357856E+00  0.14878274872E+02 -0.58833647471E+01  0.16003231323E+02  0.51100000000E-03 0. -1.
        -11    1    3    3    0    0  0.74591872073E+01  0.71569324998E+00  0.64490225629E+01  0.98864342865E+01  0.51100000000E-03 0.  1.
        -12    1    3    3    0    0  0.18395181737E+02  0.15547516290E+02  0.51944842850E+01  0.24639209421E+02  0.00000000000E+00 0.  1.
</event>
<event>
 7    1  0.2450552E-011  0.5052886E+02  0.7816164E-02  0.1300439E+00
        -11   -1    0    0    0    0  0.00000000000E+00  0.00000000000E+00  0.45593999997E+02  0.45594000000E+02  0.51100000000E-03 0. -1.
         11   -1    0    0    0    0 -0.00000000000E+00 -0.00000000000E+00 -0.45593999997E+02  0.45594000000E+02  0.51100000000E-03 0.  1.
    9900012    2    1    2    0    0  0.32782268790E+02 -0.11239970287E+02 -0.21263864989E+02  0.50528855477E+02  0.29999986708E+02 0.  0.
         12    1    1    2    0    0 -0.32782268790E+02  0.11239970287E+02  0.21263864989E+02  0.40659144523E+02  0.00000000000E+00 0. -1.
         11    1    3    3    0    0 -0.30517920114E+01 -0.26480183214E+01 -0.58981159989E+01  0.71493501879E+01  0.51100000000E-03 0. -1.
        -11    1    3    3    0    0  0.13905682284E+02  0.32447220634E+01 -0.11126610837E+02  0.18102422215E+02  0.51100000000E-03 0.  1.
        -12    1    3    3    0    0  0.21928378517E+02 -0.11836674029E+02 -0.42391381527E+01  0.25277083075E+02  0.00000000000E+00 0.  1.
</event>
<event>
 7    1  0.2450552E-011  0.5052886E+02  0.7816164E-02  0.1300439E+00
        -11   -1    0    0    0    0  0.00000000000E+00  0.00000000000E+00  0.45593999997E+02  0.45594000000E+02  0.51100000000E-03 0.  1.
         11   -1    0    0    0    0 -0.00000000000E+00 -0.00000000000E+00 -0.45593999997E+02  0.45594000000E+02  0.51100000000E-03 0. -1.
    9900012    2    1    2    0    0  0.20799982860E+02  0.11002753362E+02  0.33158190561E+02  0.50528862407E+02  0.30000007773E+02 0.  0.
         12    1    1    2    0    0 -0.20799982860E+02 -0.11002753362E+02 -0.33158190561E+02  0.40659137593E+02  0.00000000000E+00 0. -1.
         11    1    3    3    0    0 -0.40644623091E+01  0.11186254457E+01  0.24260927965E+01  0.48638568306E+01  0.51100000000E-03 0. -1.
        -11    1    3    3    0    0  0.70475216953E+01  0.37655982063E+00  0.22969855693E+02  0.24029640659E+02  0.51100000000E-03 0.  1.
         12    1    3    3    0    0  0.17816923474E+02  0.95075680953E+01  0.77622420709E+01  0.21635364918E+02  0.00000000000E+00 0. -1.
</event>
<event>
 7    1  0.2450552E-011  0.5052886E+02  0.7816164E-02  0.1300439E+00
        -11   -1    0    0    0    0  0.00000000000E+00  0.00000000000E+00  0.45593999997E+02  0.45594000000E+02  0.51100000000E-03 0. -1.
         11   -1    0    0    0    0 -0.00000000000E+00 -0.00000000000E+00 -0.45593999997E+02  0.45594000000E+02  0.51100000000E-03 0.  1.
    9900012    2    1    2    0    0 -0.37895899820E+02 -0.14186738335E+02 -0.39752574153E+01  0.50528862782E+02  0.30000008913E+02 0.  0.
         12    1    1    2    0    0  0.37895899820E+02  0.14186738335E+02  0.39752574153E+01  0.40659137218E+02  0.00000000000E+00 0. -1.
         11    1    3    3    0    0 -0.13770085641E+01  0.53837065650E+01 -0.32798209721E+01  0.64527261551E+01  0.51100000000E-03 0. -1.
        -11    1    3    3    0    0 -0.39914933982E+01 -0.60556297564E+01 -0.46747035002E+01  0.86287614621E+01  0.51100000000E-03 0.  1.
         12    1    3    3    0    0 -0.32527397858E+02 -0.13514815144E+02  0.39792670571E+01  0.35447375165E+02  0.00000000000E+00 0. -1.
</event>
<event>
 7    1  0.2450552E-011  0.5052885E+02  0.7816164E-02  0.1300439E+00
        -11   -1    0    0    0    0  0.00000000000E+00  0.00000000000E+00  0.45593999997E+02  0.45594000000E+02  0.51100000000E-03 0.  1.
         11   -1    0    0    0    0 -0.00000000000E+00 -0.00000000000E+00 -0.45593999997E+02  0.45594000000E+02  0.51100000000E-03 0. -1.
    9900012    2    1    2    0    0 -0.19495456303E+02  0.12929511147E+02  0.33255397978E+02  0.50528848882E+02  0.29999966661E+02 0.  0.
         12    1    1    2    0    0  0.19495456303E+02 -0.12929511147E+02 -0.33255397978E+02  0.40659151118E+02  0.00000000000E+00 0. -1.
         11    1    3    3    0    0 -0.35658805436E+00  0.38399325221E+01 -0.18976124411E+01  0.42980425838E+01  0.51100000000E-03 0. -1.
        -11    1    3    3    0    0 -0.15816838785E+02  0.15721531297E+02  0.23334922359E+02  0.32277818037E+02  0.51100000000E-03 0.  1.
         12    1    3    3    0    0 -0.33220294639E+01 -0.66319526724E+01  0.11818088060E+02  0.13952988261E+02  0.00000000000E+00 0. -1.
</event>
<event>
 7    1  0.2450552E-011  0.5052885E+02  0.7816164E-02  0.1300439E+00
        -11   -1    0    0    0    0  0.00000000000E+00  0.00000000000E+00  0.45593999997E+02  0.45594000000E+02  0.51100000000E-03 0. -1.
         11   -1    0    0    0    0 -0.00000000000E+00 -0.00000000000E+00 -0.45593999997E+02  0.45594000000E+02  0.51100000000E-03 0.  1.
    9900012    2    1    2    0    0 -0.11091057887E+02  0.27681624264E+02 -0.27638420927E+02  0.50528853449E+02  0.29999980542E+02 0.  0.
         12    1    1    2    0    0  0.11091057887E+02 -0.27681624264E+02  0.27638420927E+02  0.40659146551E+02  0.00000000000E+00 0. -1.
         11    1    3    3    0    0  0.14010936631E+01 -0.19839018881E+01 -0.68930729038E+01  0.73084461052E+01  0.51100000000E-03 0. -1.
        -11    1    3    3    0    0  0.42205006021E+01  0.65919810162E+00 -0.37141302209E+01  0.56605592505E+01  0.51100000000E-03 0.  1.
        -12    1    3    3    0    0 -0.16712652153E+02  0.29006328050E+02 -0.17031217803E+02  0.37559848093E+02  0.00000000000E+00 0.  1.
</event>
<event>
 7    1  0.2450552E-011  0.5052887E+02  0.7816164E-02  0.1300439E+00
        -11   -1    0    0    0    0  0.00000000000E+00  0.00000000000E+00  0.45593999997E+02  0.45594000000E+02  0.51100000000E-03 0.  1.
         11   -1    0    0    0    0 -0.00000000000E+00 -0.00000000000E+00 -0.45593999997E+02  0.45594000000E+02  0.51100000000E-03 0. -1.
    9900012    2    1    2    0    0 -0.14637056157E+02 -0.24378423563E+01  0.37854704165E+02  0.50528866761E+02  0.30000021008E+02 0.  0.
         12    1    1    2    0    0  0.14637056157E+02  0.24378423563E+01 -0.37854704165E+02  0.40659133239E+02  0.00000000000E+00 0. -1.
         11    1    3    3    0    0 -0.43714670484E+01 -0.14702946123E+01 -0.29883292228E+01  0.54955984394E+01  0.51100000000E-03 0. -1.
        -11    1    3    3    0    0  0.19937986149E+00  0.10900397191E+01 -0.12147537819E+01  0.16442523925E+01  0.51100000000E-03 0.  1.
        -12    1    3    3    0    0 -0.10464968970E+02 -0.20575874631E+01  0.42057787170E+02  0.43389015929E+02  0.00000000000E+00 0.  1.
</event>
<event>
 7    1  0.2450552E-011  0.5052887E+02  0.7816164E-02  0.1300439E+00
        -11   -1    0    0    0    0  0.00000000000E+00  0.00000000000E+00  0.45593999997E+02  0.45594000000E+02  0.51100000000E-03 0. -1.
         11   -1    0    0    0    0 -0.00000000000E+00 -0.00000000000E+00 -0.45593999997E+02  0.45594000000E+02  0.51100000000E-03 0.  1.
    9900012    2    1    2    0    0  0.22519983013E+02 -0.32464507237E+02 -0.95953593433E+01  0.50528870817E+02  0.30000033334E+02 0.  0.
         12    1    1    2    0    0 -0.22519983013E+02  0.32464507237E+02  0.95953593433E+01  0.40659129183E+02  0.00000000000E+00 0. -1.
         11    1    3    3    0    0  0.11246473920E+01 -0.38046032800E+01  0.51054120183E+01  0.64656840328E+01  0.51100000000E-03 0. -1.
        -11    1    3    3    0    0  0.36923029826E+01 -0.21784619604E+02 -0.46613925670E+01  0.22581659229E+02  0.51100000000E-03 0.  1.
        -12    1    3    3    0    0  0.17703032638E+02 -0.68752843528E+01 -0.10039378795E+02  0.21481527555E+02  0.00000000000E+00 0.  1.
</event>
<event>
 7    1  0.2779719E-011  0.5052888E+02  0.7816164E-02  0.1300439E+00
        -11   -1    0    0    0    0  0.00000000000E+00  0.00000000000E+00  0.45593999997E+02  0.45594000000E+02  0.51100000000E-03 0.  1.
         11   -1    0    0    0    0 -0.00000000000E+00 -0.00000000000E+00 -0.45593999997E+02  0.45594000000E+02  0.51100000000E-03 0. -1.
    9900012    2    1    2    0    0 -0.30096306314E+02  0.26234767492E+02  0.76885233305E+01  0.50528879619E+02  0.30000060091E+02 0.  0.
         12    1    1    2    0    0  0.30096306314E+02 -0.26234767492E+02 -0.76885233305E+01  0.40659120381E+02  0.00000000000E+00 0. -1.
         11    1    3    3    0    0 -0.87963573802E+00  0.68188354715E+01  0.94300148502E+01  0.11670280912E+02  0.51100000000E-03 0. -1.
        -11    1    3    3    0    0 -0.20968743422E+02  0.14123370098E+02  0.64439057555E+01  0.26089877448E+02  0.51100000000E-03 0.  1.
         12    1    3    3    0    0 -0.82479271537E+01  0.52925619231E+01 -0.81853972752E+01  0.12768721259E+02  0.00000000000E+00 0. -1.
</event>
<event>
 7    1  0.2450552E-011  0.5052886E+02  0.7816164E-02  0.1300439E+00
        -11   -1    0    0    0    0  0.00000000000E+00  0.00000000000E+00  0.45593999997E+02  0.45594000000E+02  0.51100000000E-03 0. -1.
         11   -1    0    0    0    0 -0.00000000000E+00 -0.00000000000E+00 -0.45593999997E+02  0.45594000000E+02  0.51100000000E-03 0.  1.
    9900012    2    1    2    0    0  0.21642793694E+02 -0.28990548045E+02 -0.18555415644E+02  0.50528857798E+02  0.29999993763E+02 0.  0.
         12    1    1    2    0    0 -0.21642793694E+02  0.28990548045E+02  0.18555415644E+02  0.40659142202E+02  0.00000000000E+00 0. -1.
         11    1    3    3    0    0 -0.20035914964E+01 -0.24611027681E+00  0.66026685312E+00  0.21238883518E+01  0.51100000000E-03 0. -1.
        -11    1    3    3    0    0  0.19004199736E+02 -0.30308868669E+02 -0.87187589188E+01  0.36821242306E+02  0.51100000000E-03 0.  1.
         12    1    3    3    0    0  0.46421854549E+01  0.15644309008E+01 -0.10496923579E+02  0.11583727140E+02  0.00000000000E+00 0. -1.
</event>
<event>
 7    1  0.2450552E-011  0.5052882E+02  0.7816164E-02  0.1300439E+00
        -11   -1    0    0    0    0  0.00000000000E+00  0.00000000000E+00  0.45593999997E+02  0.45594000000E+02  0.51100000000E-03 0.  1.
         11   -1    0    0    0    0 -0.00000000000E+00 -0.00000000000E+00 -0.45593999997E+02  0.45594000000E+02  0.51100000000E-03 0. -1.
    9900012    2    1    2    0    0 -0.32595692274E+02 -0.21796026889E+02  0.10752803291E+02  0.50528822419E+02  0.29999886223E+02 0.  0.
         12    1    1    2    0    0  0.32595692274E+02  0.21796026889E+02 -0.10752803291E+02  0.40659177581E+02  0.00000000000E+00 0. -1.
         11    1    3    3    0    0 -0.92765288670E+01 -0.20288590523E+02  0.72873556745E+01  0.23468839899E+02  0.51100000000E-03 0. -1.
        -11    1    3    3    0    0 -0.38547661043E+01 -0.54834406793E+01  0.25535617163E+01  0.71727275916E+01  0.51100000000E-03 0.  1.
        -12    1    3    3    0    0 -0.19464397303E+02  0.39760043134E+01  0.91188590074E+00  0.19887254928E+02  0.00000000000E+00 0.  1.
</event>
<event>
 7    1  0.2450552E-011  0.5052886E+02  0.7816164E-02  0.1300439E+00
        -11   -1    0    0    0    0  0.00000000000E+00  0.00000000000E+00  0.45593999997E+02  0.45594000000E+02  0.51100000000E-03 0.  1.
         11   -1    0    0    0    0 -0.00000000000E+00 -0.00000000000E+00 -0.45593999997E+02  0.45594000000E+02  0.51100000000E-03 0. -1.
    9900012    2    1    2    0    0 -0.39712281498E+02 -0.40374000181E+01 -0.77330276546E+01  0.50528860593E+02  0.30000002257E+02 0.  0.
         12    1    1    2    0    0  0.39712281498E+02  0.40374000181E+01  0.77330276546E+01  0.40659139407E+02  0.00000000000E+00 0. -1.
         11    1    3    3    0    0 -0.38272722455E+01  0.64701261484E+01  0.30361445662E+01  0.81073250401E+01  0.51100000000E-03 0. -1.
        -11    1    3    3    0    0 -0.84623826255E+01 -0.23933209889E+01  0.46326597493E+01  0.99398914315E+01  0.51100000000E-03 0.  1.
        -12    1    3    3    0    0 -0.27422626627E+02 -0.81142051776E+01 -0.15401831970E+02  0.32481644121E+02  0.00000000000E+00 0.  1.
</event>
<event>
 7    1  0.2450552E-011  0.5052887E+02  0.7816164E-02  0.1300439E+00
        -11   -1    0    0    0    0  0.00000000000E+00  0.00000000000E+00  0.45593999997E+02  0.45594000000E+02  0.51100000000E-03 0.  1.
         11   -1    0    0    0    0 -0.00000000000E+00 -0.00000000000E+00 -0.45593999997E+02  0.45594000000E+02  0.51100000000E-03 0. -1.
    9900012    2    1    2    0    0 -0.29692090647E+02 -0.25940969594E+02  0.99303094395E+01  0.50528865773E+02  0.30000018005E+02 0.  0.
         12    1    1    2    0    0  0.29692090647E+02  0.25940969594E+02 -0.99303094395E+01  0.40659134227E+02  0.00000000000E+00 0. -1.
         11    1    3    3    0    0  0.53580009022E+00 -0.82413230073E+01 -0.41326532111E+01  0.92350045734E+01  0.51100000000E-03 0.  1.
        -11    1    3    3    0    0 -0.18391448285E+02 -0.22430669912E+01  0.26206513847E+01  0.18712149355E+02  0.51100000000E-03 0. -1.
        -12    1    3    3    0    0 -0.11836442452E+02 -0.15456579596E+02  0.11442311266E+02  0.22581711844E+02  0.00000000000E+00 0.  1.
</event>
<event>
 7    1  0.2517827E-011  0.5052886E+02  0.7816164E-02  0.1300439E+00
        -11   -1    0    0    0    0  0.00000000000E+00  0.00000000000E+00  0.45593999997E+02  0.45594000000E+02  0.51100000000E-03 0.  1.
         11   -1    0    0    0    0 -0.00000000000E+00 -0.00000000000E+00 -0.45593999997E+02  0.45594000000E+02  0.51100000000E-03 0. -1.
    9900012    2    1    2    0    0  0.38205450351E+02 -0.87693923619E+01  0.10798468809E+02  0.50528860713E+02  0.30000002623E+02 0.  0.
         12    1    1    2    0    0 -0.38205450351E+02  0.87693923619E+01 -0.10798468809E+02  0.40659139287E+02  0.00000000000E+00 0. -1.
         11    1    3    3    0    0  0.29902115922E+00 -0.45637370708E+01  0.70871431617E+00  0.46281082472E+01  0.51100000000E-03 0. -1.
        -11    1    3    3    0    0  0.22989423139E+02 -0.78358583847E+01 -0.45230558451E+01  0.24705713658E+02  0.51100000000E-03 0.  1.
        -12    1    3    3    0    0  0.14917006053E+02  0.36302030936E+01  0.14612810338E+02  0.21195038808E+02  0.00000000000E+00 0.  1.
</event>
<event>
 7    1  0.2450552E-011  0.5052885E+02  0.7816164E-02  0.1300439E+00
        -11   -1    0    0    0    0  0.00000000000E+00  0.00000000000E+00  0.45593999997E+02  0.45594000000E+02  0.51100000000E-03 0.  1.
         11   -1    0    0    0    0 -0.00000000000E+00 -0.00000000000E+00 -0.45593999997E+02  0.45594000000E+02  0.51100000000E-03 0. -1.
    9900012    2    1    2    0    0  0.18234255029E+02  0.36136169949E+02 -0.38542569532E+01  0.50528854267E+02  0.29999983031E+02 0.  0.
         12    1    1    2    0    0 -0.18234255029E+02 -0.36136169949E+02  0.38542569532E+01  0.40659145733E+02  0.00000000000E+00 0. -1.
         11    1    3    3    0    0  0.90866575050E+01  0.35931121280E+02  0.10490227339E+01  0.37077125967E+02  0.51100000000E-03 0. -1.
        -11    1    3    3    0    0 -0.91070899790E+00  0.44958971727E+00 -0.30585002857E+01  0.32227233905E+01  0.51100000000E-03 0.  1.
        -12    1    3    3    0    0  0.10058306522E+02 -0.24454104774E+00 -0.18447794013E+01  0.10229004910E+02  0.00000000000E+00 0.  1.
</event>
<event>
 7    1  0.2450552E-011  0.5052887E+02  0.7816164E-02  0.1300439E+00
        -11   -1    0    0    0    0  0.00000000000E+00  0.00000000000E+00  0.45593999997E+02  0.45594000000E+02  0.51100000000E-03 0. -1.
         11   -1    0    0    0    0 -0.00000000000E+00 -0.00000000000E+00 -0.45593999997E+02  0.45594000000E+02  0.51100000000E-03 0.  1.
    9900012    2    1    2    0    0  0.13894580647E+02  0.61496356547E+00 -0.38206375430E+02  0.50528872180E+02  0.30000037479E+02 0.  0.
         12    1    1    2    0    0 -0.13894580647E+02 -0.61496356547E+00  0.38206375430E+02  0.40659127820E+02  0.00000000000E+00 0. -1.
         11    1    3    3    0    0  0.13556677774E+02  0.70708920171E+01 -0.81530658944E+01  0.17327824731E+02  0.51100000000E-03 0. -1.
        -11    1    3    3    0    0  0.31373100989E+01  0.80652689846E+00 -0.14345260073E+01  0.35427482865E+01  0.51100000000E-03 0.  1.
        -12    1    3    3    0    0 -0.27994072259E+01 -0.72624553501E+01 -0.28618783529E+02  0.29658299162E+02  0.00000000000E+00 0.  1.
</event>
<event>
 7    1  0.2450552E-011  0.5052884E+02  0.7816164E-02  0.1300439E+00
        -11   -1    0    0    0    0  0.00000000000E+00  0.00000000000E+00  0.45593999997E+02  0.45594000000E+02  0.51100000000E-03 0.  1.
         11   -1    0    0    0    0 -0.00000000000E+00 -0.00000000000E+00 -0.45593999997E+02  0.45594000000E+02  0.51100000000E-03 0. -1.
    9900012    2    1    2    0    0 -0.19807105059E+02 -0.34931502491E+02  0.63746615877E+01  0.50528836366E+02  0.29999928617E+02 0.  0.
         12    1    1    2    0    0  0.19807105059E+02  0.34931502491E+02 -0.63746615877E+01  0.40659163634E+02  0.00000000000E+00 0. -1.
         11    1    3    3    0    0  0.49248020119E+01 -0.15494505169E+02  0.11559384943E+01  0.16299372975E+02  0.51100000000E-03 0. -1.
        -11    1    3    3    0    0 -0.68225555744E+01 -0.94007139021E+01 -0.31880655822E+01  0.12045100616E+02  0.51100000000E-03 0.  1.
        -12    1    3    3    0    0 -0.17909351496E+02 -0.10036283419E+02  0.84067886756E+01  0.22184362775E+02  0.00000000000E+00 0.  1.
</event>
<event>
 7    1  0.2450552E-011  0.5052886E+02  0.7816164E-02  0.1300439E+00
        -11   -1    0    0    0    0  0.00000000000E+00  0.00000000000E+00  0.45593999997E+02  0.45594000000E+02  0.51100000000E-03 0. -1.
         11   -1    0    0    0    0 -0.00000000000E+00 -0.00000000000E+00 -0.45593999997E+02  0.45594000000E+02  0.51100000000E-03 0.  1.
    9900012    2    1    2    0    0 -0.40199496223E+02  0.58462636443E+01 -0.17283023739E+01  0.50528864197E+02  0.30000013212E+02 0.  0.
         12    1    1    2    0    0  0.40199496223E+02 -0.58462636443E+01  0.17283023739E+01  0.40659135803E+02  0.00000000000E+00 0. -1.
         11    1    3    3    0    0 -0.22271283151E+02 -0.14751860020E+01  0.11797732760E+02  0.25246241809E+02  0.51100000000E-03 0. -1.
        -11    1    3    3    0    0 -0.20117797463E+01 -0.94960342824E+00 -0.48951916644E+01  0.53769792738E+01  0.51100000000E-03 0.  1.
        -12    1    3    3    0    0 -0.15916433325E+02  0.82710530745E+01 -0.86308434697E+01  0.19905643114E+02  0.00000000000E+00 0.  1.
</event>
<event>
 7    1  0.2450552E-011  0.5052886E+02  0.7816164E-02  0.1300439E+00
        -11   -1    0    0    0    0  0.00000000000E+00  0.00000000000E+00  0.45593999997E+02  0.45594000000E+02  0.51100000000E-03 0. -1.
         11   -1    0    0    0    0 -0.00000000000E+00 -0.00000000000E+00 -0.45593999997E+02  0.45594000000E+02  0.51100000000E-03 0.  1.
    9900012    2    1    2    0    0 -0.35336890939E+01  0.51406037692E+01 -0.40177769842E+02  0.50528856438E+02  0.29999989628E+02 0.  0.
         12    1    1    2    0    0  0.35336890939E+01 -0.51406037692E+01  0.40177769842E+02  0.40659143562E+02  0.00000000000E+00 0. -1.
         11    1    3    3    0    0 -0.40018851190E+01 -0.22144608389E+01  0.19878482322E+01  0.49870293932E+01  0.51100000000E-03 0. -1.
        -11    1    3    3    0    0 -0.26751404603E+00  0.89327555563E+01 -0.10332396493E+02  0.13661043267E+02  0.51100000000E-03 0.  1.
        -12    1    3    3    0    0  0.73571007112E+00 -0.15776909481E+01 -0.31833221581E+02  0.31880783778E+02  0.00000000000E+00 0.  1.
</event>
<event>
 7    1  0.2450552E-011  0.5052886E+02  0.7816164E-02  0.1300439E+00
        -11   -1    0    0    0    0  0.00000000000E+00  0.00000000000E+00  0.45593999997E+02  0.45594000000E+02  0.51100000000E-03 0.  1.
         11   -1    0    0    0    0 -0.00000000000E+00 -0.00000000000E+00 -0.45593999997E+02  0.45594000000E+02  0.51100000000E-03 0. -1.
    9900012    2    1    2    0    0 -0.34613316415E+02 -0.16516133284E+02  0.13501907851E+02  0.50528857762E+02  0.29999993653E+02 0.  0.
         12    1    1    2    0    0  0.34613316415E+02  0.16516133284E+02 -0.13501907851E+02  0.40659142238E+02  0.00000000000E+00 0. -1.
         11    1    3    3    0    0 -0.32787105565E+02 -0.90409766084E+01  0.12421263579E+02  0.36208028647E+02  0.51100000000E-03 0. -1.
        -11    1    3    3    0    0 -0.56318404692E+01  0.21464399779E+00 -0.23370888788E+00  0.56407729277E+01  0.51100000000E-03 0.  1.
         12    1    3    3    0    0  0.38056296186E+01 -0.76898006730E+01  0.13143531597E+01  0.86800561872E+01  0.00000000000E+00 0. -1.
</event>
<event>
 7    1  0.2450552E-011  0.5052887E+02  0.7816164E-02  0.1300439E+00
        -11   -1    0    0    0    0  0.00000000000E+00  0.00000000000E+00  0.45593999997E+02  0.45594000000E+02  0.51100000000E-03 0. -1.
         11   -1    0    0    0    0 -0.00000000000E+00 -0.00000000000E+00 -0.45593999997E+02  0.45594000000E+02  0.51100000000E-03 0.  1.
    9900012    2    1    2    0    0  0.98287898153E+01  0.36910113686E+02  0.13935696850E+02  0.50528865132E+02  0.30000016054E+02 0.  0.
         12    1    1    2    0    0 -0.98287898153E+01 -0.36910113686E+02 -0.13935696850E+02  0.40659134868E+02  0.00000000000E+00 0. -1.
         11    1    3    3    0    0  0.13130361698E+02  0.19593249941E+02  0.13613147743E+02  0.27232694198E+02  0.51100000000E-03 0.  1.
        -11    1    3    3    0    0 -0.77153708641E+01  0.10341702478E+02  0.49660788072E+01  0.13825328086E+02  0.51100000000E-03 0. -1.
         12    1    3    3    0    0  0.44137989810E+01  0.69751612675E+01 -0.46435297002E+01  0.94708428468E+01  0.00000000000E+00 0. -1.
</event>
<event>
 7    1  0.2450552E-011  0.5052884E+02  0.7816164E-02  0.1300439E+00
        -11   -1    0    0    0    0  0.00000000000E+00  0.00000000000E+00  0.45593999997E+02  0.45594000000E+02  0.51100000000E-03 0.  1.
         11   -1    0    0    0    0 -0.00000000000E+00 -0.00000000000E+00 -0.45593999997E+02  0.45594000000E+02  0.51100000000E-03 0. -1.
    9900012    2    1    2    0    0  0.51126967424E+01  0.78413021485E+01  0.39566921855E+02  0.50528843683E+02  0.29999950858E+02 0.  0.
         12    1    1    2    0    0 -0.51126967424E+01 -0.78413021485E+01 -0.39566921855E+02  0.40659156317E+02  0.00000000000E+00 0. -1.
         11    1    3    3    0    0  0.41955820083E+01  0.22817578429E+01 -0.14425763668E+01  0.49890233590E+01  0.51100000000E-03 0. -1.
        -11    1    3    3    0    0  0.97429393298E+01  0.16987662016E+01  0.16963783263E+02  0.19636206768E+02  0.51100000000E-03 0.  1.
        -12    1    3    3    0    0 -0.88258245957E+01  0.38607781040E+01  0.24045714959E+02  0.25903613556E+02  0.00000000000E+00 0.  1.
</event>
<event>
 7    1  0.2450552E-011  0.5052886E+02  0.7816164E-02  0.1300439E+00
        -11   -1    0    0    0    0  0.00000000000E+00  0.00000000000E+00  0.45593999997E+02  0.45594000000E+02  0.51100000000E-03 0. -1.
         11   -1    0    0    0    0 -0.00000000000E+00 -0.00000000000E+00 -0.45593999997E+02  0.45594000000E+02  0.51100000000E-03 0.  1.
    9900012    2    1    2    0    0  0.47053512890E+01  0.34102598903E+02  0.21634183312E+02  0.50528862401E+02  0.30000007754E+02 0.  0.
         12    1    1    2    0    0 -0.47053512890E+01 -0.34102598903E+02 -0.21634183312E+02  0.40659137599E+02  0.00000000000E+00 0. -1.
         11    1    3    3    0    0  0.54259910792E+01  0.70860901713E+01  0.10341204248E+02  0.13659961884E+02  0.51100000000E-03 0. -1.
        -11    1    3    3    0    0  0.64012569240E+01  0.26577094644E+02  0.11669242387E+02  0.29723547367E+02  0.51100000000E-03 0.  1.
        -12    1    3    3    0    0 -0.71218967143E+01  0.43941408796E+00 -0.37626332283E+00  0.71453531500E+01  0.00000000000E+00 0.  1.
</event>
<event>
 7    1  0.2450552E-011  0.5052887E+02  0.7816164E-02  0.1300439E+00
        -11   -1    0    0    0    0  0.00000000000E+00  0.00000000000E+00  0.45593999997E+02  0.45594000000E+02  0.51100000000E-03 0.  1.
         11   -1    0    0    0    0 -0.00000000000E+00 -0.00000000000E+00 -0.45593999997E+02  0.45594000000E+02  0.51100000000E-03 0. -1.
    9900012    2    1    2    0    0  0.31760624697E+02 -0.92782991063E+01  0.23629230696E+02  0.50528872381E+02  0.30000038090E+02 0.  0.
         12    1    1    2    0    0 -0.31760624697E+02  0.92782991063E+01 -0.23629230696E+02  0.40659127619E+02  0.00000000000E+00 0. -1.
         11    1    3    3    0    0 -0.97437137930E-01  0.53713368695E+01  0.44514356218E+01  0.69768211328E+01  0.51100000000E-03 0. -1.
        -11    1    3    3    0    0  0.78095091255E+01 -0.61301913052E+01  0.14562703306E+02  0.17624982441E+02  0.51100000000E-03 0.  1.
         12    1    3    3    0    0  0.24048552709E+02 -0.85194446706E+01  0.46150917684E+01  0.25927068807E+02  0.00000000000E+00 0. -1.
</event>
<event>
 7    1  0.2450552E-011  0.5052886E+02  0.7816164E-02  0.1300439E+00
        -11   -1    0    0    0    0  0.00000000000E+00  0.00000000000E+00  0.45593999997E+02  0.45594000000E+02  0.51100000000E-03 0. -1.
         11   -1    0    0    0    0 -0.00000000000E+00 -0.00000000000E+00 -0.45593999997E+02  0.45594000000E+02  0.51100000000E-03 0.  1.
    9900012    2    1    2    0    0  0.75576229744E+01 -0.33059430407E+02 -0.22430382587E+02  0.50528859984E+02  0.30000000406E+02 0.  0.
         12    1    1    2    0    0 -0.75576229744E+01  0.33059430407E+02  0.22430382587E+02  0.40659140016E+02  0.00000000000E+00 0. -1.
         11    1    3    3    0    0  0.10505605726E+01  0.11798476258E+01 -0.61582230224E+01  0.63576276229E+01  0.51100000000E-03 0. -1.
        -11    1    3    3    0    0  0.79605549097E+01 -0.52221185536E+01  0.21620660642E+01  0.97629650509E+01  0.51100000000E-03 0.  1.
        -12    1    3    3    0    0 -0.14534925079E+01 -0.29017159480E+02 -0.18434225629E+02  0.34408267310E+02  0.00000000000E+00 0.  1.
</event>
<event>
 7    1  0.2450552E-011  0.5052885E+02  0.7816164E-02  0.1300439E+00
        -11   -1    0    0    0    0  0.00000000000E+00  0.00000000000E+00  0.45593999997E+02  0.45594000000E+02  0.51100000000E-03 0.  1.
         11   -1    0    0    0    0 -0.00000000000E+00 -0.00000000000E+00 -0.45593999997E+02  0.45594000000E+02  0.51100000000E-03 0. -1.
    9900012    2    1    2    0    0 -0.35993219059E+02  0.62508093295E+01  0.17848874113E+02  0.50528846754E+02  0.29999960195E+02 0.  0.
         12    1    1    2    0    0  0.35993219059E+02 -0.62508093295E+01 -0.17848874113E+02  0.40659153246E+02  0.00000000000E+00 0. -1.
         11    1    3    3    0    0 -0.58907932977E+01  0.31847162539E+01  0.15056458086E+02  0.16478494884E+02  0.51100000000E-03 0. -1.
        -11    1    3    3    0    0 -0.14281181081E+02  0.55482764990E+01  0.79038158521E+01  0.17239658073E+02  0.51100000000E-03 0.  1.
        -12    1    3    3    0    0 -0.15821244680E+02 -0.24821834234E+01 -0.51113998246E+01  0.16810693797E+02  0.00000000000E+00 0.  1.
</event>
<event>
 7    1  0.2450552E-011  0.5052886E+02  0.7816164E-02  0.1300439E+00
        -11   -1    0    0    0    0  0.00000000000E+00  0.00000000000E+00  0.45593999997E+02  0.45594000000E+02  0.51100000000E-03 0.  1.
         11   -1    0    0    0    0 -0.00000000000E+00 -0.00000000000E+00 -0.45593999997E+02  0.45594000000E+02  0.51100000000E-03 0. -1.
    9900012    2    1    2    0    0  0.58614248365E+01  0.31767838110E+02  0.24690361019E+02  0.50528858758E+02  0.29999996681E+02 0.  0.
         12    1    1    2    0    0 -0.58614248365E+01 -0.31767838110E+02 -0.24690361019E+02  0.40659141242E+02  0.00000000000E+00 0. -1.
         11    1    3    3    0    0  0.62802734515E+01  0.97802861856E+01 -0.37655054565E+01  0.12217809300E+02  0.51100000000E-03 0.  1.
        -11    1    3    3    0    0  0.22798796338E+01  0.14478583679E+02  0.87962854965E+01  0.17093913399E+02  0.51100000000E-03 0. -1.
        -12    1    3    3    0    0 -0.26987282488E+01  0.75089682450E+01  0.19659580979E+02  0.21217136058E+02  0.00000000000E+00 0.  1.
</event>
<event>
 7    1  0.2450552E-011  0.5052886E+02  0.7816164E-02  0.1300439E+00
        -11   -1    0    0    0    0  0.00000000000E+00  0.00000000000E+00  0.45593999997E+02  0.45594000000E+02  0.51100000000E-03 0.  1.
         11   -1    0    0    0    0 -0.00000000000E+00 -0.00000000000E+00 -0.45593999997E+02  0.45594000000E+02  0.51100000000E-03 0. -1.
    9900012    2    1    2    0    0  0.23189747410E+02  0.32725990520E+02  0.66641429901E+01  0.50528860286E+02  0.30000001326E+02 0.  0.
         12    1    1    2    0    0 -0.23189747410E+02 -0.32725990520E+02 -0.66641429901E+01  0.40659139714E+02  0.00000000000E+00 0. -1.
         11    1    3    3    0    0  0.22351567585E+02  0.15935178569E+02 -0.45030063335E+01  0.27817252844E+02  0.51100000000E-03 0. -1.
        -11    1    3    3    0    0  0.29761450166E+01  0.42286026015E+01  0.80918225178E+01  0.96029220054E+01  0.51100000000E-03 0.  1.
        -12    1    3    3    0    0 -0.21379651915E+01  0.12562209350E+02  0.30753268058E+01  0.13108685436E+02  0.00000000000E+00 0.  1.
</event>
<event>
 7    1  0.2450552E-011  0.5052886E+02  0.7816164E-02  0.1300439E+00
        -11   -1    0    0    0    0  0.00000000000E+00  0.00000000000E+00  0.45593999997E+02  0.45594000000E+02  0.51100000000E-03 0.  1.
         11   -1    0    0    0    0 -0.00000000000E+00 -0.00000000000E+00 -0.45593999997E+02  0.45594000000E+02  0.51100000000E-03 0. -1.
    9900012    2    1    2    0    0 -0.32368623608E+02 -0.75879480819E+01  0.23406429459E+02  0.50528859694E+02  0.29999999527E+02 0.  0.
         12    1    1    2    0    0  0.32368623608E+02  0.75879480819E+01 -0.23406429459E+02  0.40659140306E+02  0.00000000000E+00 0. -1.
         11    1    3    3    0    0  0.16168171884E+01 -0.27176477347E+01  0.23755821294E+01  0.39551356166E+01  0.51100000000E-03 0. -1.
        -11    1    3    3    0    0 -0.16439465117E+02 -0.12759511319E+02  0.17108419750E+02  0.26939917762E+02  0.51100000000E-03 0.  1.
        -12    1    3    3    0    0 -0.17545975680E+02  0.78892109719E+01  0.39224275794E+01  0.19633806316E+02  0.00000000000E+00 0.  1.
</event>
<event>
 7    1  0.2450552E-011  0.5052886E+02  0.7816164E-02  0.1300439E+00
        -11   -1    0    0    0    0  0.00000000000E+00  0.00000000000E+00  0.45593999997E+02  0.45594000000E+02  0.51100000000E-03 0.  1.
         11   -1    0    0    0    0 -0.00000000000E+00 -0.00000000000E+00 -0.45593999997E+02  0.45594000000E+02  0.51100000000E-03 0. -1.
    9900012    2    1    2    0    0 -0.34248405005E+02 -0.14250677407E+02  0.16647236445E+02  0.50528861628E+02  0.30000005403E+02 0.  0.
         12    1    1    2    0    0  0.34248405005E+02  0.14250677407E+02 -0.16647236445E+02  0.40659138372E+02  0.00000000000E+00 0. -1.
         11    1    3    3    0    0 -0.94376300172E+01  0.63406385191E+01 -0.62541606192E-01  0.11369981042E+02  0.51100000000E-03 0. -1.
        -11    1    3    3    0    0 -0.10188821671E+02 -0.13188489924E+01  0.93002718043E+01  0.13858084485E+02  0.51100000000E-03 0.  1.
         12    1    3    3    0    0 -0.14621953317E+02 -0.19272466934E+02  0.74095062466E+01  0.25300796101E+02  0.00000000000E+00 0. -1.
</event>
<event>
 7    1  0.2450552E-011  0.5052890E+02  0.7816164E-02  0.1300439E+00
        -11   -1    0    0    0    0  0.00000000000E+00  0.00000000000E+00  0.45593999997E+02  0.45594000000E+02  0.51100000000E-03 0.  1.
         11   -1    0    0    0    0 -0.00000000000E+00 -0.00000000000E+00 -0.45593999997E+02  0.45594000000E+02  0.51100000000E-03 0. -1.
    9900012    2    1    2    0    0  0.12989687227E+02  0.36629798864E+02  0.11945229128E+02  0.50528897230E+02  0.30000113621E+02 0.  0.
         12    1    1    2    0    0 -0.12989687227E+02 -0.36629798864E+02 -0.11945229128E+02  0.40659102770E+02  0.00000000000E+00 0. -1.
         11    1    3    3    0    0 -0.66043858142E+00 -0.31147551916E+01  0.38187490931E+01  0.49719939582E+01  0.51100000000E-03 0.  1.
        -11    1    3    3    0    0 -0.22261760980E+01  0.16297246515E+02  0.18434829084E+01  0.16551571934E+02  0.51100000000E-03 0. -1.
        -12    1    3    3    0    0  0.15876301906E+02  0.23447307541E+02  0.62829971269E+01  0.29005331338E+02  0.00000000000E+00 0.  1.
</event>
<event>
 7    1  0.2450552E-011  0.5052886E+02  0.7816164E-02  0.1300439E+00
        -11   -1    0    0    0    0  0.00000000000E+00  0.00000000000E+00  0.45593999997E+02  0.45594000000E+02  0.51100000000E-03 0.  1.
         11   -1    0    0    0    0 -0.00000000000E+00 -0.00000000000E+00 -0.45593999997E+02  0.45594000000E+02  0.51100000000E-03 0. -1.
    9900012    2    1    2    0    0 -0.26442528629E+02  0.29897322105E+02  0.77529524052E+01  0.50528862523E+02  0.30000008126E+02 0.  0.
         12    1    1    2    0    0  0.26442528629E+02 -0.29897322105E+02 -0.77529524052E+01  0.40659137477E+02  0.00000000000E+00 0. -1.
         11    1    3    3    0    0 -0.20057070316E+02  0.20947208801E+02  0.29460987644E+01  0.29150490980E+02  0.51100000000E-03 0. -1.
        -11    1    3    3    0    0  0.26454336417E+01  0.10420324227E+02  0.57292870236E+01  0.12182208593E+02  0.51100000000E-03 0.  1.
         12    1    3    3    0    0 -0.90308919546E+01 -0.14702109228E+01 -0.92243338289E+00  0.91961629498E+01  0.00000000000E+00 0. -1.
</event>
<event>
 7    1  0.2450552E-011  0.5052887E+02  0.7816164E-02  0.1300439E+00
        -11   -1    0    0    0    0  0.00000000000E+00  0.00000000000E+00  0.45593999997E+02  0.45594000000E+02  0.51100000000E-03 0. -1.
         11   -1    0    0    0    0 -0.00000000000E+00 -0.00000000000E+00 -0.45593999997E+02  0.45594000000E+02  0.51100000000E-03 0.  1.
    9900012    2    1    2    0    0 -0.31835216293E+01 -0.36884180391E+02 -0.16810340056E+02  0.50528866882E+02  0.30000021376E+02 0.  0.
         12    1    1    2    0    0  0.31835216293E+01  0.36884180391E+02  0.16810340056E+02  0.40659133118E+02  0.00000000000E+00 0. -1.
         11    1    3    3    0    0  0.73974378196E+01 -0.72547127045E+01 -0.93022584429E+01  0.13924257794E+02  0.51100000000E-03 0. -1.
        -11    1    3    3    0    0  0.93737428863E+00 -0.18136139188E+02 -0.89934341734E+01  0.20265242996E+02  0.51100000000E-03 0.  1.
        -12    1    3    3    0    0 -0.11518333738E+02 -0.11493328498E+02  0.14853525599E+01  0.16339366092E+02  0.00000000000E+00 0.  1.
</event>
<event>
 7    1  0.2450552E-011  0.5052886E+02  0.7816164E-02  0.1300439E+00
        -11   -1    0    0    0    0  0.00000000000E+00  0.00000000000E+00  0.45593999997E+02  0.45594000000E+02  0.51100000000E-03 0.  1.
         11   -1    0    0    0    0 -0.00000000000E+00 -0.00000000000E+00 -0.45593999997E+02  0.45594000000E+02  0.51100000000E-03 0. -1.
    9900012    2    1    2    0    0  0.23331600357E+02  0.29390842477E+02 -0.15651845829E+02  0.50528862348E+02  0.30000007594E+02 0.  0.
         12    1    1    2    0    0 -0.23331600357E+02 -0.29390842477E+02  0.15651845829E+02  0.40659137652E+02  0.00000000000E+00 0. -1.
         11    1    3    3    0    0  0.51595213322E+01  0.42770014378E+01  0.29356934757E+01  0.73165359372E+01  0.51100000000E-03 0. -1.
        -11    1    3    3    0    0  0.20130328328E+02  0.27397640171E+02 -0.12145186709E+02  0.36102165669E+02  0.51100000000E-03 0.  1.
         12    1    3    3    0    0 -0.19582493037E+01 -0.22837991315E+01 -0.64423525955E+01  0.71101607418E+01  0.00000000000E+00 0. -1.
</event>
<event>
 7    1  0.2450552E-011  0.5052886E+02  0.7816164E-02  0.1300439E+00
        -11   -1    0    0    0    0  0.00000000000E+00  0.00000000000E+00  0.45593999997E+02  0.45594000000E+02  0.51100000000E-03 0.  1.
         11   -1    0    0    0    0 -0.00000000000E+00 -0.00000000000E+00 -0.45593999997E+02  0.45594000000E+02  0.51100000000E-03 0. -1.
    9900012    2    1    2    0    0  0.83592365214E+01  0.96839537096E+00  0.39778777865E+02  0.50528858429E+02  0.29999995681E+02 0.  0.
         12    1    1    2    0    0 -0.83592365214E+01 -0.96839537096E+00 -0.39778777865E+02  0.40659141571E+02  0.00000000000E+00 0. -1.
         11    1    3    3    0    0  0.68000326327E+01 -0.22674045033E+01  0.75932423863E+00  0.72081995358E+01  0.51100000000E-03 0. -1.
        -11    1    3    3    0    0  0.14587288119E+00 -0.75692385384E+01  0.20226619734E+02  0.21597008985E+02  0.51100000000E-03 0.  1.
        -12    1    3    3    0    0  0.14133310076E+01  0.10805038413E+02  0.18792833892E+02  0.21723649908E+02  0.00000000000E+00 0.  1.
</event>
<event>
 7    1  0.2450552E-011  0.5052886E+02  0.7816164E-02  0.1300439E+00
        -11   -1    0    0    0    0  0.00000000000E+00  0.00000000000E+00  0.45593999997E+02  0.45594000000E+02  0.51100000000E-03 0. -1.
         11   -1    0    0    0    0 -0.00000000000E+00 -0.00000000000E+00 -0.45593999997E+02  0.45594000000E+02  0.51100000000E-03 0.  1.
    9900012    2    1    2    0    0  0.34481354088E+00  0.96651993580E+01 -0.39492160409E+02  0.50528859468E+02  0.29999998838E+02 0.  0.
         12    1    1    2    0    0 -0.34481354088E+00 -0.96651993580E+01  0.39492160409E+02  0.40659140532E+02  0.00000000000E+00 0. -1.
         11    1    3    3    0    0 -0.39731937498E+01 -0.98092094357E+01 -0.16872141825E+02  0.19916727351E+02  0.51100000000E-03 0. -1.
        -11    1    3    3    0    0  0.35463165642E+01  0.53882654016E+01 -0.82811692415E+01  0.10497024792E+02  0.51100000000E-03 0.  1.
        -12    1    3    3    0    0  0.77169072652E+00  0.14086143392E+02 -0.14338849343E+02  0.20115107325E+02  0.00000000000E+00 0.  1.
</event>
<event>
 7    1  0.2450552E-011  0.5052886E+02  0.7816164E-02  0.1300439E+00
        -11   -1    0    0    0    0  0.00000000000E+00  0.00000000000E+00  0.45593999997E+02  0.45594000000E+02  0.51100000000E-03 0.  1.
         11   -1    0    0    0    0 -0.00000000000E+00 -0.00000000000E+00 -0.45593999997E+02  0.45594000000E+02  0.51100000000E-03 0. -1.
    9900012    2    1    2    0    0 -0.14162053226E+02 -0.28998699140E+02  0.24732105612E+02  0.50528863863E+02  0.30000012199E+02 0.  0.
         12    1    1    2    0    0  0.14162053226E+02  0.28998699140E+02 -0.24732105612E+02  0.40659136137E+02  0.00000000000E+00 0. -1.
         11    1    3    3    0    0 -0.21661017949E+01 -0.21681821981E+02  0.24202022136E+02  0.32565799194E+02  0.51100000000E-03 0. -1.
        -11    1    3    3    0    0  0.13549895880E+01 -0.39386386257E+01 -0.21939063588E+00  0.41709715318E+01  0.51100000000E-03 0.  1.
        -12    1    3    3    0    0 -0.13350941019E+02 -0.33782385329E+01  0.74947411200E+00  0.13792093137E+02  0.00000000000E+00 0.  1.
</event>
<event>
 7    1  0.2450552E-011  0.5052887E+02  0.7816164E-02  0.1300439E+00
        -11   -1    0    0    0    0  0.00000000000E+00  0.00000000000E+00  0.45593999997E+02  0.45594000000E+02  0.51100000000E-03 0.  1.
         11   -1    0    0    0    0 -0.00000000000E+00 -0.00000000000E+00 -0.45593999997E+02  0.45594000000E+02  0.51100000000E-03 0. -1.
    9900012    2    1    2    0    0  0.33067996278E+02  0.23024322714E+02  0.54362844940E+01  0.50528868143E+02  0.30000025208E+02 0.  0.
         12    1    1    2    0    0 -0.33067996278E+02 -0.23024322714E+02 -0.54362844940E+01  0.40659131857E+02  0.00000000000E+00 0. -1.
         11    1    3    3    0    0  0.12638161272E+02  0.11476683744E+02 -0.62804760110E+01  0.18190155834E+02  0.51100000000E-03 0. -1.
        -11    1    3    3    0    0  0.22007803871E+02  0.14595513731E+02  0.11756060419E+02  0.28906355861E+02  0.51100000000E-03 0.  1.
         12    1    3    3    0    0 -0.15779688655E+01 -0.30478747615E+01 -0.39299914006E-01  0.34323564479E+01  0.00000000000E+00 0. -1.
</event>
<event>
 7    1  0.2450552E-011  0.5052883E+02  0.7816164E-02  0.1300439E+00
        -11   -1    0    0    0    0  0.00000000000E+00  0.00000000000E+00  0.45593999997E+02  0.45594000000E+02  0.51100000000E-03 0.  1.
         11   -1    0    0    0    0 -0.00000000000E+00 -0.00000000000E+00 -0.45593999997E+02  0.45594000000E+02  0.51100000000E-03 0. -1.
    9900012    2    1    2    0    0  0.26715163774E+02  0.87476536164E+01  0.29375950468E+02  0.50528832704E+02  0.29999917487E+02 0.  0.
         12    1    1    2    0    0 -0.26715163774E+02 -0.87476536164E+01 -0.29375950468E+02  0.40659167296E+02  0.00000000000E+00 0. -1.
         11    1    3    3    0    0 -0.16634575340E+01 -0.25363464044E+01  0.23615298271E+01  0.38440821318E+01  0.51100000000E-03 0. -1.
        -11    1    3    3    0    0  0.10191020286E+02  0.68140154278E+01 -0.17264169189E+01  0.12380154133E+02  0.51100000000E-03 0.  1.
        -12    1    3    3    0    0  0.18187601023E+02  0.44699845930E+01  0.28740837560E+02  0.34304596440E+02  0.00000000000E+00 0.  1.
</event>
<event>
 7    1  0.2450552E-011  0.5052887E+02  0.7816164E-02  0.1300439E+00
        -11   -1    0    0    0    0  0.00000000000E+00  0.00000000000E+00  0.45593999997E+02  0.45594000000E+02  0.51100000000E-03 0.  1.
         11   -1    0    0    0    0 -0.00000000000E+00 -0.00000000000E+00 -0.45593999997E+02  0.45594000000E+02  0.51100000000E-03 0. -1.
    9900012    2    1    2    0    0  0.12165092253E+02  0.71880115751E+00  0.38789933980E+02  0.50528866674E+02  0.30000020744E+02 0.  0.
         12    1    1    2    0    0 -0.12165092253E+02 -0.71880115751E+00 -0.38789933980E+02  0.40659133326E+02  0.00000000000E+00 0. -1.
         11    1    3    3    0    0  0.21622265041E+01 -0.34346932457E+01  0.14719761022E+02  0.15269044042E+02  0.51100000000E-03 0. -1.
        -11    1    3    3    0    0  0.15460851639E+02  0.32936139067E+01  0.25076955827E+02  0.29643541283E+02  0.51100000000E-03 0.  1.
         12    1    3    3    0    0 -0.54579858905E+01  0.85988049647E+00 -0.10067828695E+01  0.56162813494E+01  0.00000000000E+00 0. -1.
</event>
<event>
 7    1  0.2450552E-011  0.5052886E+02  0.7816164E-02  0.1300439E+00
        -11   -1    0    0    0    0  0.00000000000E+00  0.00000000000E+00  0.45593999997E+02  0.45594000000E+02  0.51100000000E-03 0.  1.
         11   -1    0    0    0    0 -0.00000000000E+00 -0.00000000000E+00 -0.45593999997E+02  0.45594000000E+02  0.51100000000E-03 0. -1.
    9900012    2    1    2    0    0  0.18146329755E+02 -0.13450828403E+02  0.33807571514E+02  0.50528856379E+02  0.29999989450E+02 0.  0.
         12    1    1    2    0    0 -0.18146329755E+02  0.13450828403E+02 -0.33807571514E+02  0.40659143621E+02  0.00000000000E+00 0. -1.
         11    1    3    3    0    0  0.26701341019E+00 -0.13727727632E+02  0.17001208949E+02  0.21853212764E+02  0.51100000000E-03 0. -1.
        -11    1    3    3    0    0  0.62273120346E+01 -0.21300636751E+00  0.15783110923E+02  0.16968540820E+02  0.51100000000E-03 0.  1.
         12    1    3    3    0    0  0.11652004310E+02  0.48990559699E+00  0.10232516420E+01  0.11707102795E+02  0.00000000000E+00 0. -1.
</event>
<event>
 7    1  0.2450552E-011  0.5052880E+02  0.7816164E-02  0.1300439E+00
        -11   -1    0    0    0    0  0.00000000000E+00  0.00000000000E+00  0.45593999997E+02  0.45594000000E+02  0.51100000000E-03 0.  1.
         11   -1    0    0    0    0 -0.00000000000E+00 -0.00000000000E+00 -0.45593999997E+02  0.45594000000E+02  0.51100000000E-03 0. -1.
    9900012    2    1    2    0    0  0.16561218560E+02 -0.11469481260E+02  0.35317805620E+02  0.50528802339E+02  0.29999825191E+02 0.  0.
         12    1    1    2    0    0 -0.16561218560E+02  0.11469481260E+02 -0.35317805620E+02  0.40659197661E+02  0.00000000000E+00 0. -1.
         11    1    3    3    0    0 -0.21244935254E+01 -0.39400136181E+01 -0.98019442795E+00  0.45823532631E+01  0.51100000000E-03 0. -1.
        -11    1    3    3    0    0  0.69383396311E+01 -0.12676725642E+02  0.24891677734E+02  0.28782556359E+02  0.51100000000E-03 0.  1.
        -12    1    3    3    0    0  0.11747372455E+02  0.51472579999E+01  0.11406322314E+02  0.17163892718E+02  0.00000000000E+00 0.  1.
</event>
<event>
 7    1  0.2450552E-011  0.5052885E+02  0.7816164E-02  0.1300439E+00
        -11   -1    0    0    0    0  0.00000000000E+00  0.00000000000E+00  0.45593999997E+02  0.45594000000E+02  0.51100000000E-03 0.  1.
         11   -1    0    0    0    0 -0.00000000000E+00 -0.00000000000E+00 -0.45593999997E+02  0.45594000000E+02  0.51100000000E-03 0. -1.
    9900012    2    1    2    0    0  0.34716486986E+02 -0.20494572692E+02  0.52824807274E+01  0.50528848740E+02  0.29999966231E+02 0.  0.
         12    1    1    2    0    0 -0.34716486986E+02  0.20494572692E+02 -0.52824807274E+01  0.40659151260E+02  0.00000000000E+00 0. -1.
         11    1    3    3    0    0  0.53371363213E+01 -0.96539414952E+01 -0.49023871966E+01  0.12071330125E+02  0.51100000000E-03 0. -1.
        -11    1    3    3    0    0  0.14982932104E+02  0.46468971555E+01  0.65620698413E+01  0.17004195614E+02  0.51100000000E-03 0.  1.
         12    1    3    3    0    0  0.14396418561E+02 -0.15487528353E+02  0.36227980827E+01  0.21453323001E+02  0.00000000000E+00 0. -1.
</event>
<event>
 7    1  0.2450552E-011  0.5052886E+02  0.7816164E-02  0.1300439E+00
        -11   -1    0    0    0    0  0.00000000000E+00  0.00000000000E+00  0.45593999997E+02  0.45594000000E+02  0.51100000000E-03 0.  1.
         11   -1    0    0    0    0 -0.00000000000E+00 -0.00000000000E+00 -0.45593999997E+02  0.45594000000E+02  0.51100000000E-03 0. -1.
    9900012    2    1    2    0    0  0.35980451403E+02  0.21040770016E+01  0.18818758547E+02  0.50528859620E+02  0.29999999302E+02 0.  0.
         12    1    1    2    0    0 -0.35980451403E+02 -0.21040770016E+01 -0.18818758547E+02  0.40659140380E+02  0.00000000000E+00 0. -1.
         11    1    3    3    0    0  0.96715722698E+01 -0.19871649241E+01 -0.48349681965E+01  0.10993864304E+02  0.51100000000E-03 0. -1.
        -11    1    3    3    0    0  0.20507037063E+02 -0.16195762365E+01  0.83506396104E+01  0.22201233714E+02  0.51100000000E-03 0.  1.
        -12    1    3    3    0    0  0.58018420704E+01  0.57108181622E+01  0.15303087133E+02  0.17333761602E+02  0.00000000000E+00 0.  1.
</event>
<event>
 7    1  0.2450552E-011  0.5052886E+02  0.7816164E-02  0.1300439E+00
        -11   -1    0    0    0    0  0.00000000000E+00  0.00000000000E+00  0.45593999997E+02  0.45594000000E+02  0.51100000000E-03 0.  1.
         11   -1    0    0    0    0 -0.00000000000E+00 -0.00000000000E+00 -0.45593999997E+02  0.45594000000E+02  0.51100000000E-03 0. -1.
    9900012    2    1    2    0    0 -0.77310485192E+01 -0.32882673901E+02  0.22630203624E+02  0.50528862403E+02  0.30000007760E+02 0.  0.
         12    1    1    2    0    0  0.77310485192E+01  0.32882673901E+02 -0.22630203624E+02  0.40659137597E+02  0.00000000000E+00 0. -1.
         11    1    3    3    0    0 -0.53710207040E+01 -0.18635765849E+01  0.78789688573E+01  0.97159112597E+01  0.51100000000E-03 0. -1.
        -11    1    3    3    0    0 -0.11432155029E+02 -0.22458857553E+02  0.12527434341E+02  0.28143046435E+02  0.51100000000E-03 0.  1.
         12    1    3    3    0    0  0.90721272142E+01 -0.85602397625E+01  0.22238004262E+01  0.12669904708E+02  0.00000000000E+00 0. -1.
</event>
<event>
 7    1  0.2450552E-011  0.5052887E+02  0.7816164E-02  0.1300439E+00
        -11   -1    0    0    0    0  0.00000000000E+00  0.00000000000E+00  0.45593999997E+02  0.45594000000E+02  0.51100000000E-03 0. -1.
         11   -1    0    0    0    0 -0.00000000000E+00 -0.00000000000E+00 -0.45593999997E+02  0.45594000000E+02  0.51100000000E-03 0.  1.
    9900012    2    1    2    0    0 -0.33827232009E+02  0.11837406747E+02 -0.19203105559E+02  0.50528867114E+02  0.30000022081E+02 0.  0.
         12    1    1    2    0    0  0.33827232009E+02 -0.11837406747E+02  0.19203105559E+02  0.40659132886E+02  0.00000000000E+00 0. -1.
         11    1    3    3    0    0 -0.11237739120E+02  0.56636389594E+01  0.46690603907E+01  0.13422507664E+02  0.51100000000E-03 0. -1.
        -11    1    3    3    0    0 -0.18875442755E+02  0.61247400446E+01 -0.90223018537E+01  0.21799007106E+02  0.51100000000E-03 0.  1.
        -12    1    3    3    0    0 -0.37140501340E+01  0.49027742925E-01 -0.14849864096E+02  0.15307352344E+02  0.00000000000E+00 0.  1.
</event>
<event>
 7    1  0.2450552E-011  0.5052887E+02  0.7816164E-02  0.1300439E+00
        -11   -1    0    0    0    0  0.00000000000E+00  0.00000000000E+00  0.45593999997E+02  0.45594000000E+02  0.51100000000E-03 0.  1.
         11   -1    0    0    0    0 -0.00000000000E+00 -0.00000000000E+00 -0.45593999997E+02  0.45594000000E+02  0.51100000000E-03 0. -1.
    9900012    2    1    2    0    0  0.82284594421E+01  0.13199132962E+02  0.37566473878E+02  0.50528872915E+02  0.30000039712E+02 0.  0.
         12    1    1    2    0    0 -0.82284594421E+01 -0.13199132962E+02 -0.37566473878E+02  0.40659127085E+02  0.00000000000E+00 0. -1.
         11    1    3    3    0    0  0.97998927617E+01  0.37409909980E+01  0.13204136597E+02  0.16863633515E+02  0.51100000000E-03 0. -1.
        -11    1    3    3    0    0  0.22945501539E+01  0.14267800152E+02  0.23279466428E+02  0.27400157646E+02  0.51100000000E-03 0.  1.
         12    1    3    3    0    0 -0.38659834735E+01 -0.48096581880E+01  0.10828708525E+01  0.62650817541E+01  0.00000000000E+00 0. -1.
</event>
<event>
 7    1  0.2450552E-011  0.5052886E+02  0.7816164E-02  0.1300439E+00
        -11   -1    0    0    0    0  0.00000000000E+00  0.00000000000E+00  0.45593999997E+02  0.45594000000E+02  0.51100000000E-03 0.  1.
         11   -1    0    0    0    0 -0.00000000000E+00 -0.00000000000E+00 -0.45593999997E+02  0.45594000000E+02  0.51100000000E-03 0. -1.
    9900012    2    1    2    0    0  0.21475279858E+02 -0.84654856025E+01  0.33471091704E+02  0.50528855010E+02  0.29999985288E+02 0.  0.
         12    1    1    2    0    0 -0.21475279858E+02  0.84654856025E+01 -0.33471091704E+02  0.40659144990E+02  0.00000000000E+00 0. -1.
         11    1    3    3    0    0  0.22491322496E+01  0.85722930048E+01  0.73784746108E+01  0.11531898850E+02  0.51100000000E-03 0.  1.
        -11    1    3    3    0    0  0.10249808996E+02 -0.16447985231E+01  0.54409236539E+01  0.11720392361E+02  0.51100000000E-03 0. -1.
        -12    1    3    3    0    0  0.89763386120E+01 -0.15392980084E+02  0.20651693440E+02  0.27276563799E+02  0.00000000000E+00 0.  1.
</event>
<event>
 7    1  0.2450552E-011  0.5052887E+02  0.7816164E-02  0.1300439E+00
        -11   -1    0    0    0    0  0.00000000000E+00  0.00000000000E+00  0.45593999997E+02  0.45594000000E+02  0.51100000000E-03 0.  1.
         11   -1    0    0    0    0 -0.00000000000E+00 -0.00000000000E+00 -0.45593999997E+02  0.45594000000E+02  0.51100000000E-03 0. -1.
    9900012    2    1    2    0    0 -0.28108390766E+02 -0.38970046133E+01  0.29118669407E+02  0.50528865917E+02  0.30000018440E+02 0.  0.
         12    1    1    2    0    0  0.28108390766E+02  0.38970046133E+01 -0.29118669407E+02  0.40659134083E+02  0.00000000000E+00 0. -1.
         11    1    3    3    0    0 -0.55778719385E+01 -0.33623359360E+01 -0.41858495315E+01  0.77420472015E+01  0.51100000000E-03 0. -1.
        -11    1    3    3    0    0 -0.15956648559E+02 -0.41308979844E+01  0.12537037306E+02  0.20708844875E+02  0.51100000000E-03 0.  1.
        -12    1    3    3    0    0 -0.65738702682E+01  0.35962293070E+01  0.20767481633E+02  0.22077973840E+02  0.00000000000E+00 0.  1.
</event>
<event>
 7    1  0.2450552E-011  0.5052887E+02  0.7816164E-02  0.1300439E+00
        -11   -1    0    0    0    0  0.00000000000E+00  0.00000000000E+00  0.45593999997E+02  0.45594000000E+02  0.51100000000E-03 0. -1.
         11   -1    0    0    0    0 -0.00000000000E+00 -0.00000000000E+00 -0.45593999997E+02  0.45594000000E+02  0.51100000000E-03 0.  1.
    9900012    2    1    2    0    0  0.11282488986E+02 -0.37455513808E+02  0.11088485772E+02  0.50528873238E+02  0.30000040695E+02 0.  0.
         12    1    1    2    0    0 -0.11282488986E+02  0.37455513808E+02 -0.11088485772E+02  0.40659126762E+02  0.00000000000E+00 0. -1.
         11    1    3    3    0    0  0.16212677110E+01 -0.17529915314E+02  0.15628048854E+02  0.23540653159E+02  0.51100000000E-03 0. -1.
        -11    1    3    3    0    0  0.65267309523E+00 -0.16343273549E+02 -0.17718862607E+00  0.16357260423E+02  0.51100000000E-03 0.  1.
         12    1    3    3    0    0  0.90085481803E+01 -0.35823249451E+01 -0.43623744565E+01  0.10630959657E+02  0.00000000000E+00 0. -1.
</event>
<event>
 7    1  0.2450552E-011  0.5052886E+02  0.7816164E-02  0.1300439E+00
        -11   -1    0    0    0    0  0.00000000000E+00  0.00000000000E+00  0.45593999997E+02  0.45594000000E+02  0.51100000000E-03 0.  1.
         11   -1    0    0    0    0 -0.00000000000E+00 -0.00000000000E+00 -0.45593999997E+02  0.45594000000E+02  0.51100000000E-03 0. -1.
    9900012    2    1    2    0    0  0.87202600022E+01 -0.29753000189E+02  0.26303642217E+02  0.50528861437E+02  0.30000004825E+02 0.  0.
         12    1    1    2    0    0 -0.87202600022E+01  0.29753000189E+02 -0.26303642217E+02  0.40659138563E+02  0.00000000000E+00 0. -1.
         11    1    3    3    0    0 -0.94695135401E+00 -0.15548362088E+02  0.12929701943E+01  0.15630740631E+02  0.51100000000E-03 0. -1.
        -11    1    3    3    0    0 -0.49337038872E+01 -0.45475731756E+01  0.85547393207E+01  0.10872231645E+02  0.51100000000E-03 0.  1.
        -12    1    3    3    0    0  0.14600915243E+02 -0.96570649261E+01  0.16455932702E+02  0.24025889162E+02  0.00000000000E+00 0.  1.
</event>
<event>
 7    1  0.2450552E-011  0.5052885E+02  0.7816164E-02  0.1300439E+00
        -11   -1    0    0    0    0  0.00000000000E+00  0.00000000000E+00  0.45593999997E+02  0.45594000000E+02  0.51100000000E-03 0.  1.
         11   -1    0    0    0    0 -0.00000000000E+00 -0.00000000000E+00 -0.45593999997E+02  0.45594000000E+02  0.51100000000E-03 0. -1.
    9900012    2    1    2    0    0 -0.13208975105E+02  0.14643559423E+02  0.35556368992E+02  0.50528853037E+02  0.29999979290E+02 0.  0.
         12    1    1    2    0    0  0.13208975105E+02 -0.14643559423E+02 -0.35556368992E+02  0.40659146963E+02  0.00000000000E+00 0. -1.
         11    1    3    3    0    0 -0.58030652565E+01 -0.49891768778E+01  0.89354513340E+01  0.11764767022E+02  0.51100000000E-03 0. -1.
        -11    1    3    3    0    0  0.63713988654E+01  0.54100802725E+01  0.85370456732E+01  0.11947587252E+02  0.51100000000E-03 0.  1.
        -12    1    3    3    0    0 -0.13777308714E+02  0.14222656029E+02  0.18083871985E+02  0.26816498762E+02  0.00000000000E+00 0.  1.
</event>
<event>
 7    1  0.2450552E-011  0.5052886E+02  0.7816164E-02  0.1300439E+00
        -11   -1    0    0    0    0  0.00000000000E+00  0.00000000000E+00  0.45593999997E+02  0.45594000000E+02  0.51100000000E-03 0. -1.
         11   -1    0    0    0    0 -0.00000000000E+00 -0.00000000000E+00 -0.45593999997E+02  0.45594000000E+02  0.51100000000E-03 0.  1.
    9900012    2    1    2    0    0 -0.10203300421E+01  0.32538253545E+02 -0.24359536962E+02  0.50528855172E+02  0.29999985782E+02 0.  0.
         12    1    1    2    0    0  0.10203300421E+01 -0.32538253545E+02  0.24359536962E+02  0.40659144828E+02  0.00000000000E+00 0. -1.
         11    1    3    3    0    0 -0.18932664936E+01  0.14517508692E+02 -0.19011580804E+02  0.23995472939E+02  0.51100000000E-03 0. -1.
        -11    1    3    3    0    0 -0.80508411932E+01  0.13673783742E+02 -0.48589860673E+01  0.16595124333E+02  0.51100000000E-03 0.  1.
         12    1    3    3    0    0  0.89237776447E+01  0.43469611100E+01 -0.48897009020E+00  0.99382579003E+01  0.00000000000E+00 0. -1.
</event>
<event>
 7    1  0.2450552E-011  0.5052889E+02  0.7816164E-02  0.1300439E+00
        -11   -1    0    0    0    0  0.00000000000E+00  0.00000000000E+00  0.45593999997E+02  0.45594000000E+02  0.51100000000E-03 0.  1.
         11   -1    0    0    0    0 -0.00000000000E+00 -0.00000000000E+00 -0.45593999997E+02  0.45594000000E+02  0.51100000000E-03 0. -1.
    9900012    2    1    2    0    0  0.30948918251E+02 -0.23554263203E+02  0.11854294479E+02  0.50528890891E+02  0.30000094351E+02 0.  0.
         12    1    1    2    0    0 -0.30948918251E+02  0.23554263203E+02 -0.11854294479E+02  0.40659109109E+02  0.00000000000E+00 0. -1.
         11    1    3    3    0    0  0.84231971820E+00  0.48790258355E+01  0.32816789427E+01  0.59400178918E+01  0.51100000000E-03 0.  1.
        -11    1    3    3    0    0  0.14323140827E+02 -0.43759348789E+01  0.33280741400E+01  0.15342009222E+02  0.51100000000E-03 0. -1.
        -12    1    3    3    0    0  0.15783457706E+02 -0.24057354160E+02  0.52445413963E+01  0.29246863777E+02  0.00000000000E+00 0.  1.
</event>
<event>
 7    1  0.2719906E-011  0.5052886E+02  0.7816164E-02  0.1300439E+00
        -11   -1    0    0    0    0  0.00000000000E+00  0.00000000000E+00  0.45593999997E+02  0.45594000000E+02  0.51100000000E-03 0. -1.
         11   -1    0    0    0    0 -0.00000000000E+00 -0.00000000000E+00 -0.45593999997E+02  0.45594000000E+02  0.51100000000E-03 0.  1.
    9900012    2    1    2    0    0 -0.12243467257E+02  0.29905811419E+02 -0.24676017066E+02  0.50528857543E+02  0.29999992989E+02 0.  0.
         12    1    1    2    0    0  0.12243467257E+02 -0.29905811419E+02  0.24676017066E+02  0.40659142457E+02  0.00000000000E+00 0. -1.
         11    1    3    3    0    0 -0.70765246790E+01 -0.22067552737E+01 -0.77216526939E+01  0.10703779284E+02  0.51100000000E-03 0. -1.
        -11    1    3    3    0    0 -0.33973486248E+01  0.10928688881E+02  0.16663259939E+01  0.11565243660E+02  0.51100000000E-03 0.  1.
        -12    1    3    3    0    0 -0.17695939528E+01  0.21183877811E+02 -0.18620690366E+02  0.28259834600E+02  0.00000000000E+00 0.  1.
</event>
<event>
 7    1  0.2450552E-011  0.5052883E+02  0.7816164E-02  0.1300439E+00
        -11   -1    0    0    0    0  0.00000000000E+00  0.00000000000E+00  0.45593999997E+02  0.45594000000E+02  0.51100000000E-03 0.  1.
         11   -1    0    0    0    0 -0.00000000000E+00 -0.00000000000E+00 -0.45593999997E+02  0.45594000000E+02  0.51100000000E-03 0. -1.
    9900012    2    1    2    0    0 -0.31699146786E+02  0.23195457796E+02  0.10502530327E+02  0.50528827449E+02  0.29999901512E+02 0.  0.
         12    1    1    2    0    0  0.31699146786E+02 -0.23195457796E+02 -0.10502530327E+02  0.40659172551E+02  0.00000000000E+00 0. -1.
         11    1    3    3    0    0 -0.86272623776E+01 -0.16939761318E+01 -0.57683221241E+01  0.10515357895E+02  0.51100000000E-03 0. -1.
        -11    1    3    3    0    0 -0.14564452308E+02  0.58651945787E+01  0.64239613743E+01  0.16964405633E+02  0.51100000000E-03 0.  1.
        -12    1    3    3    0    0 -0.85074321000E+01  0.19024239349E+02  0.98468910770E+01  0.23049063921E+02  0.00000000000E+00 0.  1.
</event>
<event>
 7    1  0.2450552E-011  0.5052882E+02  0.7816164E-02  0.1300439E+00
        -11   -1    0    0    0    0  0.00000000000E+00  0.00000000000E+00  0.45593999997E+02  0.45594000000E+02  0.51100000000E-03 0. -1.
         11   -1    0    0    0    0 -0.00000000000E+00 -0.00000000000E+00 -0.45593999997E+02  0.45594000000E+02  0.51100000000E-03 0.  1.
    9900012    2    1    2    0    0 -0.75983495399E+01  0.16272017061E+01 -0.39909721000E+02  0.50528824757E+02  0.29999893333E+02 0.  0.
         12    1    1    2    0    0  0.75983495399E+01 -0.16272017061E+01  0.39909721000E+02  0.40659175243E+02  0.00000000000E+00 0. -1.
         11    1    3    3    0    0 -0.56431732900E+00  0.53771811701E+01 -0.21901810466E-01  0.54067560823E+01  0.51100000000E-03 0. -1.
        -11    1    3    3    0    0 -0.88111842741E+01  0.58077567906E+01 -0.14476819988E+02  0.17914946957E+02  0.51100000000E-03 0.  1.
         12    1    3    3    0    0  0.17771520632E+01 -0.95577362546E+01 -0.25410999201E+02  0.27207121718E+02  0.00000000000E+00 0. -1.
</event>
<event>
 7    1  0.2734698E-011  0.5052887E+02  0.7816164E-02  0.1300439E+00
        -11   -1    0    0    0    0  0.00000000000E+00  0.00000000000E+00  0.45593999997E+02  0.45594000000E+02  0.51100000000E-03 0. -1.
         11   -1    0    0    0    0 -0.00000000000E+00 -0.00000000000E+00 -0.45593999997E+02  0.45594000000E+02  0.51100000000E-03 0.  1.
    9900012    2    1    2    0    0  0.13729889824E+02  0.14606671994E+02 -0.35373725360E+02  0.50528865882E+02  0.30000018336E+02 0.  0.
         12    1    1    2    0    0 -0.13729889824E+02 -0.14606671994E+02  0.35373725360E+02  0.40659134118E+02  0.00000000000E+00 0. -1.
         11    1    3    3    0    0  0.92735592594E+01 -0.44214821151E+01 -0.46116707964E+01  0.11261257178E+02  0.51100000000E-03 0. -1.
        -11    1    3    3    0    0  0.50806836832E+01  0.94397482701E+01 -0.51115615886E+01  0.11876458067E+02  0.51100000000E-03 0.  1.
        -12    1    3    3    0    0 -0.62435311812E+00  0.95884058393E+01 -0.25650492975E+02  0.27391150637E+02  0.00000000000E+00 0.  1.
</event>
<event>
 7    1  0.2450552E-011  0.5052885E+02  0.7816164E-02  0.1300439E+00
        -11   -1    0    0    0    0  0.00000000000E+00  0.00000000000E+00  0.45593999997E+02  0.45594000000E+02  0.51100000000E-03 0. -1.
         11   -1    0    0    0    0 -0.00000000000E+00 -0.00000000000E+00 -0.45593999997E+02  0.45594000000E+02  0.51100000000E-03 0.  1.
    9900012    2    1    2    0    0  0.28912957687E+02 -0.28263641420E+02 -0.42864530871E+01  0.50528853075E+02  0.29999979408E+02 0.  0.
         12    1    1    2    0    0 -0.28912957687E+02  0.28263641420E+02  0.42864530871E+01  0.40659146925E+02  0.00000000000E+00 0. -1.
         11    1    3    3    0    0  0.33367221758E+01 -0.20183151850E+01  0.88958630339E+01  0.97130680243E+01  0.51100000000E-03 0. -1.
        -11    1    3    3    0    0 -0.10463986833E+01 -0.98296285500E+00  0.67442144285E+00  0.15861937847E+01  0.51100000000E-03 0.  1.
        -12    1    3    3    0    0  0.26622634195E+02 -0.25262363380E+02 -0.13856737564E+02  0.39229591267E+02  0.00000000000E+00 0.  1.
</event>
<event>
 7    1  0.2450552E-011  0.5052886E+02  0.7816164E-02  0.1300439E+00
        -11   -1    0    0    0    0  0.00000000000E+00  0.00000000000E+00  0.45593999997E+02  0.45594000000E+02  0.51100000000E-03 0.  1.
         11   -1    0    0    0    0 -0.00000000000E+00 -0.00000000000E+00 -0.45593999997E+02  0.45594000000E+02  0.51100000000E-03 0. -1.
    9900012    2    1    2    0    0  0.38014193479E+02  0.14280709353E+02  0.20367112449E+01  0.50528858861E+02  0.29999996994E+02 0.  0.
         12    1    1    2    0    0 -0.38014193479E+02 -0.14280709353E+02 -0.20367112449E+01  0.40659141139E+02  0.00000000000E+00 0. -1.
         11    1    3    3    0    0  0.13041222201E+02 -0.32141181036E+01  0.11812405614E+02  0.17886781665E+02  0.51100000000E-03 0. -1.
        -11    1    3    3    0    0  0.11858365532E+02  0.59510585879E+01 -0.16385127751E+01  0.13368644501E+02  0.51100000000E-03 0.  1.
         12    1    3    3    0    0  0.13114605746E+02  0.11543768869E+02 -0.81371815941E+01  0.19273432695E+02  0.00000000000E+00 0. -1.
</event>
<event>
 7    1  0.2450552E-011  0.5052883E+02  0.7816164E-02  0.1300439E+00
        -11   -1    0    0    0    0  0.00000000000E+00  0.00000000000E+00  0.45593999997E+02  0.45594000000E+02  0.51100000000E-03 0. -1.
         11   -1    0    0    0    0 -0.00000000000E+00 -0.00000000000E+00 -0.45593999997E+02  0.45594000000E+02  0.51100000000E-03 0.  1.
    9900012    2    1    2    0    0  0.10350587459E+02  0.49673684230E+01 -0.39004594218E+02  0.50528833999E+02  0.29999921423E+02 0.  0.
         12    1    1    2    0    0 -0.10350587459E+02 -0.49673684230E+01  0.39004594218E+02  0.40659166001E+02  0.00000000000E+00 0. -1.
         11    1    3    3    0    0  0.84985845282E+01 -0.54934454928E+01 -0.23478766666E+02  0.25566704261E+02  0.51100000000E-03 0. -1.
        -11    1    3    3    0    0 -0.60248439502E+01 -0.49459406509E+00 -0.44762648787E+01  0.75219887954E+01  0.51100000000E-03 0.  1.
        -12    1    3    3    0    0  0.78768468805E+01  0.10955407981E+02 -0.11049562674E+02  0.17440140942E+02  0.00000000000E+00 0.  1.
</event>
<event>
 7    1  0.2450552E-011  0.5052886E+02  0.7816164E-02  0.1300439E+00
        -11   -1    0    0    0    0  0.00000000000E+00  0.00000000000E+00  0.45593999997E+02  0.45594000000E+02  0.51100000000E-03 0. -1.
         11   -1    0    0    0    0 -0.00000000000E+00 -0.00000000000E+00 -0.45593999997E+02  0.45594000000E+02  0.51100000000E-03 0.  1.
    9900012    2    1    2    0    0 -0.28369326830E+02  0.27247469996E+02 -0.10291841456E+02  0.50528864169E+02  0.30000013128E+02 0.  0.
         12    1    1    2    0    0  0.28369326830E+02 -0.27247469996E+02  0.10291841456E+02  0.40659135831E+02  0.00000000000E+00 0. -1.
         11    1    3    3    0    0  0.11030889357E+01  0.84525034457E+00 -0.40830847842E+01  0.43131003885E+01  0.51100000000E-03 0. -1.
        -11    1    3    3    0    0 -0.82724229365E+01  0.22673450632E+02 -0.15042462465E+01  0.24182247659E+02  0.51100000000E-03 0.  1.
        -12    1    3    3    0    0 -0.21199992829E+02  0.37287690197E+01 -0.47045104255E+01  0.22033516122E+02  0.00000000000E+00 0.  1.
</event>
<event>
 7    1  0.2450552E-011  0.5052886E+02  0.7816164E-02  0.1300439E+00
        -11   -1    0    0    0    0  0.00000000000E+00  0.00000000000E+00  0.45593999997E+02  0.45594000000E+02  0.51100000000E-03 0. -1.
         11   -1    0    0    0    0 -0.00000000000E+00 -0.00000000000E+00 -0.45593999997E+02  0.45594000000E+02  0.51100000000E-03 0.  1.
    9900012    2    1    2    0    0 -0.95972333504E+01  0.37470930072E+02 -0.12529503619E+02  0.50528856509E+02  0.29999989846E+02 0.  0.
         12    1    1    2    0    0  0.95972333504E+01 -0.37470930072E+02  0.12529503619E+02  0.40659143491E+02  0.00000000000E+00 0. -1.
         11    1    3    3    0    0 -0.13346068990E+02  0.27094510427E+02 -0.26618785989E+01  0.30320218513E+02  0.51100000000E-03 0. -1.
        -11    1    3    3    0    0 -0.23741367088E+01  0.97995748205E+01 -0.97960721346E+01  0.14058137192E+02  0.51100000000E-03 0.  1.
        -12    1    3    3    0    0  0.61229723483E+01  0.57684482472E+00 -0.71552885143E-01  0.61505008044E+01  0.00000000000E+00 0.  1.
</event>
<event>
 7    1  0.2450552E-011  0.5052887E+02  0.7816164E-02  0.1300439E+00
        -11   -1    0    0    0    0  0.00000000000E+00  0.00000000000E+00  0.45593999997E+02  0.45594000000E+02  0.51100000000E-03 0.  1.
         11   -1    0    0    0    0 -0.00000000000E+00 -0.00000000000E+00 -0.45593999997E+02  0.45594000000E+02  0.51100000000E-03 0. -1.
    9900012    2    1    2    0    0  0.24470706296E+02 -0.16883488799E+02  0.27736214553E+02  0.50528865007E+02  0.30000015676E+02 0.  0.
         12    1    1    2    0    0 -0.24470706296E+02  0.16883488799E+02 -0.27736214553E+02  0.40659134993E+02  0.00000000000E+00 0. -1.
         11    1    3    3    0    0  0.13479034143E+02  0.17100304163E+01  0.74278058355E+01  0.15484859225E+02  0.51100000000E-03 0. -1.
        -11    1    3    3    0    0  0.14323527519E+02 -0.11168968135E+02  0.70424866442E+01  0.19480911379E+02  0.51100000000E-03 0.  1.
        -12    1    3    3    0    0 -0.33318553656E+01 -0.74245510801E+01  0.13265922073E+02  0.15563094402E+02  0.00000000000E+00 0.  1.
</event>
<event>
 7    1  0.2450552E-011  0.5052886E+02  0.7816164E-02  0.1300439E+00
        -11   -1    0    0    0    0  0.00000000000E+00  0.00000000000E+00  0.45593999997E+02  0.45594000000E+02  0.51100000000E-03 0.  1.
         11   -1    0    0    0    0 -0.00000000000E+00 -0.00000000000E+00 -0.45593999997E+02  0.45594000000E+02  0.51100000000E-03 0. -1.
    9900012    2    1    2    0    0 -0.25192349508E+02 -0.14431881282E+02  0.28464578384E+02  0.50528857195E+02  0.29999991930E+02 0.  0.
         12    1    1    2    0    0  0.25192349508E+02  0.14431881282E+02 -0.28464578384E+02  0.40659142805E+02  0.00000000000E+00 0. -1.
         11    1    3    3    0    0 -0.12061126806E+02 -0.67562346628E+01  0.20693563776E+02  0.24886564019E+02  0.51100000000E-03 0. -1.
        -11    1    3    3    0    0 -0.32662017086E+01 -0.11910471804E+02  0.83223493483E+01  0.14892579062E+02  0.51100000000E-03 0.  1.
         12    1    3    3    0    0 -0.98650209927E+01  0.42348251844E+01 -0.55133474046E+00  0.10749714114E+02  0.00000000000E+00 0. -1.
</event>
<event>
 7    1  0.2450552E-011  0.5052886E+02  0.7816164E-02  0.1300439E+00
        -11   -1    0    0    0    0  0.00000000000E+00  0.00000000000E+00  0.45593999997E+02  0.45594000000E+02  0.51100000000E-03 0.  1.
         11   -1    0    0    0    0 -0.00000000000E+00 -0.00000000000E+00 -0.45593999997E+02  0.45594000000E+02  0.51100000000E-03 0. -1.
    9900012    2    1    2    0    0 -0.34943640075E+02  0.20045047724E+02  0.55048633170E+01  0.50528862773E+02  0.30000008884E+02 0.  0.
         12    1    1    2    0    0  0.34943640075E+02 -0.20045047724E+02 -0.55048633170E+01  0.40659137227E+02  0.00000000000E+00 0. -1.
         11    1    3    3    0    0 -0.13799914344E+02  0.15532993369E+02 -0.43489049867E+00  0.20782219538E+02  0.51100000000E-03 0.  1.
        -11    1    3    3    0    0 -0.11374361081E+02  0.83349291697E+00 -0.67984824621E+01  0.13277430644E+02  0.51100000000E-03 0. -1.
         12    1    3    3    0    0 -0.97693646494E+01  0.36785614373E+01  0.12738236278E+02  0.16469212591E+02  0.00000000000E+00 0. -1.
</event>
<event>
 7    1  0.2450552E-011  0.5052886E+02  0.7816164E-02  0.1300439E+00
        -11   -1    0    0    0    0  0.00000000000E+00  0.00000000000E+00  0.45593999997E+02  0.45594000000E+02  0.51100000000E-03 0. -1.
         11   -1    0    0    0    0 -0.00000000000E+00 -0.00000000000E+00 -0.45593999997E+02  0.45594000000E+02  0.51100000000E-03 0.  1.
    9900012    2    1    2    0    0 -0.32520704709E+02 -0.20342488250E+02 -0.13481564746E+02  0.50528860179E+02  0.30000001001E+02 0.  0.
         12    1    1    2    0    0  0.32520704709E+02  0.20342488250E+02  0.13481564746E+02  0.40659139821E+02  0.00000000000E+00 0. -1.
         11    1    3    3    0    0  0.22407538579E+00 -0.66510387355E+01 -0.47553542327E+01  0.81792371392E+01  0.51100000000E-03 0. -1.
        -11    1    3    3    0    0 -0.13769881246E+02 -0.15586146846E+02  0.12373198556E+01  0.20834312173E+02  0.51100000000E-03 0.  1.
        -12    1    3    3    0    0 -0.18974898849E+02  0.18946973315E+01 -0.99635303692E+01  0.21515310867E+02  0.00000000000E+00 0.  1.
</event>
<event>
 7    1  0.2450552E-011  0.5052886E+02  0.7816164E-02  0.1300439E+00
        -11   -1    0    0    0    0  0.00000000000E+00  0.00000000000E+00  0.45593999997E+02  0.45594000000E+02  0.51100000000E-03 0. -1.
         11   -1    0    0    0    0 -0.00000000000E+00 -0.00000000000E+00 -0.45593999997E+02  0.45594000000E+02  0.51100000000E-03 0.  1.
    9900012    2    1    2    0    0 -0.12674165049E+02 -0.37954388874E+02  0.72107715298E+01  0.50528864243E+02  0.30000013352E+02 0.  0.
         12    1    1    2    0    0  0.12674165049E+02  0.37954388874E+02 -0.72107715298E+01  0.40659135757E+02  0.00000000000E+00 0. -1.
         11    1    3    3    0    0 -0.33149203815E+01 -0.12640936863E+02  0.79286667966E+01  0.15285474783E+02  0.51100000000E-03 0. -1.
        -11    1    3    3    0    0 -0.14156274887E+02 -0.26636907400E+02  0.28875912850E+00  0.30166344436E+02  0.51100000000E-03 0.  1.
         12    1    3    3    0    0  0.47970302201E+01  0.13234553895E+01 -0.10066543953E+01  0.50770450236E+01  0.00000000000E+00 0. -1.
</event>
<event>
 7    1  0.2450552E-011  0.5052887E+02  0.7816164E-02  0.1300439E+00
        -11   -1    0    0    0    0  0.00000000000E+00  0.00000000000E+00  0.45593999997E+02  0.45594000000E+02  0.51100000000E-03 0.  1.
         11   -1    0    0    0    0 -0.00000000000E+00 -0.00000000000E+00 -0.45593999997E+02  0.45594000000E+02  0.51100000000E-03 0. -1.
    9900012    2    1    2    0    0 -0.26668279821E+02 -0.19262442820E+02  0.23894066186E+02  0.50528865099E+02  0.30000015954E+02 0.  0.
         12    1    1    2    0    0  0.26668279821E+02  0.19262442820E+02 -0.23894066186E+02  0.40659134901E+02  0.00000000000E+00 0. -1.
         11    1    3    3    0    0 -0.11198883580E+02 -0.10870995280E+02  0.10936408934E+02  0.19057769346E+02  0.51100000000E-03 0. -1.
        -11    1    3    3    0    0 -0.80295406239E+01  0.24143910683E+01  0.15945688334E+02  0.18015764862E+02  0.51100000000E-03 0.  1.
         12    1    3    3    0    0 -0.74398556172E+01 -0.10805838608E+02 -0.29880310819E+01  0.13455330891E+02  0.00000000000E+00 0. -1.
</event>
<event>
 7    1  0.2450552E-011  0.5052883E+02  0.7816164E-02  0.1300439E+00
        -11   -1    0    0    0    0  0.00000000000E+00  0.00000000000E+00  0.45593999997E+02  0.45594000000E+02  0.51100000000E-03 0. -1.
         11   -1    0    0    0    0 -0.00000000000E+00 -0.00000000000E+00 -0.45593999997E+02  0.45594000000E+02  0.51100000000E-03 0.  1.
    9900012    2    1    2    0    0  0.64865220353E+01  0.24844455741E+02 -0.31525321222E+02  0.50528833416E+02  0.29999919652E+02 0.  0.
         12    1    1    2    0    0 -0.64865220353E+01 -0.24844455741E+02  0.31525321222E+02  0.40659166584E+02  0.00000000000E+00 0. -1.
         11    1    3    3    0    0 -0.12033415926E+01 -0.33019207686E+01 -0.45388118773E+01  0.57403419122E+01  0.51100000000E-03 0. -1.
        -11    1    3    3    0    0 -0.30533748554E+01  0.13170408116E+02 -0.21782405574E+02  0.25637003351E+02  0.51100000000E-03 0.  1.
        -12    1    3    3    0    0  0.10743238483E+02  0.14975968393E+02 -0.52041037702E+01  0.19151488153E+02  0.00000000000E+00 0.  1.
</event>
<event>
 7    1  0.2450552E-011  0.5052886E+02  0.7816164E-02  0.1300439E+00
        -11   -1    0    0    0    0  0.00000000000E+00  0.00000000000E+00  0.45593999997E+02  0.45594000000E+02  0.51100000000E-03 0.  1.
         11   -1    0    0    0    0 -0.00000000000E+00 -0.00000000000E+00 -0.45593999997E+02  0.45594000000E+02  0.51100000000E-03 0. -1.
    9900012    2    1    2    0    0  0.38088511536E+02 -0.92458951448E+01  0.10814079713E+02  0.50528860706E+02  0.30000002603E+02 0.  0.
         12    1    1    2    0    0 -0.38088511536E+02  0.92458951448E+01 -0.10814079713E+02  0.40659139294E+02  0.00000000000E+00 0. -1.
         11    1    3    3    0    0 -0.23072176089E+01 -0.55081053598E+00 -0.21954573232E+00  0.23821935125E+01  0.51100000000E-03 0. -1.
        -11    1    3    3    0    0  0.20375481300E+02 -0.15613926181E+02  0.54774784978E+01  0.26248003733E+02  0.51100000000E-03 0.  1.
        -12    1    3    3    0    0  0.20020247845E+02  0.69188415722E+01  0.55561469475E+01  0.21898663461E+02  0.00000000000E+00 0.  1.
</event>
<event>
 7    1  0.2450552E-011  0.5052886E+02  0.7816164E-02  0.1300439E+00
        -11   -1    0    0    0    0  0.00000000000E+00  0.00000000000E+00  0.45593999997E+02  0.45594000000E+02  0.51100000000E-03 0. -1.
         11   -1    0    0    0    0 -0.00000000000E+00 -0.00000000000E+00 -0.45593999997E+02  0.45594000000E+02  0.51100000000E-03 0.  1.
    9900012    2    1    2    0    0 -0.67270728969E+01 -0.30701941471E+02 -0.25793462790E+02  0.50528862742E+02  0.30000008790E+02 0.  0.
         12    1    1    2    0    0  0.67270728969E+01  0.30701941471E+02  0.25793462790E+02  0.40659137258E+02  0.00000000000E+00 0. -1.
         11    1    3    3    0    0 -0.45718593976E+01 -0.23568784814E+02 -0.31342028861E+01  0.24211830661E+02  0.51100000000E-03 0. -1.
        -11    1    3    3    0    0 -0.14769002846E+01 -0.10081482889E+02 -0.15550432644E+02  0.18591220706E+02  0.51100000000E-03 0.  1.
        -12    1    3    3    0    0 -0.67831321467E+00  0.29483262310E+01 -0.71088272605E+01  0.77258113749E+01  0.00000000000E+00 0.  1.
</event>
<event>
 7    1  0.2450552E-011  0.5052886E+02  0.7816164E-02  0.1300439E+00
        -11   -1    0    0    0    0  0.00000000000E+00  0.00000000000E+00  0.45593999997E+02  0.45594000000E+02  0.51100000000E-03 0.  1.
         11   -1    0    0    0    0 -0.00000000000E+00 -0.00000000000E+00 -0.45593999997E+02  0.45594000000E+02  0.51100000000E-03 0. -1.
    9900012    2    1    2    0    0 -0.10621464659E+02  0.27761177272E+02  0.27742873094E+02  0.50528862251E+02  0.30000007297E+02 0.  0.
         12    1    1    2    0    0  0.10621464659E+02 -0.27761177272E+02 -0.27742873094E+02  0.40659137749E+02  0.00000000000E+00 0. -1.
         11    1    3    3    0    0 -0.59095832020E+01  0.11086880278E+02 -0.34064381782E+00  0.12568139337E+02  0.51100000000E-03 0. -1.
        -11    1    3    3    0    0  0.43075264125E+01 -0.29406423372E+00  0.50428732065E+00  0.43469027515E+01  0.51100000000E-03 0.  1.
         12    1    3    3    0    0 -0.90194078697E+01  0.16968361228E+02  0.27579229591E+02  0.33613820162E+02  0.00000000000E+00 0. -1.
</event>
<event>
 7    1  0.2450552E-011  0.5052886E+02  0.7816164E-02  0.1300439E+00
        -11   -1    0    0    0    0  0.00000000000E+00  0.00000000000E+00  0.45593999997E+02  0.45594000000E+02  0.51100000000E-03 0.  1.
         11   -1    0    0    0    0 -0.00000000000E+00 -0.00000000000E+00 -0.45593999997E+02  0.45594000000E+02  0.51100000000E-03 0. -1.
    9900012    2    1    2    0    0 -0.88241545874E+01  0.39482627950E+02  0.40524418467E+01  0.50528857129E+02  0.29999991730E+02 0.  0.
         12    1    1    2    0    0  0.88241545874E+01 -0.39482627950E+02 -0.40524418467E+01  0.40659142871E+02  0.00000000000E+00 0. -1.
         11    1    3    3    0    0  0.54603854947E+00  0.15867600472E+02  0.94150540815E+01  0.18458660473E+02  0.51100000000E-03 0. -1.
        -11    1    3    3    0    0 -0.73462235145E+01  0.26725211305E+02 -0.35580993079E+01  0.27943943711E+02  0.51100000000E-03 0.  1.
         12    1    3    3    0    0 -0.20239696224E+01 -0.31101838260E+01 -0.18045129270E+01  0.41262529451E+01  0.00000000000E+00 0. -1.
</event>
<event>
 7    1  0.2450552E-011  0.5052886E+02  0.7816164E-02  0.1300439E+00
        -11   -1    0    0    0    0  0.00000000000E+00  0.00000000000E+00  0.45593999997E+02  0.45594000000E+02  0.51100000000E-03 0.  1.
         11   -1    0    0    0    0 -0.00000000000E+00 -0.00000000000E+00 -0.45593999997E+02  0.45594000000E+02  0.51100000000E-03 0. -1.
    9900012    2    1    2    0    0  0.49656301191E+01 -0.18740589327E+02  0.35739311201E+02  0.50528861594E+02  0.30000005301E+02 0.  0.
         12    1    1    2    0    0 -0.49656301191E+01  0.18740589327E+02 -0.35739311201E+02  0.40659138406E+02  0.00000000000E+00 0. -1.
         11    1    3    3    0    0  0.98336049691E+01 -0.11602095228E+02  0.18663408913E+02  0.24075531830E+02  0.51100000000E-03 0. -1.
        -11    1    3    3    0    0  0.60452252856E+01 -0.52250036093E+01  0.11622764545E+02  0.14104398867E+02  0.51100000000E-03 0.  1.
         12    1    3    3    0    0 -0.10913200135E+02 -0.19134904895E+01  0.54531377428E+01  0.12348930897E+02  0.00000000000E+00 0. -1.
</event>
<event>
 7    1  0.2450552E-011  0.5052886E+02  0.7816164E-02  0.1300439E+00
        -11   -1    0    0    0    0  0.00000000000E+00  0.00000000000E+00  0.45593999997E+02  0.45594000000E+02  0.51100000000E-03 0.  1.
         11   -1    0    0    0    0 -0.00000000000E+00 -0.00000000000E+00 -0.45593999997E+02  0.45594000000E+02  0.51100000000E-03 0. -1.
    9900012    2    1    2    0    0  0.22668344667E+02  0.13072622690E+02  0.31119426870E+02  0.50528855362E+02  0.29999986358E+02 0.  0.
         12    1    1    2    0    0 -0.22668344667E+02 -0.13072622690E+02 -0.31119426870E+02  0.40659144638E+02  0.00000000000E+00 0. -1.
         11    1    3    3    0    0  0.87122388299E+01 -0.48072487882E+01  0.42720423180E+01  0.10828808437E+02  0.51100000000E-03 0. -1.
        -11    1    3    3    0    0  0.11842487861E+02  0.67676862646E+01  0.40136453388E+01  0.14218137898E+02  0.51100000000E-03 0.  1.
        -12    1    3    3    0    0  0.21136179760E+01  0.11112185214E+02  0.22833739214E+02  0.25481909027E+02  0.00000000000E+00 0.  1.
</event>
<event>
 7    1  0.2450552E-011  0.5052886E+02  0.7816164E-02  0.1300439E+00
        -11   -1    0    0    0    0  0.00000000000E+00  0.00000000000E+00  0.45593999997E+02  0.45594000000E+02  0.51100000000E-03 0.  1.
         11   -1    0    0    0    0 -0.00000000000E+00 -0.00000000000E+00 -0.45593999997E+02  0.45594000000E+02  0.51100000000E-03 0. -1.
    9900012    2    1    2    0    0  0.88396035328E+01  0.34054114166E+02  0.20380006615E+02  0.50528856479E+02  0.29999989752E+02 0.  0.
         12    1    1    2    0    0 -0.88396035328E+01 -0.34054114166E+02 -0.20380006615E+02  0.40659143521E+02  0.00000000000E+00 0. -1.
         11    1    3    3    0    0  0.51469553924E+01 -0.36787965504E+00 -0.45704663875E+01  0.68931595450E+01  0.51100000000E-03 0. -1.
        -11    1    3    3    0    0  0.45817985858E+01  0.71907488160E+01  0.66727161892E+01  0.10827044307E+02  0.51100000000E-03 0.  1.
        -12    1    3    3    0    0 -0.88915044542E+00  0.27231245005E+02  0.18277756814E+02  0.32808652627E+02  0.00000000000E+00 0.  1.
</event>
<event>
 7    1  0.2450552E-011  0.5052885E+02  0.7816164E-02  0.1300439E+00
        -11   -1    0    0    0    0  0.00000000000E+00  0.00000000000E+00  0.45593999997E+02  0.45594000000E+02  0.51100000000E-03 0. -1.
         11   -1    0    0    0    0 -0.00000000000E+00 -0.00000000000E+00 -0.45593999997E+02  0.45594000000E+02  0.51100000000E-03 0.  1.
    9900012    2    1    2    0    0  0.36491443428E+02 -0.10143022084E+02  0.14787156230E+02  0.50528851831E+02  0.29999975627E+02 0.  0.
         12    1    1    2    0    0 -0.36491443428E+02  0.10143022084E+02 -0.14787156230E+02  0.40659148169E+02  0.00000000000E+00 0. -1.
         11    1    3    3    0    0  0.10114389263E+01 -0.47472367538E+01  0.22336298148E+01  0.53430672753E+01  0.51100000000E-03 0. -1.
        -11    1    3    3    0    0  0.23760631419E+02 -0.11870958921E+02 -0.38883169815E+00  0.26563856299E+02  0.51100000000E-03 0.  1.
        -12    1    3    3    0    0  0.11719373082E+02  0.64751735906E+01  0.12942358113E+02  0.18621928257E+02  0.00000000000E+00 0.  1.
</event>
<event>
 7    1  0.2450552E-011  0.5052887E+02  0.7816164E-02  0.1300439E+00
        -11   -1    0    0    0    0  0.00000000000E+00  0.00000000000E+00  0.45593999997E+02  0.45594000000E+02  0.51100000000E-03 0.  1.
         11   -1    0    0    0    0 -0.00000000000E+00 -0.00000000000E+00 -0.45593999997E+02  0.45594000000E+02  0.51100000000E-03 0. -1.
    9900012    2    1    2    0    0  0.37608519514E+01  0.38849686284E+02 -0.11389603056E+02  0.50528865853E+02  0.30000018248E+02 0.  0.
         12    1    1    2    0    0 -0.37608519514E+01 -0.38849686284E+02  0.11389603056E+02  0.40659134147E+02  0.00000000000E+00 0. -1.
         11    1    3    3    0    0  0.80128354192E+01  0.17218027558E+01 -0.18451375513E+01  0.84008731112E+01  0.51100000000E-03 0.  1.
        -11    1    3    3    0    0 -0.60424694107E+01  0.12905831669E+02  0.33363019268E+01  0.14635670072E+02  0.51100000000E-03 0. -1.
        -12    1    3    3    0    0  0.17904859429E+01  0.24222051860E+02 -0.12880767431E+02  0.27492322670E+02  0.00000000000E+00 0.  1.
</event>
<event>
 7    1  0.2450552E-011  0.5052885E+02  0.7816164E-02  0.1300439E+00
        -11   -1    0    0    0    0  0.00000000000E+00  0.00000000000E+00  0.45593999997E+02  0.45594000000E+02  0.51100000000E-03 0. -1.
         11   -1    0    0    0    0 -0.00000000000E+00 -0.00000000000E+00 -0.45593999997E+02  0.45594000000E+02  0.51100000000E-03 0.  1.
    9900012    2    1    2    0    0 -0.26190449792E+02 -0.21049255408E+02 -0.22894438007E+02  0.50528854593E+02  0.29999984022E+02 0.  0.
         12    1    1    2    0    0  0.26190449792E+02  0.21049255408E+02  0.22894438007E+02  0.40659145407E+02  0.00000000000E+00 0. -1.
         11    1    3    3    0    0 -0.19949655840E+02 -0.68295177318E+01 -0.10943567942E+02  0.23756951827E+02  0.51100000000E-03 0. -1.
        -11    1    3    3    0    0 -0.26124413567E+01 -0.10662708187E+02 -0.16588806845E+02  0.19892378151E+02  0.51100000000E-03 0.  1.
         12    1    3    3    0    0 -0.36283525956E+01 -0.35570294896E+01  0.46379367799E+01  0.68795246146E+01  0.00000000000E+00 0. -1.
</event>
<event>
 7    1  0.2450552E-011  0.5052886E+02  0.7816164E-02  0.1300439E+00
        -11   -1    0    0    0    0  0.00000000000E+00  0.00000000000E+00  0.45593999997E+02  0.45594000000E+02  0.51100000000E-03 0. -1.
         11   -1    0    0    0    0 -0.00000000000E+00 -0.00000000000E+00 -0.45593999997E+02  0.45594000000E+02  0.51100000000E-03 0.  1.
    9900012    2    1    2    0    0 -0.18994073859E+02  0.16524756591E+02 -0.31926844683E+02  0.50528857933E+02  0.29999994174E+02 0.  0.
         12    1    1    2    0    0  0.18994073859E+02 -0.16524756591E+02  0.31926844683E+02  0.40659142067E+02  0.00000000000E+00 0. -1.
         11    1    3    3    0    0 -0.78536634697E+01  0.37383050375E+01 -0.22578777915E+01  0.89862654552E+01  0.51100000000E-03 0. -1.
        -11    1    3    3    0    0 -0.12004398357E+02  0.19113512151E+02 -0.24634416845E+02  0.33410872784E+02  0.51100000000E-03 0.  1.
        -12    1    3    3    0    0  0.86398796813E+00 -0.63270605970E+01 -0.50345500469E+01  0.81317196940E+01  0.00000000000E+00 0.  1.
</event>
<event>
 7    1  0.2450552E-011  0.5052886E+02  0.7816164E-02  0.1300439E+00
        -11   -1    0    0    0    0  0.00000000000E+00  0.00000000000E+00  0.45593999997E+02  0.45594000000E+02  0.51100000000E-03 0.  1.
         11   -1    0    0    0    0 -0.00000000000E+00 -0.00000000000E+00 -0.45593999997E+02  0.45594000000E+02  0.51100000000E-03 0. -1.
    9900012    2    1    2    0    0  0.16124395151E+02 -0.61208231300E+01  0.36819901042E+02  0.50528859484E+02  0.29999998886E+02 0.  0.
         12    1    1    2    0    0 -0.16124395151E+02  0.61208231300E+01 -0.36819901042E+02  0.40659140516E+02  0.00000000000E+00 0. -1.
         11    1    3    3    0    0  0.56407313104E+01  0.10673268138E+02  0.63518533569E+01  0.13641207563E+02  0.51100000000E-03 0. -1.
        -11    1    3    3    0    0  0.32142886673E+01 -0.50067807854E+01  0.45078647870E+01  0.74646065315E+01  0.51100000000E-03 0.  1.
        -12    1    3    3    0    0  0.72693751734E+01 -0.11787310483E+02  0.25960182898E+02  0.29423045389E+02  0.00000000000E+00 0.  1.
</event>
<event>
 7    1  0.2450552E-011  0.5052886E+02  0.7816164E-02  0.1300439E+00
        -11   -1    0    0    0    0  0.00000000000E+00  0.00000000000E+00  0.45593999997E+02  0.45594000000E+02  0.51100000000E-03 0.  1.
         11   -1    0    0    0    0 -0.00000000000E+00 -0.00000000000E+00 -0.45593999997E+02  0.45594000000E+02  0.51100000000E-03 0. -1.
    9900012    2    1    2    0    0 -0.19378261178E+02 -0.34571629226E+02  0.90802534807E+01  0.50528861335E+02  0.30000004515E+02 0.  0.
         12    1    1    2    0    0  0.19378261178E+02  0.34571629226E+02 -0.90802534807E+01  0.40659138665E+02  0.00000000000E+00 0. -1.
         11    1    3    3    0    0 -0.33453731339E+01 -0.10873217019E+02 -0.54950052303E+01  0.12633821769E+02  0.51100000000E-03 0. -1.
        -11    1    3    3    0    0 -0.37051092649E+01 -0.11755782144E+02 -0.36548816305E+01  0.12856298397E+02  0.51100000000E-03 0.  1.
        -12    1    3    3    0    0 -0.12327778780E+02 -0.11942630064E+02  0.18230140341E+02  0.25038741169E+02  0.00000000000E+00 0.  1.
</event>
<event>
 7    1  0.2450552E-011  0.5052886E+02  0.7816164E-02  0.1300439E+00
        -11   -1    0    0    0    0  0.00000000000E+00  0.00000000000E+00  0.45593999997E+02  0.45594000000E+02  0.51100000000E-03 0.  1.
         11   -1    0    0    0    0 -0.00000000000E+00 -0.00000000000E+00 -0.45593999997E+02  0.45594000000E+02  0.51100000000E-03 0. -1.
    9900012    2    1    2    0    0  0.13936698515E+02  0.38137771125E+02 -0.21082018725E+01  0.50528859982E+02  0.30000000401E+02 0.  0.
         12    1    1    2    0    0 -0.13936698515E+02 -0.38137771125E+02  0.21082018725E+01  0.40659140018E+02  0.00000000000E+00 0. -1.
         11    1    3    3    0    0  0.13838071301E+02  0.19640297835E+02 -0.10331342977E+01  0.24047887290E+02  0.51100000000E-03 0. -1.
        -11    1    3    3    0    0  0.29325033726E+01  0.15398442330E+02  0.71630350883E+01  0.17234287748E+02  0.51100000000E-03 0.  1.
         12    1    3    3    0    0 -0.28338761584E+01  0.30990309593E+01 -0.82381026631E+01  0.92466849441E+01  0.00000000000E+00 0. -1.
</event>
<event>
 7    1  0.2450552E-011  0.5052886E+02  0.7816164E-02  0.1300439E+00
        -11   -1    0    0    0    0  0.00000000000E+00  0.00000000000E+00  0.45593999997E+02  0.45594000000E+02  0.51100000000E-03 0. -1.
         11   -1    0    0    0    0 -0.00000000000E+00 -0.00000000000E+00 -0.45593999997E+02  0.45594000000E+02  0.51100000000E-03 0.  1.
    9900012    2    1    2    0    0  0.13087656852E+02  0.35694530295E+02 -0.14414558363E+02  0.50528858991E+02  0.29999997388E+02 0.  0.
         12    1    1    2    0    0 -0.13087656852E+02 -0.35694530295E+02  0.14414558363E+02  0.40659141009E+02  0.00000000000E+00 0. -1.
         11    1    3    3    0    0 -0.30142493733E+01 -0.10350981007E+01 -0.72558276092E+01  0.79249076915E+01  0.51100000000E-03 0. -1.
        -11    1    3    3    0    0  0.14599815890E+02  0.19225100225E+02 -0.65993213683E+01  0.25026189192E+02  0.51100000000E-03 0.  1.
        -12    1    3    3    0    0  0.15020903353E+01  0.17504528170E+02 -0.55940938545E+00  0.17577762107E+02  0.00000000000E+00 0.  1.
</event>
<event>
 7    1  0.2450552E-011  0.5052886E+02  0.7816164E-02  0.1300439E+00
        -11   -1    0    0    0    0  0.00000000000E+00  0.00000000000E+00  0.45593999997E+02  0.45594000000E+02  0.51100000000E-03 0. -1.
         11   -1    0    0    0    0 -0.00000000000E+00 -0.00000000000E+00 -0.45593999997E+02  0.45594000000E+02  0.51100000000E-03 0.  1.
    9900012    2    1    2    0    0  0.12188774272E+02  0.28005331194E+02 -0.26838423239E+02  0.50528858894E+02  0.29999997094E+02 0.  0.
         12    1    1    2    0    0 -0.12188774272E+02 -0.28005331194E+02  0.26838423239E+02  0.40659141106E+02  0.00000000000E+00 0. -1.
         11    1    3    3    0    0  0.88181432311E+01  0.43527708722E+00 -0.10016959113E+02  0.13352474914E+02  0.51100000000E-03 0. -1.
        -11    1    3    3    0    0  0.10176659379E+02  0.15212328742E+02 -0.55702939277E+01  0.19131322918E+02  0.51100000000E-03 0.  1.
         12    1    3    3    0    0 -0.68060283386E+01  0.12357725365E+02 -0.11251170198E+02  0.18045061063E+02  0.00000000000E+00 0. -1.
</event>
<event>
 7    1  0.2450552E-011  0.5052888E+02  0.7816164E-02  0.1300439E+00
        -11   -1    0    0    0    0  0.00000000000E+00  0.00000000000E+00  0.45593999997E+02  0.45594000000E+02  0.51100000000E-03 0.  1.
         11   -1    0    0    0    0 -0.00000000000E+00 -0.00000000000E+00 -0.45593999997E+02  0.45594000000E+02  0.51100000000E-03 0. -1.
    9900012    2    1    2    0    0 -0.23307572163E+02  0.30218659366E+02  0.14026898731E+02  0.50528878243E+02  0.30000055909E+02 0.  0.
         12    1    1    2    0    0  0.23307572163E+02 -0.30218659366E+02 -0.14026898731E+02  0.40659121757E+02  0.00000000000E+00 0. -1.
         11    1    3    3    0    0 -0.52037799029E+01 -0.48009283367E+01 -0.51326573779E+00  0.70987097525E+01  0.51100000000E-03 0. -1.
        -11    1    3    3    0    0 -0.55406444208E+01  0.63097238822E+01 -0.98921287169E+00  0.84551699234E+01  0.51100000000E-03 0.  1.
        -12    1    3    3    0    0 -0.12563147840E+02  0.28709863820E+02  0.15529377341E+02  0.34974998568E+02  0.00000000000E+00 0.  1.
</event>
<event>
 7    1  0.2450552E-011  0.5052886E+02  0.7816164E-02  0.1300439E+00
        -11   -1    0    0    0    0  0.00000000000E+00  0.00000000000E+00  0.45593999997E+02  0.45594000000E+02  0.51100000000E-03 0.  1.
         11   -1    0    0    0    0 -0.00000000000E+00 -0.00000000000E+00 -0.45593999997E+02  0.45594000000E+02  0.51100000000E-03 0. -1.
    9900012    2    1    2    0    0  0.18811137189E+02 -0.46980814080E+00  0.36042838135E+02  0.50528858557E+02  0.29999996071E+02 0.  0.
         12    1    1    2    0    0 -0.18811137189E+02  0.46980814080E+00 -0.36042838135E+02  0.40659141443E+02  0.00000000000E+00 0. -1.
         11    1    3    3    0    0  0.69458594600E+01  0.92396409127E+01  0.77096793276E+01  0.13894426344E+02  0.51100000000E-03 0. -1.
        -11    1    3    3    0    0  0.27094486146E+00 -0.50439340206E+01 -0.62953558447E+00  0.50902845535E+01  0.51100000000E-03 0.  1.
         12    1    3    3    0    0  0.11594332868E+02 -0.46655150329E+01  0.28962694392E+02  0.31544147660E+02  0.00000000000E+00 0. -1.
</event>
<event>
 7    1  0.2450552E-011  0.5052887E+02  0.7816164E-02  0.1300439E+00
        -11   -1    0    0    0    0  0.00000000000E+00  0.00000000000E+00  0.45593999997E+02  0.45594000000E+02  0.51100000000E-03 0.  1.
         11   -1    0    0    0    0 -0.00000000000E+00 -0.00000000000E+00 -0.45593999997E+02  0.45594000000E+02  0.51100000000E-03 0. -1.
    9900012    2    1    2    0    0  0.32423341814E+02 -0.15848436148E+02  0.18727487316E+02  0.50528870596E+02  0.30000032662E+02 0.  0.
         12    1    1    2    0    0 -0.32423341814E+02  0.15848436148E+02 -0.18727487316E+02  0.40659129404E+02  0.00000000000E+00 0. -1.
         11    1    3    3    0    0  0.61452537745E+01  0.57038965123E+01  0.29227607414E+01  0.88792516570E+01  0.51100000000E-03 0.  1.
        -11    1    3    3    0    0  0.11302184008E+02  0.10022113691E+01  0.61491939802E+01  0.12905672312E+02  0.51100000000E-03 0. -1.
         12    1    3    3    0    0  0.14975904032E+02 -0.22554544030E+02  0.96555325949E+01  0.28743946626E+02  0.00000000000E+00 0. -1.
</event>
<event>
 7    1  0.2450552E-011  0.5052885E+02  0.7816164E-02  0.1300439E+00
        -11   -1    0    0    0    0  0.00000000000E+00  0.00000000000E+00  0.45593999997E+02  0.45594000000E+02  0.51100000000E-03 0.  1.
         11   -1    0    0    0    0 -0.00000000000E+00 -0.00000000000E+00 -0.45593999997E+02  0.45594000000E+02  0.51100000000E-03 0. -1.
    9900012    2    1    2    0    0 -0.69960085344E+01 -0.39057251841E+02  0.88742983472E+01  0.50528853084E+02  0.29999979433E+02 0.  0.
         12    1    1    2    0    0  0.69960085344E+01  0.39057251841E+02 -0.88742983472E+01  0.40659146916E+02  0.00000000000E+00 0. -1.
         11    1    3    3    0    0  0.10944418382E+01  0.11654430052E+01 -0.18618470807E+01  0.24540853996E+01  0.51100000000E-03 0. -1.
        -11    1    3    3    0    0 -0.80910663082E+01 -0.16529787879E+02  0.15316033993E+02  0.23943269177E+02  0.51100000000E-03 0.  1.
        -12    1    3    3    0    0  0.61593553267E-03 -0.23692906967E+02 -0.45798885652E+01  0.24131498507E+02  0.00000000000E+00 0.  1.
</event>
<event>
 7    1  0.2450552E-011  0.5052885E+02  0.7816164E-02  0.1300439E+00
        -11   -1    0    0    0    0  0.00000000000E+00  0.00000000000E+00  0.45593999997E+02  0.45594000000E+02  0.51100000000E-03 0.  1.
         11   -1    0    0    0    0 -0.00000000000E+00 -0.00000000000E+00 -0.45593999997E+02  0.45594000000E+02  0.51100000000E-03 0. -1.
    9900012    2    1    2    0    0  0.35966797229E+02 -0.14828419087E+02 -0.11818359035E+02  0.50528854340E+02  0.29999983251E+02 0.  0.
         12    1    1    2    0    0 -0.35966797229E+02  0.14828419087E+02  0.11818359035E+02  0.40659145660E+02  0.00000000000E+00 0. -1.
         11    1    3    3    0    0 -0.96700468329E+00 -0.14064942999E+01  0.32521557971E+00  0.17375527927E+01  0.51100000000E-03 0. -1.
        -11    1    3    3    0    0  0.31054082044E+02  0.14378350011E+01 -0.59459155569E+01  0.31650865599E+02  0.51100000000E-03 0.  1.
         12    1    3    3    0    0  0.58797198682E+01 -0.14859759788E+02 -0.61976590581E+01  0.17140435948E+02  0.00000000000E+00 0. -1.
</event>
<event>
 7    1  0.2450552E-011  0.5052885E+02  0.7816164E-02  0.1300439E+00
        -11   -1    0    0    0    0  0.00000000000E+00  0.00000000000E+00  0.45593999997E+02  0.45594000000E+02  0.51100000000E-03 0.  1.
         11   -1    0    0    0    0 -0.00000000000E+00 -0.00000000000E+00 -0.45593999997E+02  0.45594000000E+02  0.51100000000E-03 0. -1.
    9900012    2    1    2    0    0  0.17027073011E+02  0.29679211418E+02  0.21963372029E+02  0.50528849534E+02  0.29999968645E+02 0.  0.
         12    1    1    2    0    0 -0.17027073011E+02 -0.29679211418E+02 -0.21963372029E+02  0.40659150466E+02  0.00000000000E+00 0. -1.
         11    1    3    3    0    0 -0.33455986106E+01 -0.18510679013E+01  0.90831728971E+01  0.98551262082E+01  0.51100000000E-03 0. -1.
        -11    1    3    3    0    0  0.70798579573E+01  0.14327057658E+02  0.12801779407E+01  0.16032087376E+02  0.51100000000E-03 0.  1.
        -12    1    3    3    0    0  0.13292813664E+02  0.17203221662E+02  0.11600021191E+02  0.24641635950E+02  0.00000000000E+00 0.  1.
</event>
<event>
 7    1  0.2450552E-011  0.5052884E+02  0.7816164E-02  0.1300439E+00
        -11   -1    0    0    0    0  0.00000000000E+00  0.00000000000E+00  0.45593999997E+02  0.45594000000E+02  0.51100000000E-03 0.  1.
         11   -1    0    0    0    0 -0.00000000000E+00 -0.00000000000E+00 -0.45593999997E+02  0.45594000000E+02  0.51100000000E-03 0. -1.
    9900012    2    1    2    0    0  0.35806805414E+02 -0.11434693045E+02  0.15501227721E+02  0.50528836459E+02  0.29999928902E+02 0.  0.
         12    1    1    2    0    0 -0.35806805414E+02  0.11434693045E+02 -0.15501227721E+02  0.40659163541E+02  0.00000000000E+00 0. -1.
         11    1    3    3    0    0  0.20512318052E+02 -0.82478565742E+01 -0.51681534296E+01  0.22704451988E+02  0.51100000000E-03 0. -1.
        -11    1    3    3    0    0  0.10274302596E+02 -0.15224524300E+01  0.54861564853E+01  0.11746364053E+02  0.51100000000E-03 0.  1.
         12    1    3    3    0    0  0.50201847655E+01 -0.16643840409E+01  0.15183224665E+02  0.16078020418E+02  0.00000000000E+00 0. -1.
</event>
<event>
 7    1  0.2450552E-011  0.5052882E+02  0.7816164E-02  0.1300439E+00
        -11   -1    0    0    0    0  0.00000000000E+00  0.00000000000E+00  0.45593999997E+02  0.45594000000E+02  0.51100000000E-03 0. -1.
         11   -1    0    0    0    0 -0.00000000000E+00 -0.00000000000E+00 -0.45593999997E+02  0.45594000000E+02  0.51100000000E-03 0.  1.
    9900012    2    1    2    0    0 -0.24292072123E+02 -0.31527538503E+02 -0.83113350619E+01  0.50528822160E+02  0.29999885438E+02 0.  0.
         12    1    1    2    0    0  0.24292072123E+02  0.31527538503E+02  0.83113350619E+01  0.40659177840E+02  0.00000000000E+00 0. -1.
         11    1    3    3    0    0 -0.11223324779E+02 -0.18939080186E+02 -0.16090588863E+01  0.22073532752E+02  0.51100000000E-03 0. -1.
        -11    1    3    3    0    0 -0.57402731353E+01 -0.42018475245E+01  0.75460462176E+01  0.10370586872E+02  0.51100000000E-03 0.  1.
         12    1    3    3    0    0 -0.73284742085E+01 -0.83866107929E+01 -0.14248322393E+02  0.18084702537E+02  0.00000000000E+00 0. -1.
</event>
<event>
 7    1  0.2450552E-011  0.5052887E+02  0.7816164E-02  0.1300439E+00
        -11   -1    0    0    0    0  0.00000000000E+00  0.00000000000E+00  0.45593999997E+02  0.45594000000E+02  0.51100000000E-03 0.  1.
         11   -1    0    0    0    0 -0.00000000000E+00 -0.00000000000E+00 -0.45593999997E+02  0.45594000000E+02  0.51100000000E-03 0. -1.
    9900012    2    1    2    0    0 -0.20549840847E+02  0.34535359938E+02  0.61788228511E+01  0.50528869455E+02  0.30000029194E+02 0.  0.
         12    1    1    2    0    0  0.20549840847E+02 -0.34535359938E+02 -0.61788228511E+01  0.40659130545E+02  0.00000000000E+00 0. -1.
         11    1    3    3    0    0 -0.80996648959E+01  0.89700455406E+00 -0.19155476762E+01  0.83712909254E+01  0.51100000000E-03 0. -1.
        -11    1    3    3    0    0  0.37160211486E+01  0.11300000476E+02 -0.32646458613E+01  0.12335182885E+02  0.51100000000E-03 0.  1.
        -12    1    3    3    0    0 -0.16166197100E+02  0.22338354908E+02  0.11359016389E+02  0.29822395645E+02  0.00000000000E+00 0.  1.
</event>
<event>
 7    1  0.2450552E-011  0.5052886E+02  0.7816164E-02  0.1300439E+00
        -11   -1    0    0    0    0  0.00000000000E+00  0.00000000000E+00  0.45593999997E+02  0.45594000000E+02  0.51100000000E-03 0.  1.
         11   -1    0    0    0    0 -0.00000000000E+00 -0.00000000000E+00 -0.45593999997E+02  0.45594000000E+02  0.51100000000E-03 0. -1.
    9900012    2    1    2    0    0 -0.50247529846E+01  0.39386940257E+02 -0.87513732385E+01  0.50528859097E+02  0.29999997712E+02 0.  0.
         12    1    1    2    0    0  0.50247529846E+01 -0.39386940257E+02  0.87513732385E+01  0.40659140903E+02  0.00000000000E+00 0. -1.
         11    1    3    3    0    0 -0.10079967745E+02  0.83517507274E+01 -0.11962677912E+02  0.17733108950E+02  0.51100000000E-03 0. -1.
        -11    1    3    3    0    0  0.59021154281E+01  0.12461054861E+02  0.34008160825E+01  0.14201352226E+02  0.51100000000E-03 0.  1.
        -12    1    3    3    0    0 -0.84690066751E+00  0.18574134669E+02 -0.18951140890E+00  0.18594397921E+02  0.00000000000E+00 0.  1.
</event>
<event>
 7    1  0.2450552E-011  0.5052887E+02  0.7816164E-02  0.1300439E+00
        -11   -1    0    0    0    0  0.00000000000E+00  0.00000000000E+00  0.45593999997E+02  0.45594000000E+02  0.51100000000E-03 0. -1.
         11   -1    0    0    0    0 -0.00000000000E+00 -0.00000000000E+00 -0.45593999997E+02  0.45594000000E+02  0.51100000000E-03 0.  1.
    9900012    2    1    2    0    0  0.18568712236E+02  0.16598987606E+02 -0.32137847340E+02  0.50528871931E+02  0.30000036722E+02 0.  0.
         12    1    1    2    0    0 -0.18568712236E+02 -0.16598987606E+02  0.32137847340E+02  0.40659128069E+02  0.00000000000E+00 0. -1.
         11    1    3    3    0    0 -0.35700050468E+01  0.76205284234E+00 -0.20180474316E+02  0.20507979044E+02  0.51100000000E-03 0. -1.
        -11    1    3    3    0    0  0.43302376409E+01  0.12626339498E+01 -0.16064158241E+01  0.47880867347E+01  0.51100000000E-03 0.  1.
         12    1    3    3    0    0  0.17808479642E+02  0.14574300814E+02 -0.10350957200E+02  0.25232806152E+02  0.00000000000E+00 0. -1.
</event>
<event>
 7    1  0.2450552E-011  0.5052884E+02  0.7816164E-02  0.1300439E+00
        -11   -1    0    0    0    0  0.00000000000E+00  0.00000000000E+00  0.45593999997E+02  0.45594000000E+02  0.51100000000E-03 0.  1.
         11   -1    0    0    0    0 -0.00000000000E+00 -0.00000000000E+00 -0.45593999997E+02  0.45594000000E+02  0.51100000000E-03 0. -1.
    9900012    2    1    2    0    0  0.85071434473E+01 -0.22641288972E+02  0.32682833225E+02  0.50528843054E+02  0.29999948946E+02 0.  0.
         12    1    1    2    0    0 -0.85071434473E+01  0.22641288972E+02 -0.32682833225E+02  0.40659156946E+02  0.00000000000E+00 0. -1.
         11    1    3    3    0    0  0.49194513940E+01  0.35401064232E+01  0.12991030771E+02  0.14335279427E+02  0.51100000000E-03 0. -1.
        -11    1    3    3    0    0  0.94373028160E+01 -0.14547473946E+02  0.11591168762E+02  0.20857777355E+02  0.51100000000E-03 0.  1.
         12    1    3    3    0    0 -0.58496107628E+01 -0.11633921449E+02  0.81006336922E+01  0.15335786272E+02  0.00000000000E+00 0. -1.
</event>
<event>
 7    1  0.2450552E-011  0.5052884E+02  0.7816164E-02  0.1300439E+00
        -11   -1    0    0    0    0  0.00000000000E+00  0.00000000000E+00  0.45593999997E+02  0.45594000000E+02  0.51100000000E-03 0.  1.
         11   -1    0    0    0    0 -0.00000000000E+00 -0.00000000000E+00 -0.45593999997E+02  0.45594000000E+02  0.51100000000E-03 0. -1.
    9900012    2    1    2    0    0 -0.17524077099E+02 -0.31588433721E+02  0.18661326735E+02  0.50528836966E+02  0.29999930441E+02 0.  0.
         12    1    1    2    0    0  0.17524077099E+02  0.31588433721E+02 -0.18661326735E+02  0.40659163034E+02  0.00000000000E+00 0. -1.
         11    1    3    3    0    0 -0.61570545893E+00 -0.83740805843E+01  0.92972534309E+01  0.12527698929E+02  0.51100000000E-03 0. -1.
        -11    1    3    3    0    0 -0.62478928400E+01 -0.12706992915E+02 -0.70238028579E+01  0.15806253216E+02  0.51100000000E-03 0.  1.
         12    1    3    3    0    0 -0.10660478800E+02 -0.10507360222E+02  0.16387876162E+02  0.22194884820E+02  0.00000000000E+00 0. -1.
</event>
<event>
 7    1  0.2450552E-011  0.5052886E+02  0.7816164E-02  0.1300439E+00
        -11   -1    0    0    0    0  0.00000000000E+00  0.00000000000E+00  0.45593999997E+02  0.45594000000E+02  0.51100000000E-03 0.  1.
         11   -1    0    0    0    0 -0.00000000000E+00 -0.00000000000E+00 -0.45593999997E+02  0.45594000000E+02  0.51100000000E-03 0. -1.
    9900012    2    1    2    0    0 -0.26649205951E+02  0.30111675957E+02  0.60226744371E+01  0.50528858173E+02  0.29999994902E+02 0.  0.
         12    1    1    2    0    0  0.26649205951E+02 -0.30111675957E+02 -0.60226744371E+01  0.40659141827E+02  0.00000000000E+00 0. -1.
         11    1    3    3    0    0 -0.18518038622E+02  0.84304760068E+01 -0.72454356741E+01  0.21598310547E+02  0.51100000000E-03 0. -1.
        -11    1    3    3    0    0  0.16853673530E+01  0.59160846719E+00 -0.55583839124E+00  0.18706737480E+01  0.51100000000E-03 0.  1.
        -12    1    3    3    0    0 -0.98165346818E+01  0.21089591483E+02  0.13823948502E+02  0.27059873878E+02  0.00000000000E+00 0.  1.
</event>
<event>
 7    1  0.2450552E-011  0.5052886E+02  0.7816164E-02  0.1300439E+00
        -11   -1    0    0    0    0  0.00000000000E+00  0.00000000000E+00  0.45593999997E+02  0.45594000000E+02  0.51100000000E-03 0. -1.
         11   -1    0    0    0    0 -0.00000000000E+00 -0.00000000000E+00 -0.45593999997E+02  0.45594000000E+02  0.51100000000E-03 0.  1.
    9900012    2    1    2    0    0 -0.13796234919E+02  0.31052483092E+01 -0.38120686968E+02  0.50528862775E+02  0.30000008890E+02 0.  0.
         12    1    1    2    0    0  0.13796234919E+02 -0.31052483092E+01  0.38120686968E+02  0.40659137225E+02  0.00000000000E+00 0. -1.
         11    1    3    3    0    0  0.37702312935E+00 -0.54610927332E+01 -0.15495421835E+02  0.16433921577E+02  0.51100000000E-03 0. -1.
        -11    1    3    3    0    0 -0.14650354791E+02  0.67349389675E+01 -0.25785179672E+02  0.30411639044E+02  0.51100000000E-03 0.  1.
         12    1    3    3    0    0  0.47709674186E+00  0.18314020750E+01  0.31599145392E+01  0.36833021538E+01  0.00000000000E+00 0. -1.
</event>
<event>
 7    1  0.2450552E-011  0.5052886E+02  0.7816164E-02  0.1300439E+00
        -11   -1    0    0    0    0  0.00000000000E+00  0.00000000000E+00  0.45593999997E+02  0.45594000000E+02  0.51100000000E-03 0.  1.
         11   -1    0    0    0    0 -0.00000000000E+00 -0.00000000000E+00 -0.45593999997E+02  0.45594000000E+02  0.51100000000E-03 0. -1.
    9900012    2    1    2    0    0 -0.30837514344E+02  0.26599932715E+01  0.26365460960E+02  0.50528863428E+02  0.30000010875E+02 0.  0.
         12    1    1    2    0    0  0.30837514344E+02 -0.26599932715E+01 -0.26365460960E+02  0.40659136572E+02  0.00000000000E+00 0. -1.
         11    1    3    3    0    0 -0.15489865952E+02 -0.14373271512E+01 -0.18330129428E+01  0.15664028641E+02  0.51100000000E-03 0. -1.
        -11    1    3    3    0    0 -0.11000512684E+02 -0.11679614982E+01  0.83069110108E+01  0.13834022704E+02  0.51100000000E-03 0.  1.
         12    1    3    3    0    0 -0.43471357085E+01  0.52652819209E+01  0.19891562892E+02  0.21030812083E+02  0.00000000000E+00 0. -1.
</event>
<event>
 7    1  0.2450552E-011  0.5052886E+02  0.7816164E-02  0.1300439E+00
        -11   -1    0    0    0    0  0.00000000000E+00  0.00000000000E+00  0.45593999997E+02  0.45594000000E+02  0.51100000000E-03 0.  1.
         11   -1    0    0    0    0 -0.00000000000E+00 -0.00000000000E+00 -0.45593999997E+02  0.45594000000E+02  0.51100000000E-03 0. -1.
    9900012    2    1    2    0    0 -0.37489163370E+02 -0.10274682619E+01  0.15705808863E+02  0.50528862119E+02  0.30000006896E+02 0.  0.
         12    1    1    2    0    0  0.37489163370E+02  0.10274682619E+01 -0.15705808863E+02  0.40659137881E+02  0.00000000000E+00 0. -1.
         11    1    3    3    0    0 -0.16982439976E+02 -0.91304802014E+01  0.35193937834E+01  0.19599874212E+02  0.51100000000E-03 0. -1.
        -11    1    3    3    0    0 -0.17595143816E+02  0.19424794057E+00  0.13782648937E+02  0.22351470425E+02  0.51100000000E-03 0.  1.
         12    1    3    3    0    0 -0.29115795775E+01  0.79087639990E+01 -0.15962338573E+01  0.85775174820E+01  0.00000000000E+00 0. -1.
</event>
<event>
 7    1  0.2450552E-011  0.5052886E+02  0.7816164E-02  0.1300439E+00
        -11   -1    0    0    0    0  0.00000000000E+00  0.00000000000E+00  0.45593999997E+02  0.45594000000E+02  0.51100000000E-03 0.  1.
         11   -1    0    0    0    0 -0.00000000000E+00 -0.00000000000E+00 -0.45593999997E+02  0.45594000000E+02  0.51100000000E-03 0. -1.
    9900012    2    1    2    0    0  0.87082746391E+01 -0.61436754393E+01  0.39237569237E+02  0.50528860379E+02  0.30000001607E+02 0.  0.
         12    1    1    2    0    0 -0.87082746391E+01  0.61436754393E+01 -0.39237569237E+02  0.40659139621E+02  0.00000000000E+00 0. -1.
         11    1    3    3    0    0 -0.33827431928E+01 -0.46077862119E+01  0.28654293836E+00  0.57233515006E+01  0.51100000000E-03 0. -1.
        -11    1    3    3    0    0  0.30062837086E+01 -0.90037881929E+01  0.23820100183E+02  0.25641823581E+02  0.51100000000E-03 0.  1.
        -12    1    3    3    0    0  0.90847341233E+01  0.74678989655E+01  0.15130926115E+02  0.19163685297E+02  0.00000000000E+00 0.  1.
</event>
<event>
 7    1  0.2450552E-011  0.5052886E+02  0.7816164E-02  0.1300439E+00
        -11   -1    0    0    0    0  0.00000000000E+00  0.00000000000E+00  0.45593999997E+02  0.45594000000E+02  0.51100000000E-03 0.  1.
         11   -1    0    0    0    0 -0.00000000000E+00 -0.00000000000E+00 -0.45593999997E+02  0.45594000000E+02  0.51100000000E-03 0. -1.
    9900012    2    1    2    0    0  0.16713652219E+01  0.33885257873E+02  0.22408954888E+02  0.50528862995E+02  0.30000009560E+02 0.  0.
         12    1    1    2    0    0 -0.16713652219E+01 -0.33885257873E+02 -0.22408954888E+02  0.40659137005E+02  0.00000000000E+00 0. -1.
         11    1    3    3    0    0 -0.12245526653E+02  0.19726039936E+02  0.18860252516E+02  0.29912851750E+02  0.51100000000E-03 0. -1.
        -11    1    3    3    0    0  0.28837920125E+01  0.50858935801E+01  0.22785118480E+01  0.62748853680E+01  0.51100000000E-03 0.  1.
         12    1    3    3    0    0  0.11033099862E+02  0.90733243571E+01  0.12701905237E+01  0.14341125877E+02  0.00000000000E+00 0. -1.
</event>
<event>
 7    1  0.2450552E-011  0.5052884E+02  0.7816164E-02  0.1300439E+00
        -11   -1    0    0    0    0  0.00000000000E+00  0.00000000000E+00  0.45593999997E+02  0.45594000000E+02  0.51100000000E-03 0. -1.
         11   -1    0    0    0    0 -0.00000000000E+00 -0.00000000000E+00 -0.45593999997E+02  0.45594000000E+02  0.51100000000E-03 0.  1.
    9900012    2    1    2    0    0 -0.20737192294E+02 -0.33240905684E+02 -0.10870987373E+02  0.50528839638E+02  0.29999938562E+02 0.  0.
         12    1    1    2    0    0  0.20737192294E+02  0.33240905684E+02  0.10870987373E+02  0.40659160362E+02  0.00000000000E+00 0. -1.
         11    1    3    3    0    0  0.34332347212E+01 -0.88537583662E+01 -0.65473230685E+01  0.11534451763E+02  0.51100000000E-03 0. -1.
        -11    1    3    3    0    0 -0.88113194619E+01 -0.21175169272E+02 -0.10134339567E+01  0.22957660878E+02  0.51100000000E-03 0.  1.
         12    1    3    3    0    0 -0.15359107553E+02 -0.32119780461E+01 -0.33102303477E+01  0.16036726996E+02  0.00000000000E+00 0. -1.
</event>
<event>
 7    1  0.2450552E-011  0.5052886E+02  0.7816164E-02  0.1300439E+00
        -11   -1    0    0    0    0  0.00000000000E+00  0.00000000000E+00  0.45593999997E+02  0.45594000000E+02  0.51100000000E-03 0.  1.
         11   -1    0    0    0    0 -0.00000000000E+00 -0.00000000000E+00 -0.45593999997E+02  0.45594000000E+02  0.51100000000E-03 0. -1.
    9900012    2    1    2    0    0 -0.27220072691E+02  0.29303073141E+02  0.73187133582E+01  0.50528855665E+02  0.29999987280E+02 0.  0.
         12    1    1    2    0    0  0.27220072691E+02 -0.29303073141E+02 -0.73187133582E+01  0.40659144335E+02  0.00000000000E+00 0. -1.
         11    1    3    3    0    0 -0.58044680014E+01 -0.50309037402E+01  0.15886726748E+01  0.78438333965E+01  0.51100000000E-03 0. -1.
        -11    1    3    3    0    0 -0.14172173528E+02  0.28237865735E+02  0.86860222497E+01  0.32766973412E+02  0.51100000000E-03 0.  1.
        -12    1    3    3    0    0 -0.72434311620E+01  0.60961111462E+01 -0.29559815664E+01  0.99180488568E+01  0.00000000000E+00 0.  1.
</event>
<event>
 7    1  0.2450552E-011  0.5052886E+02  0.7816164E-02  0.1300439E+00
        -11   -1    0    0    0    0  0.00000000000E+00  0.00000000000E+00  0.45593999997E+02  0.45594000000E+02  0.51100000000E-03 0.  1.
         11   -1    0    0    0    0 -0.00000000000E+00 -0.00000000000E+00 -0.45593999997E+02  0.45594000000E+02  0.51100000000E-03 0. -1.
    9900012    2    1    2    0    0 -0.19751074829E+02 -0.14946661688E+01  0.35508122138E+02  0.50528859310E+02  0.29999998360E+02 0.  0.
         12    1    1    2    0    0  0.19751074829E+02  0.14946661688E+01 -0.35508122138E+02  0.40659140690E+02  0.00000000000E+00 0. -1.
         11    1    3    3    0    0 -0.14238405255E+02  0.74318873164E+01  0.12343110729E+02  0.20256295713E+02  0.51100000000E-03 0. -1.
        -11    1    3    3    0    0 -0.73615990414E+01 -0.45805585391E+01  0.24270975116E+01  0.90036359082E+01  0.51100000000E-03 0.  1.
        -12    1    3    3    0    0  0.18489294669E+01 -0.43459949461E+01  0.20737913897E+02  0.21268927689E+02  0.00000000000E+00 0.  1.
</event>
<event>
 7    1  0.2450552E-011  0.5052886E+02  0.7816164E-02  0.1300439E+00
        -11   -1    0    0    0    0  0.00000000000E+00  0.00000000000E+00  0.45593999997E+02  0.45594000000E+02  0.51100000000E-03 0.  1.
         11   -1    0    0    0    0 -0.00000000000E+00 -0.00000000000E+00 -0.45593999997E+02  0.45594000000E+02  0.51100000000E-03 0. -1.
    9900012    2    1    2    0    0  0.24892755961E+02 -0.17769705750E+02  0.26790925822E+02  0.50528862673E+02  0.30000008581E+02 0.  0.
         12    1    1    2    0    0 -0.24892755961E+02  0.17769705750E+02 -0.26790925822E+02  0.40659137327E+02  0.00000000000E+00 0. -1.
         11    1    3    3    0    0 -0.20115231582E+01 -0.12801347163E+02  0.32024062074E+01  0.13348262823E+02  0.51100000000E-03 0. -1.
        -11    1    3    3    0    0  0.13067966664E+02 -0.48172121542E+01  0.16631580279E+02  0.21693011513E+02  0.51100000000E-03 0.  1.
        -12    1    3    3    0    0  0.13836312455E+02 -0.15114643321E+00  0.69569393352E+01  0.15487588337E+02  0.00000000000E+00 0.  1.
</event>
<event>
 7    1  0.2450552E-011  0.5052894E+02  0.7816164E-02  0.1300438E+00
        -11   -1    0    0    0    0  0.00000000000E+00  0.00000000000E+00  0.45593999997E+02  0.45594000000E+02  0.51100000000E-03 0. -1.
         11   -1    0    0    0    0 -0.00000000000E+00 -0.00000000000E+00 -0.45593999997E+02  0.45594000000E+02  0.51100000000E-03 0.  1.
    9900012    2    1    2    0    0 -0.34841520610E+02 -0.12583319868E+02 -0.16759692719E+02  0.50528944461E+02  0.30000257181E+02 0.  0.
         12    1    1    2    0    0  0.34841520610E+02  0.12583319868E+02  0.16759692719E+02  0.40659055539E+02  0.00000000000E+00 0. -1.
         11    1    3    3    0    0 -0.46979918586E+01 -0.11655920447E+02 -0.25659999240E+01  0.12826377698E+02  0.51100000000E-03 0. -1.
        -11    1    3    3    0    0 -0.14150288395E+01 -0.56392971990E+01 -0.22002554104E+01  0.62165186115E+01  0.51100000000E-03 0.  1.
        -12    1    3    3    0    0 -0.28728499912E+02  0.47118977785E+01 -0.11993437385E+02  0.31486048151E+02  0.00000000000E+00 0.  1.
</event>
<event>
 7    1  0.2450552E-011  0.5052890E+02  0.7816164E-02  0.1300439E+00
        -11   -1    0    0    0    0  0.00000000000E+00  0.00000000000E+00  0.45593999997E+02  0.45594000000E+02  0.51100000000E-03 0.  1.
         11   -1    0    0    0    0 -0.00000000000E+00 -0.00000000000E+00 -0.45593999997E+02  0.45594000000E+02  0.51100000000E-03 0. -1.
    9900012    2    1    2    0    0 -0.22747313207E+02 -0.29203829235E+02  0.16818409153E+02  0.50528895403E+02  0.30000108068E+02 0.  0.
         12    1    1    2    0    0  0.22747313207E+02  0.29203829235E+02 -0.16818409153E+02  0.40659104597E+02  0.00000000000E+00 0. -1.
         11    1    3    3    0    0 -0.13862249928E+02 -0.60371333484E+01  0.10323191696E+02  0.18307846383E+02  0.51100000000E-03 0. -1.
        -11    1    3    3    0    0 -0.86586914424E+01 -0.24124485532E+02  0.10793736715E+02  0.27811301520E+02  0.51100000000E-03 0.  1.
         12    1    3    3    0    0 -0.22637183664E+00  0.95778964564E+00 -0.42985192570E+01  0.44097475004E+01  0.00000000000E+00 0. -1.
</event>
<event>
 7    1  0.2450552E-011  0.5052887E+02  0.7816164E-02  0.1300439E+00
        -11   -1    0    0    0    0  0.00000000000E+00  0.00000000000E+00  0.45593999997E+02  0.45594000000E+02  0.51100000000E-03 0.  1.
         11   -1    0    0    0    0 -0.00000000000E+00 -0.00000000000E+00 -0.45593999997E+02  0.45594000000E+02  0.51100000000E-03 0. -1.
    9900012    2    1    2    0    0 -0.19967753026E+02 -0.35225090175E+02  0.36941568697E+01  0.50528869000E+02  0.30000027812E+02 0.  0.
         12    1    1    2    0    0  0.19967753026E+02  0.35225090175E+02 -0.36941568697E+01  0.40659131000E+02  0.00000000000E+00 0. -1.
         11    1    3    3    0    0 -0.17892520536E+02 -0.18816854427E+02  0.60736824377E+01  0.26666569338E+02  0.51100000000E-03 0. -1.
        -11    1    3    3    0    0 -0.21014561862E+01 -0.82842678593E+01  0.72897144884E+01  0.11233216354E+02  0.51100000000E-03 0.  1.
         12    1    3    3    0    0  0.26223696245E-01 -0.81239678884E+01 -0.96692400564E+01  0.12629083308E+02  0.00000000000E+00 0. -1.
</event>
<event>
 7    1  0.2450552E-011  0.5052885E+02  0.7816164E-02  0.1300439E+00
        -11   -1    0    0    0    0  0.00000000000E+00  0.00000000000E+00  0.45593999997E+02  0.45594000000E+02  0.51100000000E-03 0. -1.
         11   -1    0    0    0    0 -0.00000000000E+00 -0.00000000000E+00 -0.45593999997E+02  0.45594000000E+02  0.51100000000E-03 0.  1.
    9900012    2    1    2    0    0 -0.75254627132E+01  0.37402260126E+02  0.14057192985E+02  0.50528851875E+02  0.29999975760E+02 0.  0.
         12    1    1    2    0    0  0.75254627132E+01 -0.37402260126E+02 -0.14057192985E+02  0.40659148125E+02  0.00000000000E+00 0. -1.
         11    1    3    3    0    0  0.43851839041E+01  0.69715010585E+01  0.33312509119E+01  0.88841937046E+01  0.51100000000E-03 0. -1.
        -11    1    3    3    0    0  0.46566185003E+01  0.10686266261E+02  0.10769577587E+02  0.15870229492E+02  0.51100000000E-03 0.  1.
         12    1    3    3    0    0 -0.16567265118E+02  0.19744492806E+02 -0.43635513854E-01  0.25774428679E+02  0.00000000000E+00 0. -1.
</event>
<event>
 7    1  0.2450552E-011  0.5052886E+02  0.7816164E-02  0.1300439E+00
        -11   -1    0    0    0    0  0.00000000000E+00  0.00000000000E+00  0.45593999997E+02  0.45594000000E+02  0.51100000000E-03 0.  1.
         11   -1    0    0    0    0 -0.00000000000E+00 -0.00000000000E+00 -0.45593999997E+02  0.45594000000E+02  0.51100000000E-03 0. -1.
    9900012    2    1    2    0    0 -0.29000351761E+02  0.16437618587E+02  0.23279822381E+02  0.50528857889E+02  0.29999994040E+02 0.  0.
         12    1    1    2    0    0  0.29000351761E+02 -0.16437618587E+02 -0.23279822381E+02  0.40659142111E+02  0.00000000000E+00 0. -1.
         11    1    3    3    0    0  0.40826769439E+01 -0.56519199835E-01  0.76582353934E+01  0.86787104486E+01  0.51100000000E-03 0. -1.
        -11    1    3    3    0    0 -0.74015484570E+01  0.84093513589E+01  0.83180109827E+01  0.13953114950E+02  0.51100000000E-03 0.  1.
        -12    1    3    3    0    0 -0.25681480248E+02  0.80847864279E+01  0.73035760048E+01  0.27897032491E+02  0.00000000000E+00 0.  1.
</event>
<event>
 7    1  0.2450552E-011  0.5052886E+02  0.7816164E-02  0.1300439E+00
        -11   -1    0    0    0    0  0.00000000000E+00  0.00000000000E+00  0.45593999997E+02  0.45594000000E+02  0.51100000000E-03 0.  1.
         11   -1    0    0    0    0 -0.00000000000E+00 -0.00000000000E+00 -0.45593999997E+02  0.45594000000E+02  0.51100000000E-03 0. -1.
    9900012    2    1    2    0    0 -0.35264793207E+02 -0.15390653930E+02  0.13141065339E+02  0.50528862447E+02  0.30000007894E+02 0.  0.
         12    1    1    2    0    0  0.35264793207E+02  0.15390653930E+02 -0.13141065339E+02  0.40659137553E+02  0.00000000000E+00 0. -1.
         11    1    3    3    0    0 -0.23922398055E+02 -0.22165507090E+02  0.18124687222E+01  0.32663065937E+02  0.51100000000E-03 0. -1.
        -11    1    3    3    0    0 -0.60866554539E+01  0.15555109778E+01  0.40099098592E+01  0.74529434693E+01  0.51100000000E-03 0.  1.
        -12    1    3    3    0    0 -0.52557396980E+01  0.52193421825E+01  0.73186867572E+01  0.10412853040E+02  0.00000000000E+00 0.  1.
</event>
<event>
 7    1  0.2450552E-011  0.5052876E+02  0.7816164E-02  0.1300439E+00
        -11   -1    0    0    0    0  0.00000000000E+00  0.00000000000E+00  0.45593999997E+02  0.45594000000E+02  0.51100000000E-03 0.  1.
         11   -1    0    0    0    0 -0.00000000000E+00 -0.00000000000E+00 -0.45593999997E+02  0.45594000000E+02  0.51100000000E-03 0. -1.
    9900012    2    1    2    0    0  0.85785769668E+01 -0.22866245686E+02  0.32507174783E+02  0.50528762588E+02  0.29999704362E+02 0.  0.
         12    1    1    2    0    0 -0.85785769668E+01  0.22866245686E+02 -0.32507174783E+02  0.40659237412E+02  0.00000000000E+00 0. -1.
         11    1    3    3    0    0  0.10924514115E+02 -0.18533707621E+02  0.31421708084E+02  0.38081059151E+02  0.51100000000E-03 0. -1.
        -11    1    3    3    0    0 -0.24853960034E+01 -0.59587251344E+01  0.50263759068E+01  0.81821790214E+01  0.51100000000E-03 0.  1.
         12    1    3    3    0    0  0.13945885538E+00  0.16261870698E+01 -0.39409092082E+01  0.42655244163E+01  0.00000000000E+00 0. -1.
</event>
<event>
 7    1  0.2450552E-011  0.5052885E+02  0.7816164E-02  0.1300439E+00
        -11   -1    0    0    0    0  0.00000000000E+00  0.00000000000E+00  0.45593999997E+02  0.45594000000E+02  0.51100000000E-03 0.  1.
         11   -1    0    0    0    0 -0.00000000000E+00 -0.00000000000E+00 -0.45593999997E+02  0.45594000000E+02  0.51100000000E-03 0. -1.
    9900012    2    1    2    0    0 -0.15069460902E+02 -0.24457404338E+02  0.28773480905E+02  0.50528849957E+02  0.29999969928E+02 0.  0.
         12    1    1    2    0    0  0.15069460902E+02  0.24457404338E+02 -0.28773480905E+02  0.40659150043E+02  0.00000000000E+00 0. -1.
         11    1    3    3    0    0  0.36201253166E+01 -0.85866576567E+01  0.53822218514E+01  0.10761241069E+02  0.51100000000E-03 0. -1.
        -11    1    3    3    0    0 -0.39708499501E+01  0.20281020391E+01  0.14121799135E+02  0.14808985728E+02  0.51100000000E-03 0.  1.
        -12    1    3    3    0    0 -0.14718736268E+02 -0.17898848721E+02  0.92694599185E+01  0.24958623160E+02  0.00000000000E+00 0.  1.
</event>
<event>
 7    1  0.2450552E-011  0.5052886E+02  0.7816164E-02  0.1300439E+00
        -11   -1    0    0    0    0  0.00000000000E+00  0.00000000000E+00  0.45593999997E+02  0.45594000000E+02  0.51100000000E-03 0.  1.
         11   -1    0    0    0    0 -0.00000000000E+00 -0.00000000000E+00 -0.45593999997E+02  0.45594000000E+02  0.51100000000E-03 0. -1.
    9900012    2    1    2    0    0  0.20946590597E+02 -0.10722553882E+02  0.33157700580E+02  0.50528856783E+02  0.29999990677E+02 0.  0.
         12    1    1    2    0    0 -0.20946590597E+02  0.10722553882E+02 -0.33157700580E+02  0.40659143217E+02  0.00000000000E+00 0. -1.
         11    1    3    3    0    0 -0.16004876793E+01 -0.81791332441E+01  0.29133423523E+00  0.83393439390E+01  0.51100000000E-03 0. -1.
        -11    1    3    3    0    0  0.33066349862E+01  0.37151116344E+01  0.21730455746E+01  0.54275239952E+01  0.51100000000E-03 0.  1.
        -12    1    3    3    0    0  0.19240443290E+02 -0.62585322724E+01  0.30693320770E+02  0.36761988849E+02  0.00000000000E+00 0.  1.
</event>
<event>
 7    1  0.2450552E-011  0.5052887E+02  0.7816164E-02  0.1300439E+00
        -11   -1    0    0    0    0  0.00000000000E+00  0.00000000000E+00  0.45593999997E+02  0.45594000000E+02  0.51100000000E-03 0.  1.
         11   -1    0    0    0    0 -0.00000000000E+00 -0.00000000000E+00 -0.45593999997E+02  0.45594000000E+02  0.51100000000E-03 0. -1.
    9900012    2    1    2    0    0 -0.50137971975E+01 -0.30161440865E+02  0.26801381707E+02  0.50528871397E+02  0.30000035098E+02 0.  0.
         12    1    1    2    0    0  0.50137971975E+01  0.30161440865E+02 -0.26801381707E+02  0.40659128603E+02  0.00000000000E+00 0. -1.
         11    1    3    3    0    0  0.14023388276E+01 -0.23422331732E+02  0.62761280396E+01  0.24289132577E+02  0.51100000000E-03 0. -1.
        -11    1    3    3    0    0 -0.14977098406E+00 -0.94229572493E+01  0.13363704819E+02  0.16352466524E+02  0.51100000000E-03 0.  1.
         12    1    3    3    0    0 -0.62663650411E+01  0.26838481162E+01  0.71615488481E+01  0.98872722954E+01  0.00000000000E+00 0. -1.
</event>
<event>
 7    1  0.2450552E-011  0.5052886E+02  0.7816164E-02  0.1300439E+00
        -11   -1    0    0    0    0  0.00000000000E+00  0.00000000000E+00  0.45593999997E+02  0.45594000000E+02  0.51100000000E-03 0.  1.
         11   -1    0    0    0    0 -0.00000000000E+00 -0.00000000000E+00 -0.45593999997E+02  0.45594000000E+02  0.51100000000E-03 0. -1.
    9900012    2    1    2    0    0  0.28798667190E+02 -0.12856069629E+02  0.25661728429E+02  0.50528855098E+02  0.29999985555E+02 0.  0.
         12    1    1    2    0    0 -0.28798667190E+02  0.12856069629E+02 -0.25661728429E+02  0.40659144902E+02  0.00000000000E+00 0. -1.
         11    1    3    3    0    0 -0.36258989856E+01 -0.47550121561E+01  0.34637993681E+01  0.69105130332E+01  0.51100000000E-03 0. -1.
        -11    1    3    3    0    0  0.99496633562E+01 -0.10995261118E+02  0.99749507013E+01  0.17871519513E+02  0.51100000000E-03 0.  1.
        -12    1    3    3    0    0  0.22474902820E+02  0.28942036456E+01  0.12222978359E+02  0.25746822551E+02  0.00000000000E+00 0.  1.
</event>
<event>
 7    1  0.2450552E-011  0.5052885E+02  0.7816164E-02  0.1300439E+00
        -11   -1    0    0    0    0  0.00000000000E+00  0.00000000000E+00  0.45593999997E+02  0.45594000000E+02  0.51100000000E-03 0. -1.
         11   -1    0    0    0    0 -0.00000000000E+00 -0.00000000000E+00 -0.45593999997E+02  0.45594000000E+02  0.51100000000E-03 0.  1.
    9900012    2    1    2    0    0 -0.17446419998E+02  0.31693093981E+02  0.18556307011E+02  0.50528852115E+02  0.29999976489E+02 0.  0.
         12    1    1    2    0    0  0.17446419998E+02 -0.31693093981E+02 -0.18556307011E+02  0.40659147885E+02  0.00000000000E+00 0. -1.
         11    1    3    3    0    0 -0.15115640543E+02  0.17802486651E+02  0.20991775732E+02  0.31401684168E+02  0.51100000000E-03 0. -1.
        -11    1    3    3    0    0 -0.27900872522E+01  0.11772292964E+02  0.36745096174E+01  0.12644108893E+02  0.51100000000E-03 0.  1.
         12    1    3    3    0    0  0.45930779735E+00  0.21183143658E+01 -0.61099783379E+01  0.64830590538E+01  0.00000000000E+00 0. -1.
</event>
<event>
 7    1  0.2450552E-011  0.5052883E+02  0.7816164E-02  0.1300439E+00
        -11   -1    0    0    0    0  0.00000000000E+00  0.00000000000E+00  0.45593999997E+02  0.45594000000E+02  0.51100000000E-03 0.  1.
         11   -1    0    0    0    0 -0.00000000000E+00 -0.00000000000E+00 -0.45593999997E+02  0.45594000000E+02  0.51100000000E-03 0. -1.
    9900012    2    1    2    0    0  0.34004357478E+02  0.22005086396E+02 -0.35563501372E+01  0.50528833984E+02  0.29999921378E+02 0.  0.
         12    1    1    2    0    0 -0.34004357478E+02 -0.22005086396E+02  0.35563501372E+01  0.40659166016E+02  0.00000000000E+00 0. -1.
         11    1    3    3    0    0  0.15833579783E+02 -0.17826903248E+01  0.62719958604E+01  0.17123614276E+02  0.51100000000E-03 0. -1.
        -11    1    3    3    0    0  0.28212951591E+00  0.53733167447E+01  0.11187850018E+01  0.54957993089E+01  0.51100000000E-03 0.  1.
         12    1    3    3    0    0  0.17888648179E+02  0.18414459977E+02 -0.10947130999E+02  0.27909420399E+02  0.00000000000E+00 0. -1.
</event>
<event>
 7    1  0.2450552E-011  0.5052886E+02  0.7816164E-02  0.1300439E+00
        -11   -1    0    0    0    0  0.00000000000E+00  0.00000000000E+00  0.45593999997E+02  0.45594000000E+02  0.51100000000E-03 0.  1.
         11   -1    0    0    0    0 -0.00000000000E+00 -0.00000000000E+00 -0.45593999997E+02  0.45594000000E+02  0.51100000000E-03 0. -1.
    9900012    2    1    2    0    0  0.15939523273E+02 -0.61522037828E+01  0.36895093383E+02  0.50528856757E+02  0.29999990597E+02 0.  0.
         12    1    1    2    0    0 -0.15939523273E+02  0.61522037828E+01 -0.36895093383E+02  0.40659143243E+02  0.00000000000E+00 0. -1.
         11    1    3    3    0    0 -0.11145544060E+01  0.63981075835E+00  0.22886375490E+02  0.22922429467E+02  0.51100000000E-03 0. -1.
        -11    1    3    3    0    0  0.10687636911E+02 -0.54193488068E+01  0.16704261144E+02  0.20557900303E+02  0.51100000000E-03 0.  1.
         12    1    3    3    0    0  0.63664407684E+01 -0.13726657344E+01 -0.26955432508E+01  0.70485269875E+01  0.00000000000E+00 0. -1.
</event>
<event>
 7    1  0.2450552E-011  0.5052887E+02  0.7816164E-02  0.1300439E+00
        -11   -1    0    0    0    0  0.00000000000E+00  0.00000000000E+00  0.45593999997E+02  0.45594000000E+02  0.51100000000E-03 0.  1.
         11   -1    0    0    0    0 -0.00000000000E+00 -0.00000000000E+00 -0.45593999997E+02  0.45594000000E+02  0.51100000000E-03 0. -1.
    9900012    2    1    2    0    0 -0.35836260780E+02  0.91484497302E+00  0.19185690195E+02  0.50528865278E+02  0.30000016500E+02 0.  0.
         12    1    1    2    0    0  0.35836260780E+02 -0.91484497302E+00 -0.19185690195E+02  0.40659134722E+02  0.00000000000E+00 0. -1.
         11    1    3    3    0    0 -0.59147899862E+01  0.10483781087E+01 -0.31402113087E+01  0.67782567496E+01  0.51100000000E-03 0. -1.
        -11    1    3    3    0    0 -0.26211903355E+02  0.72943826462E+01  0.10205134384E+02  0.29058848286E+02  0.51100000000E-03 0.  1.
         12    1    3    3    0    0 -0.37095674394E+01 -0.74279157819E+01  0.12120767120E+02  0.14691760242E+02  0.00000000000E+00 0. -1.
</event>
<event>
 7    1  0.2450552E-011  0.5052887E+02  0.7816164E-02  0.1300439E+00
        -11   -1    0    0    0    0  0.00000000000E+00  0.00000000000E+00  0.45593999997E+02  0.45594000000E+02  0.51100000000E-03 0.  1.
         11   -1    0    0    0    0 -0.00000000000E+00 -0.00000000000E+00 -0.45593999997E+02  0.45594000000E+02  0.51100000000E-03 0. -1.
    9900012    2    1    2    0    0 -0.17132346391E+02 -0.11854298316E+02  0.34915943191E+02  0.50528871008E+02  0.30000033916E+02 0.  0.
         12    1    1    2    0    0  0.17132346391E+02  0.11854298316E+02 -0.34915943191E+02  0.40659128992E+02  0.00000000000E+00 0. -1.
         11    1    3    3    0    0 -0.15957230288E+02 -0.13453371804E+02  0.38902963018E+02  0.44148238279E+02  0.51100000000E-03 0.  1.
        -11    1    3    3    0    0 -0.26704175931E+01  0.74054066098E+00 -0.10276651446E+01  0.29556093285E+01  0.51100000000E-03 0. -1.
        -12    1    3    3    0    0  0.14953014897E+01  0.85853282661E+00 -0.29593546818E+01  0.34250234003E+01  0.00000000000E+00 0.  1.
</event>
<event>
 7    1  0.2450552E-011  0.5052884E+02  0.7816164E-02  0.1300439E+00
        -11   -1    0    0    0    0  0.00000000000E+00  0.00000000000E+00  0.45593999997E+02  0.45594000000E+02  0.51100000000E-03 0.  1.
         11   -1    0    0    0    0 -0.00000000000E+00 -0.00000000000E+00 -0.45593999997E+02  0.45594000000E+02  0.51100000000E-03 0. -1.
    9900012    2    1    2    0    0 -0.18688084960E+02  0.76446521339E+01  0.35291384965E+02  0.50528842625E+02  0.29999947643E+02 0.  0.
         12    1    1    2    0    0  0.18688084960E+02 -0.76446521339E+01 -0.35291384965E+02  0.40659157375E+02  0.00000000000E+00 0. -1.
         11    1    3    3    0    0 -0.65867581482E+01 -0.40832310323E+01  0.17551483855E+02  0.19186264470E+02  0.51100000000E-03 0. -1.
        -11    1    3    3    0    0 -0.12493739874E+02  0.57535017575E+01  0.20550127871E+02  0.24728608418E+02  0.51100000000E-03 0.  1.
         12    1    3    3    0    0  0.39241306258E+00  0.59743814087E+01 -0.28102267609E+01  0.66139697366E+01  0.00000000000E+00 0. -1.
</event>
<event>
 7    1  0.2450552E-011  0.5052883E+02  0.7816164E-02  0.1300439E+00
        -11   -1    0    0    0    0  0.00000000000E+00  0.00000000000E+00  0.45593999997E+02  0.45594000000E+02  0.51100000000E-03 0. -1.
         11   -1    0    0    0    0 -0.00000000000E+00 -0.00000000000E+00 -0.45593999997E+02  0.45594000000E+02  0.51100000000E-03 0.  1.
    9900012    2    1    2    0    0 -0.28563120134E+02  0.54070055673E-01 -0.28936362528E+02  0.50528833362E+02  0.29999919486E+02 0.  0.
         12    1    1    2    0    0  0.28563120134E+02 -0.54070055673E-01  0.28936362528E+02  0.40659166638E+02  0.00000000000E+00 0. -1.
         11    1    3    3    0    0 -0.20865945557E+02  0.57419412942E+01 -0.25180236533E+02  0.33202437951E+02  0.51100000000E-03 0. -1.
        -11    1    3    3    0    0 -0.47689094441E+01 -0.55049870407E+01 -0.88416456944E+01  0.11455220576E+02  0.51100000000E-03 0.  1.
         12    1    3    3    0    0 -0.29282651331E+01 -0.18288419782E+00  0.50855196993E+01  0.58711748340E+01  0.00000000000E+00 0. -1.
</event>
<event>
 7    1  0.2450552E-011  0.5052884E+02  0.7816164E-02  0.1300439E+00
        -11   -1    0    0    0    0  0.00000000000E+00  0.00000000000E+00  0.45593999997E+02  0.45594000000E+02  0.51100000000E-03 0.  1.
         11   -1    0    0    0    0 -0.00000000000E+00 -0.00000000000E+00 -0.45593999997E+02  0.45594000000E+02  0.51100000000E-03 0. -1.
    9900012    2    1    2    0    0 -0.11524827839E+02  0.38982039723E+02 -0.86404848343E+00  0.50528835505E+02  0.29999926001E+02 0.  0.
         12    1    1    2    0    0  0.11524827839E+02 -0.38982039723E+02  0.86404848343E+00  0.40659164495E+02  0.00000000000E+00 0. -1.
         11    1    3    3    0    0 -0.68461013516E+01 -0.15489657050E+01 -0.30711478895E+01  0.76616152404E+01  0.51100000000E-03 0. -1.
        -11    1    3    3    0    0 -0.78877493668E+01  0.20428119520E+02 -0.22948385360E+01  0.22017968602E+02  0.51100000000E-03 0.  1.
        -12    1    3    3    0    0  0.32090228794E+01  0.20102885908E+02  0.45019379420E+01  0.20849251663E+02  0.00000000000E+00 0.  1.
</event>
<event>
 7    1  0.2450552E-011  0.5052886E+02  0.7816164E-02  0.1300439E+00
        -11   -1    0    0    0    0  0.00000000000E+00  0.00000000000E+00  0.45593999997E+02  0.45594000000E+02  0.51100000000E-03 0.  1.
         11   -1    0    0    0    0 -0.00000000000E+00 -0.00000000000E+00 -0.45593999997E+02  0.45594000000E+02  0.51100000000E-03 0. -1.
    9900012    2    1    2    0    0  0.16809250445E+02  0.60673344799E+01  0.36521259462E+02  0.50528857843E+02  0.29999993900E+02 0.  0.
         12    1    1    2    0    0 -0.16809250445E+02 -0.60673344799E+01 -0.36521259462E+02  0.40659142157E+02  0.00000000000E+00 0. -1.
         11    1    3    3    0    0 -0.46937916295E+01  0.83728179557E+00  0.27609698656E+01  0.55095984905E+01  0.51100000000E-03 0. -1.
        -11    1    3    3    0    0  0.35485352946E+01  0.13633947314E+01  0.23847792228E+02  0.24148874557E+02  0.51100000000E-03 0.  1.
        -12    1    3    3    0    0  0.17954506780E+02  0.38666579529E+01  0.99124973684E+01  0.20870384796E+02  0.00000000000E+00 0.  1.
</event>
<event>
 7    1  0.2450552E-011  0.5052886E+02  0.7816164E-02  0.1300439E+00
        -11   -1    0    0    0    0  0.00000000000E+00  0.00000000000E+00  0.45593999997E+02  0.45594000000E+02  0.51100000000E-03 0.  1.
         11   -1    0    0    0    0 -0.00000000000E+00 -0.00000000000E+00 -0.45593999997E+02  0.45594000000E+02  0.51100000000E-03 0. -1.
    9900012    2    1    2    0    0 -0.13796994966E+02  0.37459567799E+02  0.77194284725E+01  0.50528857538E+02  0.29999992974E+02 0.  0.
         12    1    1    2    0    0  0.13796994966E+02 -0.37459567799E+02 -0.77194284725E+01  0.40659142462E+02  0.00000000000E+00 0. -1.
         11    1    3    3    0    0 -0.81649516363E+01  0.18701901079E+02  0.11183727040E+02  0.23270223247E+02  0.51100000000E-03 0. -1.
        -11    1    3    3    0    0 -0.80950979260E+01  0.23149208231E+01  0.36469335713E+01  0.91754887381E+01  0.51100000000E-03 0.  1.
         12    1    3    3    0    0  0.24630545959E+01  0.16442745896E+02 -0.71112321391E+01  0.18083145553E+02  0.00000000000E+00 0. -1.
</event>
<event>
 7    1  0.2450552E-011  0.5052886E+02  0.7816164E-02  0.1300439E+00
        -11   -1    0    0    0    0  0.00000000000E+00  0.00000000000E+00  0.45593999997E+02  0.45594000000E+02  0.51100000000E-03 0.  1.
         11   -1    0    0    0    0 -0.00000000000E+00 -0.00000000000E+00 -0.45593999997E+02  0.45594000000E+02  0.51100000000E-03 0. -1.
    9900012    2    1    2    0    0  0.37637248077E+02  0.89581494146E+01  0.12504198879E+02  0.50528857444E+02  0.29999992688E+02 0.  0.
         12    1    1    2    0    0 -0.37637248077E+02 -0.89581494146E+01 -0.12504198879E+02  0.40659142556E+02  0.00000000000E+00 0. -1.
         11    1    3    3    0    0  0.10422381031E+02 -0.56337050935E+01 -0.71556628473E+00  0.11869148866E+02  0.51100000000E-03 0. -1.
        -11    1    3    3    0    0  0.21362475055E+02  0.39910023169E+01  0.14615158884E+01  0.21781172350E+02  0.51100000000E-03 0.  1.
        -12    1    3    3    0    0  0.58523919911E+01  0.10600852191E+02  0.11758249275E+02  0.16878536229E+02  0.00000000000E+00 0.  1.
</event>
<event>
 7    1  0.2450552E-011  0.5052886E+02  0.7816164E-02  0.1300439E+00
        -11   -1    0    0    0    0  0.00000000000E+00  0.00000000000E+00  0.45593999997E+02  0.45594000000E+02  0.51100000000E-03 0.  1.
         11   -1    0    0    0    0 -0.00000000000E+00 -0.00000000000E+00 -0.45593999997E+02  0.45594000000E+02  0.51100000000E-03 0. -1.
    9900012    2    1    2    0    0  0.33914982578E+02 -0.30712010798E+01  0.22215027893E+02  0.50528858548E+02  0.29999996042E+02 0.  0.
         12    1    1    2    0    0 -0.33914982578E+02  0.30712010798E+01 -0.22215027893E+02  0.40659141452E+02  0.00000000000E+00 0. -1.
         11    1    3    3    0    0  0.69480328494E+01  0.57055472658E+01  0.11962718733E+02  0.14964460225E+02  0.51100000000E-03 0. -1.
        -11    1    3    3    0    0  0.61728044918E+01 -0.99492984676E+01  0.88743179212E+01  0.14691683842E+02  0.51100000000E-03 0.  1.
        -12    1    3    3    0    0  0.20794145237E+02  0.11725501221E+01  0.13779912386E+01  0.20872714481E+02  0.00000000000E+00 0.  1.
</event>
<event>
 7    1  0.2450552E-011  0.5052886E+02  0.7816164E-02  0.1300439E+00
        -11   -1    0    0    0    0  0.00000000000E+00  0.00000000000E+00  0.45593999997E+02  0.45594000000E+02  0.51100000000E-03 0.  1.
         11   -1    0    0    0    0 -0.00000000000E+00 -0.00000000000E+00 -0.45593999997E+02  0.45594000000E+02  0.51100000000E-03 0. -1.
    9900012    2    1    2    0    0 -0.13406972980E+02 -0.38345730754E+02 -0.17389220824E+01  0.50528857835E+02  0.29999993876E+02 0.  0.
         12    1    1    2    0    0  0.13406972980E+02  0.38345730754E+02  0.17389220824E+01  0.40659142165E+02  0.00000000000E+00 0. -1.
         11    1    3    3    0    0 -0.15539169157E+02 -0.34850526333E+02  0.18642079574E+01  0.38203406070E+02  0.51100000000E-03 0.  1.
        -11    1    3    3    0    0 -0.96009658039E+00 -0.23862768895E+00  0.36571060994E+01  0.37885556484E+01  0.51100000000E-03 0. -1.
        -12    1    3    3    0    0  0.30922927578E+01 -0.32565767326E+01 -0.72602361392E+01  0.85368961170E+01  0.00000000000E+00 0.  1.
</event>
<event>
 7    1  0.2450552E-011  0.5052886E+02  0.7816164E-02  0.1300439E+00
        -11   -1    0    0    0    0  0.00000000000E+00  0.00000000000E+00  0.45593999997E+02  0.45594000000E+02  0.51100000000E-03 0. -1.
         11   -1    0    0    0    0 -0.00000000000E+00 -0.00000000000E+00 -0.45593999997E+02  0.45594000000E+02  0.51100000000E-03 0.  1.
    9900012    2    1    2    0    0  0.32676337594E+02 -0.12496446055E+02 -0.20718629687E+02  0.50528858117E+02  0.29999994731E+02 0.  0.
         12    1    1    2    0    0 -0.32676337594E+02  0.12496446055E+02  0.20718629687E+02  0.40659141883E+02  0.00000000000E+00 0. -1.
         11    1    3    3    0    0  0.19862007553E+02  0.40781568771E+01 -0.12470663114E+02  0.23804372420E+02  0.51100000000E-03 0. -1.
        -11    1    3    3    0    0  0.25903682597E+01  0.24460305000E+01 -0.25797539025E+01  0.43986592715E+01  0.51100000000E-03 0.  1.
        -12    1    3    3    0    0  0.10223961781E+02 -0.19020633433E+02 -0.56682126706E+01  0.22325826425E+02  0.00000000000E+00 0.  1.
</event>
<event>
 7    1  0.2450552E-011  0.5052887E+02  0.7816164E-02  0.1300439E+00
        -11   -1    0    0    0    0  0.00000000000E+00  0.00000000000E+00  0.45593999997E+02  0.45594000000E+02  0.51100000000E-03 0. -1.
         11   -1    0    0    0    0 -0.00000000000E+00 -0.00000000000E+00 -0.45593999997E+02  0.45594000000E+02  0.51100000000E-03 0.  1.
    9900012    2    1    2    0    0  0.17836228628E+02  0.36356251920E+02 -0.36410136499E+01  0.50528867130E+02  0.30000022127E+02 0.  0.
         12    1    1    2    0    0 -0.17836228628E+02 -0.36356251920E+02  0.36410136499E+01  0.40659132870E+02  0.00000000000E+00 0. -1.
         11    1    3    3    0    0  0.37520338459E+01  0.10700026153E+02  0.58436365928E+01  0.12756034123E+02  0.51100000000E-03 0. -1.
        -11    1    3    3    0    0  0.17829855775E+02  0.11579077573E+02 -0.92994351424E+01  0.23204704019E+02  0.51100000000E-03 0.  1.
         12    1    3    3    0    0 -0.37456609926E+01  0.14077148194E+02 -0.18521510024E+00  0.14568128987E+02  0.00000000000E+00 0. -1.
</event>
<event>
 7    1  0.2450552E-011  0.5052886E+02  0.7816164E-02  0.1300439E+00
        -11   -1    0    0    0    0  0.00000000000E+00  0.00000000000E+00  0.45593999997E+02  0.45594000000E+02  0.51100000000E-03 0. -1.
         11   -1    0    0    0    0 -0.00000000000E+00 -0.00000000000E+00 -0.45593999997E+02  0.45594000000E+02  0.51100000000E-03 0.  1.
    9900012    2    1    2    0    0  0.16066379719E+02  0.36119788580E+02  0.95077812927E+01  0.50528860936E+02  0.30000003301E+02 0.  0.
         12    1    1    2    0    0 -0.16066379719E+02 -0.36119788580E+02 -0.95077812927E+01  0.40659139064E+02  0.00000000000E+00 0. -1.
         11    1    3    3    0    0  0.65302124747E+01  0.33920670105E+02  0.49855623197E+01  0.34901452223E+02  0.51100000000E-03 0. -1.
        -11    1    3    3    0    0  0.32458209686E+01  0.34138040883E+01  0.72649366312E+01  0.86584477032E+01  0.51100000000E-03 0.  1.
        -12    1    3    3    0    0  0.62903462756E+01 -0.12146856138E+01 -0.27427176583E+01  0.69689610101E+01  0.00000000000E+00 0.  1.
</event>
<event>
 7    1  0.2450552E-011  0.5052884E+02  0.7816164E-02  0.1300439E+00
        -11   -1    0    0    0    0  0.00000000000E+00  0.00000000000E+00  0.45593999997E+02  0.45594000000E+02  0.51100000000E-03 0.  1.
         11   -1    0    0    0    0 -0.00000000000E+00 -0.00000000000E+00 -0.45593999997E+02  0.45594000000E+02  0.51100000000E-03 0. -1.
    9900012    2    1    2    0    0 -0.31776972455E+02 -0.54969823995E+01  0.24762361334E+02  0.50528839498E+02  0.29999938138E+02 0.  0.
         12    1    1    2    0    0  0.31776972455E+02  0.54969823995E+01 -0.24762361334E+02  0.40659160502E+02  0.00000000000E+00 0. -1.
         11    1    3    3    0    0  0.25740668812E+01 -0.11909821275E+01 -0.74379177176E+00  0.29321468582E+01  0.51100000000E-03 0. -1.
        -11    1    3    3    0    0 -0.21880642682E+02 -0.58663799636E+01  0.44668599920E+01  0.23089603212E+02  0.51100000000E-03 0.  1.
        -12    1    3    3    0    0 -0.12470396654E+02  0.15603796917E+01  0.21039293113E+02  0.24507089427E+02  0.00000000000E+00 0.  1.
</event>
<event>
 7    1  0.2450552E-011  0.5052886E+02  0.7816164E-02  0.1300439E+00
        -11   -1    0    0    0    0  0.00000000000E+00  0.00000000000E+00  0.45593999997E+02  0.45594000000E+02  0.51100000000E-03 0.  1.
         11   -1    0    0    0    0 -0.00000000000E+00 -0.00000000000E+00 -0.45593999997E+02  0.45594000000E+02  0.51100000000E-03 0. -1.
    9900012    2    1    2    0    0 -0.23976106274E+02  0.12952945009E+02  0.30175040638E+02  0.50528861618E+02  0.30000005375E+02 0.  0.
         12    1    1    2    0    0  0.23976106274E+02 -0.12952945009E+02 -0.30175040638E+02  0.40659138382E+02  0.00000000000E+00 0. -1.
         11    1    3    3    0    0 -0.22503624759E+02  0.11635780207E+02  0.30914480208E+02  0.39968857817E+02  0.51100000000E-03 0. -1.
        -11    1    3    3    0    0 -0.54700077802E+01  0.27217709328E+01  0.54097552815E+00  0.61336511890E+01  0.51100000000E-03 0.  1.
         12    1    3    3    0    0  0.39975262654E+01 -0.14046061311E+01 -0.12804150989E+01  0.44263526127E+01  0.00000000000E+00 0. -1.
</event>
<event>
 7    1  0.2450552E-011  0.5052886E+02  0.7816164E-02  0.1300439E+00
        -11   -1    0    0    0    0  0.00000000000E+00  0.00000000000E+00  0.45593999997E+02  0.45594000000E+02  0.51100000000E-03 0.  1.
         11   -1    0    0    0    0 -0.00000000000E+00 -0.00000000000E+00 -0.45593999997E+02  0.45594000000E+02  0.51100000000E-03 0. -1.
    9900012    2    1    2    0    0  0.10159194790E+02  0.39314605443E+02 -0.20779990920E+01  0.50528861788E+02  0.30000005891E+02 0.  0.
         12    1    1    2    0    0 -0.10159194790E+02 -0.39314605443E+02  0.20779990920E+01  0.40659138212E+02  0.00000000000E+00 0. -1.
         11    1    3    3    0    0  0.26981798722E+01 -0.32176156877E+01  0.19265813087E+01  0.46200585642E+01  0.51100000000E-03 0. -1.
        -11    1    3    3    0    0 -0.43632847196E+01  0.66680262570E+01 -0.53775280413E+00  0.79868645943E+01  0.51100000000E-03 0.  1.
        -12    1    3    3    0    0  0.11824299638E+02  0.35864194873E+02 -0.34668275965E+01  0.37921938630E+02  0.00000000000E+00 0.  1.
</event>
<event>
 7    1  0.2450552E-011  0.5052885E+02  0.7816164E-02  0.1300439E+00
        -11   -1    0    0    0    0  0.00000000000E+00  0.00000000000E+00  0.45593999997E+02  0.45594000000E+02  0.51100000000E-03 0. -1.
         11   -1    0    0    0    0 -0.00000000000E+00 -0.00000000000E+00 -0.45593999997E+02  0.45594000000E+02  0.51100000000E-03 0.  1.
    9900012    2    1    2    0    0 -0.16224454950E+02 -0.31900682625E+01 -0.37145081598E+02  0.50528848990E+02  0.29999966989E+02 0.  0.
         12    1    1    2    0    0  0.16224454950E+02  0.31900682625E+01  0.37145081598E+02  0.40659151010E+02  0.00000000000E+00 0. -1.
         11    1    3    3    0    0 -0.69483909062E+01 -0.18672842684E+01  0.15922419806E+01  0.73689973205E+01  0.51100000000E-03 0. -1.
        -11    1    3    3    0    0  0.41001654551E+01 -0.32455784420E+01 -0.14434419781E+02  0.15352446413E+02  0.51100000000E-03 0.  1.
         12    1    3    3    0    0 -0.13376229499E+02  0.19227944479E+01 -0.24302903797E+02  0.27807405256E+02  0.00000000000E+00 0. -1.
</event>
<event>
 7    1  0.2450552E-011  0.5052885E+02  0.7816164E-02  0.1300439E+00
        -11   -1    0    0    0    0  0.00000000000E+00  0.00000000000E+00  0.45593999997E+02  0.45594000000E+02  0.51100000000E-03 0.  1.
         11   -1    0    0    0    0 -0.00000000000E+00 -0.00000000000E+00 -0.45593999997E+02  0.45594000000E+02  0.51100000000E-03 0. -1.
    9900012    2    1    2    0    0 -0.11105851935E+02  0.25183095679E+02  0.29927208986E+02  0.50528854745E+02  0.29999984482E+02 0.  0.
         12    1    1    2    0    0  0.11105851935E+02 -0.25183095679E+02 -0.29927208986E+02  0.40659145255E+02  0.00000000000E+00 0. -1.
         11    1    3    3    0    0  0.51285130607E+01  0.31010445766E+01  0.15677290162E+01  0.61948283438E+01  0.51100000000E-03 0. -1.
        -11    1    3    3    0    0 -0.12290115661E+02  0.23251439274E+02  0.30008213870E+02  0.39901995830E+02  0.51100000000E-03 0.  1.
         12    1    3    3    0    0 -0.39442493346E+01 -0.11693881716E+01 -0.16487339000E+01  0.44320305710E+01  0.00000000000E+00 0. -1.
</event>
<event>
 7    1  0.2450552E-011  0.5052888E+02  0.7816164E-02  0.1300439E+00
        -11   -1    0    0    0    0  0.00000000000E+00  0.00000000000E+00  0.45593999997E+02  0.45594000000E+02  0.51100000000E-03 0.  1.
         11   -1    0    0    0    0 -0.00000000000E+00 -0.00000000000E+00 -0.45593999997E+02  0.45594000000E+02  0.51100000000E-03 0. -1.
    9900012    2    1    2    0    0  0.26338705445E+02  0.19855177336E+02  0.23774121207E+02  0.50528876660E+02  0.30000051097E+02 0.  0.
         12    1    1    2    0    0 -0.26338705445E+02 -0.19855177336E+02 -0.23774121207E+02  0.40659123340E+02  0.00000000000E+00 0. -1.
         11    1    3    3    0    0  0.26206633651E+01  0.24959656620E+01  0.13595586157E+01  0.38660213333E+01  0.51100000000E-03 0. -1.
        -11    1    3    3    0    0  0.27242124631E+02  0.53393236631E+01  0.11497404036E+02  0.30047163450E+02  0.51100000000E-03 0.  1.
         12    1    3    3    0    0 -0.35240825507E+01  0.12019888011E+02  0.10917158555E+02  0.16615691877E+02  0.00000000000E+00 0. -1.
</event>
<event>
 7    1  0.2450552E-011  0.5052886E+02  0.7816164E-02  0.1300439E+00
        -11   -1    0    0    0    0  0.00000000000E+00  0.00000000000E+00  0.45593999997E+02  0.45594000000E+02  0.51100000000E-03 0. -1.
         11   -1    0    0    0    0 -0.00000000000E+00 -0.00000000000E+00 -0.45593999997E+02  0.45594000000E+02  0.51100000000E-03 0.  1.
    9900012    2    1    2    0    0  0.14553785392E+01 -0.68207574594E+00 -0.40627355410E+02  0.50528863737E+02  0.30000011816E+02 0.  0.
         12    1    1    2    0    0 -0.14553785392E+01  0.68207574594E+00  0.40627355410E+02  0.40659136263E+02  0.00000000000E+00 0. -1.
         11    1    3    3    0    0  0.13890024985E+01 -0.85603686964E+01 -0.11252171179E+01  0.87450188097E+01  0.51100000000E-03 0. -1.
        -11    1    3    3    0    0 -0.25489366228E+01  0.27616854300E+01 -0.29363208970E+01  0.47692730047E+01  0.51100000000E-03 0.  1.
        -12    1    3    3    0    0  0.26153126635E+01  0.51166075204E+01 -0.36565817395E+02  0.37014571923E+02  0.00000000000E+00 0.  1.
</event>
<event>
 7    1  0.2450552E-011  0.5052886E+02  0.7816164E-02  0.1300439E+00
        -11   -1    0    0    0    0  0.00000000000E+00  0.00000000000E+00  0.45593999997E+02  0.45594000000E+02  0.51100000000E-03 0.  1.
         11   -1    0    0    0    0 -0.00000000000E+00 -0.00000000000E+00 -0.45593999997E+02  0.45594000000E+02  0.51100000000E-03 0. -1.
    9900012    2    1    2    0    0 -0.18961595347E+02  0.31417210132E+02  0.17509501803E+02  0.50528857806E+02  0.29999993786E+02 0.  0.
         12    1    1    2    0    0  0.18961595347E+02 -0.31417210132E+02 -0.17509501803E+02  0.40659142194E+02  0.00000000000E+00 0. -1.
         11    1    3    3    0    0 -0.77962343990E+01  0.14553423688E+02  0.80352659841E+01  0.18361615167E+02  0.51100000000E-03 0. -1.
        -11    1    3    3    0    0 -0.89783435324E+01  0.13183500707E+02  0.17123488634E+02  0.23401478730E+02  0.51100000000E-03 0.  1.
         12    1    3    3    0    0 -0.21870174159E+01  0.36802857360E+01 -0.76492528148E+01  0.87657639086E+01  0.00000000000E+00 0. -1.
</event>
<event>
 7    1  0.2450552E-011  0.5052886E+02  0.7816164E-02  0.1300439E+00
        -11   -1    0    0    0    0  0.00000000000E+00  0.00000000000E+00  0.45593999997E+02  0.45594000000E+02  0.51100000000E-03 0.  1.
         11   -1    0    0    0    0 -0.00000000000E+00 -0.00000000000E+00 -0.45593999997E+02  0.45594000000E+02  0.51100000000E-03 0. -1.
    9900012    2    1    2    0    0  0.39774961556E+01 -0.22437113002E+02  0.33673743861E+02  0.50528861530E+02  0.30000005107E+02 0.  0.
         12    1    1    2    0    0 -0.39774961556E+01  0.22437113002E+02 -0.33673743861E+02  0.40659138470E+02  0.00000000000E+00 0. -1.
         11    1    3    3    0    0  0.43007984878E+01 -0.45151954131E-01 -0.23437761279E+01  0.48981826355E+01  0.51100000000E-03 0. -1.
        -11    1    3    3    0    0  0.42612273644E+01  0.50303952658E-01  0.10547266465E+02  0.11375650280E+02  0.51100000000E-03 0.  1.
        -12    1    3    3    0    0 -0.45845296966E+01 -0.22442265000E+02  0.25470253523E+02  0.34255028615E+02  0.00000000000E+00 0.  1.
</event>
<event>
 7    1  0.2450552E-011  0.5052886E+02  0.7816164E-02  0.1300439E+00
        -11   -1    0    0    0    0  0.00000000000E+00  0.00000000000E+00  0.45593999997E+02  0.45594000000E+02  0.51100000000E-03 0.  1.
         11   -1    0    0    0    0 -0.00000000000E+00 -0.00000000000E+00 -0.45593999997E+02  0.45594000000E+02  0.51100000000E-03 0. -1.
    9900012    2    1    2    0    0 -0.36026988039E+02 -0.17697922468E+02 -0.64811733852E+01  0.50528856683E+02  0.29999990373E+02 0.  0.
         12    1    1    2    0    0  0.36026988039E+02  0.17697922468E+02  0.64811733852E+01  0.40659143317E+02  0.00000000000E+00 0. -1.
         11    1    3    3    0    0 -0.18580592878E+02 -0.18842312148E+02 -0.13536409943E+02  0.29723821309E+02  0.51100000000E-03 0. -1.
        -11    1    3    3    0    0 -0.91699562184E+01 -0.33549582516E+01  0.56476871244E+01  0.11280080320E+02  0.51100000000E-03 0.  1.
        -12    1    3    3    0    0 -0.82764389420E+01  0.44993479313E+01  0.14075494334E+01  0.95249550537E+01  0.00000000000E+00 0.  1.
</event>
<event>
 7    1  0.2450552E-011  0.5052886E+02  0.7816164E-02  0.1300439E+00
        -11   -1    0    0    0    0  0.00000000000E+00  0.00000000000E+00  0.45593999997E+02  0.45594000000E+02  0.51100000000E-03 0.  1.
         11   -1    0    0    0    0 -0.00000000000E+00 -0.00000000000E+00 -0.45593999997E+02  0.45594000000E+02  0.51100000000E-03 0. -1.
    9900012    2    1    2    0    0  0.38339073931E+02 -0.11216251891E+02 -0.75813701421E+01  0.50528855031E+02  0.29999985353E+02 0.  0.
         12    1    1    2    0    0 -0.38339073931E+02  0.11216251891E+02  0.75813701421E+01  0.40659144969E+02  0.00000000000E+00 0. -1.
         11    1    3    3    0    0  0.15823724436E+02 -0.87853194157E+01  0.57276017806E+01  0.18983611740E+02  0.51100000000E-03 0. -1.
        -11    1    3    3    0    0  0.17347333754E+02 -0.84856762997E+01 -0.13533577022E+02  0.23581653842E+02  0.51100000000E-03 0.  1.
         12    1    3    3    0    0  0.51680157401E+01  0.60547438243E+01  0.22460509954E+00  0.79635894494E+01  0.00000000000E+00 0. -1.
</event>
<event>
 7    1  0.2450552E-011  0.5052886E+02  0.7816164E-02  0.1300439E+00
        -11   -1    0    0    0    0  0.00000000000E+00  0.00000000000E+00  0.45593999997E+02  0.45594000000E+02  0.51100000000E-03 0. -1.
         11   -1    0    0    0    0 -0.00000000000E+00 -0.00000000000E+00 -0.45593999997E+02  0.45594000000E+02  0.51100000000E-03 0.  1.
    9900012    2    1    2    0    0  0.40585620857E+02  0.20318213950E+01 -0.13583318810E+01  0.50528856083E+02  0.29999988551E+02 0.  0.
         12    1    1    2    0    0 -0.40585620857E+02 -0.20318213950E+01  0.13583318810E+01  0.40659143917E+02  0.00000000000E+00 0. -1.
         11    1    3    3    0    0 -0.16354436152E+00 -0.14865657390E+01  0.13948924878E+01  0.20450794039E+01  0.51100000000E-03 0. -1.
        -11    1    3    3    0    0  0.42255222148E+02  0.33661300231E+01  0.30381685709E+01  0.42497824634E+02  0.51100000000E-03 0.  1.
         12    1    3    3    0    0 -0.15060569298E+01  0.15225711099E+00 -0.57913929397E+01  0.59859520450E+01  0.00000000000E+00 0. -1.
</event>
<event>
 7    1  0.2450552E-011  0.5052887E+02  0.7816164E-02  0.1300439E+00
        -11   -1    0    0    0    0  0.00000000000E+00  0.00000000000E+00  0.45593999997E+02  0.45594000000E+02  0.51100000000E-03 0.  1.
         11   -1    0    0    0    0 -0.00000000000E+00 -0.00000000000E+00 -0.45593999997E+02  0.45594000000E+02  0.51100000000E-03 0. -1.
    9900012    2    1    2    0    0  0.14551340474E+02  0.18659979237E+02  0.33064011620E+02  0.50528865735E+02  0.30000017889E+02 0.  0.
         12    1    1    2    0    0 -0.14551340474E+02 -0.18659979237E+02 -0.33064011620E+02  0.40659134265E+02  0.00000000000E+00 0. -1.
         11    1    3    3    0    0 -0.19359908927E+01 -0.20040218176E+01 -0.19674558745E+01  0.34110184786E+01  0.51100000000E-03 0. -1.
        -11    1    3    3    0    0  0.11682093884E+02  0.19777260938E+01  0.99386635170E+01  0.15464790680E+02  0.51100000000E-03 0.  1.
        -12    1    3    3    0    0  0.48052374829E+01  0.18686274960E+02  0.25092803978E+02  0.31653056576E+02  0.00000000000E+00 0.  1.
</event>
<event>
 7    1  0.2450552E-011  0.5052885E+02  0.7816164E-02  0.1300439E+00
        -11   -1    0    0    0    0  0.00000000000E+00  0.00000000000E+00  0.45593999997E+02  0.45594000000E+02  0.51100000000E-03 0.  1.
         11   -1    0    0    0    0 -0.00000000000E+00 -0.00000000000E+00 -0.45593999997E+02  0.45594000000E+02  0.51100000000E-03 0. -1.
    9900012    2    1    2    0    0 -0.12312832038E+02  0.22103964191E+02  0.31827270080E+02  0.50528853594E+02  0.29999980983E+02 0.  0.
         12    1    1    2    0    0  0.12312832038E+02 -0.22103964191E+02 -0.31827270080E+02  0.40659146406E+02  0.00000000000E+00 0. -1.
         11    1    3    3    0    0 -0.73421786335E+01  0.16990194426E+01  0.21393216785E+00  0.75392321483E+01  0.51100000000E-03 0. -1.
        -11    1    3    3    0    0  0.57690820562E+01  0.66219956676E-01  0.38468200055E+01  0.69343144773E+01  0.51100000000E-03 0.  1.
        -12    1    3    3    0    0 -0.10739735460E+02  0.20338724791E+02  0.27766517907E+02  0.36055306968E+02  0.00000000000E+00 0.  1.
</event>
<event>
 7    1  0.2514484E-011  0.5052886E+02  0.7816164E-02  0.1300439E+00
        -11   -1    0    0    0    0  0.00000000000E+00  0.00000000000E+00  0.45593999997E+02  0.45594000000E+02  0.51100000000E-03 0.  1.
         11   -1    0    0    0    0 -0.00000000000E+00 -0.00000000000E+00 -0.45593999997E+02  0.45594000000E+02  0.51100000000E-03 0. -1.
    9900012    2    1    2    0    0 -0.66279005040E+01 -0.40064294313E+02 -0.20220948134E+01  0.50528860666E+02  0.30000002482E+02 0.  0.
         12    1    1    2    0    0  0.66279005040E+01  0.40064294313E+02  0.20220948134E+01  0.40659139334E+02  0.00000000000E+00 0. -1.
         11    1    3    3    0    0  0.13942390596E+01  0.27807669680E+00  0.55588442489E+01  0.57377677584E+01  0.51100000000E-03 0. -1.
        -11    1    3    3    0    0 -0.11788432915E+02 -0.20316788021E+02 -0.15479688512E+01  0.23540077186E+02  0.51100000000E-03 0.  1.
        -12    1    3    3    0    0  0.37662933513E+01 -0.20025582989E+02 -0.60329702111E+01  0.21251015722E+02  0.00000000000E+00 0.  1.
</event>
<event>
 7    1  0.2450552E-011  0.5052885E+02  0.7816164E-02  0.1300439E+00
        -11   -1    0    0    0    0  0.00000000000E+00  0.00000000000E+00  0.45593999997E+02  0.45594000000E+02  0.51100000000E-03 0.  1.
         11   -1    0    0    0    0 -0.00000000000E+00 -0.00000000000E+00 -0.45593999997E+02  0.45594000000E+02  0.51100000000E-03 0. -1.
    9900012    2    1    2    0    0 -0.38135407203E+02 -0.75500490529E+01  0.11910238567E+02  0.50528852125E+02  0.29999976518E+02 0.  0.
         12    1    1    2    0    0  0.38135407203E+02  0.75500490529E+01 -0.11910238567E+02  0.40659147875E+02  0.00000000000E+00 0. -1.
         11    1    3    3    0    0 -0.27959176048E+02 -0.85227948513E+01  0.86068859151E+01  0.30470182847E+02  0.51100000000E-03 0. -1.
        -11    1    3    3    0    0 -0.28141026420E+01 -0.33265214390E+01  0.88660635059E+01  0.98788663781E+01  0.51100000000E-03 0.  1.
        -12    1    3    3    0    0 -0.73621285132E+01  0.42992672374E+01 -0.55627108537E+01  0.10179802899E+02  0.00000000000E+00 0.  1.
</event>
<event>
 7    1  0.2450552E-011  0.5052886E+02  0.7816164E-02  0.1300439E+00
        -11   -1    0    0    0    0  0.00000000000E+00  0.00000000000E+00  0.45593999997E+02  0.45594000000E+02  0.51100000000E-03 0.  1.
         11   -1    0    0    0    0 -0.00000000000E+00 -0.00000000000E+00 -0.45593999997E+02  0.45594000000E+02  0.51100000000E-03 0. -1.
    9900012    2    1    2    0    0  0.22564476132E+02  0.10343504841E+02  0.32202828643E+02  0.50528857755E+02  0.29999993631E+02 0.  0.
         12    1    1    2    0    0 -0.22564476132E+02 -0.10343504841E+02 -0.32202828643E+02  0.40659142245E+02  0.00000000000E+00 0. -1.
         11    1    3    3    0    0  0.11472924546E+02  0.15151805898E+02  0.66364132011E+01  0.20130752595E+02  0.51100000000E-03 0. -1.
        -11    1    3    3    0    0  0.81047767133E+01  0.24498866260E+01  0.15153545829E+02  0.17358551251E+02  0.51100000000E-03 0.  1.
        -12    1    3    3    0    0  0.29867748729E+01 -0.72581876828E+01  0.10412869612E+02  0.13039553909E+02  0.00000000000E+00 0.  1.
</event>
<event>
 7    1  0.2450552E-011  0.5052886E+02  0.7816164E-02  0.1300439E+00
        -11   -1    0    0    0    0  0.00000000000E+00  0.00000000000E+00  0.45593999997E+02  0.45594000000E+02  0.51100000000E-03 0.  1.
         11   -1    0    0    0    0 -0.00000000000E+00 -0.00000000000E+00 -0.45593999997E+02  0.45594000000E+02  0.51100000000E-03 0. -1.
    9900012    2    1    2    0    0 -0.32985320318E+02 -0.79216488760E+00  0.23759348006E+02  0.50528862044E+02  0.30000006668E+02 0.  0.
         12    1    1    2    0    0  0.32985320318E+02  0.79216488760E+00 -0.23759348006E+02  0.40659137956E+02  0.00000000000E+00 0. -1.
         11    1    3    3    0    0 -0.56941131702E+01  0.89802004284E+01  0.11099122163E+02  0.15370668092E+02  0.51100000000E-03 0.  1.
        -11    1    3    3    0    0 -0.10176608050E+02  0.29467522029E+01  0.48948413864E+00  0.10605955635E+02  0.51100000000E-03 0. -1.
         12    1    3    3    0    0 -0.17114599097E+02 -0.12719117519E+02  0.12170741704E+02  0.24552238316E+02  0.00000000000E+00 0. -1.
</event>
<event>
 7    1  0.2450552E-011  0.5052886E+02  0.7816164E-02  0.1300439E+00
        -11   -1    0    0    0    0  0.00000000000E+00  0.00000000000E+00  0.45593999997E+02  0.45594000000E+02  0.51100000000E-03 0.  1.
         11   -1    0    0    0    0 -0.00000000000E+00 -0.00000000000E+00 -0.45593999997E+02  0.45594000000E+02  0.51100000000E-03 0. -1.
    9900012    2    1    2    0    0  0.28888832703E+02  0.28450466315E+02  0.30285277797E+01  0.50528859958E+02  0.30000000327E+02 0.  0.
         12    1    1    2    0    0 -0.28888832703E+02 -0.28450466315E+02 -0.30285277797E+01  0.40659140042E+02  0.00000000000E+00 0. -1.
         11    1    3    3    0    0  0.55242898719E+00 -0.37665003266E+01  0.39645404941E+00  0.38273853439E+01  0.51100000000E-03 0. -1.
        -11    1    3    3    0    0  0.21364550836E+02  0.11289245449E+02  0.44425449982E+01  0.24568827843E+02  0.51100000000E-03 0.  1.
         12    1    3    3    0    0  0.69718528795E+01  0.20927721193E+02 -0.18104712680E+01  0.22132646771E+02  0.00000000000E+00 0. -1.
</event>
<event>
 7    1  0.2450552E-011  0.5052886E+02  0.7816164E-02  0.1300439E+00
        -11   -1    0    0    0    0  0.00000000000E+00  0.00000000000E+00  0.45593999997E+02  0.45594000000E+02  0.51100000000E-03 0.  1.
         11   -1    0    0    0    0 -0.00000000000E+00 -0.00000000000E+00 -0.45593999997E+02  0.45594000000E+02  0.51100000000E-03 0. -1.
    9900012    2    1    2    0    0 -0.30709067045E+02  0.45693142005E+01  0.26253388447E+02  0.50528857905E+02  0.29999994087E+02 0.  0.
         12    1    1    2    0    0  0.30709067045E+02 -0.45693142005E+01 -0.26253388447E+02  0.40659142095E+02  0.00000000000E+00 0. -1.
         11    1    3    3    0    0 -0.91835193351E+01  0.80113613562E+01 -0.16762675748E+01  0.12301577598E+02  0.51100000000E-03 0. -1.
        -11    1    3    3    0    0 -0.14506674440E+02  0.29683681434E+01  0.97993662745E+01  0.17756193072E+02  0.51100000000E-03 0.  1.
         12    1    3    3    0    0 -0.70188732693E+01 -0.64104152992E+01  0.18130289747E+02  0.20471087235E+02  0.00000000000E+00 0. -1.
</event>
<event>
 7    1  0.2450552E-011  0.5052886E+02  0.7816164E-02  0.1300439E+00
        -11   -1    0    0    0    0  0.00000000000E+00  0.00000000000E+00  0.45593999997E+02  0.45594000000E+02  0.51100000000E-03 0.  1.
         11   -1    0    0    0    0 -0.00000000000E+00 -0.00000000000E+00 -0.45593999997E+02  0.45594000000E+02  0.51100000000E-03 0. -1.
    9900012    2    1    2    0    0 -0.12198248213E+02  0.21267493879E+02  0.32435504376E+02  0.50528862042E+02  0.30000006663E+02 0.  0.
         12    1    1    2    0    0  0.12198248213E+02 -0.21267493879E+02 -0.32435504376E+02  0.40659137958E+02  0.00000000000E+00 0. -1.
         11    1    3    3    0    0 -0.49042664769E+01 -0.33518748606E+01  0.62112920691E+00  0.59726624306E+01  0.51100000000E-03 0. -1.
        -11    1    3    3    0    0 -0.78429731005E+01  0.79395673644E+01  0.35117933607E+01  0.11699643151E+02  0.51100000000E-03 0.  1.
        -12    1    3    3    0    0  0.54899136479E+00  0.16679801375E+02  0.28302581809E+02  0.32856556461E+02  0.00000000000E+00 0.  1.
</event>
<event>
 7    1  0.2450552E-011  0.5052890E+02  0.7816164E-02  0.1300439E+00
        -11   -1    0    0    0    0  0.00000000000E+00  0.00000000000E+00  0.45593999997E+02  0.45594000000E+02  0.51100000000E-03 0.  1.
         11   -1    0    0    0    0 -0.00000000000E+00 -0.00000000000E+00 -0.45593999997E+02  0.45594000000E+02  0.51100000000E-03 0. -1.
    9900012    2    1    2    0    0 -0.34452044347E+02  0.64593372428E+01  0.20603302965E+02  0.50528899046E+02  0.30000119139E+02 0.  0.
         12    1    1    2    0    0  0.34452044347E+02 -0.64593372428E+01 -0.20603302965E+02  0.40659100954E+02  0.00000000000E+00 0. -1.
         11    1    3    3    0    0 -0.25612719137E+01  0.51810966702E+01  0.28251381020E+01  0.64331393641E+01  0.51100000000E-03 0. -1.
        -11    1    3    3    0    0 -0.40189316892E+01 -0.87648596736E+01  0.90166330806E+01  0.13201297262E+02  0.51100000000E-03 0.  1.
         12    1    3    3    0    0 -0.27871840745E+02  0.10043100246E+02  0.87615317825E+01  0.30894462420E+02  0.00000000000E+00 0. -1.
</event>
<event>
 7    1  0.2450552E-011  0.5052887E+02  0.7816164E-02  0.1300439E+00
        -11   -1    0    0    0    0  0.00000000000E+00  0.00000000000E+00  0.45593999997E+02  0.45594000000E+02  0.51100000000E-03 0.  1.
         11   -1    0    0    0    0 -0.00000000000E+00 -0.00000000000E+00 -0.45593999997E+02  0.45594000000E+02  0.51100000000E-03 0. -1.
    9900012    2    1    2    0    0 -0.36704457247E+02 -0.17455742173E+02  0.11156937570E+01  0.50528869548E+02  0.30000029478E+02 0.  0.
         12    1    1    2    0    0  0.36704457247E+02  0.17455742173E+02 -0.11156937570E+01  0.40659130452E+02  0.00000000000E+00 0. -1.
         11    1    3    3    0    0 -0.78531134073E+01 -0.16399685493E+02  0.25383522289E+01  0.18359311173E+02  0.51100000000E-03 0. -1.
        -11    1    3    3    0    0 -0.13684389089E+02 -0.74664194113E+01 -0.18489166824E+01  0.15698038627E+02  0.51100000000E-03 0.  1.
         12    1    3    3    0    0 -0.15166954750E+02  0.64103627315E+01  0.42625821058E+00  0.16471519748E+02  0.00000000000E+00 0. -1.
</event>
<event>
 7    1  0.2450552E-011  0.5052885E+02  0.7816164E-02  0.1300439E+00
        -11   -1    0    0    0    0  0.00000000000E+00  0.00000000000E+00  0.45593999997E+02  0.45594000000E+02  0.51100000000E-03 0.  1.
         11   -1    0    0    0    0 -0.00000000000E+00 -0.00000000000E+00 -0.45593999997E+02  0.45594000000E+02  0.51100000000E-03 0. -1.
    9900012    2    1    2    0    0  0.24984247942E+02  0.21022696056E+02  0.24228077202E+02  0.50528854416E+02  0.29999983484E+02 0.  0.
         12    1    1    2    0    0 -0.24984247942E+02 -0.21022696056E+02 -0.24228077202E+02  0.40659145584E+02  0.00000000000E+00 0. -1.
         11    1    3    3    0    0  0.82624750856E+01  0.15250352791E+02 -0.21498341348E+01  0.17477515323E+02  0.51100000000E-03 0. -1.
        -11    1    3    3    0    0  0.68508176445E+01 -0.17154592415E+01  0.63300116581E+01  0.94839628142E+01  0.51100000000E-03 0.  1.
        -12    1    3    3    0    0  0.98709552115E+01  0.74878025066E+01  0.20047899679E+02  0.23567376279E+02  0.00000000000E+00 0.  1.
</event>
<event>
 7    1  0.2450552E-011  0.5052887E+02  0.7816164E-02  0.1300439E+00
        -11   -1    0    0    0    0  0.00000000000E+00  0.00000000000E+00  0.45593999997E+02  0.45594000000E+02  0.51100000000E-03 0.  1.
         11   -1    0    0    0    0 -0.00000000000E+00 -0.00000000000E+00 -0.45593999997E+02  0.45594000000E+02  0.51100000000E-03 0. -1.
    9900012    2    1    2    0    0 -0.75531014538E+01 -0.23761855085E+02  0.32116819001E+02  0.50528866200E+02  0.30000019300E+02 0.  0.
         12    1    1    2    0    0  0.75531014538E+01  0.23761855085E+02 -0.32116819001E+02  0.40659133800E+02  0.00000000000E+00 0. -1.
         11    1    3    3    0    0 -0.21522286482E+01 -0.80242897111E+01 -0.80875514407E+00  0.83471790843E+01  0.51100000000E-03 0. -1.
        -11    1    3    3    0    0 -0.56424442976E+00  0.27738117735E+01  0.17155192879E+02  0.17387151765E+02  0.51100000000E-03 0.  1.
         12    1    3    3    0    0 -0.48366283758E+01 -0.18511377148E+02  0.15770381266E+02  0.24794535350E+02  0.00000000000E+00 0. -1.
</event>
<event>
 7    1  0.2450552E-011  0.5052886E+02  0.7816164E-02  0.1300439E+00
        -11   -1    0    0    0    0  0.00000000000E+00  0.00000000000E+00  0.45593999997E+02  0.45594000000E+02  0.51100000000E-03 0.  1.
         11   -1    0    0    0    0 -0.00000000000E+00 -0.00000000000E+00 -0.45593999997E+02  0.45594000000E+02  0.51100000000E-03 0. -1.
    9900012    2    1    2    0    0 -0.11469066122E+01  0.40276100919E+02  0.54484766526E+01  0.50528860833E+02  0.30000002987E+02 0.  0.
         12    1    1    2    0    0  0.11469066122E+01 -0.40276100919E+02 -0.54484766526E+01  0.40659139167E+02  0.00000000000E+00 0. -1.
         11    1    3    3    0    0  0.52744984219E+01  0.38509625038E+01 -0.68768175390E+01  0.94837158084E+01  0.51100000000E-03 0. -1.
        -11    1    3    3    0    0  0.28061435256E+01  0.54130264149E+01  0.49643789480E+01  0.78625921333E+01  0.51100000000E-03 0.  1.
         12    1    3    3    0    0 -0.92275485597E+01  0.31012112000E+02  0.73609152436E+01  0.33182552891E+02  0.00000000000E+00 0. -1.
</event>
<event>
 7    1  0.2450552E-011  0.5052886E+02  0.7816164E-02  0.1300439E+00
        -11   -1    0    0    0    0  0.00000000000E+00  0.00000000000E+00  0.45593999997E+02  0.45594000000E+02  0.51100000000E-03 0. -1.
         11   -1    0    0    0    0 -0.00000000000E+00 -0.00000000000E+00 -0.45593999997E+02  0.45594000000E+02  0.51100000000E-03 0.  1.
    9900012    2    1    2    0    0 -0.84128589491E+01  0.19187468564E+00 -0.39778798958E+02  0.50528857631E+02  0.29999993256E+02 0.  0.
         12    1    1    2    0    0  0.84128589491E+01 -0.19187468564E+00  0.39778798958E+02  0.40659142369E+02  0.00000000000E+00 0. -1.
         11    1    3    3    0    0 -0.89622673236E+01  0.92668591073E+01 -0.12843652483E+02  0.18197701027E+02  0.51100000000E-03 0. -1.
        -11    1    3    3    0    0  0.39418422911E+01 -0.21707486506E+01 -0.23463981261E+02  0.23891602860E+02  0.51100000000E-03 0.  1.
         12    1    3    3    0    0 -0.33924339165E+01 -0.69042357711E+01 -0.34711652142E+01  0.84395537444E+01  0.00000000000E+00 0. -1.
</event>
<event>
 7    1  0.2450552E-011  0.5052885E+02  0.7816164E-02  0.1300439E+00
        -11   -1    0    0    0    0  0.00000000000E+00  0.00000000000E+00  0.45593999997E+02  0.45594000000E+02  0.51100000000E-03 0.  1.
         11   -1    0    0    0    0 -0.00000000000E+00 -0.00000000000E+00 -0.45593999997E+02  0.45594000000E+02  0.51100000000E-03 0. -1.
    9900012    2    1    2    0    0  0.16917139271E+02 -0.14706293271E+02  0.33921991303E+02  0.50528853958E+02  0.29999982091E+02 0.  0.
         12    1    1    2    0    0 -0.16917139271E+02  0.14706293271E+02 -0.33921991303E+02  0.40659146042E+02  0.00000000000E+00 0. -1.
         11    1    3    3    0    0  0.82058057873E+01 -0.47809060037E+01  0.19365470957E+01  0.96923952535E+01  0.51100000000E-03 0.  1.
        -11    1    3    3    0    0  0.87417288824E+01 -0.15812089764E+02  0.17298012573E+02  0.25013221420E+02  0.51100000000E-03 0. -1.
        -12    1    3    3    0    0 -0.30395398216E-01  0.58867024964E+01  0.14687431634E+02  0.15823237285E+02  0.00000000000E+00 0.  1.
</event>
<event>
 7    1  0.2450552E-011  0.5052885E+02  0.7816164E-02  0.1300439E+00
        -11   -1    0    0    0    0  0.00000000000E+00  0.00000000000E+00  0.45593999997E+02  0.45594000000E+02  0.51100000000E-03 0. -1.
         11   -1    0    0    0    0 -0.00000000000E+00 -0.00000000000E+00 -0.45593999997E+02  0.45594000000E+02  0.51100000000E-03 0.  1.
    9900012    2    1    2    0    0  0.16412792190E+02 -0.37176287182E+02 -0.13078971632E+01  0.50528847634E+02  0.29999962868E+02 0.  0.
         12    1    1    2    0    0 -0.16412792190E+02  0.37176287182E+02  0.13078971632E+01  0.40659152366E+02  0.00000000000E+00 0. -1.
         11    1    3    3    0    0 -0.17779685618E+01 -0.37860952918E+01 -0.36062666559E+01  0.55227573928E+01  0.51100000000E-03 0. -1.
        -11    1    3    3    0    0  0.14468116698E+02 -0.35065178617E+02 -0.33016532331E+01  0.38076161395E+02  0.51100000000E-03 0.  1.
         12    1    3    3    0    0  0.37226440539E+01  0.16749867263E+01  0.56000227257E+01  0.69299288462E+01  0.00000000000E+00 0. -1.
</event>
<event>
 7    1  0.3446728E-011  0.5052886E+02  0.7816164E-02  0.1300439E+00
        -11   -1    0    0    0    0  0.00000000000E+00  0.00000000000E+00  0.45593999997E+02  0.45594000000E+02  0.51100000000E-03 0. -1.
         11   -1    0    0    0    0 -0.00000000000E+00 -0.00000000000E+00 -0.45593999997E+02  0.45594000000E+02  0.51100000000E-03 0.  1.
    9900012    2    1    2    0    0  0.33501664909E+02  0.29056921157E+01 -0.22855214868E+02  0.50528862712E+02  0.30000008698E+02 0.  0.
         12    1    1    2    0    0 -0.33501664909E+02 -0.29056921157E+01  0.22855214868E+02  0.40659137288E+02  0.00000000000E+00 0. -1.
         11    1    3    3    0    0  0.49970883567E+01  0.26390764224E+01 -0.12785206666E+02  0.13978452209E+02  0.51100000000E-03 0. -1.
        -11    1    3    3    0    0  0.21397622621E+02  0.51159727506E+01 -0.15006244411E+02  0.26631162246E+02  0.51100000000E-03 0.  1.
         12    1    3    3    0    0  0.71069539319E+01 -0.48493570572E+01  0.49362362090E+01  0.99192482563E+01  0.00000000000E+00 0. -1.
</event>
<event>
 7    1  0.2450552E-011  0.5052886E+02  0.7816164E-02  0.1300439E+00
        -11   -1    0    0    0    0  0.00000000000E+00  0.00000000000E+00  0.45593999997E+02  0.45594000000E+02  0.51100000000E-03 0.  1.
         11   -1    0    0    0    0 -0.00000000000E+00 -0.00000000000E+00 -0.45593999997E+02  0.45594000000E+02  0.51100000000E-03 0. -1.
    9900012    2    1    2    0    0  0.11152484896E+02 -0.32114176008E+02  0.22303979864E+02  0.50528859112E+02  0.29999997756E+02 0.  0.
         12    1    1    2    0    0 -0.11152484896E+02  0.32114176008E+02 -0.22303979864E+02  0.40659140888E+02  0.00000000000E+00 0. -1.
         11    1    3    3    0    0  0.30998039749E+01 -0.12939385803E+02 -0.39346661445E+00  0.13311322469E+02  0.51100000000E-03 0. -1.
        -11    1    3    3    0    0  0.12807848255E+02 -0.41022879670E+01  0.80799243330E+01  0.15689325064E+02  0.51100000000E-03 0.  1.
        -12    1    3    3    0    0 -0.47551673340E+01 -0.15072502237E+02  0.14617522146E+02  0.21528211578E+02  0.00000000000E+00 0.  1.
</event>
<event>
 7    1  0.2450552E-011  0.5052885E+02  0.7816164E-02  0.1300439E+00
        -11   -1    0    0    0    0  0.00000000000E+00  0.00000000000E+00  0.45593999997E+02  0.45594000000E+02  0.51100000000E-03 0. -1.
         11   -1    0    0    0    0 -0.00000000000E+00 -0.00000000000E+00 -0.45593999997E+02  0.45594000000E+02  0.51100000000E-03 0.  1.
    9900012    2    1    2    0    0  0.21369334431E+02  0.61910248628E+01 -0.34032184644E+02  0.50528845624E+02  0.29999956759E+02 0.  0.
         12    1    1    2    0    0 -0.21369334431E+02 -0.61910248628E+01  0.34032184644E+02  0.40659154376E+02  0.00000000000E+00 0. -1.
         11    1    3    3    0    0 -0.24853403560E+01  0.73156774659E+00 -0.91290214192E+00  0.27469071035E+01  0.51100000000E-03 0. -1.
        -11    1    3    3    0    0  0.24165581142E+02 -0.89461219792E+00 -0.33605454229E+02  0.41401717321E+02  0.51100000000E-03 0.  1.
         12    1    3    3    0    0 -0.31090635468E+00  0.63540693142E+01  0.48617172672E+00  0.63802211998E+01  0.00000000000E+00 0. -1.
</event>
<event>
 7    1  0.2450552E-011  0.5052886E+02  0.7816164E-02  0.1300439E+00
        -11   -1    0    0    0    0  0.00000000000E+00  0.00000000000E+00  0.45593999997E+02  0.45594000000E+02  0.51100000000E-03 0. -1.
         11   -1    0    0    0    0 -0.00000000000E+00 -0.00000000000E+00 -0.45593999997E+02  0.45594000000E+02  0.51100000000E-03 0.  1.
    9900012    2    1    2    0    0 -0.38854100166E+02 -0.54662413461E+01  0.10660435621E+02  0.50528858571E+02  0.29999996111E+02 0.  0.
         12    1    1    2    0    0  0.38854100166E+02  0.54662413461E+01 -0.10660435621E+02  0.40659141429E+02  0.00000000000E+00 0. -1.
         11    1    3    3    0    0 -0.72750048886E+01  0.11150958219E+01 -0.83682790153E+01  0.11144381040E+02  0.51100000000E-03 0. -1.
        -11    1    3    3    0    0 -0.23135131420E+02  0.59453747618E+00  0.10562581242E+02  0.25439259097E+02  0.51100000000E-03 0.  1.
        -12    1    3    3    0    0 -0.84439638567E+01 -0.71758746442E+01  0.84661333942E+01  0.13945218434E+02  0.00000000000E+00 0.  1.
</event>
<event>
 7    1  0.2450552E-011  0.5052886E+02  0.7816164E-02  0.1300439E+00
        -11   -1    0    0    0    0  0.00000000000E+00  0.00000000000E+00  0.45593999997E+02  0.45594000000E+02  0.51100000000E-03 0.  1.
         11   -1    0    0    0    0 -0.00000000000E+00 -0.00000000000E+00 -0.45593999997E+02  0.45594000000E+02  0.51100000000E-03 0. -1.
    9900012    2    1    2    0    0 -0.20526753445E+02  0.26154973037E+02  0.23403755800E+02  0.50528855800E+02  0.29999987689E+02 0.  0.
         12    1    1    2    0    0  0.20526753445E+02 -0.26154973037E+02 -0.23403755800E+02  0.40659144200E+02  0.00000000000E+00 0. -1.
         11    1    3    3    0    0 -0.27872135825E+01  0.11399004058E+02  0.17985438171E+02  0.21475144692E+02  0.51100000000E-03 0.  1.
        -11    1    3    3    0    0  0.12635224813E+01 -0.35474209391E+00 -0.30662322409E+01  0.33352828111E+01  0.51100000000E-03 0. -1.
        -12    1    3    3    0    0 -0.19003062343E+02  0.15110711073E+02  0.84845498704E+01  0.25718428297E+02  0.00000000000E+00 0.  1.
</event>
<event>
 7    1  0.2450552E-011  0.5052887E+02  0.7816164E-02  0.1300439E+00
        -11   -1    0    0    0    0  0.00000000000E+00  0.00000000000E+00  0.45593999997E+02  0.45594000000E+02  0.51100000000E-03 0.  1.
         11   -1    0    0    0    0 -0.00000000000E+00 -0.00000000000E+00 -0.45593999997E+02  0.45594000000E+02  0.51100000000E-03 0. -1.
    9900012    2    1    2    0    0  0.13621101081E+02  0.25900522874E+02  0.28227532303E+02  0.50528867450E+02  0.30000023102E+02 0.  0.
         12    1    1    2    0    0 -0.13621101081E+02 -0.25900522874E+02 -0.28227532303E+02  0.40659132550E+02  0.00000000000E+00 0. -1.
         11    1    3    3    0    0 -0.31807175512E+01  0.11066261160E+02  0.84584286651E+01  0.14287201124E+02  0.51100000000E-03 0. -1.
        -11    1    3    3    0    0  0.19557377104E+02  0.96105719601E+01  0.20939217510E+02  0.30220935174E+02  0.51100000000E-03 0.  1.
         12    1    3    3    0    0 -0.27555584722E+01  0.52236897534E+01 -0.11701138723E+01  0.60207311523E+01  0.00000000000E+00 0. -1.
</event>
<event>
 7    1  0.2450552E-011  0.5052886E+02  0.7816164E-02  0.1300439E+00
        -11   -1    0    0    0    0  0.00000000000E+00  0.00000000000E+00  0.45593999997E+02  0.45594000000E+02  0.51100000000E-03 0.  1.
         11   -1    0    0    0    0 -0.00000000000E+00 -0.00000000000E+00 -0.45593999997E+02  0.45594000000E+02  0.51100000000E-03 0. -1.
    9900012    2    1    2    0    0  0.19436991315E+02  0.18216421854E+02  0.30716948475E+02  0.50528861050E+02  0.30000003647E+02 0.  0.
         12    1    1    2    0    0 -0.19436991315E+02 -0.18216421854E+02 -0.30716948475E+02  0.40659138950E+02  0.00000000000E+00 0. -1.
         11    1    3    3    0    0  0.14840913577E+02  0.10488633467E+02  0.21464016261E+02  0.28124155847E+02  0.51100000000E-03 0.  1.
        -11    1    3    3    0    0  0.64433148767E+00  0.11531812178E+02 -0.11349660248E+00  0.11550356571E+02  0.51100000000E-03 0. -1.
         12    1    3    3    0    0  0.39517462499E+01 -0.38040237913E+01  0.93664288174E+01  0.10854348632E+02  0.00000000000E+00 0. -1.
</event>
<event>
 7    1  0.2450552E-011  0.5052886E+02  0.7816164E-02  0.1300439E+00
        -11   -1    0    0    0    0  0.00000000000E+00  0.00000000000E+00  0.45593999997E+02  0.45594000000E+02  0.51100000000E-03 0.  1.
         11   -1    0    0    0    0 -0.00000000000E+00 -0.00000000000E+00 -0.45593999997E+02  0.45594000000E+02  0.51100000000E-03 0. -1.
    9900012    2    1    2    0    0  0.15576917084E+02  0.28146213860E+02  0.24865959486E+02  0.50528860294E+02  0.30000001349E+02 0.  0.
         12    1    1    2    0    0 -0.15576917084E+02 -0.28146213860E+02 -0.24865959486E+02  0.40659139706E+02  0.00000000000E+00 0. -1.
         11    1    3    3    0    0 -0.14152552351E+01  0.46608213571E+00  0.33878001693E+00  0.15280550051E+01  0.51100000000E-03 0. -1.
        -11    1    3    3    0    0  0.21819028859E+02  0.19145725184E+02  0.85606130119E+01  0.30264053076E+02  0.51100000000E-03 0.  1.
        -12    1    3    3    0    0 -0.48268565398E+01  0.85344065395E+01  0.15966566457E+02  0.18736752213E+02  0.00000000000E+00 0.  1.
</event>
<event>
 7    1  0.2450552E-011  0.5052886E+02  0.7816164E-02  0.1300439E+00
        -11   -1    0    0    0    0  0.00000000000E+00  0.00000000000E+00  0.45593999997E+02  0.45594000000E+02  0.51100000000E-03 0.  1.
         11   -1    0    0    0    0 -0.00000000000E+00 -0.00000000000E+00 -0.45593999997E+02  0.45594000000E+02  0.51100000000E-03 0. -1.
    9900012    2    1    2    0    0 -0.32675520759E+02 -0.19935795131E+01  0.24114348233E+02  0.50528858262E+02  0.29999995173E+02 0.  0.
         12    1    1    2    0    0  0.32675520759E+02  0.19935795131E+01 -0.24114348233E+02  0.40659141738E+02  0.00000000000E+00 0. -1.
         11    1    3    3    0    0 -0.25082910121E+02 -0.79000090854E+01  0.10528549313E+02  0.28326893133E+02  0.51100000000E-03 0. -1.
        -11    1    3    3    0    0  0.15000015741E+01 -0.13215116747E+01 -0.19575884050E+01  0.27979546911E+01  0.51100000000E-03 0.  1.
        -12    1    3    3    0    0 -0.90926122125E+01  0.72279412470E+01  0.15543387325E+02  0.19404010437E+02  0.00000000000E+00 0.  1.
</event>
<event>
 7    1  0.2450552E-011  0.5052888E+02  0.7816164E-02  0.1300439E+00
        -11   -1    0    0    0    0  0.00000000000E+00  0.00000000000E+00  0.45593999997E+02  0.45594000000E+02  0.51100000000E-03 0.  1.
         11   -1    0    0    0    0 -0.00000000000E+00 -0.00000000000E+00 -0.45593999997E+02  0.45594000000E+02  0.51100000000E-03 0. -1.
    9900012    2    1    2    0    0 -0.89327779678E+01  0.18467222685E+02  0.35104575082E+02  0.50528880143E+02  0.30000061682E+02 0.  0.
         12    1    1    2    0    0  0.89327779678E+01 -0.18467222685E+02 -0.35104575082E+02  0.40659119857E+02  0.00000000000E+00 0. -1.
         11    1    3    3    0    0 -0.83038126379E+01  0.11888802612E+01  0.25765607011E+01  0.87752724122E+01  0.51100000000E-03 0. -1.
        -11    1    3    3    0    0 -0.96816361798E+01  0.12049400581E+02  0.22257948421E+02  0.27098678965E+02  0.51100000000E-03 0.  1.
        -12    1    3    3    0    0  0.90526708499E+01  0.52289418427E+01  0.10270065960E+02  0.14654928766E+02  0.00000000000E+00 0.  1.
</event>
<event>
 7    1  0.2450552E-011  0.5052886E+02  0.7816164E-02  0.1300439E+00
        -11   -1    0    0    0    0  0.00000000000E+00  0.00000000000E+00  0.45593999997E+02  0.45594000000E+02  0.51100000000E-03 0.  1.
         11   -1    0    0    0    0 -0.00000000000E+00 -0.00000000000E+00 -0.45593999997E+02  0.45594000000E+02  0.51100000000E-03 0. -1.
    9900012    2    1    2    0    0  0.67488466175E+01 -0.68106949455E-01  0.40095062250E+02  0.50528860977E+02  0.30000003427E+02 0.  0.
         12    1    1    2    0    0 -0.67488466175E+01  0.68106949455E-01 -0.40095062250E+02  0.40659139023E+02  0.00000000000E+00 0. -1.
         11    1    3    3    0    0  0.10029330862E+02 -0.20363834195E+01  0.23593884392E+02  0.25717809314E+02  0.51100000000E-03 0. -1.
        -11    1    3    3    0    0 -0.23985835550E+01  0.12789486052E+01  0.20489300104E+02  0.20668825115E+02  0.51100000000E-03 0.  1.
         12    1    3    3    0    0 -0.88190068904E+00  0.68932786485E+00 -0.39881222459E+01  0.41422265484E+01  0.00000000000E+00 0. -1.
</event>
<event>
 7    1  0.2450552E-011  0.5052887E+02  0.7816164E-02  0.1300439E+00
        -11   -1    0    0    0    0  0.00000000000E+00  0.00000000000E+00  0.45593999997E+02  0.45594000000E+02  0.51100000000E-03 0. -1.
         11   -1    0    0    0    0 -0.00000000000E+00 -0.00000000000E+00 -0.45593999997E+02  0.45594000000E+02  0.51100000000E-03 0.  1.
    9900012    2    1    2    0    0 -0.11078592999E+02  0.33514566689E+02 -0.20179274298E+02  0.50528874156E+02  0.30000043485E+02 0.  0.
         12    1    1    2    0    0  0.11078592999E+02 -0.33514566689E+02  0.20179274298E+02  0.40659125844E+02  0.00000000000E+00 0. -1.
         11    1    3    3    0    0 -0.15782492630E+02  0.16753712170E+02 -0.13044381918E+02  0.26456187272E+02  0.51100000000E-03 0.  1.
        -11    1    3    3    0    0 -0.31138142788E+01  0.93014857630E+01  0.18957723087E+01  0.99903668436E+01  0.51100000000E-03 0. -1.
         12    1    3    3    0    0  0.78177139098E+01  0.74593687566E+01 -0.90306646886E+01  0.14082320041E+02  0.00000000000E+00 0. -1.
</event>
<event>
 7    1  0.2450552E-011  0.5052886E+02  0.7816164E-02  0.1300439E+00
        -11   -1    0    0    0    0  0.00000000000E+00  0.00000000000E+00  0.45593999997E+02  0.45594000000E+02  0.51100000000E-03 0.  1.
         11   -1    0    0    0    0 -0.00000000000E+00 -0.00000000000E+00 -0.45593999997E+02  0.45594000000E+02  0.51100000000E-03 0. -1.
    9900012    2    1    2    0    0  0.93989220641E+00  0.40236138445E+02  0.57736730209E+01  0.50528861612E+02  0.30000005356E+02 0.  0.
         12    1    1    2    0    0 -0.93989220641E+00 -0.40236138445E+02 -0.57736730209E+01  0.40659138388E+02  0.00000000000E+00 0. -1.
         11    1    3    3    0    0  0.10689926047E+00  0.85037094060E+01 -0.58580732438E+01  0.10326738280E+02  0.51100000000E-03 0. -1.
        -11    1    3    3    0    0  0.51524056667E+01  0.29128073747E+02  0.23938407077E+01  0.29676968140E+02  0.51100000000E-03 0.  1.
        -12    1    3    3    0    0 -0.43194127208E+01  0.26043552914E+01  0.92379055570E+01  0.10525155192E+02  0.00000000000E+00 0.  1.
</event>
<event>
 7    1  0.2450552E-011  0.5052885E+02  0.7816164E-02  0.1300439E+00
        -11   -1    0    0    0    0  0.00000000000E+00  0.00000000000E+00  0.45593999997E+02  0.45594000000E+02  0.51100000000E-03 0.  1.
         11   -1    0    0    0    0 -0.00000000000E+00 -0.00000000000E+00 -0.45593999997E+02  0.45594000000E+02  0.51100000000E-03 0. -1.
    9900012    2    1    2    0    0  0.27339870471E+02 -0.29369210075E+02  0.65686560784E+01  0.50528852684E+02  0.29999978217E+02 0.  0.
         12    1    1    2    0    0 -0.27339870471E+02  0.29369210075E+02 -0.65686560784E+01  0.40659147316E+02  0.00000000000E+00 0. -1.
         11    1    3    3    0    0 -0.72625097466E+00 -0.11168379709E+02  0.39398747997E+01  0.11865191086E+02  0.51100000000E-03 0. -1.
        -11    1    3    3    0    0  0.55805354062E+01  0.29693931515E+01  0.44438201320E+01  0.77270439843E+01  0.51100000000E-03 0.  1.
        -12    1    3    3    0    0  0.22485586040E+02 -0.21170223517E+02 -0.18150388533E+01  0.30936617613E+02  0.00000000000E+00 0.  1.
</event>
<event>
 7    1  0.2450552E-011  0.5052886E+02  0.7816164E-02  0.1300439E+00
        -11   -1    0    0    0    0  0.00000000000E+00  0.00000000000E+00  0.45593999997E+02  0.45594000000E+02  0.51100000000E-03 0. -1.
         11   -1    0    0    0    0 -0.00000000000E+00 -0.00000000000E+00 -0.45593999997E+02  0.45594000000E+02  0.51100000000E-03 0.  1.
    9900012    2    1    2    0    0  0.47800437688E+01 -0.37910403948E+02 -0.13896682352E+02  0.50528864172E+02  0.30000013136E+02 0.  0.
         12    1    1    2    0    0 -0.47800437688E+01  0.37910403948E+02  0.13896682352E+02  0.40659135828E+02  0.00000000000E+00 0. -1.
         11    1    3    3    0    0 -0.17487045593E+01 -0.14929458773E+02  0.60889292917E+01  0.16217945834E+02  0.51100000000E-03 0. -1.
        -11    1    3    3    0    0  0.67514794183E+01 -0.16293866526E+02 -0.56989207761E+01  0.18535108821E+02  0.51100000000E-03 0.  1.
        -12    1    3    3    0    0 -0.22273109013E+00 -0.66870786486E+01 -0.14286690867E+02  0.15775809518E+02  0.00000000000E+00 0.  1.
</event>
<event>
 7    1  0.2450552E-011  0.5052887E+02  0.7816164E-02  0.1300439E+00
        -11   -1    0    0    0    0  0.00000000000E+00  0.00000000000E+00  0.45593999997E+02  0.45594000000E+02  0.51100000000E-03 0.  1.
         11   -1    0    0    0    0 -0.00000000000E+00 -0.00000000000E+00 -0.45593999997E+02  0.45594000000E+02  0.51100000000E-03 0. -1.
    9900012    2    1    2    0    0  0.25474969112E+02  0.16025327730E+02  0.27338251540E+02  0.50528866003E+02  0.30000018704E+02 0.  0.
         12    1    1    2    0    0 -0.25474969112E+02 -0.16025327730E+02 -0.27338251540E+02  0.40659133997E+02  0.00000000000E+00 0. -1.
         11    1    3    3    0    0  0.82574884669E+01  0.79892091355E+01  0.11568780956E+02  0.16304915562E+02  0.51100000000E-03 0.  1.
        -11    1    3    3    0    0 -0.32777650760E+01 -0.44744621092E+01  0.63481979780E+01  0.84299568735E+01  0.51100000000E-03 0. -1.
         12    1    3    3    0    0  0.20495245721E+02  0.12510580703E+02  0.94212726056E+01  0.25793993568E+02  0.00000000000E+00 0. -1.
</event>
<event>
 7    1  0.2450552E-011  0.5052885E+02  0.7816164E-02  0.1300439E+00
        -11   -1    0    0    0    0  0.00000000000E+00  0.00000000000E+00  0.45593999997E+02  0.45594000000E+02  0.51100000000E-03 0. -1.
         11   -1    0    0    0    0 -0.00000000000E+00 -0.00000000000E+00 -0.45593999997E+02  0.45594000000E+02  0.51100000000E-03 0.  1.
    9900012    2    1    2    0    0  0.21556722362E+02 -0.34335436235E+02  0.30905750642E+01  0.50528854477E+02  0.29999983667E+02 0.  0.
         12    1    1    2    0    0 -0.21556722362E+02  0.34335436235E+02 -0.30905750642E+01  0.40659145523E+02  0.00000000000E+00 0. -1.
         11    1    3    3    0    0  0.12421675213E+02 -0.13983916428E+02  0.89761087546E+00  0.18725748031E+02  0.51100000000E-03 0. -1.
        -11    1    3    3    0    0  0.67148540941E+01  0.22204216945E+01 -0.41913592539E+01  0.82211331739E+01  0.51100000000E-03 0.  1.
         12    1    3    3    0    0  0.24201930544E+01 -0.22571941502E+02  0.63843234426E+01  0.23581973272E+02  0.00000000000E+00 0. -1.
</event>
<event>
 7    1  0.2450552E-011  0.5052886E+02  0.7816164E-02  0.1300439E+00
        -11   -1    0    0    0    0  0.00000000000E+00  0.00000000000E+00  0.45593999997E+02  0.45594000000E+02  0.51100000000E-03 0.  1.
         11   -1    0    0    0    0 -0.00000000000E+00 -0.00000000000E+00 -0.45593999997E+02  0.45594000000E+02  0.51100000000E-03 0. -1.
    9900012    2    1    2    0    0  0.17911268088E+02  0.19264748028E+02  0.31003580613E+02  0.50528855249E+02  0.29999986014E+02 0.  0.
         12    1    1    2    0    0 -0.17911268088E+02 -0.19264748028E+02 -0.31003580613E+02  0.40659144751E+02  0.00000000000E+00 0. -1.
         11    1    3    3    0    0 -0.49077161317E+01  0.78267196598E+01  0.13458002099E+02  0.16323634369E+02  0.51100000000E-03 0. -1.
        -11    1    3    3    0    0  0.84832697554E+01  0.44522220091E+01  0.15368333925E+02  0.18110047886E+02  0.51100000000E-03 0.  1.
         12    1    3    3    0    0  0.14335714464E+02  0.69858063589E+01  0.21772445893E+01  0.16095172993E+02  0.00000000000E+00 0. -1.
</event>
<event>
 7    1  0.2450552E-011  0.5052886E+02  0.7816164E-02  0.1300439E+00
        -11   -1    0    0    0    0  0.00000000000E+00  0.00000000000E+00  0.45593999997E+02  0.45594000000E+02  0.51100000000E-03 0. -1.
         11   -1    0    0    0    0 -0.00000000000E+00 -0.00000000000E+00 -0.45593999997E+02  0.45594000000E+02  0.51100000000E-03 0.  1.
    9900012    2    1    2    0    0  0.10615476483E+02 -0.23924658791E+02 -0.31114115861E+02  0.50528857793E+02  0.29999993747E+02 0.  0.
         12    1    1    2    0    0 -0.10615476483E+02  0.23924658791E+02  0.31114115861E+02  0.40659142207E+02  0.00000000000E+00 0. -1.
         11    1    3    3    0    0 -0.10985155241E+01  0.56104615125E+01 -0.17946717952E+01  0.59920665762E+01  0.51100000000E-03 0. -1.
        -11    1    3    3    0    0 -0.16085346923E+01 -0.80271091921E+01 -0.80961425156E+01  0.11513878136E+02  0.51100000000E-03 0.  1.
         12    1    3    3    0    0  0.13322526700E+02 -0.21508011111E+02 -0.21223301550E+02  0.33022913080E+02  0.00000000000E+00 0. -1.
</event>
<event>
 7    1  0.2450552E-011  0.5052886E+02  0.7816164E-02  0.1300439E+00
        -11   -1    0    0    0    0  0.00000000000E+00  0.00000000000E+00  0.45593999997E+02  0.45594000000E+02  0.51100000000E-03 0. -1.
         11   -1    0    0    0    0 -0.00000000000E+00 -0.00000000000E+00 -0.45593999997E+02  0.45594000000E+02  0.51100000000E-03 0.  1.
    9900012    2    1    2    0    0  0.24328072575E+02  0.66595884107E+01 -0.31889819981E+02  0.50528857714E+02  0.29999993508E+02 0.  0.
         12    1    1    2    0    0 -0.24328072575E+02 -0.66595884107E+01  0.31889819981E+02  0.40659142286E+02  0.00000000000E+00 0. -1.
         11    1    3    3    0    0  0.11402308921E+02  0.13247203814E+02 -0.49266643916E+01  0.18159655280E+02  0.51100000000E-03 0. -1.
        -11    1    3    3    0    0  0.30604917085E+01  0.25935245479E+01 -0.94876292415E+01  0.10300878019E+02  0.51100000000E-03 0.  1.
         12    1    3    3    0    0  0.98652719458E+01 -0.91811399508E+01 -0.17475526348E+02  0.22068324415E+02  0.00000000000E+00 0. -1.
</event>
<event>
 7    1  0.2450552E-011  0.5052883E+02  0.7816164E-02  0.1300439E+00
        -11   -1    0    0    0    0  0.00000000000E+00  0.00000000000E+00  0.45593999997E+02  0.45594000000E+02  0.51100000000E-03 0.  1.
         11   -1    0    0    0    0 -0.00000000000E+00 -0.00000000000E+00 -0.45593999997E+02  0.45594000000E+02  0.51100000000E-03 0. -1.
    9900012    2    1    2    0    0 -0.32119737852E+02 -0.82874402731E+01  0.23511894242E+02  0.50528826412E+02  0.29999898362E+02 0.  0.
         12    1    1    2    0    0  0.32119737852E+02  0.82874402731E+01 -0.23511894242E+02  0.40659173588E+02  0.00000000000E+00 0. -1.
         11    1    3    3    0    0 -0.64381367047E+01  0.34563417256E+00 -0.52322143540E+01  0.83033206921E+01  0.51100000000E-03 0. -1.
        -11    1    3    3    0    0 -0.11442392343E+02  0.16029942304E+01  0.47183041072E+01  0.12480397707E+02  0.51100000000E-03 0.  1.
        -12    1    3    3    0    0 -0.14239208805E+02 -0.10236068676E+02  0.24025804489E+02  0.29745108013E+02  0.00000000000E+00 0.  1.
</event>
<event>
 7    1  0.2450552E-011  0.5052886E+02  0.7816164E-02  0.1300439E+00
        -11   -1    0    0    0    0  0.00000000000E+00  0.00000000000E+00  0.45593999997E+02  0.45594000000E+02  0.51100000000E-03 0.  1.
         11   -1    0    0    0    0 -0.00000000000E+00 -0.00000000000E+00 -0.45593999997E+02  0.45594000000E+02  0.51100000000E-03 0. -1.
    9900012    2    1    2    0    0  0.27775677660E+02  0.13449596761E+02  0.26472354002E+02  0.50528862664E+02  0.30000008554E+02 0.  0.
         12    1    1    2    0    0 -0.27775677660E+02 -0.13449596761E+02 -0.26472354002E+02  0.40659137336E+02  0.00000000000E+00 0. -1.
         11    1    3    3    0    0  0.54870899510E+01  0.15023253990E+02  0.14712484194E+02  0.21731624605E+02  0.51100000000E-03 0. -1.
        -11    1    3    3    0    0  0.40055378050E+01 -0.39366144034E+00  0.95248659172E+01  0.10340327531E+02  0.51100000000E-03 0.  1.
         12    1    3    3    0    0  0.18283049904E+02 -0.11799957891E+01  0.22350038909E+01  0.18456910528E+02  0.00000000000E+00 0. -1.
</event>
<event>
 7    1  0.2450552E-011  0.5052897E+02  0.7816164E-02  0.1300438E+00
        -11   -1    0    0    0    0  0.00000000000E+00  0.00000000000E+00  0.45593999997E+02  0.45594000000E+02  0.51100000000E-03 0.  1.
         11   -1    0    0    0    0 -0.00000000000E+00 -0.00000000000E+00 -0.45593999997E+02  0.45594000000E+02  0.51100000000E-03 0. -1.
    9900012    2    1    2    0    0 -0.39366520341E+02  0.10024307180E+01  0.10120705975E+02  0.50528972951E+02  0.30000343780E+02 0.  0.
         12    1    1    2    0    0  0.39366520341E+02 -0.10024307180E+01 -0.10120705975E+02  0.40659027049E+02  0.00000000000E+00 0. -1.
         11    1    3    3    0    0 -0.22718691875E+02  0.42328640061E+01  0.14389602982E+02  0.27223459965E+02  0.51100000000E-03 0. -1.
        -11    1    3    3    0    0 -0.12238219581E+02  0.52024718931E+01 -0.14295328051E+01  0.13374726039E+02  0.51100000000E-03 0.  1.
         12    1    3    3    0    0 -0.44096088849E+01 -0.84329051812E+01 -0.28393642026E+01  0.99307869471E+01  0.00000000000E+00 0. -1.
</event>
<event>
 7    1  0.2450552E-011  0.5052885E+02  0.7816164E-02  0.1300439E+00
        -11   -1    0    0    0    0  0.00000000000E+00  0.00000000000E+00  0.45593999997E+02  0.45594000000E+02  0.51100000000E-03 0. -1.
         11   -1    0    0    0    0 -0.00000000000E+00 -0.00000000000E+00 -0.45593999997E+02  0.45594000000E+02  0.51100000000E-03 0.  1.
    9900012    2    1    2    0    0 -0.17064345093E+02  0.46675019557E+01 -0.36608589615E+02  0.50528852425E+02  0.29999977430E+02 0.  0.
         12    1    1    2    0    0  0.17064345093E+02 -0.46675019557E+01  0.36608589615E+02  0.40659147575E+02  0.00000000000E+00 0. -1.
         11    1    3    3    0    0 -0.12785662975E+02  0.97731895771E+01 -0.94142641035E+01  0.18644483932E+02  0.51100000000E-03 0. -1.
        -11    1    3    3    0    0 -0.70625592805E+01 -0.79619325155E+01 -0.11407032214E+02  0.15601041541E+02  0.51100000000E-03 0.  1.
         12    1    3    3    0    0  0.27838771627E+01  0.28562448942E+01 -0.15787293297E+02  0.16283326951E+02  0.00000000000E+00 0. -1.
</event>
<event>
 7    1  0.2450552E-011  0.5052886E+02  0.7816164E-02  0.1300439E+00
        -11   -1    0    0    0    0  0.00000000000E+00  0.00000000000E+00  0.45593999997E+02  0.45594000000E+02  0.51100000000E-03 0. -1.
         11   -1    0    0    0    0 -0.00000000000E+00 -0.00000000000E+00 -0.45593999997E+02  0.45594000000E+02  0.51100000000E-03 0.  1.
    9900012    2    1    2    0    0 -0.37935030055E+02 -0.11592680016E+02 -0.89280019183E+01  0.50528856459E+02  0.29999989694E+02 0.  0.
         12    1    1    2    0    0  0.37935030055E+02  0.11592680016E+02  0.89280019183E+01  0.40659143541E+02  0.00000000000E+00 0. -1.
         11    1    3    3    0    0 -0.14944167778E+02  0.96818214037E+00 -0.44605783926E+01  0.15625693171E+02  0.51100000000E-03 0.  1.
        -11    1    3    3    0    0 -0.19331536818E+01 -0.11808201872E+02 -0.67009083971E+01  0.13713966903E+02  0.51100000000E-03 0. -1.
         12    1    3    3    0    0 -0.21057708595E+02 -0.75266028455E+00  0.22334848714E+01  0.21189196385E+02  0.00000000000E+00 0. -1.
</event>
<event>
 7    1  0.2450552E-011  0.5052885E+02  0.7816164E-02  0.1300439E+00
        -11   -1    0    0    0    0  0.00000000000E+00  0.00000000000E+00  0.45593999997E+02  0.45594000000E+02  0.51100000000E-03 0. -1.
         11   -1    0    0    0    0 -0.00000000000E+00 -0.00000000000E+00 -0.45593999997E+02  0.45594000000E+02  0.51100000000E-03 0.  1.
    9900012    2    1    2    0    0 -0.20502436996E+02 -0.31926108326E+02 -0.14613021302E+02  0.50528847191E+02  0.29999961521E+02 0.  0.
         12    1    1    2    0    0  0.20502436996E+02  0.31926108326E+02  0.14613021302E+02  0.40659152809E+02  0.00000000000E+00 0. -1.
         11    1    3    3    0    0 -0.11799323396E+02 -0.14096462150E+01 -0.26958097010E+01  0.12185176456E+02  0.51100000000E-03 0. -1.
        -11    1    3    3    0    0 -0.24035036753E+01 -0.33819328429E+01 -0.95196206359E+01  0.10384482509E+02  0.51100000000E-03 0.  1.
         12    1    3    3    0    0 -0.62996099240E+01 -0.27134529268E+02 -0.23975909647E+01  0.27959188225E+02  0.00000000000E+00 0. -1.
</event>
<event>
 7    1  0.2450552E-011  0.5052887E+02  0.7816164E-02  0.1300439E+00
        -11   -1    0    0    0    0  0.00000000000E+00  0.00000000000E+00  0.45593999997E+02  0.45594000000E+02  0.51100000000E-03 0.  1.
         11   -1    0    0    0    0 -0.00000000000E+00 -0.00000000000E+00 -0.45593999997E+02  0.45594000000E+02  0.51100000000E-03 0. -1.
    9900012    2    1    2    0    0  0.40681337236E+00 -0.15451161862E+02  0.37606661313E+02  0.50528869720E+02  0.30000030002E+02 0.  0.
         12    1    1    2    0    0 -0.40681337236E+00  0.15451161862E+02 -0.37606661313E+02  0.40659130280E+02  0.00000000000E+00 0. -1.
         11    1    3    3    0    0 -0.52841054328E+01 -0.13729163836E+01  0.46694374819E+01  0.71840320350E+01  0.51100000000E-03 0.  1.
        -11    1    3    3    0    0 -0.72378413203E+01  0.73165603981E+00  0.38322368030E+01  0.82223905717E+01  0.51100000000E-03 0. -1.
         12    1    3    3    0    0  0.12928760126E+02 -0.14809901518E+02  0.29104987028E+02  0.35122447114E+02  0.00000000000E+00 0. -1.
</event>
<event>
 7    1  0.2450552E-011  0.5052886E+02  0.7816164E-02  0.1300439E+00
        -11   -1    0    0    0    0  0.00000000000E+00  0.00000000000E+00  0.45593999997E+02  0.45594000000E+02  0.51100000000E-03 0.  1.
         11   -1    0    0    0    0 -0.00000000000E+00 -0.00000000000E+00 -0.45593999997E+02  0.45594000000E+02  0.51100000000E-03 0. -1.
    9900012    2    1    2    0    0  0.22314029978E+02  0.26391211549E+02  0.21418532256E+02  0.50528861975E+02  0.30000006460E+02 0.  0.
         12    1    1    2    0    0 -0.22314029978E+02 -0.26391211549E+02 -0.21418532256E+02  0.40659138025E+02  0.00000000000E+00 0. -1.
         11    1    3    3    0    0  0.55761575075E+01  0.20245226934E+02  0.49330398598E+01  0.21570758649E+02  0.51100000000E-03 0. -1.
        -11    1    3    3    0    0  0.17779159487E+01 -0.36714687370E+01 -0.71092350897E+00  0.41407825714E+01  0.51100000000E-03 0.  1.
        -12    1    3    3    0    0  0.14959956522E+02  0.98174533519E+01  0.17196415906E+02  0.24817320755E+02  0.00000000000E+00 0.  1.
</event>
<event>
 7    1  0.2450552E-011  0.5052887E+02  0.7816164E-02  0.1300439E+00
        -11   -1    0    0    0    0  0.00000000000E+00  0.00000000000E+00  0.45593999997E+02  0.45594000000E+02  0.51100000000E-03 0.  1.
         11   -1    0    0    0    0 -0.00000000000E+00 -0.00000000000E+00 -0.45593999997E+02  0.45594000000E+02  0.51100000000E-03 0. -1.
    9900012    2    1    2    0    0 -0.24641591562E+02 -0.29115080076E+02  0.14080799378E+02  0.50528870230E+02  0.30000031550E+02 0.  0.
         12    1    1    2    0    0  0.24641591562E+02  0.29115080076E+02 -0.14080799378E+02  0.40659129770E+02  0.00000000000E+00 0. -1.
         11    1    3    3    0    0 -0.23327795234E+01  0.16353512898E+01  0.14047068115E+01  0.31763871983E+01  0.51100000000E-03 0.  1.
        -11    1    3    3    0    0 -0.51063821929E+00  0.57685891434E+00 -0.51658548787E+01  0.52229852084E+01  0.51100000000E-03 0. -1.
        -12    1    3    3    0    0 -0.21798173819E+02 -0.31327290280E+02  0.17841947446E+02  0.42129497823E+02  0.00000000000E+00 0.  1.
</event>
<event>
 7    1  0.2450552E-011  0.5052886E+02  0.7816164E-02  0.1300439E+00
        -11   -1    0    0    0    0  0.00000000000E+00  0.00000000000E+00  0.45593999997E+02  0.45594000000E+02  0.51100000000E-03 0. -1.
         11   -1    0    0    0    0 -0.00000000000E+00 -0.00000000000E+00 -0.45593999997E+02  0.45594000000E+02  0.51100000000E-03 0.  1.
    9900012    2    1    2    0    0 -0.42915401211E+01  0.39200683902E+02 -0.99022517046E+01  0.50528861743E+02  0.30000005753E+02 0.  0.
         12    1    1    2    0    0  0.42915401211E+01 -0.39200683902E+02  0.99022517046E+01  0.40659138257E+02  0.00000000000E+00 0. -1.
         11    1    3    3    0    0  0.90182087008E+01  0.13296682518E+02  0.11880853208E+01  0.16110288674E+02  0.51100000000E-03 0. -1.
        -11    1    3    3    0    0 -0.15003545792E+01  0.18650213313E+02 -0.58874448239E+01  0.19614880252E+02  0.51100000000E-03 0.  1.
        -12    1    3    3    0    0 -0.11809394243E+02  0.72537880717E+01 -0.52028922015E+01  0.14803692817E+02  0.00000000000E+00 0.  1.
</event>
<event>
 7    1  0.2450552E-011  0.5052886E+02  0.7816164E-02  0.1300439E+00
        -11   -1    0    0    0    0  0.00000000000E+00  0.00000000000E+00  0.45593999997E+02  0.45594000000E+02  0.51100000000E-03 0.  1.
         11   -1    0    0    0    0 -0.00000000000E+00 -0.00000000000E+00 -0.45593999997E+02  0.45594000000E+02  0.51100000000E-03 0. -1.
    9900012    2    1    2    0    0 -0.10707939917E+01  0.11064109386E+02  0.39110159253E+02  0.50528859908E+02  0.30000000175E+02 0.  0.
         12    1    1    2    0    0  0.10707939917E+01 -0.11064109386E+02 -0.39110159253E+02  0.40659140092E+02  0.00000000000E+00 0. -1.
         11    1    3    3    0    0 -0.22435353301E+00  0.27565664079E+01 -0.18359108740E+01  0.33195725429E+01  0.51100000000E-03 0. -1.
        -11    1    3    3    0    0  0.90964343575E+01  0.17172541100E+01  0.82306203368E+01  0.12386976673E+02  0.51100000000E-03 0.  1.
         12    1    3    3    0    0 -0.99428748162E+01  0.65902888685E+01  0.32715449790E+02  0.34822310692E+02  0.00000000000E+00 0. -1.
</event>
<event>
 7    1  0.2450552E-011  0.5052885E+02  0.7816164E-02  0.1300439E+00
        -11   -1    0    0    0    0  0.00000000000E+00  0.00000000000E+00  0.45593999997E+02  0.45594000000E+02  0.51100000000E-03 0. -1.
         11   -1    0    0    0    0 -0.00000000000E+00 -0.00000000000E+00 -0.45593999997E+02  0.45594000000E+02  0.51100000000E-03 0.  1.
    9900012    2    1    2    0    0 -0.18636622870E+02 -0.32193841157E+02 -0.16413386350E+02  0.50528851314E+02  0.29999974054E+02 0.  0.
         12    1    1    2    0    0  0.18636622870E+02  0.32193841157E+02  0.16413386350E+02  0.40659148686E+02  0.00000000000E+00 0. -1.
         11    1    3    3    0    0 -0.14310033589E+02 -0.41916050810E+01 -0.37422197877E+01  0.15373705594E+02  0.51100000000E-03 0. -1.
        -11    1    3    3    0    0 -0.87968058684E+01 -0.23483477510E+02 -0.56912483771E+01  0.25714739310E+02  0.51100000000E-03 0.  1.
        -12    1    3    3    0    0  0.44702165880E+01 -0.45187585660E+01 -0.69799181848E+01  0.94404064101E+01  0.00000000000E+00 0.  1.
</event>
<event>
 7    1  0.2450552E-011  0.5052888E+02  0.7816164E-02  0.1300439E+00
        -11   -1    0    0    0    0  0.00000000000E+00  0.00000000000E+00  0.45593999997E+02  0.45594000000E+02  0.51100000000E-03 0.  1.
         11   -1    0    0    0    0 -0.00000000000E+00 -0.00000000000E+00 -0.45593999997E+02  0.45594000000E+02  0.51100000000E-03 0. -1.
    9900012    2    1    2    0    0  0.27867337589E+02  0.17150480855E+02  0.24133728413E+02  0.50528876240E+02  0.30000049818E+02 0.  0.
         12    1    1    2    0    0 -0.27867337589E+02 -0.17150480855E+02 -0.24133728413E+02  0.40659123760E+02  0.00000000000E+00 0. -1.
         11    1    3    3    0    0 -0.18825738198E+01  0.60744990920E+01 -0.28915797254E+01  0.69860473070E+01  0.51100000000E-03 0. -1.
        -11    1    3    3    0    0  0.19938072799E+02  0.11256193663E+02  0.12711445560E+02  0.26187964625E+02  0.51100000000E-03 0.  1.
        -12    1    3    3    0    0  0.98118386096E+01 -0.18021189961E+00  0.14313862578E+02  0.17354864308E+02  0.00000000000E+00 0.  1.
</event>
<event>
 7    1  0.2450552E-011  0.5052886E+02  0.7816164E-02  0.1300439E+00
        -11   -1    0    0    0    0  0.00000000000E+00  0.00000000000E+00  0.45593999997E+02  0.45594000000E+02  0.51100000000E-03 0.  1.
         11   -1    0    0    0    0 -0.00000000000E+00 -0.00000000000E+00 -0.45593999997E+02  0.45594000000E+02  0.51100000000E-03 0. -1.
    9900012    2    1    2    0    0  0.91207324235E+00  0.25966283062E+02  0.31274364931E+02  0.50528860370E+02  0.30000001579E+02 0.  0.
         12    1    1    2    0    0 -0.91207324235E+00 -0.25966283062E+02 -0.31274364931E+02  0.40659139630E+02  0.00000000000E+00 0. -1.
         11    1    3    3    0    0 -0.23375585825E+01 -0.23482522820E+00  0.38003219848E+01  0.44678597184E+01  0.51100000000E-03 0. -1.
        -11    1    3    3    0    0 -0.11128576789E+02  0.77176812641E+01  0.95516147464E+01  0.16572301288E+02  0.51100000000E-03 0.  1.
         12    1    3    3    0    0  0.14378208614E+02  0.18483427026E+02  0.17922428200E+02  0.29488699363E+02  0.00000000000E+00 0. -1.
</event>
<event>
 7    1  0.2450552E-011  0.5052885E+02  0.7816164E-02  0.1300439E+00
        -11   -1    0    0    0    0  0.00000000000E+00  0.00000000000E+00  0.45593999997E+02  0.45594000000E+02  0.51100000000E-03 0.  1.
         11   -1    0    0    0    0 -0.00000000000E+00 -0.00000000000E+00 -0.45593999997E+02  0.45594000000E+02  0.51100000000E-03 0. -1.
    9900012    2    1    2    0    0  0.12833664643E+02  0.10537094763E+02  0.37113790364E+02  0.50528846671E+02  0.29999959941E+02 0.  0.
         12    1    1    2    0    0 -0.12833664643E+02 -0.10537094763E+02 -0.37113790364E+02  0.40659153329E+02  0.00000000000E+00 0. -1.
         11    1    3    3    0    0  0.27637511855E+01  0.88027251838E-01 -0.22372231690E+01  0.35568577679E+01  0.51100000000E-03 0. -1.
        -11    1    3    3    0    0 -0.13482771692E+01  0.13232304314E+02  0.15813095804E+02  0.20663149033E+02  0.51100000000E-03 0.  1.
        -12    1    3    3    0    0  0.11418190627E+02 -0.27832368027E+01  0.23537917730E+02  0.26308839871E+02  0.00000000000E+00 0.  1.
</event>
<event>
 7    1  0.2450552E-011  0.5052886E+02  0.7816164E-02  0.1300439E+00
        -11   -1    0    0    0    0  0.00000000000E+00  0.00000000000E+00  0.45593999997E+02  0.45594000000E+02  0.51100000000E-03 0.  1.
         11   -1    0    0    0    0 -0.00000000000E+00 -0.00000000000E+00 -0.45593999997E+02  0.45594000000E+02  0.51100000000E-03 0. -1.
    9900012    2    1    2    0    0  0.36590651884E+02  0.79694874612E+01  0.15835934307E+02  0.50528863867E+02  0.30000012210E+02 0.  0.
         12    1    1    2    0    0 -0.36590651884E+02 -0.79694874612E+01 -0.15835934307E+02  0.40659136133E+02  0.00000000000E+00 0. -1.
         11    1    3    3    0    0  0.17497408321E+02  0.44877895114E+01  0.17415955787E+02  0.25092131613E+02  0.51100000000E-03 0.  1.
        -11    1    3    3    0    0  0.14365629252E+02 -0.40241036369E+01  0.33473152299E+01  0.15289513838E+02  0.51100000000E-03 0. -1.
         12    1    3    3    0    0  0.47276143113E+01  0.75058015866E+01 -0.49273367099E+01  0.10147218416E+02  0.00000000000E+00 0. -1.
</event>
<event>
 7    1  0.2450552E-011  0.5052885E+02  0.7816164E-02  0.1300439E+00
        -11   -1    0    0    0    0  0.00000000000E+00  0.00000000000E+00  0.45593999997E+02  0.45594000000E+02  0.51100000000E-03 0. -1.
         11   -1    0    0    0    0 -0.00000000000E+00 -0.00000000000E+00 -0.45593999997E+02  0.45594000000E+02  0.51100000000E-03 0.  1.
    9900012    2    1    2    0    0  0.40173435347E+02  0.45759034165E+01  0.42804541751E+01  0.50528854810E+02  0.29999984679E+02 0.  0.
         12    1    1    2    0    0 -0.40173435347E+02 -0.45759034165E+01 -0.42804541751E+01  0.40659145190E+02  0.00000000000E+00 0. -1.
         11    1    3    3    0    0  0.91564339400E+01 -0.11152969900E+01  0.78598070384E+01  0.12118611175E+02  0.51100000000E-03 0. -1.
        -11    1    3    3    0    0  0.32947493268E+02  0.81836598017E+00 -0.37208310448E+01  0.33167026087E+02  0.51100000000E-03 0.  1.
        -12    1    3    3    0    0 -0.19304918611E+01  0.48728344263E+01  0.14147818154E+00  0.52432175472E+01  0.00000000000E+00 0.  1.
</event>
<event>
 7    1  0.2450552E-011  0.5052885E+02  0.7816164E-02  0.1300439E+00
        -11   -1    0    0    0    0  0.00000000000E+00  0.00000000000E+00  0.45593999997E+02  0.45594000000E+02  0.51100000000E-03 0.  1.
         11   -1    0    0    0    0 -0.00000000000E+00 -0.00000000000E+00 -0.45593999997E+02  0.45594000000E+02  0.51100000000E-03 0. -1.
    9900012    2    1    2    0    0 -0.33643817658E+02 -0.12241015182E+02  0.19272187756E+02  0.50528854163E+02  0.29999982713E+02 0.  0.
         12    1    1    2    0    0  0.33643817658E+02  0.12241015182E+02 -0.19272187756E+02  0.40659145837E+02  0.00000000000E+00 0. -1.
         11    1    3    3    0    0 -0.13639763317E+02 -0.79951795038E+01 -0.40990548168E+01  0.16333042867E+02  0.51100000000E-03 0. -1.
        -11    1    3    3    0    0 -0.20605637727E+02 -0.76627298336E+00  0.16272711498E+02  0.26267482182E+02  0.51100000000E-03 0.  1.
        -12    1    3    3    0    0  0.60158338528E+00 -0.34795626946E+01  0.70985310750E+01  0.79283291139E+01  0.00000000000E+00 0.  1.
</event>
<event>
 7    1  0.2450552E-011  0.5052886E+02  0.7816164E-02  0.1300439E+00
        -11   -1    0    0    0    0  0.00000000000E+00  0.00000000000E+00  0.45593999997E+02  0.45594000000E+02  0.51100000000E-03 0.  1.
         11   -1    0    0    0    0 -0.00000000000E+00 -0.00000000000E+00 -0.45593999997E+02  0.45594000000E+02  0.51100000000E-03 0. -1.
    9900012    2    1    2    0    0 -0.18845714649E+02 -0.30245526947E+02 -0.19575825668E+02  0.50528858205E+02  0.29999995000E+02 0.  0.
         12    1    1    2    0    0  0.18845714649E+02  0.30245526947E+02  0.19575825668E+02  0.40659141795E+02  0.00000000000E+00 0. -1.
         11    1    3    3    0    0 -0.14699248585E+01 -0.67412088439E+00  0.26855953556E+01  0.31348908644E+01  0.51100000000E-03 0. -1.
        -11    1    3    3    0    0  0.33269093959E+01 -0.13537214900E+01 -0.94761782016E+01  0.10134043693E+02  0.51100000000E-03 0.  1.
        -12    1    3    3    0    0 -0.20702699187E+02 -0.28217684572E+02 -0.12785242822E+02  0.37259923648E+02  0.00000000000E+00 0.  1.
</event>
<event>
 7    1  0.2450552E-011  0.5052886E+02  0.7816164E-02  0.1300439E+00
        -11   -1    0    0    0    0  0.00000000000E+00  0.00000000000E+00  0.45593999997E+02  0.45594000000E+02  0.51100000000E-03 0.  1.
         11   -1    0    0    0    0 -0.00000000000E+00 -0.00000000000E+00 -0.45593999997E+02  0.45594000000E+02  0.51100000000E-03 0. -1.
    9900012    2    1    2    0    0  0.12810228248E+02  0.27316925664E+01  0.38491582040E+02  0.50528856133E+02  0.29999988701E+02 0.  0.
         12    1    1    2    0    0 -0.12810228248E+02 -0.27316925664E+01 -0.38491582040E+02  0.40659143867E+02  0.00000000000E+00 0. -1.
         11    1    3    3    0    0  0.27222515833E+01 -0.66456168894E+01  0.14988663758E+02  0.16620316454E+02  0.51100000000E-03 0. -1.
        -11    1    3    3    0    0 -0.28701170898E+01 -0.21069883260E+01  0.13393258872E+02  0.13858439861E+02  0.51100000000E-03 0.  1.
        -12    1    3    3    0    0  0.12958093754E+02  0.11484297782E+02  0.10109659411E+02  0.20050099817E+02  0.00000000000E+00 0.  1.
</event>
<event>
 7    1  0.2450552E-011  0.5052886E+02  0.7816164E-02  0.1300439E+00
        -11   -1    0    0    0    0  0.00000000000E+00  0.00000000000E+00  0.45593999997E+02  0.45594000000E+02  0.51100000000E-03 0. -1.
         11   -1    0    0    0    0 -0.00000000000E+00 -0.00000000000E+00 -0.45593999997E+02  0.45594000000E+02  0.51100000000E-03 0.  1.
    9900012    2    1    2    0    0  0.64564032172E+01 -0.40111821834E+02 -0.15881374407E+01  0.50528861127E+02  0.30000003882E+02 0.  0.
         12    1    1    2    0    0 -0.64564032172E+01  0.40111821834E+02  0.15881374407E+01  0.40659138873E+02  0.00000000000E+00 0. -1.
         11    1    3    3    0    0 -0.15954781610E+01  0.69224235899E+00 -0.36741229001E+01  0.40649636396E+01  0.51100000000E-03 0.  1.
        -11    1    3    3    0    0 -0.67765563384E+01 -0.14778938725E+02  0.28227259200E+01  0.16501712867E+02  0.51100000000E-03 0. -1.
        -12    1    3    3    0    0  0.14828437717E+02 -0.26025125468E+02 -0.73674046067E+00  0.29962184621E+02  0.00000000000E+00 0.  1.
</event>
<event>
 7    1  0.2450552E-011  0.5052887E+02  0.7816164E-02  0.1300439E+00
        -11   -1    0    0    0    0  0.00000000000E+00  0.00000000000E+00  0.45593999997E+02  0.45594000000E+02  0.51100000000E-03 0. -1.
         11   -1    0    0    0    0 -0.00000000000E+00 -0.00000000000E+00 -0.45593999997E+02  0.45594000000E+02  0.51100000000E-03 0.  1.
    9900012    2    1    2    0    0  0.13970082725E+02  0.35433912942E+02 -0.14228117321E+02  0.50528871625E+02  0.30000035792E+02 0.  0.
         12    1    1    2    0    0 -0.13970082725E+02 -0.35433912942E+02  0.14228117321E+02  0.40659128375E+02  0.00000000000E+00 0. -1.
         11    1    3    3    0    0 -0.68026329467E+01  0.97026966830E+01  0.31406160290E+01  0.12258939890E+02  0.51100000000E-03 0. -1.
        -11    1    3    3    0    0  0.39248040733E+01  0.11010385021E+02 -0.68405203837E+01  0.13543462804E+02  0.51100000000E-03 0.  1.
        -12    1    3    3    0    0  0.16847911598E+02  0.14720831237E+02 -0.10528212966E+02  0.24726468931E+02  0.00000000000E+00 0.  1.
</event>
<event>
 7    1  0.2450552E-011  0.5052885E+02  0.7816164E-02  0.1300439E+00
        -11   -1    0    0    0    0  0.00000000000E+00  0.00000000000E+00  0.45593999997E+02  0.45594000000E+02  0.51100000000E-03 0.  1.
         11   -1    0    0    0    0 -0.00000000000E+00 -0.00000000000E+00 -0.45593999997E+02  0.45594000000E+02  0.51100000000E-03 0. -1.
    9900012    2    1    2    0    0  0.19588744271E+02 -0.15524239402E+02  0.32069381626E+02  0.50528854054E+02  0.29999982384E+02 0.  0.
         12    1    1    2    0    0 -0.19588744271E+02  0.15524239402E+02 -0.32069381626E+02  0.40659145946E+02  0.00000000000E+00 0. -1.
         11    1    3    3    0    0 -0.20785100919E+01 -0.38499627224E+01 -0.49102763143E+00  0.44026725476E+01  0.51100000000E-03 0. -1.
        -11    1    3    3    0    0  0.52994628874E+01  0.21808780178E+01  0.20992207773E+02  0.21760361285E+02  0.51100000000E-03 0.  1.
         12    1    3    3    0    0  0.16367791476E+02 -0.13855154697E+02  0.11568201485E+02  0.24365820222E+02  0.00000000000E+00 0. -1.
</event>
<event>
 7    1  0.2450552E-011  0.5052886E+02  0.7816164E-02  0.1300439E+00
        -11   -1    0    0    0    0  0.00000000000E+00  0.00000000000E+00  0.45593999997E+02  0.45594000000E+02  0.51100000000E-03 0.  1.
         11   -1    0    0    0    0 -0.00000000000E+00 -0.00000000000E+00 -0.45593999997E+02  0.45594000000E+02  0.51100000000E-03 0. -1.
    9900012    2    1    2    0    0  0.15883573335E+01 -0.72145257826E+01  0.39982416585E+02  0.50528857150E+02  0.29999991794E+02 0.  0.
         12    1    1    2    0    0 -0.15883573335E+01  0.72145257826E+01 -0.39982416585E+02  0.40659142850E+02  0.00000000000E+00 0. -1.
         11    1    3    3    0    0  0.10084576406E+02  0.10934398827E+01  0.11744263185E+02  0.15518440968E+02  0.51100000000E-03 0. -1.
        -11    1    3    3    0    0 -0.73295839842E+01  0.38138805343E+01  0.87860755113E+01  0.12060829543E+02  0.51100000000E-03 0.  1.
         12    1    3    3    0    0 -0.11666350880E+01 -0.12121846200E+02  0.19452077889E+02  0.22949586639E+02  0.00000000000E+00 0. -1.
</event>
<event>
 7    1  0.2450552E-011  0.5052886E+02  0.7816164E-02  0.1300439E+00
        -11   -1    0    0    0    0  0.00000000000E+00  0.00000000000E+00  0.45593999997E+02  0.45594000000E+02  0.51100000000E-03 0.  1.
         11   -1    0    0    0    0 -0.00000000000E+00 -0.00000000000E+00 -0.45593999997E+02  0.45594000000E+02  0.51100000000E-03 0. -1.
    9900012    2    1    2    0    0 -0.84948275310E+00  0.26036458244E+02  0.31217730494E+02  0.50528862330E+02  0.30000007539E+02 0.  0.
         12    1    1    2    0    0  0.84948275310E+00 -0.26036458244E+02 -0.31217730494E+02  0.40659137670E+02  0.00000000000E+00 0. -1.
         11    1    3    3    0    0  0.55077659607E+01  0.10041932079E+02  0.23808257824E+01  0.11698043316E+02  0.51100000000E-03 0. -1.
        -11    1    3    3    0    0  0.68310776468E+01  0.47575899278E+01  0.12491749382E+02  0.15011398556E+02  0.51100000000E-03 0.  1.
         12    1    3    3    0    0 -0.13188326361E+02  0.11236936238E+02  0.16345155330E+02  0.23819420458E+02  0.00000000000E+00 0. -1.
</event>
<event>
 7    1  0.2450552E-011  0.5052886E+02  0.7816164E-02  0.1300439E+00
        -11   -1    0    0    0    0  0.00000000000E+00  0.00000000000E+00  0.45593999997E+02  0.45594000000E+02  0.51100000000E-03 0. -1.
         11   -1    0    0    0    0 -0.00000000000E+00 -0.00000000000E+00 -0.45593999997E+02  0.45594000000E+02  0.51100000000E-03 0.  1.
    9900012    2    1    2    0    0  0.33105380935E+02  0.69887829517E+01 -0.22546758058E+02  0.50528860401E+02  0.30000001674E+02 0.  0.
         12    1    1    2    0    0 -0.33105380935E+02 -0.69887829517E+01  0.22546758058E+02  0.40659139599E+02  0.00000000000E+00 0. -1.
         11    1    3    3    0    0  0.52469044345E+01  0.28167227932E+00  0.19822622245E+01  0.56159335115E+01  0.51100000000E-03 0. -1.
        -11    1    3    3    0    0  0.12435437578E+02 -0.86316740615E+01 -0.14494499760E+02  0.20957968136E+02  0.51100000000E-03 0.  1.
         12    1    3    3    0    0  0.15423038923E+02  0.15338784734E+02 -0.10034520523E+02  0.23954958753E+02  0.00000000000E+00 0. -1.
</event>
<event>
 7    1  0.2450552E-011  0.5052886E+02  0.7816164E-02  0.1300439E+00
        -11   -1    0    0    0    0  0.00000000000E+00  0.00000000000E+00  0.45593999997E+02  0.45594000000E+02  0.51100000000E-03 0.  1.
         11   -1    0    0    0    0 -0.00000000000E+00 -0.00000000000E+00 -0.45593999997E+02  0.45594000000E+02  0.51100000000E-03 0. -1.
    9900012    2    1    2    0    0 -0.18609799771E+02 -0.21194816831E+01  0.36088069335E+02  0.50528860825E+02  0.30000002964E+02 0.  0.
         12    1    1    2    0    0  0.18609799771E+02  0.21194816831E+01 -0.36088069335E+02  0.40659139175E+02  0.00000000000E+00 0. -1.
         11    1    3    3    0    0 -0.38255434761E+01 -0.96537138422E+01  0.16885187416E+02  0.19822677119E+02  0.51100000000E-03 0. -1.
        -11    1    3    3    0    0  0.50064474419E+00  0.59116907007E+01  0.12698011122E+02  0.14015641934E+02  0.51100000000E-03 0.  1.
        -12    1    3    3    0    0 -0.15284901039E+02  0.16225414584E+01  0.65048707967E+01  0.16690541772E+02  0.00000000000E+00 0.  1.
</event>
<event>
 7    1  0.2450552E-011  0.5052885E+02  0.7816164E-02  0.1300439E+00
        -11   -1    0    0    0    0  0.00000000000E+00  0.00000000000E+00  0.45593999997E+02  0.45594000000E+02  0.51100000000E-03 0.  1.
         11   -1    0    0    0    0 -0.00000000000E+00 -0.00000000000E+00 -0.45593999997E+02  0.45594000000E+02  0.51100000000E-03 0. -1.
    9900012    2    1    2    0    0 -0.21897093909E+01 -0.17433945660E+02  0.36666463987E+02  0.50528845190E+02  0.29999955441E+02 0.  0.
         12    1    1    2    0    0  0.21897093909E+01  0.17433945660E+02 -0.36666463987E+02  0.40659154810E+02  0.00000000000E+00 0. -1.
         11    1    3    3    0    0 -0.48735201226E+01 -0.83297910843E+01  0.76677503234E+01  0.12326029903E+02  0.51100000000E-03 0. -1.
        -11    1    3    3    0    0  0.46657568505E+01 -0.81839115750E+01  0.30439179001E+00  0.94254098201E+01  0.51100000000E-03 0.  1.
        -12    1    3    3    0    0 -0.19819461188E+01 -0.92024300081E+00  0.28694321874E+02  0.28777405467E+02  0.00000000000E+00 0.  1.
</event>
<event>
 7    1  0.2450552E-011  0.5052886E+02  0.7816164E-02  0.1300439E+00
        -11   -1    0    0    0    0  0.00000000000E+00  0.00000000000E+00  0.45593999997E+02  0.45594000000E+02  0.51100000000E-03 0.  1.
         11   -1    0    0    0    0 -0.00000000000E+00 -0.00000000000E+00 -0.45593999997E+02  0.45594000000E+02  0.51100000000E-03 0. -1.
    9900012    2    1    2    0    0  0.76866376912E+01  0.39864584919E+02  0.22127112717E+01  0.50528860549E+02  0.30000002123E+02 0.  0.
         12    1    1    2    0    0 -0.76866376912E+01 -0.39864584919E+02 -0.22127112717E+01  0.40659139451E+02  0.00000000000E+00 0. -1.
         11    1    3    3    0    0 -0.13433863024E+01  0.16456406466E+02 -0.28085751297E+01  0.16748316185E+02  0.51100000000E-03 0. -1.
        -11    1    3    3    0    0 -0.42861181119E+01  0.18698873990E+02  0.16177183524E+01  0.19251901461E+02  0.51100000000E-03 0.  1.
        -12    1    3    3    0    0  0.13316142106E+02  0.47093044637E+01  0.34035680491E+01  0.14528642902E+02  0.00000000000E+00 0.  1.
</event>
<event>
 7    1  0.2450552E-011  0.5052889E+02  0.7816164E-02  0.1300439E+00
        -11   -1    0    0    0    0  0.00000000000E+00  0.00000000000E+00  0.45593999997E+02  0.45594000000E+02  0.51100000000E-03 0. -1.
         11   -1    0    0    0    0 -0.00000000000E+00 -0.00000000000E+00 -0.45593999997E+02  0.45594000000E+02  0.51100000000E-03 0.  1.
    9900012    2    1    2    0    0 -0.14240341401E+02 -0.18212302500E+02 -0.33446794352E+02  0.50528888623E+02  0.30000087458E+02 0.  0.
         12    1    1    2    0    0  0.14240341401E+02  0.18212302500E+02  0.33446794352E+02  0.40659111377E+02  0.00000000000E+00 0. -1.
         11    1    3    3    0    0  0.40347607971E+01  0.39333709561E+01 -0.79586528809E+01  0.97514541330E+01  0.51100000000E-03 0. -1.
        -11    1    3    3    0    0  0.14222777303E+01 -0.12761850536E+01 -0.54538630432E+01  0.57789397461E+01  0.51100000000E-03 0.  1.
         12    1    3    3    0    0 -0.19697379929E+02 -0.20869488402E+02 -0.20034278427E+02  0.34998494744E+02  0.00000000000E+00 0. -1.
</event>
<event>
 7    1  0.2450552E-011  0.5052886E+02  0.7816164E-02  0.1300439E+00
        -11   -1    0    0    0    0  0.00000000000E+00  0.00000000000E+00  0.45593999997E+02  0.45594000000E+02  0.51100000000E-03 0.  1.
         11   -1    0    0    0    0 -0.00000000000E+00 -0.00000000000E+00 -0.45593999997E+02  0.45594000000E+02  0.51100000000E-03 0. -1.
    9900012    2    1    2    0    0 -0.26100990927E+02  0.17403250219E+02  0.25865631350E+02  0.50528859199E+02  0.29999998021E+02 0.  0.
         12    1    1    2    0    0  0.26100990927E+02 -0.17403250219E+02 -0.25865631350E+02  0.40659140801E+02  0.00000000000E+00 0. -1.
         11    1    3    3    0    0 -0.91870227993E+00  0.73461646391E+01  0.64500279123E+00  0.74314317359E+01  0.51100000000E-03 0. -1.
        -11    1    3    3    0    0  0.32507900801E+01  0.48818971315E+01  0.26908166799E+01  0.64529877121E+01  0.51100000000E-03 0.  1.
         12    1    3    3    0    0 -0.28433078727E+02  0.51751884487E+01  0.22529811878E+02  0.36644439751E+02  0.00000000000E+00 0. -1.
</event>
<event>
 7    1  0.2450552E-011  0.5052886E+02  0.7816164E-02  0.1300439E+00
        -11   -1    0    0    0    0  0.00000000000E+00  0.00000000000E+00  0.45593999997E+02  0.45594000000E+02  0.51100000000E-03 0. -1.
         11   -1    0    0    0    0 -0.00000000000E+00 -0.00000000000E+00 -0.45593999997E+02  0.45594000000E+02  0.51100000000E-03 0.  1.
    9900012    2    1    2    0    0  0.43691318246E+01 -0.38996745106E+02  0.10645675158E+02  0.50528857839E+02  0.29999993886E+02 0.  0.
         12    1    1    2    0    0 -0.43691318246E+01  0.38996745106E+02 -0.10645675158E+02  0.40659142161E+02  0.00000000000E+00 0. -1.
         11    1    3    3    0    0  0.15817851800E+01 -0.23178401442E+02  0.15010040129E+02  0.27659386159E+02  0.51100000000E-03 0. -1.
        -11    1    3    3    0    0 -0.55037771522E+01 -0.10069935801E+02  0.86011734155E+00  0.11508039454E+02  0.51100000000E-03 0.  1.
         12    1    3    3    0    0  0.82911237969E+01 -0.57484078625E+01 -0.52244823130E+01  0.11361432225E+02  0.00000000000E+00 0. -1.
</event>
<event>
 7    1  0.2450552E-011  0.5052886E+02  0.7816164E-02  0.1300439E+00
        -11   -1    0    0    0    0  0.00000000000E+00  0.00000000000E+00  0.45593999997E+02  0.45594000000E+02  0.51100000000E-03 0.  1.
         11   -1    0    0    0    0 -0.00000000000E+00 -0.00000000000E+00 -0.45593999997E+02  0.45594000000E+02  0.51100000000E-03 0. -1.
    9900012    2    1    2    0    0  0.28350096825E+00 -0.19975546664E+02  0.35412748831E+02  0.50528860595E+02  0.30000002265E+02 0.  0.
         12    1    1    2    0    0 -0.28350096825E+00  0.19975546664E+02 -0.35412748831E+02  0.40659139405E+02  0.00000000000E+00 0. -1.
         11    1    3    3    0    0 -0.37540685295E+01  0.11114205789E+01  0.31732152804E+01  0.50396013438E+01  0.51100000000E-03 0.  1.
        -11    1    3    3    0    0  0.72890389167E+01  0.28547169757E+01  0.95031992187E+01  0.12312200981E+02  0.51100000000E-03 0. -1.
        -12    1    3    3    0    0 -0.32514694189E+01 -0.23941684219E+02  0.22736334332E+02  0.33177058271E+02  0.00000000000E+00 0.  1.
</event>
<event>
 7    1  0.2450552E-011  0.5052886E+02  0.7816164E-02  0.1300439E+00
        -11   -1    0    0    0    0  0.00000000000E+00  0.00000000000E+00  0.45593999997E+02  0.45594000000E+02  0.51100000000E-03 0.  1.
         11   -1    0    0    0    0 -0.00000000000E+00 -0.00000000000E+00 -0.45593999997E+02  0.45594000000E+02  0.51100000000E-03 0. -1.
    9900012    2    1    2    0    0 -0.12712179204E+02  0.37318428101E+02  0.99448916863E+01  0.50528862691E+02  0.30000008636E+02 0.  0.
         12    1    1    2    0    0  0.12712179204E+02 -0.37318428101E+02 -0.99448916863E+01  0.40659137309E+02  0.00000000000E+00 0. -1.
         11    1    3    3    0    0 -0.85242091368E+00  0.80964899227E+01 -0.79284640155E+01  0.11363991921E+02  0.51100000000E-03 0. -1.
        -11    1    3    3    0    0  0.20854566195E+01  0.13474773937E+02  0.51110391996E+01  0.14561640839E+02  0.51100000000E-03 0.  1.
         12    1    3    3    0    0 -0.13945214909E+02  0.15747164242E+02  0.12762316502E+02  0.24603229931E+02  0.00000000000E+00 0. -1.
</event>
<event>
 7    1  0.2450552E-011  0.5052886E+02  0.7816164E-02  0.1300439E+00
        -11   -1    0    0    0    0  0.00000000000E+00  0.00000000000E+00  0.45593999997E+02  0.45594000000E+02  0.51100000000E-03 0.  1.
         11   -1    0    0    0    0 -0.00000000000E+00 -0.00000000000E+00 -0.45593999997E+02  0.45594000000E+02  0.51100000000E-03 0. -1.
    9900012    2    1    2    0    0  0.26787884016E+02 -0.13169223505E+02  0.27606993407E+02  0.50528864953E+02  0.30000015511E+02 0.  0.
         12    1    1    2    0    0 -0.26787884016E+02  0.13169223505E+02 -0.27606993407E+02  0.40659135047E+02  0.00000000000E+00 0. -1.
         11    1    3    3    0    0 -0.19156093066E+01 -0.31847310499E+01  0.11378998896E+02  0.11970534116E+02  0.51100000000E-03 0. -1.
        -11    1    3    3    0    0  0.92254386701E+01 -0.12079180834E+02  0.90787996239E+01  0.17704234837E+02  0.51100000000E-03 0.  1.
         12    1    3    3    0    0  0.19478054653E+02  0.20946883790E+01  0.71491948871E+01  0.20854096001E+02  0.00000000000E+00 0. -1.
</event>
<event>
 7    1  0.2450552E-011  0.5052885E+02  0.7816164E-02  0.1300439E+00
        -11   -1    0    0    0    0  0.00000000000E+00  0.00000000000E+00  0.45593999997E+02  0.45594000000E+02  0.51100000000E-03 0.  1.
         11   -1    0    0    0    0 -0.00000000000E+00 -0.00000000000E+00 -0.45593999997E+02  0.45594000000E+02  0.51100000000E-03 0. -1.
    9900012    2    1    2    0    0  0.39027935103E+02  0.10530150444E+02  0.43706790040E+01  0.50528848242E+02  0.29999964715E+02 0.  0.
         12    1    1    2    0    0 -0.39027935103E+02 -0.10530150444E+02 -0.43706790040E+01  0.40659151758E+02  0.00000000000E+00 0. -1.
         11    1    3    3    0    0  0.12227819538E+02 -0.30708116165E+01 -0.42044478833E+00  0.12614524514E+02  0.51100000000E-03 0.  1.
        -11    1    3    3    0    0  0.10166204301E+02  0.29455317992E+01  0.12790541730E+02  0.16601982577E+02  0.51100000000E-03 0. -1.
         12    1    3    3    0    0  0.16633911264E+02  0.10655430261E+02 -0.79994179376E+01  0.21312341151E+02  0.00000000000E+00 0. -1.
</event>
<event>
 7    1  0.2450552E-011  0.5052886E+02  0.7816164E-02  0.1300439E+00
        -11   -1    0    0    0    0  0.00000000000E+00  0.00000000000E+00  0.45593999997E+02  0.45594000000E+02  0.51100000000E-03 0.  1.
         11   -1    0    0    0    0 -0.00000000000E+00 -0.00000000000E+00 -0.45593999997E+02  0.45594000000E+02  0.51100000000E-03 0. -1.
    9900012    2    1    2    0    0  0.17187809889E+02 -0.36408477341E+02  0.56716445731E+01  0.50528861012E+02  0.30000003533E+02 0.  0.
         12    1    1    2    0    0 -0.17187809889E+02  0.36408477341E+02 -0.56716445731E+01  0.40659138988E+02  0.00000000000E+00 0. -1.
         11    1    3    3    0    0  0.62898256946E+01 -0.12297977607E+02  0.37342740258E+01  0.14308981908E+02  0.51100000000E-03 0. -1.
        -11    1    3    3    0    0  0.17549024739E+02 -0.12340579846E+02 -0.33305795900E+01  0.21710618160E+02  0.51100000000E-03 0.  1.
         12    1    3    3    0    0 -0.66510405448E+01 -0.11769919887E+02  0.52679501374E+01  0.14509260944E+02  0.00000000000E+00 0. -1.
</event>
<event>
 7    1  0.2450552E-011  0.5052886E+02  0.7816164E-02  0.1300439E+00
        -11   -1    0    0    0    0  0.00000000000E+00  0.00000000000E+00  0.45593999997E+02  0.45594000000E+02  0.51100000000E-03 0. -1.
         11   -1    0    0    0    0 -0.00000000000E+00 -0.00000000000E+00 -0.45593999997E+02  0.45594000000E+02  0.51100000000E-03 0.  1.
    9900012    2    1    2    0    0  0.15626940264E+02  0.18667364759E+02 -0.32565222121E+02  0.50528862517E+02  0.30000008106E+02 0.  0.
         12    1    1    2    0    0 -0.15626940264E+02 -0.18667364759E+02  0.32565222121E+02  0.40659137483E+02  0.00000000000E+00 0. -1.
         11    1    3    3    0    0  0.47062237841E+01 -0.65699607739E+01 -0.10403751580E+02  0.13173874680E+02  0.51100000000E-03 0. -1.
        -11    1    3    3    0    0 -0.75617880848E+00  0.54867242809E+01 -0.98900610266E+01  0.11335310190E+02  0.51100000000E-03 0.  1.
         12    1    3    3    0    0  0.11676895289E+02  0.19750601252E+02 -0.12271409514E+02  0.26019677647E+02  0.00000000000E+00 0. -1.
</event>
<event>
 7    1  0.2450552E-011  0.5052884E+02  0.7816164E-02  0.1300439E+00
        -11   -1    0    0    0    0  0.00000000000E+00  0.00000000000E+00  0.45593999997E+02  0.45594000000E+02  0.51100000000E-03 0. -1.
         11   -1    0    0    0    0 -0.00000000000E+00 -0.00000000000E+00 -0.45593999997E+02  0.45594000000E+02  0.51100000000E-03 0.  1.
    9900012    2    1    2    0    0 -0.37011903291E+01 -0.69796817631E+01 -0.39884234082E+02  0.50528844873E+02  0.29999954475E+02 0.  0.
         12    1    1    2    0    0  0.37011903291E+01  0.69796817631E+01  0.39884234082E+02  0.40659155127E+02  0.00000000000E+00 0. -1.
         11    1    3    3    0    0 -0.84318999828E+01  0.46713046349E+01 -0.61342835622E+01  0.11425736711E+02  0.51100000000E-03 0.  1.
        -11    1    3    3    0    0  0.41223484984E+01 -0.11445198714E+01 -0.59683903192E+00  0.43197106349E+01  0.51100000000E-03 0. -1.
        -12    1    3    3    0    0  0.60836115533E+00 -0.10506466527E+02 -0.33153111488E+02  0.34783397527E+02  0.00000000000E+00 0.  1.
</event>
<event>
 7    1  0.2450552E-011  0.5052887E+02  0.7816164E-02  0.1300439E+00
        -11   -1    0    0    0    0  0.00000000000E+00  0.00000000000E+00  0.45593999997E+02  0.45594000000E+02  0.51100000000E-03 0.  1.
         11   -1    0    0    0    0 -0.00000000000E+00 -0.00000000000E+00 -0.45593999997E+02  0.45594000000E+02  0.51100000000E-03 0. -1.
    9900012    2    1    2    0    0  0.17714603909E+02  0.36116510522E+02 -0.59123357667E+01  0.50528865256E+02  0.30000016431E+02 0.  0.
         12    1    1    2    0    0 -0.17714603909E+02 -0.36116510522E+02  0.59123357667E+01  0.40659134744E+02  0.00000000000E+00 0. -1.
         11    1    3    3    0    0  0.36839214131E+01 -0.22105286815E+01 -0.56368014120E+01  0.70874004013E+01  0.51100000000E-03 0. -1.
        -11    1    3    3    0    0  0.17974508595E+01  0.12846441885E+02 -0.64851088090E+01  0.14502363091E+02  0.51100000000E-03 0.  1.
         12    1    3    3    0    0  0.12233231636E+02  0.25480597319E+02  0.62095744543E+01  0.28939101764E+02  0.00000000000E+00 0. -1.
</event>
<event>
 7    1  0.2450552E-011  0.5052886E+02  0.7816164E-02  0.1300439E+00
        -11   -1    0    0    0    0  0.00000000000E+00  0.00000000000E+00  0.45593999997E+02  0.45594000000E+02  0.51100000000E-03 0.  1.
         11   -1    0    0    0    0 -0.00000000000E+00 -0.00000000000E+00 -0.45593999997E+02  0.45594000000E+02  0.51100000000E-03 0. -1.
    9900012    2    1    2    0    0  0.38366776139E+02  0.12674438949E+02 -0.45293505868E+01  0.50528856739E+02  0.29999990544E+02 0.  0.
         12    1    1    2    0    0 -0.38366776139E+02 -0.12674438949E+02  0.45293505868E+01  0.40659143261E+02  0.00000000000E+00 0. -1.
         11    1    3    3    0    0  0.18797903917E+02  0.63105760334E+01 -0.68461975415E+01  0.20977487519E+02  0.51100000000E-03 0. -1.
        -11    1    3    3    0    0  0.21093271669E+02 -0.17832703457E+01  0.18657953101E+01  0.21250584821E+02  0.51100000000E-03 0.  1.
         12    1    3    3    0    0 -0.15243994475E+01  0.81471332615E+01  0.45105164462E+00  0.83007843993E+01  0.00000000000E+00 0. -1.
</event>
<event>
 7    1  0.2450552E-011  0.5052883E+02  0.7816164E-02  0.1300439E+00
        -11   -1    0    0    0    0  0.00000000000E+00  0.00000000000E+00  0.45593999997E+02  0.45594000000E+02  0.51100000000E-03 0.  1.
         11   -1    0    0    0    0 -0.00000000000E+00 -0.00000000000E+00 -0.45593999997E+02  0.45594000000E+02  0.51100000000E-03 0. -1.
    9900012    2    1    2    0    0 -0.13780047928E+02 -0.36260822526E+02  0.12183224682E+02  0.50528832093E+02  0.29999915631E+02 0.  0.
         12    1    1    2    0    0  0.13780047928E+02  0.36260822526E+02 -0.12183224682E+02  0.40659167907E+02  0.00000000000E+00 0. -1.
         11    1    3    3    0    0 -0.48439998532E+01 -0.80447849843E+01  0.10123495205E+02  0.13808260406E+02  0.51100000000E-03 0. -1.
        -11    1    3    3    0    0 -0.14180356786E+02 -0.27482858315E+02  0.37733101335E+01  0.31154901530E+02  0.51100000000E-03 0.  1.
        -12    1    3    3    0    0  0.52443087107E+01 -0.73317922695E+00 -0.17135806560E+01  0.55656701570E+01  0.00000000000E+00 0.  1.
</event>
<event>
 7    1  0.2450552E-011  0.5052886E+02  0.7816164E-02  0.1300439E+00
        -11   -1    0    0    0    0  0.00000000000E+00  0.00000000000E+00  0.45593999997E+02  0.45594000000E+02  0.51100000000E-03 0. -1.
         11   -1    0    0    0    0 -0.00000000000E+00 -0.00000000000E+00 -0.45593999997E+02  0.45594000000E+02  0.51100000000E-03 0.  1.
    9900012    2    1    2    0    0  0.20987496720E+02  0.33378345153E+02 -0.99285741503E+01  0.50528861687E+02  0.30000005584E+02 0.  0.
         12    1    1    2    0    0 -0.20987496720E+02 -0.33378345153E+02  0.99285741503E+01  0.40659138313E+02  0.00000000000E+00 0. -1.
         11    1    3    3    0    0  0.71044771574E+01  0.77172506233E+01 -0.49544990993E+01  0.11600716118E+02  0.51100000000E-03 0. -1.
        -11    1    3    3    0    0  0.17175707111E+02  0.27863451941E+02 -0.82863557760E+01  0.33764486686E+02  0.51100000000E-03 0.  1.
         12    1    3    3    0    0 -0.32926875487E+01 -0.22023574120E+01  0.33122807250E+01  0.51636588834E+01  0.00000000000E+00 0. -1.
</event>
<event>
 7    1  0.2450552E-011  0.5052886E+02  0.7816164E-02  0.1300439E+00
        -11   -1    0    0    0    0  0.00000000000E+00  0.00000000000E+00  0.45593999997E+02  0.45594000000E+02  0.51100000000E-03 0. -1.
         11   -1    0    0    0    0 -0.00000000000E+00 -0.00000000000E+00 -0.45593999997E+02  0.45594000000E+02  0.51100000000E-03 0.  1.
    9900012    2    1    2    0    0  0.38827750457E+02  0.30987307119E+00 -0.12061315347E+02  0.50528861362E+02  0.30000004597E+02 0.  0.
         12    1    1    2    0    0 -0.38827750457E+02 -0.30987307119E+00  0.12061315347E+02  0.40659138638E+02  0.00000000000E+00 0. -1.
         11    1    3    3    0    0  0.17931344336E+02  0.54188077187E+01 -0.23317274209E+01  0.18876798983E+02  0.51100000000E-03 0. -1.
        -11    1    3    3    0    0  0.10926812954E+01 -0.91106765260E+00  0.59048672050E+01  0.60738335218E+01  0.51100000000E-03 0.  1.
        -12    1    3    3    0    0  0.19803724825E+02 -0.41978669949E+01 -0.15634455131E+02  0.25578228858E+02  0.00000000000E+00 0.  1.
</event>
<event>
 7    1  0.2450552E-011  0.5052885E+02  0.7816164E-02  0.1300439E+00
        -11   -1    0    0    0    0  0.00000000000E+00  0.00000000000E+00  0.45593999997E+02  0.45594000000E+02  0.51100000000E-03 0.  1.
         11   -1    0    0    0    0 -0.00000000000E+00 -0.00000000000E+00 -0.45593999997E+02  0.45594000000E+02  0.51100000000E-03 0. -1.
    9900012    2    1    2    0    0  0.23990588907E+02 -0.11746653940E+02  0.30653447540E+02  0.50528854891E+02  0.29999984926E+02 0.  0.
         12    1    1    2    0    0 -0.23990588907E+02  0.11746653940E+02 -0.30653447540E+02  0.40659145109E+02  0.00000000000E+00 0. -1.
         11    1    3    3    0    0  0.74263800913E+00 -0.43594996722E+01 -0.39826680028E+01  0.59513354204E+01  0.51100000000E-03 0. -1.
        -11    1    3    3    0    0  0.53702097997E+01  0.28962346115E+01  0.29665943878E+01  0.67843946481E+01  0.51100000000E-03 0.  1.
        -12    1    3    3    0    0  0.17877741099E+02 -0.10283388879E+02  0.31669521155E+02  0.37793124822E+02  0.00000000000E+00 0.  1.
</event>
<event>
 7    1  0.2450552E-011  0.5052886E+02  0.7816164E-02  0.1300439E+00
        -11   -1    0    0    0    0  0.00000000000E+00  0.00000000000E+00  0.45593999997E+02  0.45594000000E+02  0.51100000000E-03 0. -1.
         11   -1    0    0    0    0 -0.00000000000E+00 -0.00000000000E+00 -0.45593999997E+02  0.45594000000E+02  0.51100000000E-03 0.  1.
    9900012    2    1    2    0    0 -0.40528822331E+02  0.18016720281E+01  0.27081208552E+01  0.50528863508E+02  0.30000011120E+02 0.  0.
         12    1    1    2    0    0  0.40528822331E+02 -0.18016720281E+01 -0.27081208552E+01  0.40659136492E+02  0.00000000000E+00 0. -1.
         11    1    3    3    0    0 -0.19296807680E+02  0.95774429430E+01  0.33680825085E+01  0.21804544939E+02  0.51100000000E-03 0. -1.
        -11    1    3    3    0    0 -0.10198842493E+02  0.27288450090E+01 -0.65125395706E+01  0.12404682793E+02  0.51100000000E-03 0.  1.
         12    1    3    3    0    0 -0.11033172159E+02 -0.10504615924E+02  0.58525779172E+01  0.16319635777E+02  0.00000000000E+00 0. -1.
</event>
<event>
 7    1  0.2450552E-011  0.5052888E+02  0.7816164E-02  0.1300439E+00
        -11   -1    0    0    0    0  0.00000000000E+00  0.00000000000E+00  0.45593999997E+02  0.45594000000E+02  0.51100000000E-03 0. -1.
         11   -1    0    0    0    0 -0.00000000000E+00 -0.00000000000E+00 -0.45593999997E+02  0.45594000000E+02  0.51100000000E-03 0.  1.
    9900012    2    1    2    0    0  0.96295817529E+01  0.34264195519E+02  0.19657064267E+02  0.50528879069E+02  0.30000058418E+02 0.  0.
         12    1    1    2    0    0 -0.96295817529E+01 -0.34264195519E+02 -0.19657064267E+02  0.40659120931E+02  0.00000000000E+00 0. -1.
         11    1    3    3    0    0 -0.24763413018E+01  0.33505884991E+01 -0.46207662231E+01  0.62217513839E+01  0.51100000000E-03 0. -1.
        -11    1    3    3    0    0  0.95172744953E+00  0.29192292607E+01  0.10921917924E+02  0.11345306343E+02  0.51100000000E-03 0.  1.
        -12    1    3    3    0    0  0.11154195605E+02  0.27994377759E+02  0.13355912566E+02  0.32961821342E+02  0.00000000000E+00 0.  1.
</event>
<event>
 7    1  0.2450552E-011  0.5052886E+02  0.7816164E-02  0.1300439E+00
        -11   -1    0    0    0    0  0.00000000000E+00  0.00000000000E+00  0.45593999997E+02  0.45594000000E+02  0.51100000000E-03 0. -1.
         11   -1    0    0    0    0 -0.00000000000E+00 -0.00000000000E+00 -0.45593999997E+02  0.45594000000E+02  0.51100000000E-03 0.  1.
    9900012    2    1    2    0    0  0.19767018483E+02 -0.17461073901E+02  0.30944167337E+02  0.50528860638E+02  0.30000002396E+02 0.  0.
         12    1    1    2    0    0 -0.19767018483E+02  0.17461073901E+02 -0.30944167337E+02  0.40659139362E+02  0.00000000000E+00 0. -1.
         11    1    3    3    0    0  0.11715194551E+02 -0.74609607154E+01  0.18437458766E+02  0.23083578669E+02  0.51100000000E-03 0. -1.
        -11    1    3    3    0    0 -0.26982822127E+01 -0.34490873811E+01  0.14092190129E+02  0.14756922225E+02  0.51100000000E-03 0.  1.
        -12    1    3    3    0    0  0.10750106145E+02 -0.65510258046E+01 -0.15854815589E+01  0.12688359744E+02  0.00000000000E+00 0.  1.
</event>
<event>
 7    1  0.2450552E-011  0.5052883E+02  0.7816164E-02  0.1300439E+00
        -11   -1    0    0    0    0  0.00000000000E+00  0.00000000000E+00  0.45593999997E+02  0.45594000000E+02  0.51100000000E-03 0.  1.
         11   -1    0    0    0    0 -0.00000000000E+00 -0.00000000000E+00 -0.45593999997E+02  0.45594000000E+02  0.51100000000E-03 0. -1.
    9900012    2    1    2    0    0  0.33941224850E+02  0.40512250721E+01  0.22017023522E+02  0.50528825222E+02  0.29999894744E+02 0.  0.
         12    1    1    2    0    0 -0.33941224850E+02 -0.40512250721E+01 -0.22017023522E+02  0.40659174778E+02  0.00000000000E+00 0. -1.
         11    1    3    3    0    0  0.11350487478E+02  0.26540726014E+01  0.11344059424E+01  0.11711726793E+02  0.51100000000E-03 0. -1.
        -11    1    3    3    0    0  0.16348329117E+02  0.53835702748E+01  0.24992964266E+02  0.30346317024E+02  0.51100000000E-03 0.  1.
         12    1    3    3    0    0  0.62424082547E+01 -0.39864178041E+01 -0.41103466873E+01  0.84707814054E+01  0.00000000000E+00 0. -1.
</event>
<event>
 7    1  0.2450552E-011  0.5052886E+02  0.7816164E-02  0.1300439E+00
        -11   -1    0    0    0    0  0.00000000000E+00  0.00000000000E+00  0.45593999997E+02  0.45594000000E+02  0.51100000000E-03 0. -1.
         11   -1    0    0    0    0 -0.00000000000E+00 -0.00000000000E+00 -0.45593999997E+02  0.45594000000E+02  0.51100000000E-03 0.  1.
    9900012    2    1    2    0    0  0.33509563692E+02  0.15742264030E+02 -0.16806433745E+02  0.50528856492E+02  0.29999989793E+02 0.  0.
         12    1    1    2    0    0 -0.33509563692E+02 -0.15742264030E+02  0.16806433745E+02  0.40659143508E+02  0.00000000000E+00 0. -1.
         11    1    3    3    0    0  0.18220649705E+02  0.16328926823E+02 -0.13127130038E+02  0.27765940830E+02  0.51100000000E-03 0. -1.
        -11    1    3    3    0    0  0.14379547607E+02  0.57505242062E+01 -0.22507859645E+00  0.15488401424E+02  0.51100000000E-03 0.  1.
         12    1    3    3    0    0  0.90936637953E+00 -0.63371870000E+01 -0.34542251106E+01  0.72745142381E+01  0.00000000000E+00 0. -1.
</event>
<event>
 7    1  0.3633756E-011  0.5052885E+02  0.7816164E-02  0.1300439E+00
        -11   -1    0    0    0    0  0.00000000000E+00  0.00000000000E+00  0.45593999997E+02  0.45594000000E+02  0.51100000000E-03 0. -1.
         11   -1    0    0    0    0 -0.00000000000E+00 -0.00000000000E+00 -0.45593999997E+02  0.45594000000E+02  0.51100000000E-03 0.  1.
    9900012    2    1    2    0    0  0.16992256138E+01 -0.26122286133E+02 -0.31111178909E+02  0.50528847849E+02  0.29999963522E+02 0.  0.
         12    1    1    2    0    0 -0.16992256138E+01  0.26122286133E+02  0.31111178909E+02  0.40659152151E+02  0.00000000000E+00 0. -1.
         11    1    3    3    0    0  0.88671342677E+01 -0.47332543235E+01  0.70450284295E+00  0.10076015638E+02  0.51100000000E-03 0. -1.
        -11    1    3    3    0    0 -0.66144152456E+01 -0.75660897091E+01 -0.77367878360E+01  0.12682826531E+02  0.51100000000E-03 0.  1.
        -12    1    3    3    0    0 -0.55349340826E+00 -0.13822942100E+02 -0.24078893916E+02  0.27770005681E+02  0.00000000000E+00 0.  1.
</event>
<event>
 7    1  0.2450552E-011  0.5052888E+02  0.7816164E-02  0.1300439E+00
        -11   -1    0    0    0    0  0.00000000000E+00  0.00000000000E+00  0.45593999997E+02  0.45594000000E+02  0.51100000000E-03 0.  1.
         11   -1    0    0    0    0 -0.00000000000E+00 -0.00000000000E+00 -0.45593999997E+02  0.45594000000E+02  0.51100000000E-03 0. -1.
    9900012    2    1    2    0    0 -0.11559448461E+02 -0.13148015171E+02  0.36697044437E+02  0.50528877751E+02  0.30000054411E+02 0.  0.
         12    1    1    2    0    0  0.11559448461E+02  0.13148015171E+02 -0.36697044437E+02  0.40659122249E+02  0.00000000000E+00 0. -1.
         11    1    3    3    0    0 -0.92291915423E+01 -0.32549899790E+01  0.13526510302E+02  0.16695490933E+02  0.51100000000E-03 0. -1.
        -11    1    3    3    0    0 -0.10908866412E+02 -0.45263939355E+01  0.20004256124E+02  0.23230623578E+02  0.51100000000E-03 0.  1.
         12    1    3    3    0    0  0.85786094933E+01 -0.53666312566E+01  0.31662780112E+01  0.10602763240E+02  0.00000000000E+00 0. -1.
</event>
<event>
 7    1  0.2450552E-011  0.5052881E+02  0.7816164E-02  0.1300439E+00
        -11   -1    0    0    0    0  0.00000000000E+00  0.00000000000E+00  0.45593999997E+02  0.45594000000E+02  0.51100000000E-03 0. -1.
         11   -1    0    0    0    0 -0.00000000000E+00 -0.00000000000E+00 -0.45593999997E+02  0.45594000000E+02  0.51100000000E-03 0.  1.
    9900012    2    1    2    0    0 -0.35842432260E+02 -0.13827250244E+02 -0.13315302463E+02  0.50528805723E+02  0.29999835474E+02 0.  0.
         12    1    1    2    0    0  0.35842432260E+02  0.13827250244E+02  0.13315302463E+02  0.40659194277E+02  0.00000000000E+00 0. -1.
         11    1    3    3    0    0  0.99034322174E+00  0.60016359331E+00 -0.32631015492E+00  0.12031020796E+01  0.51100000000E-03 0. -1.
        -11    1    3    3    0    0 -0.19222525199E+02 -0.13017215104E+02 -0.19680007772E+02  0.30434455314E+02  0.51100000000E-03 0.  1.
        -12    1    3    3    0    0 -0.17610250283E+02 -0.14101987328E+01  0.66910154640E+01  0.18891248329E+02  0.00000000000E+00 0.  1.
</event>
<event>
 7    1  0.2450552E-011  0.5052887E+02  0.7816164E-02  0.1300439E+00
        -11   -1    0    0    0    0  0.00000000000E+00  0.00000000000E+00  0.45593999997E+02  0.45594000000E+02  0.51100000000E-03 0.  1.
         11   -1    0    0    0    0 -0.00000000000E+00 -0.00000000000E+00 -0.45593999997E+02  0.45594000000E+02  0.51100000000E-03 0. -1.
    9900012    2    1    2    0    0 -0.13890676293E+02 -0.13063076236E+02  0.35910587315E+02  0.50528866586E+02  0.30000020476E+02 0.  0.
         12    1    1    2    0    0  0.13890676293E+02  0.13063076236E+02 -0.35910587315E+02  0.40659133414E+02  0.00000000000E+00 0. -1.
         11    1    3    3    0    0  0.46064245462E-01 -0.11306080946E+02  0.71414861430E+01  0.13372748889E+02  0.51100000000E-03 0. -1.
        -11    1    3    3    0    0 -0.44667215267E+01  0.68400963155E+00 -0.19472671732E+01  0.49204999826E+01  0.51100000000E-03 0.  1.
        -12    1    3    3    0    0 -0.94700190113E+01 -0.24410049221E+01  0.30716368345E+02  0.32235617715E+02  0.00000000000E+00 0.  1.
</event>
<event>
 7    1  0.2450552E-011  0.5052887E+02  0.7816164E-02  0.1300439E+00
        -11   -1    0    0    0    0  0.00000000000E+00  0.00000000000E+00  0.45593999997E+02  0.45594000000E+02  0.51100000000E-03 0. -1.
         11   -1    0    0    0    0 -0.00000000000E+00 -0.00000000000E+00 -0.45593999997E+02  0.45594000000E+02  0.51100000000E-03 0.  1.
    9900012    2    1    2    0    0  0.12779179498E+02  0.35142161646E+02 -0.15965139856E+02  0.50528872557E+02  0.30000038624E+02 0.  0.
         12    1    1    2    0    0 -0.12779179498E+02 -0.35142161646E+02  0.15965139856E+02  0.40659127443E+02  0.00000000000E+00 0. -1.
         11    1    3    3    0    0  0.37720449343E+01  0.19780537059E+02 -0.14643765988E+02  0.24898551201E+02  0.51100000000E-03 0.  1.
        -11    1    3    3    0    0 -0.51661911115E+01  0.42585069783E+01 -0.33951754325E+01  0.75067721934E+01  0.51100000000E-03 0. -1.
         12    1    3    3    0    0  0.14173325675E+02  0.11103117609E+02  0.20738015637E+01  0.18123549163E+02  0.00000000000E+00 0. -1.
</event>
<event>
 7    1  0.2450552E-011  0.5052896E+02  0.7816164E-02  0.1300438E+00
        -11   -1    0    0    0    0  0.00000000000E+00  0.00000000000E+00  0.45593999997E+02  0.45594000000E+02  0.51100000000E-03 0.  1.
         11   -1    0    0    0    0 -0.00000000000E+00 -0.00000000000E+00 -0.45593999997E+02  0.45594000000E+02  0.51100000000E-03 0. -1.
    9900012    2    1    2    0    0  0.32360445594E+02 -0.15910369311E+02  0.18783489317E+02  0.50528957198E+02  0.30000295897E+02 0.  0.
         12    1    1    2    0    0 -0.32360445594E+02  0.15910369311E+02 -0.18783489317E+02  0.40659042802E+02  0.00000000000E+00 0. -1.
         11    1    3    3    0    0  0.89137505146E+01 -0.46283999217E+01 -0.20494281373E+01  0.10250716561E+02  0.51100000000E-03 0. -1.
        -11    1    3    3    0    0  0.25386366416E+02 -0.14403323398E+02  0.13675766699E+02  0.32232746078E+02  0.51100000000E-03 0.  1.
         12    1    3    3    0    0 -0.19396713364E+01  0.31213540088E+01  0.71571507559E+01  0.80454945581E+01  0.00000000000E+00 0. -1.
</event>
<event>
 7    1  0.2450552E-011  0.5052886E+02  0.7816164E-02  0.1300439E+00
        -11   -1    0    0    0    0  0.00000000000E+00  0.00000000000E+00  0.45593999997E+02  0.45594000000E+02  0.51100000000E-03 0. -1.
         11   -1    0    0    0    0 -0.00000000000E+00 -0.00000000000E+00 -0.45593999997E+02  0.45594000000E+02  0.51100000000E-03 0.  1.
    9900012    2    1    2    0    0 -0.73220503693E+01 -0.42776143181E+01 -0.39765001278E+02  0.50528859177E+02  0.29999997954E+02 0.  0.
         12    1    1    2    0    0  0.73220503693E+01  0.42776143181E+01  0.39765001278E+02  0.40659140823E+02  0.00000000000E+00 0. -1.
         11    1    3    3    0    0  0.23866935690E+01 -0.71744184509E+01 -0.11986663881E+02  0.14172109849E+02  0.51100000000E-03 0.  1.
        -11    1    3    3    0    0  0.28848386486E+01 -0.18879398712E+01  0.17748999282E+01  0.38777417400E+01  0.51100000000E-03 0. -1.
        -12    1    3    3    0    0 -0.12593582587E+02  0.47847440040E+01 -0.29553237325E+02  0.32479007588E+02  0.00000000000E+00 0.  1.
</event>
<event>
 7    1  0.2450552E-011  0.5052886E+02  0.7816164E-02  0.1300439E+00
        -11   -1    0    0    0    0  0.00000000000E+00  0.00000000000E+00  0.45593999997E+02  0.45594000000E+02  0.51100000000E-03 0. -1.
         11   -1    0    0    0    0 -0.00000000000E+00 -0.00000000000E+00 -0.45593999997E+02  0.45594000000E+02  0.51100000000E-03 0.  1.
    9900012    2    1    2    0    0 -0.25480276287E+02  0.25713425244E+02  0.18513254624E+02  0.50528864320E+02  0.30000013588E+02 0.  0.
         12    1    1    2    0    0  0.25480276287E+02 -0.25713425244E+02 -0.18513254624E+02  0.40659135680E+02  0.00000000000E+00 0. -1.
         11    1    3    3    0    0 -0.91231212900E+01 -0.13655204266E+01  0.11312793997E+02  0.14597098903E+02  0.51100000000E-03 0. -1.
        -11    1    3    3    0    0 -0.86099271119E+01  0.21760609987E+02  0.10921184653E+02  0.25824934973E+02  0.51100000000E-03 0.  1.
         12    1    3    3    0    0 -0.77472278854E+01  0.53183356836E+01 -0.37207240260E+01  0.10106830444E+02  0.00000000000E+00 0. -1.
</event>
<event>
 7    1  0.2450552E-011  0.5052884E+02  0.7816164E-02  0.1300439E+00
        -11   -1    0    0    0    0  0.00000000000E+00  0.00000000000E+00  0.45593999997E+02  0.45594000000E+02  0.51100000000E-03 0. -1.
         11   -1    0    0    0    0 -0.00000000000E+00 -0.00000000000E+00 -0.45593999997E+02  0.45594000000E+02  0.51100000000E-03 0.  1.
    9900012    2    1    2    0    0  0.11251957214E+02  0.24716803271E+02 -0.30259546457E+02  0.50528842890E+02  0.29999948449E+02 0.  0.
         12    1    1    2    0    0 -0.11251957214E+02 -0.24716803271E+02  0.30259546457E+02  0.40659157110E+02  0.00000000000E+00 0. -1.
         11    1    3    3    0    0 -0.23512098570E+01 -0.28679823954E+01 -0.19685249564E+01  0.41986428256E+01  0.51100000000E-03 0. -1.
        -11    1    3    3    0    0  0.12855758861E+02  0.54853730656E+01 -0.15129306522E+02  0.20597469982E+02  0.51100000000E-03 0.  1.
        -12    1    3    3    0    0  0.74740821050E+00  0.22099412600E+02 -0.13161714979E+02  0.25732730083E+02  0.00000000000E+00 0.  1.
</event>
<event>
 7    1  0.2450552E-011  0.5052886E+02  0.7816164E-02  0.1300439E+00
        -11   -1    0    0    0    0  0.00000000000E+00  0.00000000000E+00  0.45593999997E+02  0.45594000000E+02  0.51100000000E-03 0.  1.
         11   -1    0    0    0    0 -0.00000000000E+00 -0.00000000000E+00 -0.45593999997E+02  0.45594000000E+02  0.51100000000E-03 0. -1.
    9900012    2    1    2    0    0  0.32646784403E+02 -0.23119218113E+02 -0.72701131522E+01  0.50528864209E+02  0.30000013251E+02 0.  0.
         12    1    1    2    0    0 -0.32646784403E+02  0.23119218113E+02  0.72701131522E+01  0.40659135791E+02  0.00000000000E+00 0. -1.
         11    1    3    3    0    0 -0.14573056192E+00  0.22084724521E+01 -0.50550866580E+01  0.55183774200E+01  0.51100000000E-03 0. -1.
        -11    1    3    3    0    0  0.14326456006E+02 -0.15245103135E+02 -0.91833487897E+01  0.22847196908E+02  0.51100000000E-03 0.  1.
        -12    1    3    3    0    0  0.18466058959E+02 -0.10082587430E+02  0.69683222955E+01  0.22163289881E+02  0.00000000000E+00 0.  1.
</event>
<event>
 7    1  0.2450552E-011  0.5052886E+02  0.7816164E-02  0.1300439E+00
        -11   -1    0    0    0    0  0.00000000000E+00  0.00000000000E+00  0.45593999997E+02  0.45594000000E+02  0.51100000000E-03 0. -1.
         11   -1    0    0    0    0 -0.00000000000E+00 -0.00000000000E+00 -0.45593999997E+02  0.45594000000E+02  0.51100000000E-03 0.  1.
    9900012    2    1    2    0    0 -0.33612392917E+02  0.10092934945E+02 -0.20530587429E+02  0.50528864328E+02  0.30000013610E+02 0.  0.
         12    1    1    2    0    0  0.33612392917E+02 -0.10092934945E+02  0.20530587429E+02  0.40659135672E+02  0.00000000000E+00 0. -1.
         11    1    3    3    0    0 -0.26181986384E+01 -0.21198165922E+01 -0.13756651571E+02  0.14163122862E+02  0.51100000000E-03 0. -1.
        -11    1    3    3    0    0 -0.17731453370E+02  0.11061095082E+01 -0.69200114425E+01  0.19066055582E+02  0.51100000000E-03 0.  1.
         12    1    3    3    0    0 -0.13262740909E+02  0.11106642029E+02  0.14607558415E+00  0.17299685883E+02  0.00000000000E+00 0. -1.
</event>
<event>
 7    1  0.2450552E-011  0.5052881E+02  0.7816164E-02  0.1300439E+00
        -11   -1    0    0    0    0  0.00000000000E+00  0.00000000000E+00  0.45593999997E+02  0.45594000000E+02  0.51100000000E-03 0. -1.
         11   -1    0    0    0    0 -0.00000000000E+00 -0.00000000000E+00 -0.45593999997E+02  0.45594000000E+02  0.51100000000E-03 0.  1.
    9900012    2    1    2    0    0  0.38475521919E+02  0.32438063382E+01  0.12738970775E+02  0.50528813548E+02  0.29999859260E+02 0.  0.
         12    1    1    2    0    0 -0.38475521919E+02 -0.32438063382E+01 -0.12738970775E+02  0.40659186452E+02  0.00000000000E+00 0. -1.
         11    1    3    3    0    0  0.11876283733E+01  0.24124025301E+01 -0.10672173187E+01  0.28929397136E+01  0.51100000000E-03 0.  1.
        -11    1    3    3    0    0  0.30610341935E+02  0.10152222468E+02  0.15938201520E+02  0.35973419665E+02  0.51100000000E-03 0. -1.
         12    1    3    3    0    0  0.66775516108E+01 -0.93208186598E+01 -0.21320134262E+01  0.11662454169E+02  0.00000000000E+00 0. -1.
</event>
<event>
 7    1  0.2450552E-011  0.5052884E+02  0.7816164E-02  0.1300439E+00
        -11   -1    0    0    0    0  0.00000000000E+00  0.00000000000E+00  0.45593999997E+02  0.45594000000E+02  0.51100000000E-03 0.  1.
         11   -1    0    0    0    0 -0.00000000000E+00 -0.00000000000E+00 -0.45593999997E+02  0.45594000000E+02  0.51100000000E-03 0. -1.
    9900012    2    1    2    0    0  0.22453292854E+02  0.64841314275E+01  0.33271199399E+02  0.50528843223E+02  0.29999949461E+02 0.  0.
         12    1    1    2    0    0 -0.22453292854E+02 -0.64841314275E+01 -0.33271199399E+02  0.40659156777E+02  0.00000000000E+00 0. -1.
         11    1    3    3    0    0  0.11799064220E+02 -0.54808279948E+01  0.18998875539E+02  0.23026390599E+02  0.51100000000E-03 0. -1.
        -11    1    3    3    0    0  0.15336318913E+02  0.77852970941E+01  0.97946030121E+01  0.19792619258E+02  0.51100000000E-03 0.  1.
         12    1    3    3    0    0 -0.46820902792E+01  0.41796623282E+01  0.44777208474E+01  0.77098333670E+01  0.00000000000E+00 0. -1.
</event>
<event>
 7    1  0.2450552E-011  0.5052888E+02  0.7816164E-02  0.1300439E+00
        -11   -1    0    0    0    0  0.00000000000E+00  0.00000000000E+00  0.45593999997E+02  0.45594000000E+02  0.51100000000E-03 0.  1.
         11   -1    0    0    0    0 -0.00000000000E+00 -0.00000000000E+00 -0.45593999997E+02  0.45594000000E+02  0.51100000000E-03 0. -1.
    9900012    2    1    2    0    0  0.18818326343E+02  0.14996594818E+02  0.32774029879E+02  0.50528876830E+02  0.30000051611E+02 0.  0.
         12    1    1    2    0    0 -0.18818326343E+02 -0.14996594818E+02 -0.32774029879E+02  0.40659123170E+02  0.00000000000E+00 0. -1.
         11    1    3    3    0    0  0.40923669602E+01 -0.64398464680E+01  0.20159049078E+01  0.78919555705E+01  0.51100000000E-03 0. -1.
        -11    1    3    3    0    0  0.79897240812E+01  0.15395326251E+01  0.11847641293E+02  0.14372628711E+02  0.51100000000E-03 0.  1.
        -12    1    3    3    0    0  0.67362353014E+01  0.19896908661E+02  0.18910483678E+02  0.28264292548E+02  0.00000000000E+00 0.  1.
</event>
<event>
 7    1  0.2450552E-011  0.5052885E+02  0.7816164E-02  0.1300439E+00
        -11   -1    0    0    0    0  0.00000000000E+00  0.00000000000E+00  0.45593999997E+02  0.45594000000E+02  0.51100000000E-03 0.  1.
         11   -1    0    0    0    0 -0.00000000000E+00 -0.00000000000E+00 -0.45593999997E+02  0.45594000000E+02  0.51100000000E-03 0. -1.
    9900012    2    1    2    0    0  0.33094161534E+01  0.28704572565E+01  0.40422454468E+02  0.50528848689E+02  0.29999966075E+02 0.  0.
         12    1    1    2    0    0 -0.33094161534E+01 -0.28704572565E+01 -0.40422454468E+02  0.40659151311E+02  0.00000000000E+00 0. -1.
         11    1    3    3    0    0 -0.96970303071E+01  0.19903466204E+01  0.87685561650E+01  0.13224275176E+02  0.51100000000E-03 0. -1.
        -11    1    3    3    0    0 -0.95223420114E+00 -0.43872804989E+01  0.10492332956E+02  0.11412450713E+02  0.51100000000E-03 0.  1.
         12    1    3    3    0    0  0.13958680662E+02  0.52673911350E+01  0.21161565347E+02  0.25892122800E+02  0.00000000000E+00 0. -1.
</event>
<event>
 7    1  0.2450552E-011  0.5052886E+02  0.7816164E-02  0.1300439E+00
        -11   -1    0    0    0    0  0.00000000000E+00  0.00000000000E+00  0.45593999997E+02  0.45594000000E+02  0.51100000000E-03 0.  1.
         11   -1    0    0    0    0 -0.00000000000E+00 -0.00000000000E+00 -0.45593999997E+02  0.45594000000E+02  0.51100000000E-03 0. -1.
    9900012    2    1    2    0    0 -0.43555317096E+01 -0.20730958818E+02  0.34704785431E+02  0.50528862752E+02  0.30000008820E+02 0.  0.
         12    1    1    2    0    0  0.43555317096E+01  0.20730958818E+02 -0.34704785431E+02  0.40659137248E+02  0.00000000000E+00 0. -1.
         11    1    3    3    0    0 -0.27914157618E+01 -0.66258219684E+01  0.19521766345E+02  0.20803674680E+02  0.51100000000E-03 0.  1.
        -11    1    3    3    0    0  0.84993888049E+01 -0.11526354614E+01  0.83047916336E+01  0.11938917158E+02  0.51100000000E-03 0. -1.
        -12    1    3    3    0    0 -0.10063504753E+02 -0.12952501388E+02  0.68782274519E+01  0.17786270913E+02  0.00000000000E+00 0.  1.
</event>
<event>
 7    1  0.2450552E-011  0.5052886E+02  0.7816164E-02  0.1300439E+00
        -11   -1    0    0    0    0  0.00000000000E+00  0.00000000000E+00  0.45593999997E+02  0.45594000000E+02  0.51100000000E-03 0.  1.
         11   -1    0    0    0    0 -0.00000000000E+00 -0.00000000000E+00 -0.45593999997E+02  0.45594000000E+02  0.51100000000E-03 0. -1.
    9900012    2    1    2    0    0  0.25320686698E+02  0.28451501233E+02  0.14231681100E+02  0.50528857803E+02  0.29999993778E+02 0.  0.
         12    1    1    2    0    0 -0.25320686698E+02 -0.28451501233E+02 -0.14231681100E+02  0.40659142197E+02  0.00000000000E+00 0. -1.
         11    1    3    3    0    0 -0.40900477959E+01  0.65840665630E+01 -0.17768156205E+01  0.79520750430E+01  0.51100000000E-03 0. -1.
        -11    1    3    3    0    0  0.92179181281E+01  0.15896218284E+02  0.67855371794E+01  0.19588345653E+02  0.51100000000E-03 0.  1.
        -12    1    3    3    0    0  0.20192816366E+02  0.59712163860E+01  0.92229595407E+01  0.22988437107E+02  0.00000000000E+00 0.  1.
</event>
<event>
 7    1  0.2450552E-011  0.5052885E+02  0.7816164E-02  0.1300439E+00
        -11   -1    0    0    0    0  0.00000000000E+00  0.00000000000E+00  0.45593999997E+02  0.45594000000E+02  0.51100000000E-03 0.  1.
         11   -1    0    0    0    0 -0.00000000000E+00 -0.00000000000E+00 -0.45593999997E+02  0.45594000000E+02  0.51100000000E-03 0. -1.
    9900012    2    1    2    0    0 -0.26214470298E+02 -0.30095745507E+02  0.77597558632E+01  0.50528853899E+02  0.29999981910E+02 0.  0.
         12    1    1    2    0    0  0.26214470298E+02  0.30095745507E+02 -0.77597558632E+01  0.40659146101E+02  0.00000000000E+00 0. -1.
         11    1    3    3    0    0 -0.27209480062E+01  0.96271749591E-01 -0.18660308800E+01  0.33007420088E+01  0.51100000000E-03 0. -1.
        -11    1    3    3    0    0  0.49231672602E+01 -0.10394420594E+02  0.37695857738E+01  0.12103360382E+02  0.51100000000E-03 0.  1.
        -12    1    3    3    0    0 -0.28416689552E+02 -0.19797596663E+02  0.58562009695E+01  0.35124751508E+02  0.00000000000E+00 0.  1.
</event>
<event>
 7    1  0.2450552E-011  0.5052886E+02  0.7816164E-02  0.1300439E+00
        -11   -1    0    0    0    0  0.00000000000E+00  0.00000000000E+00  0.45593999997E+02  0.45594000000E+02  0.51100000000E-03 0. -1.
         11   -1    0    0    0    0 -0.00000000000E+00 -0.00000000000E+00 -0.45593999997E+02  0.45594000000E+02  0.51100000000E-03 0.  1.
    9900012    2    1    2    0    0 -0.14664164016E+02  0.24368087724E+02 -0.29057252467E+02  0.50528864168E+02  0.30000013126E+02 0.  0.
         12    1    1    2    0    0  0.14664164016E+02 -0.24368087724E+02  0.29057252467E+02  0.40659135832E+02  0.00000000000E+00 0. -1.
         11    1    3    3    0    0  0.18413966942E+01  0.20598908546E+02 -0.12039239424E+02  0.23930086945E+02  0.51100000000E-03 0. -1.
        -11    1    3    3    0    0 -0.26915235136E+01  0.21737132259E+01  0.12161391425E+01  0.36671954799E+01  0.51100000000E-03 0.  1.
        -12    1    3    3    0    0 -0.13814037197E+02  0.15954659528E+01 -0.18234152186E+02  0.22931581743E+02  0.00000000000E+00 0.  1.
</event>
<event>
 7    1  0.2450552E-011  0.5052887E+02  0.7816164E-02  0.1300439E+00
        -11   -1    0    0    0    0  0.00000000000E+00  0.00000000000E+00  0.45593999997E+02  0.45594000000E+02  0.51100000000E-03 0.  1.
         11   -1    0    0    0    0 -0.00000000000E+00 -0.00000000000E+00 -0.45593999997E+02  0.45594000000E+02  0.51100000000E-03 0. -1.
    9900012    2    1    2    0    0 -0.47564137954E+01 -0.28584091520E+02  0.28521763934E+02  0.50528870913E+02  0.30000033627E+02 0.  0.
         12    1    1    2    0    0  0.47564137954E+01  0.28584091520E+02 -0.28521763934E+02  0.40659129087E+02  0.00000000000E+00 0. -1.
         11    1    3    3    0    0  0.24713712694E+01 -0.17245671551E+02  0.13596805921E+02  0.22099637886E+02  0.51100000000E-03 0. -1.
        -11    1    3    3    0    0  0.52427742966E+01 -0.61098523843E+01 -0.31239188965E+00  0.80569577036E+01  0.51100000000E-03 0.  1.
         12    1    3    3    0    0 -0.12470559361E+02 -0.52285675843E+01  0.15237349903E+02  0.20372275323E+02  0.00000000000E+00 0. -1.
</event>
<event>
 7    1  0.2742758E-011  0.5052886E+02  0.7816164E-02  0.1300439E+00
        -11   -1    0    0    0    0  0.00000000000E+00  0.00000000000E+00  0.45593999997E+02  0.45594000000E+02  0.51100000000E-03 0.  1.
         11   -1    0    0    0    0 -0.00000000000E+00 -0.00000000000E+00 -0.45593999997E+02  0.45594000000E+02  0.51100000000E-03 0. -1.
    9900012    2    1    2    0    0  0.37980142176E+02  0.76500646065E+01  0.12334957113E+02  0.50528857668E+02  0.29999993369E+02 0.  0.
         12    1    1    2    0    0 -0.37980142176E+02 -0.76500646065E+01 -0.12334957113E+02  0.40659142332E+02  0.00000000000E+00 0. -1.
         11    1    3    3    0    0 -0.18298088427E+01 -0.11816480928E+01 -0.19422533355E+01  0.29183627081E+01  0.51100000000E-03 0. -1.
        -11    1    3    3    0    0  0.94653830192E+01  0.88082548323E+01  0.11207550489E+02  0.17111049562E+02  0.51100000000E-03 0.  1.
        -12    1    3    3    0    0  0.30344567999E+02  0.23457867074E-01  0.30696599590E+01  0.30499445398E+02  0.00000000000E+00 0.  1.
</event>
<event>
 7    1  0.2450552E-011  0.5052886E+02  0.7816164E-02  0.1300439E+00
        -11   -1    0    0    0    0  0.00000000000E+00  0.00000000000E+00  0.45593999997E+02  0.45594000000E+02  0.51100000000E-03 0.  1.
         11   -1    0    0    0    0 -0.00000000000E+00 -0.00000000000E+00 -0.45593999997E+02  0.45594000000E+02  0.51100000000E-03 0. -1.
    9900012    2    1    2    0    0  0.12630712905E+02  0.25551966890E+02  0.28995311719E+02  0.50528855615E+02  0.29999987127E+02 0.  0.
         12    1    1    2    0    0 -0.12630712905E+02 -0.25551966890E+02 -0.28995311719E+02  0.40659144385E+02  0.00000000000E+00 0. -1.
         11    1    3    3    0    0 -0.53270321417E+01 -0.10731234736E+01  0.94264676174E+01  0.10880586263E+02  0.51100000000E-03 0. -1.
        -11    1    3    3    0    0  0.33363390509E+01  0.10215936968E+02  0.12667050817E+02  0.16611763996E+02  0.51100000000E-03 0.  1.
        -12    1    3    3    0    0  0.14621405996E+02  0.16409153396E+02  0.69017932848E+01  0.23036505356E+02  0.00000000000E+00 0.  1.
</event>
<event>
 7    1  0.2450552E-011  0.5052887E+02  0.7816164E-02  0.1300439E+00
        -11   -1    0    0    0    0  0.00000000000E+00  0.00000000000E+00  0.45593999997E+02  0.45594000000E+02  0.51100000000E-03 0. -1.
         11   -1    0    0    0    0 -0.00000000000E+00 -0.00000000000E+00 -0.45593999997E+02  0.45594000000E+02  0.51100000000E-03 0.  1.
    9900012    2    1    2    0    0 -0.28326326106E+02  0.25620922433E+02 -0.13941038442E+02  0.50528868555E+02  0.30000026461E+02 0.  0.
         12    1    1    2    0    0  0.28326326106E+02 -0.25620922433E+02  0.13941038442E+02  0.40659131445E+02  0.00000000000E+00 0. -1.
         11    1    3    3    0    0  0.61826209885E-01  0.21357717574E+01  0.60683483310E+01  0.64335212138E+01  0.51100000000E-03 0. -1.
        -11    1    3    3    0    0 -0.10648443689E+02  0.10813121827E+02 -0.10649942765E+01  0.15213387845E+02  0.51100000000E-03 0.  1.
        -12    1    3    3    0    0 -0.17739708627E+02  0.12672028848E+02 -0.18944392496E+02  0.28881959497E+02  0.00000000000E+00 0.  1.
</event>
<event>
 7    1  0.2450552E-011  0.5052887E+02  0.7816164E-02  0.1300439E+00
        -11   -1    0    0    0    0  0.00000000000E+00  0.00000000000E+00  0.45593999997E+02  0.45594000000E+02  0.51100000000E-03 0.  1.
         11   -1    0    0    0    0 -0.00000000000E+00 -0.00000000000E+00 -0.45593999997E+02  0.45594000000E+02  0.51100000000E-03 0. -1.
    9900012    2    1    2    0    0  0.21663909096E+02 -0.29003305570E+02 -0.18510757001E+02  0.50528870446E+02  0.30000032209E+02 0.  0.
         12    1    1    2    0    0 -0.21663909096E+02  0.29003305570E+02  0.18510757001E+02  0.40659129554E+02  0.00000000000E+00 0. -1.
         11    1    3    3    0    0  0.13016562863E+01 -0.58782423069E+01 -0.75919102803E+01  0.96894346415E+01  0.51100000000E-03 0. -1.
        -11    1    3    3    0    0  0.11654480185E+02 -0.36618780513E+01 -0.14774985644E+02  0.19171240447E+02  0.51100000000E-03 0.  1.
        -12    1    3    3    0    0  0.87077726244E+01 -0.19463185212E+02  0.38561389226E+01  0.21668195358E+02  0.00000000000E+00 0.  1.
</event>
<event>
 7    1  0.2450552E-011  0.5052887E+02  0.7816164E-02  0.1300439E+00
        -11   -1    0    0    0    0  0.00000000000E+00  0.00000000000E+00  0.45593999997E+02  0.45594000000E+02  0.51100000000E-03 0.  1.
         11   -1    0    0    0    0 -0.00000000000E+00 -0.00000000000E+00 -0.45593999997E+02  0.45594000000E+02  0.51100000000E-03 0. -1.
    9900012    2    1    2    0    0 -0.19507038189E+01  0.38237158601E+02  0.13684992097E+02  0.50528873694E+02  0.30000042080E+02 0.  0.
         12    1    1    2    0    0  0.19507038189E+01 -0.38237158601E+02 -0.13684992097E+02  0.40659126306E+02  0.00000000000E+00 0. -1.
         11    1    3    3    0    0  0.29758513331E+01 -0.24571802516E+01 -0.12106659692E+00  0.38610987202E+01  0.51100000000E-03 0. -1.
        -11    1    3    3    0    0  0.59119537787E+01  0.23296821567E+02  0.85080641937E+01  0.25496671336E+02  0.51100000000E-03 0.  1.
         12    1    3    3    0    0 -0.10838508931E+02  0.17397517285E+02  0.52979945005E+01  0.21171103638E+02  0.00000000000E+00 0. -1.
</event>
<event>
 7    1  0.2450552E-011  0.5052888E+02  0.7816164E-02  0.1300439E+00
        -11   -1    0    0    0    0  0.00000000000E+00  0.00000000000E+00  0.45593999997E+02  0.45594000000E+02  0.51100000000E-03 0.  1.
         11   -1    0    0    0    0 -0.00000000000E+00 -0.00000000000E+00 -0.45593999997E+02  0.45594000000E+02  0.51100000000E-03 0. -1.
    9900012    2    1    2    0    0 -0.45754042291E+00  0.38646118152E+02 -0.12626637585E+02  0.50528883333E+02  0.30000071379E+02 0.  0.
         12    1    1    2    0    0  0.45754042291E+00 -0.38646118152E+02  0.12626637585E+02  0.40659116667E+02  0.00000000000E+00 0. -1.
         11    1    3    3    0    0  0.60486755628E+01  0.61060266029E+01 -0.42219182677E+01  0.95757313590E+01  0.51100000000E-03 0. -1.
        -11    1    3    3    0    0 -0.28719591287E+01  0.31359173489E+01 -0.10422526414E+02  0.11256606237E+02  0.51100000000E-03 0.  1.
        -12    1    3    3    0    0 -0.36342568570E+01  0.29404174200E+02  0.20178070967E+01  0.29696545738E+02  0.00000000000E+00 0.  1.
</event>
<event>
 7    1  0.2450552E-011  0.5052886E+02  0.7816164E-02  0.1300439E+00
        -11   -1    0    0    0    0  0.00000000000E+00  0.00000000000E+00  0.45593999997E+02  0.45594000000E+02  0.51100000000E-03 0.  1.
         11   -1    0    0    0    0 -0.00000000000E+00 -0.00000000000E+00 -0.45593999997E+02  0.45594000000E+02  0.51100000000E-03 0. -1.
    9900012    2    1    2    0    0  0.28290693542E+02 -0.77328369803E+01  0.28160350417E+02  0.50528862719E+02  0.30000008721E+02 0.  0.
         12    1    1    2    0    0 -0.28290693542E+02  0.77328369803E+01 -0.28160350417E+02  0.40659137281E+02  0.00000000000E+00 0. -1.
         11    1    3    3    0    0 -0.99069677503E+00 -0.28670396089E+01 -0.62599100984E+00  0.30972990209E+01  0.51100000000E-03 0. -1.
        -11    1    3    3    0    0  0.42925404313E+01 -0.43019314445E+01 -0.31753813675E+01  0.68567896714E+01  0.51100000000E-03 0.  1.
        -12    1    3    3    0    0  0.24988849885E+02 -0.56386592681E+00  0.31961722794E+02  0.40574774027E+02  0.00000000000E+00 0.  1.
</event>
<event>
 7    1  0.4299718E-011  0.5052886E+02  0.7816164E-02  0.1300439E+00
        -11   -1    0    0    0    0  0.00000000000E+00  0.00000000000E+00  0.45593999997E+02  0.45594000000E+02  0.51100000000E-03 0. -1.
         11   -1    0    0    0    0 -0.00000000000E+00 -0.00000000000E+00 -0.45593999997E+02  0.45594000000E+02  0.51100000000E-03 0.  1.
    9900012    2    1    2    0    0 -0.41918231864E+00 -0.15366744589E+02 -0.37641112765E+02  0.50528856830E+02  0.29999990821E+02 0.  0.
         12    1    1    2    0    0  0.41918231864E+00  0.15366744589E+02  0.37641112765E+02  0.40659143170E+02  0.00000000000E+00 0. -1.
         11    1    3    3    0    0 -0.57867524819E-01  0.28516558064E+01 -0.69902731974E+00  0.29366526767E+01  0.51100000000E-03 0. -1.
        -11    1    3    3    0    0 -0.11135729385E+02 -0.10631128606E+02 -0.12528550223E+02  0.19849179714E+02  0.51100000000E-03 0.  1.
        -12    1    3    3    0    0  0.10774414591E+02 -0.75872717894E+01 -0.24413535223E+02  0.27743024439E+02  0.00000000000E+00 0.  1.
</event>
<event>
 7    1  0.2450552E-011  0.5052887E+02  0.7816164E-02  0.1300439E+00
        -11   -1    0    0    0    0  0.00000000000E+00  0.00000000000E+00  0.45593999997E+02  0.45594000000E+02  0.51100000000E-03 0.  1.
         11   -1    0    0    0    0 -0.00000000000E+00 -0.00000000000E+00 -0.45593999997E+02  0.45594000000E+02  0.51100000000E-03 0. -1.
    9900012    2    1    2    0    0  0.85610141435E+01 -0.26695903131E+02  0.29448301558E+02  0.50528872220E+02  0.30000037601E+02 0.  0.
         12    1    1    2    0    0 -0.85610141435E+01  0.26695903131E+02 -0.29448301558E+02  0.40659127780E+02  0.00000000000E+00 0. -1.
         11    1    3    3    0    0 -0.92254403655E+00  0.16582735689E+00  0.10413130234E+02  0.10455231597E+02  0.51100000000E-03 0. -1.
        -11    1    3    3    0    0 -0.51182482409E+01 -0.86793619955E+01  0.16835388466E+00  0.10077506289E+02  0.51100000000E-03 0.  1.
        -12    1    3    3    0    0  0.14601806421E+02 -0.18182368492E+02  0.18866817440E+02  0.29996134335E+02  0.00000000000E+00 0.  1.
</event>
<event>
 7    1  0.2450552E-011  0.5052884E+02  0.7816164E-02  0.1300439E+00
        -11   -1    0    0    0    0  0.00000000000E+00  0.00000000000E+00  0.45593999997E+02  0.45594000000E+02  0.51100000000E-03 0. -1.
         11   -1    0    0    0    0 -0.00000000000E+00 -0.00000000000E+00 -0.45593999997E+02  0.45594000000E+02  0.51100000000E-03 0.  1.
    9900012    2    1    2    0    0 -0.10311419748E+02 -0.11492109279E+02 -0.37613469588E+02  0.50528843007E+02  0.29999948805E+02 0.  0.
         12    1    1    2    0    0  0.10311419748E+02  0.11492109279E+02  0.37613469588E+02  0.40659156993E+02  0.00000000000E+00 0. -1.
         11    1    3    3    0    0  0.18737048976E+01  0.14380558244E+01 -0.15167274834E+02  0.15350081458E+02  0.51100000000E-03 0.  1.
        -11    1    3    3    0    0 -0.15684767906E+02 -0.34503217126E+01 -0.18045495513E+02  0.24156915630E+02  0.51100000000E-03 0. -1.
         12    1    3    3    0    0  0.34996432600E+01 -0.94798433908E+01 -0.44006992403E+01  0.11021845919E+02  0.00000000000E+00 0. -1.
</event>
<event>
 7    1  0.2450552E-011  0.5052887E+02  0.7816164E-02  0.1300439E+00
        -11   -1    0    0    0    0  0.00000000000E+00  0.00000000000E+00  0.45593999997E+02  0.45594000000E+02  0.51100000000E-03 0. -1.
         11   -1    0    0    0    0 -0.00000000000E+00 -0.00000000000E+00 -0.45593999997E+02  0.45594000000E+02  0.51100000000E-03 0.  1.
    9900012    2    1    2    0    0 -0.79321255501E+01 -0.28115597538E+02 -0.28280019524E+02  0.50528868862E+02  0.30000027392E+02 0.  0.
         12    1    1    2    0    0  0.79321255501E+01  0.28115597538E+02  0.28280019524E+02  0.40659131138E+02  0.00000000000E+00 0. -1.
         11    1    3    3    0    0 -0.76239855464E+00  0.11389742384E+00  0.18889378656E+01  0.20401741839E+01  0.51100000000E-03 0. -1.
        -11    1    3    3    0    0 -0.12274590361E+02 -0.18989162157E+02 -0.80879539763E+01  0.24013930285E+02  0.51100000000E-03 0.  1.
        -12    1    3    3    0    0  0.51048633659E+01 -0.92403328048E+01 -0.22081003413E+02  0.24474764392E+02  0.00000000000E+00 0.  1.
</event>
<event>
 7    1  0.2450552E-011  0.5052886E+02  0.7816164E-02  0.1300439E+00
        -11   -1    0    0    0    0  0.00000000000E+00  0.00000000000E+00  0.45593999997E+02  0.45594000000E+02  0.51100000000E-03 0.  1.
         11   -1    0    0    0    0 -0.00000000000E+00 -0.00000000000E+00 -0.45593999997E+02  0.45594000000E+02  0.51100000000E-03 0. -1.
    9900012    2    1    2    0    0 -0.24133499907E+02 -0.32496852014E+02  0.38333054370E+01  0.50528862784E+02  0.30000008917E+02 0.  0.
         12    1    1    2    0    0  0.24133499907E+02  0.32496852014E+02 -0.38333054370E+01  0.40659137216E+02  0.00000000000E+00 0. -1.
         11    1    3    3    0    0 -0.51592752535E+01 -0.12294219269E+00 -0.68036771560E+01  0.85395116387E+01  0.51100000000E-03 0. -1.
        -11    1    3    3    0    0 -0.12882391126E+02 -0.14112840075E+02 -0.16058207417E+01  0.19175685558E+02  0.51100000000E-03 0.  1.
         12    1    3    3    0    0 -0.60918335277E+01 -0.18261069747E+02  0.12242803335E+02  0.22813665587E+02  0.00000000000E+00 0. -1.
</event>
<event>
 7    1  0.2450552E-011  0.5052886E+02  0.7816164E-02  0.1300439E+00
        -11   -1    0    0    0    0  0.00000000000E+00  0.00000000000E+00  0.45593999997E+02  0.45594000000E+02  0.51100000000E-03 0.  1.
         11   -1    0    0    0    0 -0.00000000000E+00 -0.00000000000E+00 -0.45593999997E+02  0.45594000000E+02  0.51100000000E-03 0. -1.
    9900012    2    1    2    0    0 -0.23166266144E+02 -0.41040864006E+01  0.33160914811E+02  0.50528859782E+02  0.29999999792E+02 0.  0.
         12    1    1    2    0    0  0.23166266144E+02  0.41040864006E+01 -0.33160914811E+02  0.40659140218E+02  0.00000000000E+00 0. -1.
         11    1    3    3    0    0 -0.10873121366E+02  0.12266397769E+01  0.23806848321E+01  0.11198083493E+02  0.51100000000E-03 0. -1.
        -11    1    3    3    0    0 -0.15455402764E+02  0.19946795764E+01  0.25071685826E+02  0.29520122825E+02  0.51100000000E-03 0.  1.
        -12    1    3    3    0    0  0.31622579867E+01 -0.73254057539E+01  0.57085441528E+01  0.98106534633E+01  0.00000000000E+00 0.  1.
</event>
<event>
 7    1  0.2450552E-011  0.5052886E+02  0.7816164E-02  0.1300439E+00
        -11   -1    0    0    0    0  0.00000000000E+00  0.00000000000E+00  0.45593999997E+02  0.45594000000E+02  0.51100000000E-03 0.  1.
         11   -1    0    0    0    0 -0.00000000000E+00 -0.00000000000E+00 -0.45593999997E+02  0.45594000000E+02  0.51100000000E-03 0. -1.
    9900012    2    1    2    0    0 -0.19138174691E+02  0.25647109399E+02  0.25082301358E+02  0.50528858440E+02  0.29999995714E+02 0.  0.
         12    1    1    2    0    0  0.19138174691E+02 -0.25647109399E+02 -0.25082301358E+02  0.40659141560E+02  0.00000000000E+00 0. -1.
         11    1    3    3    0    0 -0.16617899170E+02  0.50733595226E+01  0.10549539322E+02  0.20326985262E+02  0.51100000000E-03 0. -1.
        -11    1    3    3    0    0 -0.54077986732E+01  0.10453239142E+02  0.15690585009E+02  0.19613998909E+02  0.51100000000E-03 0.  1.
         12    1    3    3    0    0  0.28875231528E+01  0.10120510735E+02 -0.11578229732E+01  0.10587874268E+02  0.00000000000E+00 0. -1.
</event>
<event>
 7    1  0.2450552E-011  0.5052885E+02  0.7816164E-02  0.1300439E+00
        -11   -1    0    0    0    0  0.00000000000E+00  0.00000000000E+00  0.45593999997E+02  0.45594000000E+02  0.51100000000E-03 0.  1.
         11   -1    0    0    0    0 -0.00000000000E+00 -0.00000000000E+00 -0.45593999997E+02  0.45594000000E+02  0.51100000000E-03 0. -1.
    9900012    2    1    2    0    0  0.14911022879E+02  0.24579772563E+02  0.28751738336E+02  0.50528852445E+02  0.29999977491E+02 0.  0.
         12    1    1    2    0    0 -0.14911022879E+02 -0.24579772563E+02 -0.28751738336E+02  0.40659147555E+02  0.00000000000E+00 0. -1.
         11    1    3    3    0    0 -0.14885453760E+01  0.14013696513E+02  0.19129781276E+01  0.14221777064E+02  0.51100000000E-03 0. -1.
        -11    1    3    3    0    0  0.83712250510E+00 -0.28507400389E+01  0.68831468602E+00  0.30497983910E+01  0.51100000000E-03 0.  1.
         12    1    3    3    0    0  0.15562445750E+02  0.13416816089E+02  0.26150445523E+02  0.33257276989E+02  0.00000000000E+00 0. -1.
</event>
<event>
 7    1  0.2450552E-011  0.5052881E+02  0.7816164E-02  0.1300439E+00
        -11   -1    0    0    0    0  0.00000000000E+00  0.00000000000E+00  0.45593999997E+02  0.45594000000E+02  0.51100000000E-03 0.  1.
         11   -1    0    0    0    0 -0.00000000000E+00 -0.00000000000E+00 -0.45593999997E+02  0.45594000000E+02  0.51100000000E-03 0. -1.
    9900012    2    1    2    0    0 -0.36044351060E+02 -0.11247297125E+02  0.15082196422E+02  0.50528811802E+02  0.29999853954E+02 0.  0.
         12    1    1    2    0    0  0.36044351060E+02  0.11247297125E+02 -0.15082196422E+02  0.40659188198E+02  0.00000000000E+00 0. -1.
         11    1    3    3    0    0 -0.25370249104E+02 -0.13740569876E+02  0.17616690612E+02  0.33805333729E+02  0.51100000000E-03 0. -1.
        -11    1    3    3    0    0 -0.11205875784E+02  0.10743730910E+01  0.24439868385E+01  0.11519505265E+02  0.51100000000E-03 0.  1.
         12    1    3    3    0    0  0.53177382773E+00  0.14188996598E+01 -0.49784810279E+01  0.52039728086E+01  0.00000000000E+00 0. -1.
</event>
<event>
 7    1  0.2450552E-011  0.5052893E+02  0.7816164E-02  0.1300439E+00
        -11   -1    0    0    0    0  0.00000000000E+00  0.00000000000E+00  0.45593999997E+02  0.45594000000E+02  0.51100000000E-03 0.  1.
         11   -1    0    0    0    0 -0.00000000000E+00 -0.00000000000E+00 -0.45593999997E+02  0.45594000000E+02  0.51100000000E-03 0. -1.
    9900012    2    1    2    0    0  0.24683068497E+02 -0.32202622620E+02 -0.26262750813E+01  0.50528928505E+02  0.30000208684E+02 0.  0.
         12    1    1    2    0    0 -0.24683068497E+02  0.32202622620E+02  0.26262750813E+01  0.40659071495E+02  0.00000000000E+00 0. -1.
         11    1    3    3    0    0 -0.68235134694E+00 -0.16187312309E+01  0.48880191137E+01  0.51940952316E+01  0.51100000000E-03 0. -1.
        -11    1    3    3    0    0  0.13531643859E+02 -0.30698179032E+01  0.17460835164E+01  0.13984919571E+02  0.51100000000E-03 0.  1.
        -12    1    3    3    0    0  0.11833775985E+02 -0.27514073486E+02 -0.92603777114E+01  0.31349913703E+02  0.00000000000E+00 0.  1.
</event>
<event>
 7    1  0.2450552E-011  0.5052886E+02  0.7816164E-02  0.1300439E+00
        -11   -1    0    0    0    0  0.00000000000E+00  0.00000000000E+00  0.45593999997E+02  0.45594000000E+02  0.51100000000E-03 0. -1.
         11   -1    0    0    0    0 -0.00000000000E+00 -0.00000000000E+00 -0.45593999997E+02  0.45594000000E+02  0.51100000000E-03 0.  1.
    9900012    2    1    2    0    0 -0.37422551761E+02 -0.48821362935E+01  0.15128888301E+02  0.50528857162E+02  0.29999991830E+02 0.  0.
         12    1    1    2    0    0  0.37422551761E+02  0.48821362935E+01 -0.15128888301E+02  0.40659142838E+02  0.00000000000E+00 0. -1.
         11    1    3    3    0    0 -0.82341222116E+01  0.27616101794E+01  0.17307536608E+01  0.88556630398E+01  0.51100000000E-03 0. -1.
        -11    1    3    3    0    0 -0.16460230886E+02  0.83660248826E+01  0.98081872710E+01  0.20907656755E+02  0.51100000000E-03 0.  1.
         12    1    3    3    0    0 -0.12728198663E+02 -0.16009771355E+02  0.35899473695E+01  0.20765537368E+02  0.00000000000E+00 0. -1.
</event>
<event>
 7    1  0.2450552E-011  0.5052887E+02  0.7816164E-02  0.1300439E+00
        -11   -1    0    0    0    0  0.00000000000E+00  0.00000000000E+00  0.45593999997E+02  0.45594000000E+02  0.51100000000E-03 0.  1.
         11   -1    0    0    0    0 -0.00000000000E+00 -0.00000000000E+00 -0.45593999997E+02  0.45594000000E+02  0.51100000000E-03 0. -1.
    9900012    2    1    2    0    0  0.18682535378E+02 -0.35347379189E+02  0.73952793266E+01  0.50528874333E+02  0.30000044023E+02 0.  0.
         12    1    1    2    0    0 -0.18682535378E+02  0.35347379189E+02 -0.73952793266E+01  0.40659125667E+02  0.00000000000E+00 0. -1.
         11    1    3    3    0    0  0.97660784865E+01 -0.37632116547E+01  0.56345011064E+01  0.11886364202E+02  0.51100000000E-03 0. -1.
        -11    1    3    3    0    0  0.75728001005E+01 -0.34520445513E+02  0.20483337516E+01  0.35400623316E+02  0.51100000000E-03 0.  1.
         12    1    3    3    0    0  0.13436567905E+01  0.29362779785E+01 -0.28755553139E+00  0.32418868150E+01  0.00000000000E+00 0. -1.
</event>
<event>
 7    1  0.2450552E-011  0.5052886E+02  0.7816164E-02  0.1300439E+00
        -11   -1    0    0    0    0  0.00000000000E+00  0.00000000000E+00  0.45593999997E+02  0.45594000000E+02  0.51100000000E-03 0. -1.
         11   -1    0    0    0    0 -0.00000000000E+00 -0.00000000000E+00 -0.45593999997E+02  0.45594000000E+02  0.51100000000E-03 0.  1.
    9900012    2    1    2    0    0 -0.53018343822E-01 -0.18351750722E+02 -0.36281902815E+02  0.50528855427E+02  0.29999986556E+02 0.  0.
         12    1    1    2    0    0  0.53018343822E-01  0.18351750722E+02  0.36281902815E+02  0.40659144573E+02  0.00000000000E+00 0. -1.
         11    1    3    3    0    0 -0.83218522549E+01 -0.77912777751E+01 -0.45633025262E+01  0.12279290066E+02  0.51100000000E-03 0. -1.
        -11    1    3    3    0    0  0.50149416268E+01 -0.14817802818E+02 -0.20230370475E+02  0.25573126709E+02  0.51100000000E-03 0.  1.
        -12    1    3    3    0    0  0.32538922842E+01  0.42573298708E+01 -0.11488229814E+02  0.12676438652E+02  0.00000000000E+00 0.  1.
</event>
<event>
 7    1  0.2450552E-011  0.5052887E+02  0.7816164E-02  0.1300439E+00
        -11   -1    0    0    0    0  0.00000000000E+00  0.00000000000E+00  0.45593999997E+02  0.45594000000E+02  0.51100000000E-03 0.  1.
         11   -1    0    0    0    0 -0.00000000000E+00 -0.00000000000E+00 -0.45593999997E+02  0.45594000000E+02  0.51100000000E-03 0. -1.
    9900012    2    1    2    0    0  0.35836575751E+02 -0.75527592084E+01  0.17659581044E+02  0.50528866514E+02  0.30000020256E+02 0.  0.
         12    1    1    2    0    0 -0.35836575751E+02  0.75527592084E+01 -0.17659581044E+02  0.40659133486E+02  0.00000000000E+00 0. -1.
         11    1    3    3    0    0 -0.33045859943E+00 -0.13961411328E+01  0.37361254561E+01  0.40021302620E+01  0.51100000000E-03 0. -1.
        -11    1    3    3    0    0  0.19108956699E+02  0.63752923414E+01  0.15328921300E+02  0.25313482713E+02  0.51100000000E-03 0.  1.
         12    1    3    3    0    0  0.17058077651E+02 -0.12531910417E+02 -0.14054657126E+01  0.21213253539E+02  0.00000000000E+00 0. -1.
</event>
<event>
 7    1  0.2450552E-011  0.5052886E+02  0.7816164E-02  0.1300439E+00
        -11   -1    0    0    0    0  0.00000000000E+00  0.00000000000E+00  0.45593999997E+02  0.45594000000E+02  0.51100000000E-03 0.  1.
         11   -1    0    0    0    0 -0.00000000000E+00 -0.00000000000E+00 -0.45593999997E+02  0.45594000000E+02  0.51100000000E-03 0. -1.
    9900012    2    1    2    0    0  0.11514653107E+02 -0.16964270432E+02  0.35111134220E+02  0.50528862606E+02  0.30000008376E+02 0.  0.
         12    1    1    2    0    0 -0.11514653107E+02  0.16964270432E+02 -0.35111134220E+02  0.40659137394E+02  0.00000000000E+00 0. -1.
         11    1    3    3    0    0 -0.41255772327E+01 -0.24593690410E+01  0.12530571171E+01  0.49637723540E+01  0.51100000000E-03 0. -1.
        -11    1    3    3    0    0  0.59598730057E+01 -0.16016549594E+02  0.10063723875E+02  0.19832510825E+02  0.51100000000E-03 0.  1.
        -12    1    3    3    0    0  0.96803573336E+01  0.15116482033E+01  0.23794353228E+02  0.25732579426E+02  0.00000000000E+00 0.  1.
</event>
<event>
 7    1  0.2450552E-011  0.5052886E+02  0.7816164E-02  0.1300439E+00
        -11   -1    0    0    0    0  0.00000000000E+00  0.00000000000E+00  0.45593999997E+02  0.45594000000E+02  0.51100000000E-03 0.  1.
         11   -1    0    0    0    0 -0.00000000000E+00 -0.00000000000E+00 -0.45593999997E+02  0.45594000000E+02  0.51100000000E-03 0. -1.
    9900012    2    1    2    0    0  0.18076639535E+02  0.34912476295E+02  0.10369176260E+02  0.50528859401E+02  0.29999998636E+02 0.  0.
         12    1    1    2    0    0 -0.18076639535E+02 -0.34912476295E+02 -0.10369176260E+02  0.40659140599E+02  0.00000000000E+00 0. -1.
         11    1    3    3    0    0  0.50419200163E+01  0.43354294661E+01 -0.66435819532E+01  0.93996855020E+01  0.51100000000E-03 0. -1.
        -11    1    3    3    0    0  0.90326875141E+01  0.19267197803E+02  0.12443955088E+01  0.21315789344E+02  0.51100000000E-03 0.  1.
         12    1    3    3    0    0  0.40020320043E+01  0.11309849026E+02  0.15768362704E+02  0.19813384555E+02  0.00000000000E+00 0. -1.
</event>
<event>
 7    1  0.2450552E-011  0.5052887E+02  0.7816164E-02  0.1300439E+00
        -11   -1    0    0    0    0  0.00000000000E+00  0.00000000000E+00  0.45593999997E+02  0.45594000000E+02  0.51100000000E-03 0. -1.
         11   -1    0    0    0    0 -0.00000000000E+00 -0.00000000000E+00 -0.45593999997E+02  0.45594000000E+02  0.51100000000E-03 0.  1.
    9900012    2    1    2    0    0 -0.30452592293E+02  0.24794060169E+02 -0.10538464334E+02  0.50528867846E+02  0.30000024305E+02 0.  0.
         12    1    1    2    0    0  0.30452592293E+02 -0.24794060169E+02  0.10538464334E+02  0.40659132154E+02  0.00000000000E+00 0. -1.
         11    1    3    3    0    0 -0.22468086289E+01 -0.38733994855E+01  0.24757050456E+01  0.51166872410E+01  0.51100000000E-03 0. -1.
        -11    1    3    3    0    0 -0.98949823993E+01  0.10841069769E+02  0.33648813449E+01  0.15058615380E+02  0.51100000000E-03 0.  1.
         12    1    3    3    0    0 -0.18310801264E+02  0.17826389885E+02 -0.16379050725E+02  0.30353565225E+02  0.00000000000E+00 0. -1.
</event>
<event>
 7    1  0.2450552E-011  0.5052887E+02  0.7816164E-02  0.1300439E+00
        -11   -1    0    0    0    0  0.00000000000E+00  0.00000000000E+00  0.45593999997E+02  0.45594000000E+02  0.51100000000E-03 0.  1.
         11   -1    0    0    0    0 -0.00000000000E+00 -0.00000000000E+00 -0.45593999997E+02  0.45594000000E+02  0.51100000000E-03 0. -1.
    9900012    2    1    2    0    0  0.19313034827E+02  0.17769133976E+02  0.31055266627E+02  0.50528867917E+02  0.30000024519E+02 0.  0.
         12    1    1    2    0    0 -0.19313034827E+02 -0.17769133976E+02 -0.31055266627E+02  0.40659132083E+02  0.00000000000E+00 0. -1.
         11    1    3    3    0    0 -0.34615005660E+01  0.22487220294E+01  0.55007045468E+00  0.41642904198E+01  0.51100000000E-03 0. -1.
        -11    1    3    3    0    0  0.73934225518E+01 -0.42574502791E+01  0.13890834463E+02  0.16301652132E+02  0.51100000000E-03 0.  1.
        -12    1    3    3    0    0  0.15381112841E+02  0.19777862226E+02  0.16614361710E+02  0.30062925365E+02  0.00000000000E+00 0.  1.
</event>
<event>
 7    1  0.2711200E-011  0.5052886E+02  0.7816164E-02  0.1300439E+00
        -11   -1    0    0    0    0  0.00000000000E+00  0.00000000000E+00  0.45593999997E+02  0.45594000000E+02  0.51100000000E-03 0.  1.
         11   -1    0    0    0    0 -0.00000000000E+00 -0.00000000000E+00 -0.45593999997E+02  0.45594000000E+02  0.51100000000E-03 0. -1.
    9900012    2    1    2    0    0  0.20656234608E+02 -0.26057101701E+02  0.23398992404E+02  0.50528862986E+02  0.30000009531E+02 0.  0.
         12    1    1    2    0    0 -0.20656234608E+02  0.26057101701E+02 -0.23398992404E+02  0.40659137014E+02  0.00000000000E+00 0. -1.
         11    1    3    3    0    0  0.16671648817E+01  0.94605151669E+00 -0.46569386514E+01  0.50360232405E+01  0.51100000000E-03 0. -1.
        -11    1    3    3    0    0  0.47032048723E+01 -0.74571578731E+01  0.16407434097E+02  0.18626143818E+02  0.51100000000E-03 0.  1.
        -12    1    3    3    0    0  0.14285864854E+02 -0.19545995345E+02  0.11648496958E+02  0.26866695927E+02  0.00000000000E+00 0.  1.
</event>
<event>
 7    1  0.2450552E-011  0.5052887E+02  0.7816164E-02  0.1300439E+00
        -11   -1    0    0    0    0  0.00000000000E+00  0.00000000000E+00  0.45593999997E+02  0.45594000000E+02  0.51100000000E-03 0.  1.
         11   -1    0    0    0    0 -0.00000000000E+00 -0.00000000000E+00 -0.45593999997E+02  0.45594000000E+02  0.51100000000E-03 0. -1.
    9900012    2    1    2    0    0  0.30692876150E+02 -0.22087958213E+02  0.14941023809E+02  0.50528871420E+02  0.30000035170E+02 0.  0.
         12    1    1    2    0    0 -0.30692876150E+02  0.22087958213E+02 -0.14941023809E+02  0.40659128580E+02  0.00000000000E+00 0. -1.
         11    1    3    3    0    0  0.12745002202E+02 -0.90777293078E+01  0.15417394771E+01  0.15723142542E+02  0.51100000000E-03 0. -1.
        -11    1    3    3    0    0  0.12050879396E+02  0.35088046408E+01  0.11742124090E+02  0.17187579313E+02  0.51100000000E-03 0.  1.
         12    1    3    3    0    0  0.58969945516E+01 -0.16519033546E+02  0.16571602419E+01  0.17618149565E+02  0.00000000000E+00 0. -1.
</event>
<event>
 7    1  0.2450552E-011  0.5052894E+02  0.7816164E-02  0.1300438E+00
        -11   -1    0    0    0    0  0.00000000000E+00  0.00000000000E+00  0.45593999997E+02  0.45594000000E+02  0.51100000000E-03 0. -1.
         11   -1    0    0    0    0 -0.00000000000E+00 -0.00000000000E+00 -0.45593999997E+02  0.45594000000E+02  0.51100000000E-03 0.  1.
    9900012    2    1    2    0    0 -0.11213026847E+02 -0.34812200910E+02 -0.17763375687E+02  0.50528944193E+02  0.30000256369E+02 0.  0.
         12    1    1    2    0    0  0.11213026847E+02  0.34812200910E+02  0.17763375687E+02  0.40659055807E+02  0.00000000000E+00 0. -1.
         11    1    3    3    0    0  0.20846132351E+01 -0.10730714489E+02 -0.69668655453E+01  0.12962679568E+02  0.51100000000E-03 0. -1.
        -11    1    3    3    0    0 -0.11505209375E+02 -0.14442216484E+02 -0.17697710339E+02  0.25576481603E+02  0.51100000000E-03 0.  1.
         12    1    3    3    0    0 -0.17924307074E+01 -0.96392699370E+01  0.69012001968E+01  0.11989783022E+02  0.00000000000E+00 0. -1.
</event>
<event>
 7    1  0.3166402E-011  0.5052885E+02  0.7816164E-02  0.1300439E+00
        -11   -1    0    0    0    0  0.00000000000E+00  0.00000000000E+00  0.45593999997E+02  0.45594000000E+02  0.51100000000E-03 0. -1.
         11   -1    0    0    0    0 -0.00000000000E+00 -0.00000000000E+00 -0.45593999997E+02  0.45594000000E+02  0.51100000000E-03 0.  1.
    9900012    2    1    2    0    0 -0.13914951903E+02  0.34698194580E+02 -0.15986730286E+02  0.50528854180E+02  0.29999982766E+02 0.  0.
         12    1    1    2    0    0  0.13914951903E+02 -0.34698194580E+02  0.15986730286E+02  0.40659145820E+02  0.00000000000E+00 0. -1.
         11    1    3    3    0    0  0.16570905974E+01 -0.49032070271E+00  0.24526237431E+01  0.30002878405E+01  0.51100000000E-03 0. -1.
        -11    1    3    3    0    0 -0.14451446523E+02  0.80634834052E+01 -0.53697848023E+01  0.17398237276E+02  0.51100000000E-03 0.  1.
        -12    1    3    3    0    0 -0.11205959774E+01  0.27125031877E+02 -0.13069569227E+02  0.30130329063E+02  0.00000000000E+00 0.  1.
</event>
<event>
 7    1  0.2450552E-011  0.5052887E+02  0.7816164E-02  0.1300439E+00
        -11   -1    0    0    0    0  0.00000000000E+00  0.00000000000E+00  0.45593999997E+02  0.45594000000E+02  0.51100000000E-03 0.  1.
         11   -1    0    0    0    0 -0.00000000000E+00 -0.00000000000E+00 -0.45593999997E+02  0.45594000000E+02  0.51100000000E-03 0. -1.
    9900012    2    1    2    0    0 -0.20222694895E+02 -0.29536404755E+02  0.19282331748E+02  0.50528869263E+02  0.30000028611E+02 0.  0.
         12    1    1    2    0    0  0.20222694895E+02  0.29536404755E+02 -0.19282331748E+02  0.40659130737E+02  0.00000000000E+00 0. -1.
         11    1    3    3    0    0  0.44610722962E+01 -0.33360854983E+01  0.61393919717E+01  0.82899195730E+01  0.51100000000E-03 0. -1.
        -11    1    3    3    0    0 -0.14853741878E+02 -0.92261766146E+01  0.14301674999E+02  0.22589685495E+02  0.51100000000E-03 0.  1.
        -12    1    3    3    0    0 -0.98300253126E+01 -0.16974142642E+02 -0.11587352223E+01  0.19649264195E+02  0.00000000000E+00 0.  1.
</event>
<event>
 7    1  0.2450552E-011  0.5052887E+02  0.7816164E-02  0.1300439E+00
        -11   -1    0    0    0    0  0.00000000000E+00  0.00000000000E+00  0.45593999997E+02  0.45594000000E+02  0.51100000000E-03 0.  1.
         11   -1    0    0    0    0 -0.00000000000E+00 -0.00000000000E+00 -0.45593999997E+02  0.45594000000E+02  0.51100000000E-03 0. -1.
    9900012    2    1    2    0    0  0.16222480189E+02 -0.20282468825E+02  0.31282866321E+02  0.50528866581E+02  0.30000020459E+02 0.  0.
         12    1    1    2    0    0 -0.16222480189E+02  0.20282468825E+02 -0.31282866321E+02  0.40659133419E+02  0.00000000000E+00 0. -1.
         11    1    3    3    0    0  0.41922873719E+01 -0.15509402498E+01 -0.87474942449E-01  0.44708322708E+01  0.51100000000E-03 0. -1.
        -11    1    3    3    0    0 -0.11756293688E+01 -0.33328580342E+01 -0.39664200438E+01  0.53124886178E+01  0.51100000000E-03 0.  1.
        -12    1    3    3    0    0  0.13205822186E+02 -0.15398670541E+02  0.35336761308E+02  0.40745545692E+02  0.00000000000E+00 0.  1.
</event>
<event>
 7    1  0.2450552E-011  0.5052891E+02  0.7816164E-02  0.1300439E+00
        -11   -1    0    0    0    0  0.00000000000E+00  0.00000000000E+00  0.45593999997E+02  0.45594000000E+02  0.51100000000E-03 0.  1.
         11   -1    0    0    0    0 -0.00000000000E+00 -0.00000000000E+00 -0.45593999997E+02  0.45594000000E+02  0.51100000000E-03 0. -1.
    9900012    2    1    2    0    0  0.28303606088E+02  0.22738700959E+02  0.18303525384E+02  0.50528909007E+02  0.30000149416E+02 0.  0.
         12    1    1    2    0    0 -0.28303606088E+02 -0.22738700959E+02 -0.18303525384E+02  0.40659090993E+02  0.00000000000E+00 0. -1.
         11    1    3    3    0    0  0.14342154843E+02 -0.14705926477E+01 -0.67743405810E+00  0.14433259003E+02  0.51100000000E-03 0. -1.
        -11    1    3    3    0    0  0.73390684431E+01  0.22723297234E+01  0.35060451763E+01  0.84449843708E+01  0.51100000000E-03 0.  1.
         12    1    3    3    0    0  0.66223828025E+01  0.21936963884E+02  0.15474914266E+02  0.27650665633E+02  0.00000000000E+00 0. -1.
</event>
<event>
 7    1  0.2450552E-011  0.5052884E+02  0.7816164E-02  0.1300439E+00
        -11   -1    0    0    0    0  0.00000000000E+00  0.00000000000E+00  0.45593999997E+02  0.45594000000E+02  0.51100000000E-03 0.  1.
         11   -1    0    0    0    0 -0.00000000000E+00 -0.00000000000E+00 -0.45593999997E+02  0.45594000000E+02  0.51100000000E-03 0. -1.
    9900012    2    1    2    0    0  0.36788473958E+02 -0.15660698877E+02 -0.73836364127E+01  0.50528838768E+02  0.29999935918E+02 0.  0.
         12    1    1    2    0    0 -0.36788473958E+02  0.15660698877E+02  0.73836364127E+01  0.40659161232E+02  0.00000000000E+00 0. -1.
         11    1    3    3    0    0  0.19259338522E+02  0.56136950355E+00 -0.72684343959E+01  0.20592896709E+02  0.51100000000E-03 0. -1.
        -11    1    3    3    0    0  0.67684820081E+01  0.14067932753E+01  0.51515298343E+01  0.86214659953E+01  0.51100000000E-03 0.  1.
         12    1    3    3    0    0  0.10760653428E+02 -0.17628861656E+02 -0.52667318511E+01  0.21314476064E+02  0.00000000000E+00 0. -1.
</event>
<event>
 7    1  0.2450552E-011  0.5052886E+02  0.7816164E-02  0.1300439E+00
        -11   -1    0    0    0    0  0.00000000000E+00  0.00000000000E+00  0.45593999997E+02  0.45594000000E+02  0.51100000000E-03 0. -1.
         11   -1    0    0    0    0 -0.00000000000E+00 -0.00000000000E+00 -0.45593999997E+02  0.45594000000E+02  0.51100000000E-03 0.  1.
    9900012    2    1    2    0    0 -0.93188558694E+01 -0.23977197523E+02  0.31486804160E+02  0.50528856969E+02  0.29999991244E+02 0.  0.
         12    1    1    2    0    0  0.93188558694E+01  0.23977197523E+02 -0.31486804160E+02  0.40659143031E+02  0.00000000000E+00 0. -1.
         11    1    3    3    0    0 -0.12947728025E+02 -0.16069815863E+02  0.20824446023E+02  0.29317915944E+02  0.51100000000E-03 0. -1.
        -11    1    3    3    0    0 -0.26192179269E+01 -0.62686580853E+01 -0.19264173922E+01  0.70616896681E+01  0.51100000000E-03 0.  1.
        -12    1    3    3    0    0  0.62480900824E+01 -0.16387235741E+01  0.12588775530E+02  0.14149251357E+02  0.00000000000E+00 0.  1.
</event>
<event>
 7    1  0.2450552E-011  0.5052886E+02  0.7816164E-02  0.1300439E+00
        -11   -1    0    0    0    0  0.00000000000E+00  0.00000000000E+00  0.45593999997E+02  0.45594000000E+02  0.51100000000E-03 0. -1.
         11   -1    0    0    0    0 -0.00000000000E+00 -0.00000000000E+00 -0.45593999997E+02  0.45594000000E+02  0.51100000000E-03 0.  1.
    9900012    2    1    2    0    0  0.89614058881E+01  0.31114550819E+02 -0.24591537716E+02  0.50528858403E+02  0.29999995602E+02 0.  0.
         12    1    1    2    0    0 -0.89614058881E+01 -0.31114550819E+02  0.24591537716E+02  0.40659141597E+02  0.00000000000E+00 0. -1.
         11    1    3    3    0    0 -0.30863635806E+01 -0.13348261094E+01 -0.90733471335E+01  0.96764161424E+01  0.51100000000E-03 0. -1.
        -11    1    3    3    0    0 -0.27314868850E+01  0.12112478035E+02 -0.72988170176E+01  0.14402981458E+02  0.51100000000E-03 0.  1.
         12    1    3    3    0    0  0.14779256354E+02  0.20336898893E+02 -0.82193735653E+01  0.26449460803E+02  0.00000000000E+00 0. -1.
</event>
<event>
 7    1  0.2450552E-011  0.5052885E+02  0.7816164E-02  0.1300439E+00
        -11   -1    0    0    0    0  0.00000000000E+00  0.00000000000E+00  0.45593999997E+02  0.45594000000E+02  0.51100000000E-03 0. -1.
         11   -1    0    0    0    0 -0.00000000000E+00 -0.00000000000E+00 -0.45593999997E+02  0.45594000000E+02  0.51100000000E-03 0.  1.
    9900012    2    1    2    0    0 -0.36166501220E+02 -0.16975804157E+02  0.75480100042E+01  0.50528853522E+02  0.29999980766E+02 0.  0.
         12    1    1    2    0    0  0.36166501220E+02  0.16975804157E+02 -0.75480100042E+01  0.40659146478E+02  0.00000000000E+00 0. -1.
         11    1    3    3    0    0 -0.24938403543E+02 -0.45639250948E+01  0.57355143714E+01  0.25993258913E+02  0.51100000000E-03 0. -1.
        -11    1    3    3    0    0 -0.64094804784E+01  0.55462681427E-01 -0.62282243094E+01  0.89372979374E+01  0.51100000000E-03 0.  1.
         12    1    3    3    0    0 -0.48186171983E+01 -0.12467341744E+02  0.80407199423E+01  0.15598296671E+02  0.00000000000E+00 0. -1.
</event>
<event>
 7    1  0.2450552E-011  0.5052885E+02  0.7816164E-02  0.1300439E+00
        -11   -1    0    0    0    0  0.00000000000E+00  0.00000000000E+00  0.45593999997E+02  0.45594000000E+02  0.51100000000E-03 0. -1.
         11   -1    0    0    0    0 -0.00000000000E+00 -0.00000000000E+00 -0.45593999997E+02  0.45594000000E+02  0.51100000000E-03 0.  1.
    9900012    2    1    2    0    0 -0.34286362160E+02 -0.20711060297E+02  0.69759408209E+01  0.50528850979E+02  0.29999973035E+02 0.  0.
         12    1    1    2    0    0  0.34286362160E+02  0.20711060297E+02 -0.69759408209E+01  0.40659149021E+02  0.00000000000E+00 0. -1.
         11    1    3    3    0    0  0.68770937134E+00  0.33251291503E+00 -0.41814597134E+01  0.42506604915E+01  0.51100000000E-03 0. -1.
        -11    1    3    3    0    0 -0.18830608853E+02 -0.26153063015E+01 -0.77595214337E+00  0.19027184731E+02  0.51100000000E-03 0.  1.
         12    1    3    3    0    0 -0.16143462679E+02 -0.18428266910E+02  0.11933352678E+02  0.27251005756E+02  0.00000000000E+00 0. -1.
</event>
<event>
 7    1  0.2450552E-011  0.5052886E+02  0.7816164E-02  0.1300439E+00
        -11   -1    0    0    0    0  0.00000000000E+00  0.00000000000E+00  0.45593999997E+02  0.45594000000E+02  0.51100000000E-03 0.  1.
         11   -1    0    0    0    0 -0.00000000000E+00 -0.00000000000E+00 -0.45593999997E+02  0.45594000000E+02  0.51100000000E-03 0. -1.
    9900012    2    1    2    0    0 -0.28153194992E+02  0.20700248102E+02  0.20786117278E+02  0.50528864112E+02  0.30000012954E+02 0.  0.
         12    1    1    2    0    0  0.28153194992E+02 -0.20700248102E+02 -0.20786117278E+02  0.40659135888E+02  0.00000000000E+00 0. -1.
         11    1    3    3    0    0 -0.13088583337E+02 -0.30876520259E+01  0.83002142089E+01  0.15803106181E+02  0.51100000000E-03 0. -1.
        -11    1    3    3    0    0 -0.56725918711E+01  0.47556579200E+01  0.11249267740E+02  0.13466276610E+02  0.51100000000E-03 0.  1.
         12    1    3    3    0    0 -0.93920197835E+01  0.19032242208E+02  0.12366353284E+01  0.21259481320E+02  0.00000000000E+00 0. -1.
</event>
<event>
 7    1  0.2450552E-011  0.5052886E+02  0.7816164E-02  0.1300439E+00
        -11   -1    0    0    0    0  0.00000000000E+00  0.00000000000E+00  0.45593999997E+02  0.45594000000E+02  0.51100000000E-03 0. -1.
         11   -1    0    0    0    0 -0.00000000000E+00 -0.00000000000E+00 -0.45593999997E+02  0.45594000000E+02  0.51100000000E-03 0.  1.
    9900012    2    1    2    0    0 -0.29080121239E+01 -0.27389108000E+02 -0.29908956676E+02  0.50528862515E+02  0.30000008101E+02 0.  0.
         12    1    1    2    0    0  0.29080121239E+01  0.27389108000E+02  0.29908956676E+02  0.40659137485E+02  0.00000000000E+00 0. -1.
         11    1    3    3    0    0  0.11607252485E+01 -0.10649168002E+02 -0.16797846941E+02  0.19922844283E+02  0.51100000000E-03 0. -1.
        -11    1    3    3    0    0 -0.63301072432E+01  0.24564012684E+01 -0.82313522721E+01  0.10670488526E+02  0.51100000000E-03 0.  1.
         12    1    3    3    0    0  0.22613698708E+01 -0.19196341267E+02 -0.48797574634E+01  0.19935529705E+02  0.00000000000E+00 0. -1.
</event>
<event>
 7    1  0.2450552E-011  0.5052893E+02  0.7816164E-02  0.1300439E+00
        -11   -1    0    0    0    0  0.00000000000E+00  0.00000000000E+00  0.45593999997E+02  0.45594000000E+02  0.51100000000E-03 0. -1.
         11   -1    0    0    0    0 -0.00000000000E+00 -0.00000000000E+00 -0.45593999997E+02  0.45594000000E+02  0.51100000000E-03 0.  1.
    9900012    2    1    2    0    0  0.24810852627E+02  0.11303427976E+02  0.30163124052E+02  0.50528930352E+02  0.30000214296E+02 0.  0.
         12    1    1    2    0    0 -0.24810852627E+02 -0.11303427976E+02 -0.30163124052E+02  0.40659069648E+02  0.00000000000E+00 0. -1.
         11    1    3    3    0    0  0.21138924464E+02  0.97409693038E+01  0.12189607120E+02  0.26274077195E+02  0.51100000000E-03 0. -1.
        -11    1    3    3    0    0  0.14995646955E+01  0.86305418175E+01  0.81969926109E+01  0.11996901036E+02  0.51100000000E-03 0.  1.
         12    1    3    3    0    0  0.21723634674E+01 -0.70680831453E+01  0.97765243213E+01  0.12257952120E+02  0.00000000000E+00 0. -1.
</event>
<event>
 7    1  0.2450552E-011  0.5052887E+02  0.7816164E-02  0.1300439E+00
        -11   -1    0    0    0    0  0.00000000000E+00  0.00000000000E+00  0.45593999997E+02  0.45594000000E+02  0.51100000000E-03 0.  1.
         11   -1    0    0    0    0 -0.00000000000E+00 -0.00000000000E+00 -0.45593999997E+02  0.45594000000E+02  0.51100000000E-03 0. -1.
    9900012    2    1    2    0    0  0.20840909960E+00 -0.39887854476E+01  0.40462461794E+02  0.50528872389E+02  0.30000038112E+02 0.  0.
         12    1    1    2    0    0 -0.20840909960E+00  0.39887854476E+01 -0.40462461794E+02  0.40659127611E+02  0.00000000000E+00 0. -1.
         11    1    3    3    0    0 -0.20691067059E+01  0.79450506161E+01  0.10486654138E+02  0.13318218616E+02  0.51100000000E-03 0. -1.
        -11    1    3    3    0    0 -0.35403856180E+01 -0.89549413554E-01  0.20892688052E+02  0.21190723530E+02  0.51100000000E-03 0.  1.
        -12    1    3    3    0    0  0.58179014235E+01 -0.11844286650E+02  0.90831196045E+01  0.16019930242E+02  0.00000000000E+00 0.  1.
</event>
<event>
 7    1  0.2450552E-011  0.5052886E+02  0.7816164E-02  0.1300439E+00
        -11   -1    0    0    0    0  0.00000000000E+00  0.00000000000E+00  0.45593999997E+02  0.45594000000E+02  0.51100000000E-03 0. -1.
         11   -1    0    0    0    0 -0.00000000000E+00 -0.00000000000E+00 -0.45593999997E+02  0.45594000000E+02  0.51100000000E-03 0.  1.
    9900012    2    1    2    0    0 -0.23222015717E+02  0.28680756975E+02 -0.17068046021E+02  0.50528855523E+02  0.29999986849E+02 0.  0.
         12    1    1    2    0    0  0.23222015717E+02 -0.28680756975E+02  0.17068046021E+02  0.40659144477E+02  0.00000000000E+00 0. -1.
         11    1    3    3    0    0 -0.11074250909E+02  0.13129226177E+02 -0.75588457683E+00  0.17192643048E+02  0.51100000000E-03 0. -1.
        -11    1    3    3    0    0 -0.16784267089E+02  0.16986803246E+02 -0.15350192778E+02  0.28388228631E+02  0.51100000000E-03 0.  1.
        -12    1    3    3    0    0  0.46365022821E+01 -0.14352724477E+01 -0.96196866598E+00  0.49479838445E+01  0.00000000000E+00 0.  1.
</event>
<event>
 7    1  0.2450552E-011  0.5052886E+02  0.7816164E-02  0.1300439E+00
        -11   -1    0    0    0    0  0.00000000000E+00  0.00000000000E+00  0.45593999997E+02  0.45594000000E+02  0.51100000000E-03 0.  1.
         11   -1    0    0    0    0 -0.00000000000E+00 -0.00000000000E+00 -0.45593999997E+02  0.45594000000E+02  0.51100000000E-03 0. -1.
    9900012    2    1    2    0    0  0.40598351790E+02 -0.22198038658E+01 -0.11008241858E+00  0.50528858157E+02  0.29999994854E+02 0.  0.
         12    1    1    2    0    0 -0.40598351790E+02  0.22198038658E+01  0.11008241858E+00  0.40659141843E+02  0.00000000000E+00 0. -1.
         11    1    3    3    0    0  0.11121123250E+02  0.44201801449E+01  0.11601272373E+02  0.16667540184E+02  0.51100000000E-03 0. -1.
        -11    1    3    3    0    0  0.40569649766E+01 -0.35654515859E+01 -0.50715516344E+01  0.74089166600E+01  0.51100000000E-03 0.  1.
        -12    1    3    3    0    0  0.25420263564E+02 -0.30745324248E+01 -0.66398031568E+01  0.26452401313E+02  0.00000000000E+00 0.  1.
</event>
<event>
 7    1  0.2450552E-011  0.5052886E+02  0.7816164E-02  0.1300439E+00
        -11   -1    0    0    0    0  0.00000000000E+00  0.00000000000E+00  0.45593999997E+02  0.45594000000E+02  0.51100000000E-03 0. -1.
         11   -1    0    0    0    0 -0.00000000000E+00 -0.00000000000E+00 -0.45593999997E+02  0.45594000000E+02  0.51100000000E-03 0.  1.
    9900012    2    1    2    0    0  0.35912483812E+02 -0.11825085515E+02 -0.14954149775E+02  0.50528859127E+02  0.29999997803E+02 0.  0.
         12    1    1    2    0    0 -0.35912483812E+02  0.11825085515E+02  0.14954149775E+02  0.40659140873E+02  0.00000000000E+00 0. -1.
         11    1    3    3    0    0  0.10953725088E+02 -0.42581683119E+01 -0.14415991936E+02  0.18599379409E+02  0.51100000000E-03 0. -1.
        -11    1    3    3    0    0  0.19329018902E+02  0.12116651437E+01 -0.58428944840E+01  0.20229150263E+02  0.51100000000E-03 0.  1.
         12    1    3    3    0    0  0.56297398225E+01 -0.87785823468E+01  0.53047366442E+01  0.11700329455E+02  0.00000000000E+00 0. -1.
</event>
<event>
 7    1  0.2450552E-011  0.5052886E+02  0.7816164E-02  0.1300439E+00
        -11   -1    0    0    0    0  0.00000000000E+00  0.00000000000E+00  0.45593999997E+02  0.45594000000E+02  0.51100000000E-03 0.  1.
         11   -1    0    0    0    0 -0.00000000000E+00 -0.00000000000E+00 -0.45593999997E+02  0.45594000000E+02  0.51100000000E-03 0. -1.
    9900012    2    1    2    0    0  0.31826584263E+02 -0.10685254036E+02  0.22935990751E+02  0.50528858452E+02  0.29999995752E+02 0.  0.
         12    1    1    2    0    0 -0.31826584263E+02  0.10685254036E+02 -0.22935990751E+02  0.40659141548E+02  0.00000000000E+00 0. -1.
         11    1    3    3    0    0  0.86891190305E+01 -0.21424652018E+01  0.18389847720E+01  0.91363456546E+01  0.51100000000E-03 0. -1.
        -11    1    3    3    0    0  0.15816527117E+02 -0.91686188269E+01  0.26554909890E+02  0.32239561734E+02  0.51100000000E-03 0.  1.
         12    1    3    3    0    0  0.73209381157E+01  0.62582999314E+00 -0.54579039113E+01  0.91529510640E+01  0.00000000000E+00 0. -1.
</event>
<event>
 7    1  0.2450552E-011  0.5052886E+02  0.7816164E-02  0.1300439E+00
        -11   -1    0    0    0    0  0.00000000000E+00  0.00000000000E+00  0.45593999997E+02  0.45594000000E+02  0.51100000000E-03 0.  1.
         11   -1    0    0    0    0 -0.00000000000E+00 -0.00000000000E+00 -0.45593999997E+02  0.45594000000E+02  0.51100000000E-03 0. -1.
    9900012    2    1    2    0    0 -0.39540621451E+02 -0.82805134818E+01  0.45976079257E+01  0.50528860229E+02  0.30000001153E+02 0.  0.
         12    1    1    2    0    0  0.39540621451E+02  0.82805134818E+01 -0.45976079257E+01  0.40659139771E+02  0.00000000000E+00 0. -1.
         11    1    3    3    0    0 -0.17249500877E+02 -0.10565479397E+02  0.53508779528E+01  0.20923826861E+02  0.51100000000E-03 0. -1.
        -11    1    3    3    0    0 -0.23805756696E+02 -0.28687287738E+01 -0.20920008759E+01  0.24069069874E+02  0.51100000000E-03 0.  1.
        -12    1    3    3    0    0  0.15146361225E+01  0.51536946886E+01  0.13387308488E+01  0.55359634945E+01  0.00000000000E+00 0.  1.
</event>
<event>
 7    1  0.2450552E-011  0.5052887E+02  0.7816164E-02  0.1300439E+00
        -11   -1    0    0    0    0  0.00000000000E+00  0.00000000000E+00  0.45593999997E+02  0.45594000000E+02  0.51100000000E-03 0.  1.
         11   -1    0    0    0    0 -0.00000000000E+00 -0.00000000000E+00 -0.45593999997E+02  0.45594000000E+02  0.51100000000E-03 0. -1.
    9900012    2    1    2    0    0 -0.24164354479E+02  0.77880368175E+01  0.31758395710E+02  0.50528865197E+02  0.30000016253E+02 0.  0.
         12    1    1    2    0    0  0.24164354479E+02 -0.77880368175E+01 -0.31758395710E+02  0.40659134803E+02  0.00000000000E+00 0. -1.
         11    1    3    3    0    0 -0.16877135654E+02  0.13169807840E+02  0.26693013077E+02  0.34216932853E+02  0.51100000000E-03 0.  1.
        -11    1    3    3    0    0 -0.75594750581E+01  0.22321088135E+01  0.23762065473E+01  0.82325166702E+01  0.51100000000E-03 0. -1.
        -12    1    3    3    0    0  0.27225623280E+00 -0.76138798363E+01  0.26891760851E+01  0.80794156741E+01  0.00000000000E+00 0.  1.
</event>
<event>
 7    1  0.2450552E-011  0.5052886E+02  0.7816164E-02  0.1300439E+00
        -11   -1    0    0    0    0  0.00000000000E+00  0.00000000000E+00  0.45593999997E+02  0.45594000000E+02  0.51100000000E-03 0.  1.
         11   -1    0    0    0    0 -0.00000000000E+00 -0.00000000000E+00 -0.45593999997E+02  0.45594000000E+02  0.51100000000E-03 0. -1.
    9900012    2    1    2    0    0 -0.17735959025E+02  0.23678404823E+02  0.27891479218E+02  0.50528859448E+02  0.29999998778E+02 0.  0.
         12    1    1    2    0    0  0.17735959025E+02 -0.23678404823E+02 -0.27891479218E+02  0.40659140552E+02  0.00000000000E+00 0. -1.
         11    1    3    3    0    0 -0.54571709018E+01  0.17882473921E+01 -0.10043308756E+01  0.58298562380E+01  0.51100000000E-03 0. -1.
        -11    1    3    3    0    0 -0.14450655269E+02  0.32392112465E+01  0.16643130611E+02  0.22277964988E+02  0.51100000000E-03 0.  1.
         12    1    3    3    0    0  0.21718671458E+01  0.18650946184E+02  0.12252679483E+02  0.22421038222E+02  0.00000000000E+00 0. -1.
</event>
<event>
 7    1  0.2450552E-011  0.5052886E+02  0.7816164E-02  0.1300439E+00
        -11   -1    0    0    0    0  0.00000000000E+00  0.00000000000E+00  0.45593999997E+02  0.45594000000E+02  0.51100000000E-03 0.  1.
         11   -1    0    0    0    0 -0.00000000000E+00 -0.00000000000E+00 -0.45593999997E+02  0.45594000000E+02  0.51100000000E-03 0. -1.
    9900012    2    1    2    0    0 -0.23105163213E+02 -0.18382062489E+02  0.27953837906E+02  0.50528857828E+02  0.29999993855E+02 0.  0.
         12    1    1    2    0    0  0.23105163213E+02  0.18382062489E+02 -0.27953837906E+02  0.40659142172E+02  0.00000000000E+00 0. -1.
         11    1    3    3    0    0 -0.11591283435E+02 -0.24985765839E+01  0.47786482966E+01  0.12784217474E+02  0.51100000000E-03 0.  1.
        -11    1    3    3    0    0 -0.54086046010E+01  0.48792473266E+01  0.10123859351E+02  0.12472072267E+02  0.51100000000E-03 0. -1.
         12    1    3    3    0    0 -0.61052751769E+01 -0.20762733231E+02  0.13051330259E+02  0.25272568088E+02  0.00000000000E+00 0. -1.
</event>
<event>
 7    1  0.2450552E-011  0.5052885E+02  0.7816164E-02  0.1300439E+00
        -11   -1    0    0    0    0  0.00000000000E+00  0.00000000000E+00  0.45593999997E+02  0.45594000000E+02  0.51100000000E-03 0.  1.
         11   -1    0    0    0    0 -0.00000000000E+00 -0.00000000000E+00 -0.45593999997E+02  0.45594000000E+02  0.51100000000E-03 0. -1.
    9900012    2    1    2    0    0  0.15837037624E+02 -0.36293417747E+02  0.92272534535E+01  0.50528854181E+02  0.29999982768E+02 0.  0.
         12    1    1    2    0    0 -0.15837037624E+02  0.36293417747E+02 -0.92272534535E+01  0.40659145819E+02  0.00000000000E+00 0. -1.
         11    1    3    3    0    0  0.11423622916E+02 -0.21833418842E+02  0.62557588633E+01  0.25423057607E+02  0.51100000000E-03 0. -1.
        -11    1    3    3    0    0  0.93170263249E+01 -0.54670484486E+00 -0.19877908521E+01  0.95423885092E+01  0.51100000000E-03 0.  1.
         12    1    3    3    0    0 -0.49036116177E+01 -0.13913294060E+02  0.49592854423E+01  0.15563408065E+02  0.00000000000E+00 0. -1.
</event>
<event>
 7    1  0.2450552E-011  0.5052886E+02  0.7816164E-02  0.1300439E+00
        -11   -1    0    0    0    0  0.00000000000E+00  0.00000000000E+00  0.45593999997E+02  0.45594000000E+02  0.51100000000E-03 0.  1.
         11   -1    0    0    0    0 -0.00000000000E+00 -0.00000000000E+00 -0.45593999997E+02  0.45594000000E+02  0.51100000000E-03 0. -1.
    9900012    2    1    2    0    0  0.23511497851E+02 -0.33105434485E+02 -0.20988083955E+01  0.50528864245E+02  0.30000013359E+02 0.  0.
         12    1    1    2    0    0 -0.23511497851E+02  0.33105434485E+02  0.20988083955E+01  0.40659135755E+02  0.00000000000E+00 0. -1.
         11    1    3    3    0    0  0.24863268191E+01 -0.43864503173E+01 -0.19419063300E+01  0.54031257521E+01  0.51100000000E-03 0. -1.
        -11    1    3    3    0    0  0.23857625588E+02 -0.30747180262E+02 -0.49170903958E+01  0.39226944451E+02  0.51100000000E-03 0.  1.
         12    1    3    3    0    0 -0.28324545561E+01  0.20281960937E+01  0.47601883303E+01  0.58987940417E+01  0.00000000000E+00 0. -1.
</event>
<event>
 7    1  0.2450552E-011  0.5052882E+02  0.7816164E-02  0.1300439E+00
        -11   -1    0    0    0    0  0.00000000000E+00  0.00000000000E+00  0.45593999997E+02  0.45594000000E+02  0.51100000000E-03 0. -1.
         11   -1    0    0    0    0 -0.00000000000E+00 -0.00000000000E+00 -0.45593999997E+02  0.45594000000E+02  0.51100000000E-03 0.  1.
    9900012    2    1    2    0    0 -0.23652310852E+02 -0.27080099301E+02 -0.18984352845E+02  0.50528816047E+02  0.29999866856E+02 0.  0.
         12    1    1    2    0    0  0.23652310852E+02  0.27080099301E+02  0.18984352845E+02  0.40659183953E+02  0.00000000000E+00 0. -1.
         11    1    3    3    0    0 -0.16681758593E+01 -0.99348228358E+01 -0.75200795511E-01  0.10074183386E+02  0.51100000000E-03 0. -1.
        -11    1    3    3    0    0 -0.23663800741E+02 -0.13889283238E+02 -0.74618125081E+01  0.28435300254E+02  0.51100000000E-03 0.  1.
        -12    1    3    3    0    0  0.16796657482E+01 -0.32559932268E+01 -0.11447339541E+02  0.12019332406E+02  0.00000000000E+00 0.  1.
</event>
<event>
 7    1  0.2450552E-011  0.5052885E+02  0.7816164E-02  0.1300439E+00
        -11   -1    0    0    0    0  0.00000000000E+00  0.00000000000E+00  0.45593999997E+02  0.45594000000E+02  0.51100000000E-03 0. -1.
         11   -1    0    0    0    0 -0.00000000000E+00 -0.00000000000E+00 -0.45593999997E+02  0.45594000000E+02  0.51100000000E-03 0.  1.
    9900012    2    1    2    0    0 -0.32515030350E+02 -0.23051095296E+02 -0.80365595819E+01  0.50528849948E+02  0.29999969902E+02 0.  0.
         12    1    1    2    0    0  0.32515030350E+02  0.23051095296E+02  0.80365595819E+01  0.40659150052E+02  0.00000000000E+00 0. -1.
         11    1    3    3    0    0  0.18526096916E+01 -0.14070130603E+01  0.10175486395E+00  0.23285623751E+01  0.51100000000E-03 0. -1.
        -11    1    3    3    0    0 -0.14602934181E+02  0.39334476854E+01 -0.14629104662E+01  0.15194005551E+02  0.51100000000E-03 0.  1.
        -12    1    3    3    0    0 -0.19764705861E+02 -0.25577529921E+02 -0.66754039796E+01  0.33006282022E+02  0.00000000000E+00 0.  1.
</event>
<event>
 7    1  0.2450552E-011  0.5052883E+02  0.7816164E-02  0.1300439E+00
        -11   -1    0    0    0    0  0.00000000000E+00  0.00000000000E+00  0.45593999997E+02  0.45594000000E+02  0.51100000000E-03 0.  1.
         11   -1    0    0    0    0 -0.00000000000E+00 -0.00000000000E+00 -0.45593999997E+02  0.45594000000E+02  0.51100000000E-03 0. -1.
    9900012    2    1    2    0    0  0.17821823355E+01 -0.23047913151E+02  0.33448256865E+02  0.50528826844E+02  0.29999899673E+02 0.  0.
         12    1    1    2    0    0 -0.17821823355E+01  0.23047913151E+02 -0.33448256865E+02  0.40659173156E+02  0.00000000000E+00 0. -1.
         11    1    3    3    0    0 -0.51884370209E+01  0.22072440409E+01  0.29743300983E+00  0.56462617396E+01  0.51100000000E-03 0. -1.
        -11    1    3    3    0    0  0.36821510229E+01 -0.22421352056E+02  0.17610330258E+02  0.28747156315E+02  0.51100000000E-03 0.  1.
        -12    1    3    3    0    0  0.32884683335E+01 -0.28338051354E+01  0.15540493597E+02  0.16135408788E+02  0.00000000000E+00 0.  1.
</event>
<event>
 7    1  0.2450552E-011  0.5052886E+02  0.7816164E-02  0.1300439E+00
        -11   -1    0    0    0    0  0.00000000000E+00  0.00000000000E+00  0.45593999997E+02  0.45594000000E+02  0.51100000000E-03 0. -1.
         11   -1    0    0    0    0 -0.00000000000E+00 -0.00000000000E+00 -0.45593999997E+02  0.45594000000E+02  0.51100000000E-03 0.  1.
    9900012    2    1    2    0    0 -0.28670118650E+02 -0.26628036414E+02  0.11051571642E+02  0.50528864957E+02  0.30000015524E+02 0.  0.
         12    1    1    2    0    0  0.28670118650E+02  0.26628036414E+02 -0.11051571642E+02  0.40659135043E+02  0.00000000000E+00 0. -1.
         11    1    3    3    0    0 -0.75448488626E+00  0.49521232126E+00  0.53305834943E+01  0.54064409122E+01  0.51100000000E-03 0. -1.
        -11    1    3    3    0    0 -0.15097487379E+02 -0.22194514723E+02  0.12725278062E+02  0.29706284032E+02  0.51100000000E-03 0.  1.
        -12    1    3    3    0    0 -0.12818146384E+02 -0.49287340120E+01 -0.70042899145E+01  0.15416140013E+02  0.00000000000E+00 0.  1.
</event>
<event>
 7    1  0.2450552E-011  0.5052886E+02  0.7816164E-02  0.1300439E+00
        -11   -1    0    0    0    0  0.00000000000E+00  0.00000000000E+00  0.45593999997E+02  0.45594000000E+02  0.51100000000E-03 0. -1.
         11   -1    0    0    0    0 -0.00000000000E+00 -0.00000000000E+00 -0.45593999997E+02  0.45594000000E+02  0.51100000000E-03 0.  1.
    9900012    2    1    2    0    0 -0.29124892991E+02  0.27867491586E+02 -0.53206113924E+01  0.50528863455E+02  0.30000010958E+02 0.  0.
         12    1    1    2    0    0  0.29124892991E+02 -0.27867491586E+02  0.53206113924E+01  0.40659136545E+02  0.00000000000E+00 0. -1.
         11    1    3    3    0    0 -0.59839256429E+01 -0.42070004168E+01  0.34088919641E+00  0.73227333908E+01  0.51100000000E-03 0. -1.
        -11    1    3    3    0    0 -0.23446364342E+02  0.20313861937E+02 -0.50026175637E+01  0.31423099313E+02  0.51100000000E-03 0.  1.
         12    1    3    3    0    0  0.30539699411E+00  0.11760630065E+02 -0.65888302517E+00  0.11783030752E+02  0.00000000000E+00 0. -1.
</event>
<event>
 7    1  0.2450552E-011  0.5052878E+02  0.7816164E-02  0.1300439E+00
        -11   -1    0    0    0    0  0.00000000000E+00  0.00000000000E+00  0.45593999997E+02  0.45594000000E+02  0.51100000000E-03 0.  1.
         11   -1    0    0    0    0 -0.00000000000E+00 -0.00000000000E+00 -0.45593999997E+02  0.45594000000E+02  0.51100000000E-03 0. -1.
    9900012    2    1    2    0    0  0.32358579122E+02 -0.89325822588E+01  0.22941297707E+02  0.50528784451E+02  0.29999770817E+02 0.  0.
         12    1    1    2    0    0 -0.32358579122E+02  0.89325822588E+01 -0.22941297707E+02  0.40659215549E+02  0.00000000000E+00 0. -1.
         11    1    3    3    0    0  0.20656615607E+02 -0.12962167842E+02  0.15178179866E+02  0.28724392209E+02  0.51100000000E-03 0. -1.
        -11    1    3    3    0    0  0.62304319581E+01 -0.42270481711E+00 -0.44723728896E+01  0.76810859435E+01  0.51100000000E-03 0.  1.
        -12    1    3    3    0    0  0.54715315568E+01  0.44522904001E+01  0.12235490730E+02  0.14123306298E+02  0.00000000000E+00 0.  1.
</event>
<event>
 7    1  0.2531589E-011  0.5052885E+02  0.7816164E-02  0.1300439E+00
        -11   -1    0    0    0    0  0.00000000000E+00  0.00000000000E+00  0.45593999997E+02  0.45594000000E+02  0.51100000000E-03 0.  1.
         11   -1    0    0    0    0 -0.00000000000E+00 -0.00000000000E+00 -0.45593999997E+02  0.45594000000E+02  0.51100000000E-03 0. -1.
    9900012    2    1    2    0    0 -0.21472059155E+02 -0.19989075857E+02 -0.28152336127E+02  0.50528849647E+02  0.29999968988E+02 0.  0.
         12    1    1    2    0    0  0.21472059155E+02  0.19989075857E+02  0.28152336127E+02  0.40659150353E+02  0.00000000000E+00 0. -1.
         11    1    3    3    0    0 -0.18603484795E+01  0.44464415100E+01 -0.33179114128E+01  0.58515190311E+01  0.51100000000E-03 0. -1.
        -11    1    3    3    0    0 -0.23040634773E+02 -0.23257893743E+02 -0.19128504358E+02  0.37917016646E+02  0.51100000000E-03 0.  1.
         12    1    3    3    0    0  0.34289240972E+01 -0.11776236239E+01 -0.57059203560E+01  0.67603139700E+01  0.00000000000E+00 0. -1.
</event>
<event>
 7    1  0.2450552E-011  0.5052885E+02  0.7816164E-02  0.1300439E+00
        -11   -1    0    0    0    0  0.00000000000E+00  0.00000000000E+00  0.45593999997E+02  0.45594000000E+02  0.51100000000E-03 0. -1.
         11   -1    0    0    0    0 -0.00000000000E+00 -0.00000000000E+00 -0.45593999997E+02  0.45594000000E+02  0.51100000000E-03 0.  1.
    9900012    2    1    2    0    0 -0.14712246960E+02  0.45875793767E+01 -0.37625392508E+02  0.50528852733E+02  0.29999978367E+02 0.  0.
         12    1    1    2    0    0  0.14712246960E+02 -0.45875793767E+01  0.37625392508E+02  0.40659147267E+02  0.00000000000E+00 0. -1.
         11    1    3    3    0    0 -0.20455123827E+02  0.35120810231E+01 -0.23736538946E+02  0.31530462815E+02  0.51100000000E-03 0.  1.
        -11    1    3    3    0    0  0.52363804244E+00  0.32568266925E-01  0.20908212887E+01  0.21556417638E+01  0.51100000000E-03 0. -1.
        -12    1    3    3    0    0  0.52192388252E+01  0.10429300867E+01 -0.15979674850E+02  0.16842748155E+02  0.00000000000E+00 0.  1.
</event>
<event>
 7    1  0.2450552E-011  0.5052887E+02  0.7816164E-02  0.1300439E+00
        -11   -1    0    0    0    0  0.00000000000E+00  0.00000000000E+00  0.45593999997E+02  0.45594000000E+02  0.51100000000E-03 0.  1.
         11   -1    0    0    0    0 -0.00000000000E+00 -0.00000000000E+00 -0.45593999997E+02  0.45594000000E+02  0.51100000000E-03 0. -1.
    9900012    2    1    2    0    0 -0.24375077103E+02 -0.32432676872E+02  0.26724654009E+01  0.50528868379E+02  0.30000025925E+02 0.  0.
         12    1    1    2    0    0  0.24375077103E+02  0.32432676872E+02 -0.26724654009E+01  0.40659131621E+02  0.00000000000E+00 0. -1.
         11    1    3    3    0    0  0.21944254398E+01 -0.13753746198E+01  0.21056190667E+01  0.33377822384E+01  0.51100000000E-03 0. -1.
        -11    1    3    3    0    0 -0.26515828819E+02 -0.34052068317E+02 -0.20596860321E+01  0.43207347077E+02  0.51100000000E-03 0.  1.
         12    1    3    3    0    0 -0.53673723932E-01  0.29947660652E+01  0.26265323663E+01  0.39837390634E+01  0.00000000000E+00 0. -1.
</event>
<event>
 7    1  0.2450552E-011  0.5052886E+02  0.7816164E-02  0.1300439E+00
        -11   -1    0    0    0    0  0.00000000000E+00  0.00000000000E+00  0.45593999997E+02  0.45594000000E+02  0.51100000000E-03 0. -1.
         11   -1    0    0    0    0 -0.00000000000E+00 -0.00000000000E+00 -0.45593999997E+02  0.45594000000E+02  0.51100000000E-03 0.  1.
    9900012    2    1    2    0    0  0.73037249578E+01  0.33422301068E+01 -0.39857882093E+02  0.50528860003E+02  0.30000000464E+02 0.  0.
         12    1    1    2    0    0 -0.73037249578E+01 -0.33422301068E+01  0.39857882093E+02  0.40659139997E+02  0.00000000000E+00 0. -1.
         11    1    3    3    0    0  0.13977996085E+02 -0.11130726985E+01 -0.98763931214E+01  0.17151281198E+02  0.51100000000E-03 0. -1.
        -11    1    3    3    0    0 -0.15744582257E+01 -0.14447142260E+01  0.25459693920E+00  0.21519613756E+01  0.51100000000E-03 0.  1.
        -12    1    3    3    0    0 -0.50998129014E+01  0.59000170314E+01 -0.30236085911E+02  0.31225617429E+02  0.00000000000E+00 0.  1.
</event>
<event>
 7    1  0.2450552E-011  0.5052892E+02  0.7816164E-02  0.1300439E+00
        -11   -1    0    0    0    0  0.00000000000E+00  0.00000000000E+00  0.45593999997E+02  0.45594000000E+02  0.51100000000E-03 0. -1.
         11   -1    0    0    0    0 -0.00000000000E+00 -0.00000000000E+00 -0.45593999997E+02  0.45594000000E+02  0.51100000000E-03 0.  1.
    9900012    2    1    2    0    0  0.20099021673E+02 -0.35312885984E+02  0.14800224786E+01  0.50528916694E+02  0.30000172783E+02 0.  0.
         12    1    1    2    0    0 -0.20099021673E+02  0.35312885984E+02 -0.14800224786E+01  0.40659083306E+02  0.00000000000E+00 0. -1.
         11    1    3    3    0    0  0.69039632831E+01 -0.49833024106E+01 -0.98600258349E+01  0.13027590785E+02  0.51100000000E-03 0. -1.
        -11    1    3    3    0    0  0.12333813961E+02 -0.13553412151E+02  0.93877546637E+01  0.20589994794E+02  0.51100000000E-03 0.  1.
        -12    1    3    3    0    0  0.86124442920E+00 -0.16776171423E+02  0.19522936498E+01  0.16911331115E+02  0.00000000000E+00 0.  1.
</event>
<event>
 7    1  0.2450552E-011  0.5052887E+02  0.7816164E-02  0.1300439E+00
        -11   -1    0    0    0    0  0.00000000000E+00  0.00000000000E+00  0.45593999997E+02  0.45594000000E+02  0.51100000000E-03 0.  1.
         11   -1    0    0    0    0 -0.00000000000E+00 -0.00000000000E+00 -0.45593999997E+02  0.45594000000E+02  0.51100000000E-03 0. -1.
    9900012    2    1    2    0    0  0.24626660402E+02  0.93905076426E-01  0.32352491561E+02  0.50528869033E+02  0.30000027913E+02 0.  0.
         12    1    1    2    0    0 -0.24626660402E+02 -0.93905076426E-01 -0.32352491561E+02  0.40659130967E+02  0.00000000000E+00 0. -1.
         11    1    3    3    0    0  0.12606397134E+02  0.30594665022E+01  0.11198662172E+02  0.17137433258E+02  0.51100000000E-03 0. -1.
        -11    1    3    3    0    0  0.20348403859E+01  0.53261675259E+01 -0.26435558117E+01  0.62846657430E+01  0.51100000000E-03 0.  1.
         12    1    3    3    0    0  0.99854228826E+01 -0.82917289517E+01  0.23797385201E+02  0.27106770032E+02  0.00000000000E+00 0. -1.
</event>
<event>
 7    1  0.2754515E-011  0.5052886E+02  0.7816164E-02  0.1300439E+00
        -11   -1    0    0    0    0  0.00000000000E+00  0.00000000000E+00  0.45593999997E+02  0.45594000000E+02  0.51100000000E-03 0. -1.
         11   -1    0    0    0    0 -0.00000000000E+00 -0.00000000000E+00 -0.45593999997E+02  0.45594000000E+02  0.51100000000E-03 0.  1.
    9900012    2    1    2    0    0 -0.21663926791E+02 -0.20705490881E+02 -0.27479493719E+02  0.50528860171E+02  0.30000000976E+02 0.  0.
         12    1    1    2    0    0  0.21663926791E+02  0.20705490881E+02  0.27479493719E+02  0.40659139829E+02  0.00000000000E+00 0. -1.
         11    1    3    3    0    0 -0.31329519139E+01 -0.73383957865E+01  0.25995125032E+01  0.83919548336E+01  0.51100000000E-03 0. -1.
        -11    1    3    3    0    0 -0.99097780922E+00  0.43000813287E+01 -0.64370042665E+01  0.78043424220E+01  0.51100000000E-03 0.  1.
        -12    1    3    3    0    0 -0.17539997068E+02 -0.17667176423E+02 -0.23642001955E+02  0.34332562915E+02  0.00000000000E+00 0.  1.
</event>
<event>
 7    1  0.2450552E-011  0.5052892E+02  0.7816164E-02  0.1300439E+00
        -11   -1    0    0    0    0  0.00000000000E+00  0.00000000000E+00  0.45593999997E+02  0.45594000000E+02  0.51100000000E-03 0. -1.
         11   -1    0    0    0    0 -0.00000000000E+00 -0.00000000000E+00 -0.45593999997E+02  0.45594000000E+02  0.51100000000E-03 0.  1.
    9900012    2    1    2    0    0 -0.53284048981E+01  0.40299800300E+02 -0.83373578889E+00  0.50528918378E+02  0.30000177900E+02 0.  0.
         12    1    1    2    0    0  0.53284048981E+01 -0.40299800300E+02  0.83373578889E+00  0.40659081622E+02  0.00000000000E+00 0. -1.
         11    1    3    3    0    0 -0.13734774265E+01  0.55246626554E+01  0.66283975770E+01  0.87375049297E+01  0.51100000000E-03 0. -1.
        -11    1    3    3    0    0 -0.11121502254E+02  0.93771557714E+01 -0.77571164865E+00  0.14567792955E+02  0.51100000000E-03 0.  1.
         12    1    3    3    0    0  0.71665747829E+01  0.25397981873E+02 -0.66864217172E+01  0.27223620493E+02  0.00000000000E+00 0. -1.
</event>
<event>
 7    1  0.2675027E-011  0.5052885E+02  0.7816164E-02  0.1300439E+00
        -11   -1    0    0    0    0  0.00000000000E+00  0.00000000000E+00  0.45593999997E+02  0.45594000000E+02  0.51100000000E-03 0.  1.
         11   -1    0    0    0    0 -0.00000000000E+00 -0.00000000000E+00 -0.45593999997E+02  0.45594000000E+02  0.51100000000E-03 0. -1.
    9900012    2    1    2    0    0 -0.18181153903E+02  0.21766452382E+02  0.29134752678E+02  0.50528848261E+02  0.29999964773E+02 0.  0.
         12    1    1    2    0    0  0.18181153903E+02 -0.21766452382E+02 -0.29134752678E+02  0.40659151739E+02  0.00000000000E+00 0. -1.
         11    1    3    3    0    0  0.25564564126E+01  0.73655716590E+00 -0.20766114597E+01  0.33749520387E+01  0.51100000000E-03 0. -1.
        -11    1    3    3    0    0 -0.14979483578E+02  0.86927033942E+01  0.56929306085E+01  0.18230674144E+02  0.51100000000E-03 0.  1.
        -12    1    3    3    0    0 -0.57581267373E+01  0.12337191821E+02  0.25518433530E+02  0.28923222078E+02  0.00000000000E+00 0.  1.
</event>
<event>
 7    1  0.2450552E-011  0.5052883E+02  0.7816164E-02  0.1300439E+00
        -11   -1    0    0    0    0  0.00000000000E+00  0.00000000000E+00  0.45593999997E+02  0.45594000000E+02  0.51100000000E-03 0. -1.
         11   -1    0    0    0    0 -0.00000000000E+00 -0.00000000000E+00 -0.45593999997E+02  0.45594000000E+02  0.51100000000E-03 0.  1.
    9900012    2    1    2    0    0 -0.18253834710E+02 -0.63169459884E+01 -0.35777955746E+02  0.50528826304E+02  0.29999898035E+02 0.  0.
         12    1    1    2    0    0  0.18253834710E+02  0.63169459884E+01  0.35777955746E+02  0.40659173696E+02  0.00000000000E+00 0. -1.
         11    1    3    3    0    0  0.41882562638E+00  0.22686230904E+01 -0.14581723356E+02  0.14763086463E+02  0.51100000000E-03 0. -1.
        -11    1    3    3    0    0 -0.25707572896E+01 -0.92771253909E+01 -0.16284506900E+02  0.18917161885E+02  0.51100000000E-03 0.  1.
         12    1    3    3    0    0 -0.16101903046E+02  0.69155631214E+00 -0.49117254909E+01  0.16848577956E+02  0.00000000000E+00 0. -1.
</event>
<event>
 7    1  0.2450552E-011  0.5052886E+02  0.7816164E-02  0.1300439E+00
        -11   -1    0    0    0    0  0.00000000000E+00  0.00000000000E+00  0.45593999997E+02  0.45594000000E+02  0.51100000000E-03 0.  1.
         11   -1    0    0    0    0 -0.00000000000E+00 -0.00000000000E+00 -0.45593999997E+02  0.45594000000E+02  0.51100000000E-03 0. -1.
    9900012    2    1    2    0    0 -0.21891829872E+02 -0.21955208611E+02  0.26303650106E+02  0.50528863152E+02  0.30000010038E+02 0.  0.
         12    1    1    2    0    0  0.21891829872E+02  0.21955208611E+02 -0.26303650106E+02  0.40659136848E+02  0.00000000000E+00 0. -1.
         11    1    3    3    0    0  0.39404737951E+01  0.17436955036E+01  0.38206162965E+01  0.57588989299E+01  0.51100000000E-03 0. -1.
        -11    1    3    3    0    0 -0.49674261983E+01 -0.45363572686E+01  0.13444822177E+02  0.15033865236E+02  0.51100000000E-03 0.  1.
         12    1    3    3    0    0 -0.20864877469E+02 -0.19162546846E+02  0.90382116324E+01  0.29736098986E+02  0.00000000000E+00 0. -1.
</event>
<event>
 7    1  0.2450552E-011  0.5052891E+02  0.7816164E-02  0.1300439E+00
        -11   -1    0    0    0    0  0.00000000000E+00  0.00000000000E+00  0.45593999997E+02  0.45594000000E+02  0.51100000000E-03 0.  1.
         11   -1    0    0    0    0 -0.00000000000E+00 -0.00000000000E+00 -0.45593999997E+02  0.45594000000E+02  0.51100000000E-03 0. -1.
    9900012    2    1    2    0    0  0.12682984093E+01  0.15784700045E+02  0.37448580078E+02  0.50528911395E+02  0.30000156675E+02 0.  0.
         12    1    1    2    0    0 -0.12682984093E+01 -0.15784700045E+02 -0.37448580078E+02  0.40659088605E+02  0.00000000000E+00 0. -1.
         11    1    3    3    0    0  0.26694396241E+01  0.75428103222E+01 -0.10108858756E+01  0.80648487883E+01  0.51100000000E-03 0. -1.
        -11    1    3    3    0    0  0.41054590834E+01 -0.31419727780E+01  0.14097963615E+02  0.15015970351E+02  0.51100000000E-03 0.  1.
        -12    1    3    3    0    0 -0.55066002982E+01  0.11383862500E+02  0.24361502339E+02  0.27448092255E+02  0.00000000000E+00 0.  1.
</event>
<event>
 7    1  0.2450552E-011  0.5052886E+02  0.7816164E-02  0.1300439E+00
        -11   -1    0    0    0    0  0.00000000000E+00  0.00000000000E+00  0.45593999997E+02  0.45594000000E+02  0.51100000000E-03 0.  1.
         11   -1    0    0    0    0 -0.00000000000E+00 -0.00000000000E+00 -0.45593999997E+02  0.45594000000E+02  0.51100000000E-03 0. -1.
    9900012    2    1    2    0    0 -0.20576294930E+02 -0.27575694119E+02  0.21664780802E+02  0.50528861465E+02  0.30000004908E+02 0.  0.
         12    1    1    2    0    0  0.20576294930E+02  0.27575694119E+02 -0.21664780802E+02  0.40659138535E+02  0.00000000000E+00 0. -1.
         11    1    3    3    0    0 -0.57866573518E+01  0.29476613809E+01  0.42226746223E+01  0.77462953823E+01  0.51100000000E-03 0. -1.
        -11    1    3    3    0    0 -0.16720606566E+02 -0.12751592981E+02  0.74872821679E+01  0.22321317211E+02  0.51100000000E-03 0.  1.
        -12    1    3    3    0    0  0.19309689875E+01 -0.17771762519E+02  0.99548240123E+01  0.20461248871E+02  0.00000000000E+00 0.  1.
</event>
<event>
 7    1  0.2450552E-011  0.5052886E+02  0.7816164E-02  0.1300439E+00
        -11   -1    0    0    0    0  0.00000000000E+00  0.00000000000E+00  0.45593999997E+02  0.45594000000E+02  0.51100000000E-03 0. -1.
         11   -1    0    0    0    0 -0.00000000000E+00 -0.00000000000E+00 -0.45593999997E+02  0.45594000000E+02  0.51100000000E-03 0.  1.
    9900012    2    1    2    0    0  0.11864712953E+02 -0.25583213414E+02 -0.29289818905E+02  0.50528859410E+02  0.29999998662E+02 0.  0.
         12    1    1    2    0    0 -0.11864712953E+02  0.25583213414E+02  0.29289818905E+02  0.40659140590E+02  0.00000000000E+00 0. -1.
         11    1    3    3    0    0 -0.11512568043E+01  0.79812732943E+00 -0.30269323223E+01  0.33353738933E+01  0.51100000000E-03 0. -1.
        -11    1    3    3    0    0  0.95759295983E+01 -0.30030824246E+02 -0.27715002552E+02  0.41972255113E+02  0.51100000000E-03 0.  1.
         12    1    3    3    0    0  0.34400401592E+01  0.36494835031E+01  0.14521159693E+01  0.52212304033E+01  0.00000000000E+00 0. -1.
</event>
<event>
 7    1  0.2450552E-011  0.5052886E+02  0.7816164E-02  0.1300439E+00
        -11   -1    0    0    0    0  0.00000000000E+00  0.00000000000E+00  0.45593999997E+02  0.45594000000E+02  0.51100000000E-03 0.  1.
         11   -1    0    0    0    0 -0.00000000000E+00 -0.00000000000E+00 -0.45593999997E+02  0.45594000000E+02  0.51100000000E-03 0. -1.
    9900012    2    1    2    0    0  0.23314766625E+02 -0.32053081997E+02  0.90657163585E+01  0.50528860544E+02  0.30000002108E+02 0.  0.
         12    1    1    2    0    0 -0.23314766625E+02  0.32053081997E+02 -0.90657163585E+01  0.40659139456E+02  0.00000000000E+00 0. -1.
         11    1    3    3    0    0  0.34693435854E+01 -0.40217011001E+01  0.65776089528E+01  0.84543104065E+01  0.51100000000E-03 0. -1.
        -11    1    3    3    0    0  0.14670847791E+02 -0.11135908462E+02  0.12023670038E+02  0.21995701253E+02  0.51100000000E-03 0.  1.
         12    1    3    3    0    0  0.51745752488E+01 -0.16895472434E+02 -0.95355626325E+01  0.20078848884E+02  0.00000000000E+00 0. -1.
</event>
<event>
 7    1  0.2450552E-011  0.5052886E+02  0.7816164E-02  0.1300439E+00
        -11   -1    0    0    0    0  0.00000000000E+00  0.00000000000E+00  0.45593999997E+02  0.45594000000E+02  0.51100000000E-03 0. -1.
         11   -1    0    0    0    0 -0.00000000000E+00 -0.00000000000E+00 -0.45593999997E+02  0.45594000000E+02  0.51100000000E-03 0.  1.
    9900012    2    1    2    0    0 -0.34546067885E+01 -0.25537789126E+02 -0.31449209722E+02  0.50528858671E+02  0.29999996415E+02 0.  0.
         12    1    1    2    0    0  0.34546067885E+01  0.25537789126E+02  0.31449209722E+02  0.40659141329E+02  0.00000000000E+00 0. -1.
         11    1    3    3    0    0 -0.50443598287E+01 -0.22805861658E+02 -0.16821841200E+02  0.28784149000E+02  0.51100000000E-03 0. -1.
        -11    1    3    3    0    0  0.35505864903E+01 -0.24108429645E+01 -0.17629630912E+02  0.18144495435E+02  0.51100000000E-03 0.  1.
         12    1    3    3    0    0 -0.19608334500E+01 -0.32108450332E+00  0.30022623905E+01  0.36002142351E+01  0.00000000000E+00 0. -1.
</event>
<event>
 7    1  0.2450552E-011  0.5052886E+02  0.7816164E-02  0.1300439E+00
        -11   -1    0    0    0    0  0.00000000000E+00  0.00000000000E+00  0.45593999997E+02  0.45594000000E+02  0.51100000000E-03 0.  1.
         11   -1    0    0    0    0 -0.00000000000E+00 -0.00000000000E+00 -0.45593999997E+02  0.45594000000E+02  0.51100000000E-03 0. -1.
    9900012    2    1    2    0    0  0.44428321030E+01 -0.35652940550E+02  0.19034043933E+02  0.50528858895E+02  0.29999997096E+02 0.  0.
         12    1    1    2    0    0 -0.44428321030E+01  0.35652940550E+02 -0.19034043933E+02  0.40659141105E+02  0.00000000000E+00 0. -1.
         11    1    3    3    0    0  0.98700993558E+01 -0.10268499600E+02  0.45527645997E+00  0.14250200779E+02  0.51100000000E-03 0. -1.
        -11    1    3    3    0    0  0.54353314619E+01 -0.13280993772E+02  0.12106873057E+02  0.18775089857E+02  0.51100000000E-03 0.  1.
         12    1    3    3    0    0 -0.10862598715E+02 -0.12103447179E+02  0.64718944162E+01  0.17503568259E+02  0.00000000000E+00 0. -1.
</event>
<event>
 7    1  0.2450552E-011  0.5052885E+02  0.7816164E-02  0.1300439E+00
        -11   -1    0    0    0    0  0.00000000000E+00  0.00000000000E+00  0.45593999997E+02  0.45594000000E+02  0.51100000000E-03 0.  1.
         11   -1    0    0    0    0 -0.00000000000E+00 -0.00000000000E+00 -0.45593999997E+02  0.45594000000E+02  0.51100000000E-03 0. -1.
    9900012    2    1    2    0    0 -0.46760480745E+01 -0.35862315793E+02 -0.18579439826E+02  0.50528847231E+02  0.29999961644E+02 0.  0.
         12    1    1    2    0    0  0.46760480745E+01  0.35862315793E+02  0.18579439826E+02  0.40659152769E+02  0.00000000000E+00 0. -1.
         11    1    3    3    0    0  0.17375518693E+01 -0.71953374786E+01 -0.86092101556E+01  0.11353874567E+02  0.51100000000E-03 0. -1.
        -11    1    3    3    0    0  0.51632214164E+01 -0.25195669491E+02 -0.55906621530E+01  0.26319880700E+02  0.51100000000E-03 0.  1.
        -12    1    3    3    0    0 -0.11576821360E+02 -0.34713088236E+01 -0.43795675169E+01  0.12855091964E+02  0.00000000000E+00 0.  1.
</event>
<event>
 7    1  0.2450552E-011  0.5052886E+02  0.7816164E-02  0.1300439E+00
        -11   -1    0    0    0    0  0.00000000000E+00  0.00000000000E+00  0.45593999997E+02  0.45594000000E+02  0.51100000000E-03 0.  1.
         11   -1    0    0    0    0 -0.00000000000E+00 -0.00000000000E+00 -0.45593999997E+02  0.45594000000E+02  0.51100000000E-03 0. -1.
    9900012    2    1    2    0    0  0.11530692967E+02 -0.18600507916E+02  0.34267037872E+02  0.50528860074E+02  0.30000000679E+02 0.  0.
         12    1    1    2    0    0 -0.11530692967E+02  0.18600507916E+02 -0.34267037872E+02  0.40659139926E+02  0.00000000000E+00 0. -1.
         11    1    3    3    0    0  0.15458133604E+02 -0.14943963492E+02  0.10863762066E+02  0.24089360013E+02  0.51100000000E-03 0. -1.
        -11    1    3    3    0    0 -0.39290998753E+01 -0.42410944880E+01  0.40066236155E+01  0.70340416081E+01  0.51100000000E-03 0.  1.
        -12    1    3    3    0    0  0.16592383867E-02  0.58455006369E+00  0.19396652191E+02  0.19405458452E+02  0.00000000000E+00 0.  1.
</event>
<event>
 7    1  0.2450552E-011  0.5052886E+02  0.7816164E-02  0.1300439E+00
        -11   -1    0    0    0    0  0.00000000000E+00  0.00000000000E+00  0.45593999997E+02  0.45594000000E+02  0.51100000000E-03 0. -1.
         11   -1    0    0    0    0 -0.00000000000E+00 -0.00000000000E+00 -0.45593999997E+02  0.45594000000E+02  0.51100000000E-03 0.  1.
    9900012    2    1    2    0    0 -0.36423771071E+02  0.46785957892E-01 -0.18068539952E+02  0.50528862971E+02  0.30000009487E+02 0.  0.
         12    1    1    2    0    0  0.36423771071E+02 -0.46785957892E-01  0.18068539952E+02  0.40659137029E+02  0.00000000000E+00 0. -1.
         11    1    3    3    0    0 -0.21985830221E+02  0.74502224275E-01  0.34724429840E+00  0.21988698460E+02  0.51100000000E-03 0. -1.
        -11    1    3    3    0    0 -0.17006311329E+02 -0.10244752623E+01 -0.10159419217E+02  0.19836279230E+02  0.51100000000E-03 0.  1.
        -12    1    3    3    0    0  0.25683704802E+01  0.99675899588E+00 -0.82563650337E+01  0.87038852813E+01  0.00000000000E+00 0.  1.
</event>
<event>
 7    1  0.2450552E-011  0.5052886E+02  0.7816164E-02  0.1300439E+00
        -11   -1    0    0    0    0  0.00000000000E+00  0.00000000000E+00  0.45593999997E+02  0.45594000000E+02  0.51100000000E-03 0.  1.
         11   -1    0    0    0    0 -0.00000000000E+00 -0.00000000000E+00 -0.45593999997E+02  0.45594000000E+02  0.51100000000E-03 0. -1.
    9900012    2    1    2    0    0 -0.50864388170E+01 -0.14353613518E+02  0.37699701810E+02  0.50528860838E+02  0.30000003002E+02 0.  0.
         12    1    1    2    0    0  0.50864388170E+01  0.14353613518E+02 -0.37699701810E+02  0.40659139162E+02  0.00000000000E+00 0. -1.
         11    1    3    3    0    0 -0.78882962589E+01 -0.67682845729E+01  0.11661855307E+02  0.15621580055E+02  0.51100000000E-03 0.  1.
        -11    1    3    3    0    0  0.18918253854E+01 -0.15332711727E+02  0.17259574547E+02  0.23163850414E+02  0.51100000000E-03 0. -1.
        -12    1    3    3    0    0  0.91003205654E+00  0.77473827817E+01  0.87782719558E+01  0.11743430369E+02  0.00000000000E+00 0.  1.
</event>
<event>
 7    1  0.2450552E-011  0.5052884E+02  0.7816164E-02  0.1300439E+00
        -11   -1    0    0    0    0  0.00000000000E+00  0.00000000000E+00  0.45593999997E+02  0.45594000000E+02  0.51100000000E-03 0.  1.
         11   -1    0    0    0    0 -0.00000000000E+00 -0.00000000000E+00 -0.45593999997E+02  0.45594000000E+02  0.51100000000E-03 0. -1.
    9900012    2    1    2    0    0 -0.17223869135E+02  0.18161873660E+02  0.32041413059E+02  0.50528837765E+02  0.29999932871E+02 0.  0.
         12    1    1    2    0    0  0.17223869135E+02 -0.18161873660E+02 -0.32041413059E+02  0.40659162235E+02  0.00000000000E+00 0. -1.
         11    1    3    3    0    0  0.32977075878E+00 -0.34644705330E+01 -0.17919503312E+01  0.39143825922E+01  0.51100000000E-03 0. -1.
        -11    1    3    3    0    0 -0.64866744053E+01  0.56872063378E+01  0.12866351940E+01  0.87221953173E+01  0.51100000000E-03 0.  1.
        -12    1    3    3    0    0 -0.11066965488E+02  0.15939137856E+02  0.32546728196E+02  0.37892259856E+02  0.00000000000E+00 0.  1.
</event>
<event>
 7    1  0.2450552E-011  0.5052886E+02  0.7816164E-02  0.1300439E+00
        -11   -1    0    0    0    0  0.00000000000E+00  0.00000000000E+00  0.45593999997E+02  0.45594000000E+02  0.51100000000E-03 0. -1.
         11   -1    0    0    0    0 -0.00000000000E+00 -0.00000000000E+00 -0.45593999997E+02  0.45594000000E+02  0.51100000000E-03 0.  1.
    9900012    2    1    2    0    0 -0.37475379350E+02  0.95947001107E+01 -0.12518110787E+02  0.50528862954E+02  0.30000009434E+02 0.  0.
         12    1    1    2    0    0  0.37475379350E+02 -0.95947001107E+01  0.12518110787E+02  0.40659137046E+02  0.00000000000E+00 0. -1.
         11    1    3    3    0    0 -0.62094836593E+01  0.71569818645E+01 -0.24706066969E+01  0.97920362763E+01  0.51100000000E-03 0. -1.
        -11    1    3    3    0    0 -0.62585760835E+01  0.11105301248E+02 -0.10844196878E+01  0.12793492749E+02  0.51100000000E-03 0.  1.
        -12    1    3    3    0    0 -0.25007319607E+02 -0.86675830016E+01 -0.89630844026E+01  0.27943333929E+02  0.00000000000E+00 0.  1.
</event>
<event>
 7    1  0.2450552E-011  0.5052886E+02  0.7816164E-02  0.1300439E+00
        -11   -1    0    0    0    0  0.00000000000E+00  0.00000000000E+00  0.45593999997E+02  0.45594000000E+02  0.51100000000E-03 0. -1.
         11   -1    0    0    0    0 -0.00000000000E+00 -0.00000000000E+00 -0.45593999997E+02  0.45594000000E+02  0.51100000000E-03 0.  1.
    9900012    2    1    2    0    0  0.16227989061E+02 -0.33636290036E+02 -0.16075382813E+02  0.50528861188E+02  0.30000004067E+02 0.  0.
         12    1    1    2    0    0 -0.16227989061E+02  0.33636290036E+02  0.16075382813E+02  0.40659138812E+02  0.00000000000E+00 0. -1.
         11    1    3    3    0    0 -0.61735523165E+01 -0.56785001043E+01 -0.46402482149E+01  0.95859279883E+01  0.51100000000E-03 0. -1.
        -11    1    3    3    0    0  0.71507756016E+01 -0.20670054236E+02 -0.30790716189E+01  0.22087675661E+02  0.51100000000E-03 0.  1.
         12    1    3    3    0    0  0.15250765776E+02 -0.72877356956E+01 -0.83560629795E+01  0.18855257538E+02  0.00000000000E+00 0. -1.
</event>
<event>
 7    1  0.2450552E-011  0.5052887E+02  0.7816164E-02  0.1300439E+00
        -11   -1    0    0    0    0  0.00000000000E+00  0.00000000000E+00  0.45593999997E+02  0.45594000000E+02  0.51100000000E-03 0.  1.
         11   -1    0    0    0    0 -0.00000000000E+00 -0.00000000000E+00 -0.45593999997E+02  0.45594000000E+02  0.51100000000E-03 0. -1.
    9900012    2    1    2    0    0  0.15471614806E+02  0.37110130500E+02  0.60524690497E+01  0.50528867791E+02  0.30000024137E+02 0.  0.
         12    1    1    2    0    0 -0.15471614806E+02 -0.37110130500E+02 -0.60524690497E+01  0.40659132209E+02  0.00000000000E+00 0. -1.
         11    1    3    3    0    0  0.31864252039E+01  0.27092117481E+02  0.50270550642E+01  0.27738194210E+02  0.51100000000E-03 0.  1.
        -11    1    3    3    0    0 -0.41991291187E+00 -0.13659170715E+01  0.50625418801E+01  0.52603599543E+01  0.51100000000E-03 0. -1.
        -12    1    3    3    0    0  0.12705102514E+02  0.11383930091E+02 -0.40371278946E+01  0.17530313626E+02  0.00000000000E+00 0.  1.
</event>
<event>
 7    1  0.2450552E-011  0.5052886E+02  0.7816164E-02  0.1300439E+00
        -11   -1    0    0    0    0  0.00000000000E+00  0.00000000000E+00  0.45593999997E+02  0.45594000000E+02  0.51100000000E-03 0.  1.
         11   -1    0    0    0    0 -0.00000000000E+00 -0.00000000000E+00 -0.45593999997E+02  0.45594000000E+02  0.51100000000E-03 0. -1.
    9900012    2    1    2    0    0  0.40610488445E+02 -0.79023970975E+00 -0.18246879222E+01  0.50528859127E+02  0.29999997803E+02 0.  0.
         12    1    1    2    0    0 -0.40610488445E+02  0.79023970975E+00  0.18246879222E+01  0.40659140873E+02  0.00000000000E+00 0. -1.
         11    1    3    3    0    0  0.15134055306E+02 -0.93379998358E+01 -0.17859122949E+01  0.17872530708E+02  0.51100000000E-03 0. -1.
        -11    1    3    3    0    0  0.17387128375E+02  0.10658873702E+01 -0.78931990429E+01  0.19124616085E+02  0.51100000000E-03 0.  1.
        -12    1    3    3    0    0  0.80893047641E+01  0.74818727558E+01  0.78544234156E+01  0.13531712334E+02  0.00000000000E+00 0.  1.
</event>
<event>
 7    1  0.2450552E-011  0.5052884E+02  0.7816164E-02  0.1300439E+00
        -11   -1    0    0    0    0  0.00000000000E+00  0.00000000000E+00  0.45593999997E+02  0.45594000000E+02  0.51100000000E-03 0. -1.
         11   -1    0    0    0    0 -0.00000000000E+00 -0.00000000000E+00 -0.45593999997E+02  0.45594000000E+02  0.51100000000E-03 0.  1.
    9900012    2    1    2    0    0 -0.25200684772E+00  0.11078657174E+02 -0.39119905237E+02  0.50528841893E+02  0.29999945417E+02 0.  0.
         12    1    1    2    0    0  0.25200684772E+00 -0.11078657174E+02  0.39119905237E+02  0.40659158107E+02  0.00000000000E+00 0. -1.
         11    1    3    3    0    0  0.10535722933E+01  0.42640401532E+01 -0.17167399305E+02  0.17720373929E+02  0.51100000000E-03 0. -1.
        -11    1    3    3    0    0  0.80634638913E+01 -0.37647440570E+01 -0.14011244834E+02  0.16598425522E+02  0.51100000000E-03 0.  1.
         12    1    3    3    0    0 -0.93690430323E+01  0.10579361078E+02 -0.79412610979E+01  0.16210042443E+02  0.00000000000E+00 0. -1.
</event>
<event>
 7    1  0.2532589E-011  0.5052886E+02  0.7816164E-02  0.1300439E+00
        -11   -1    0    0    0    0  0.00000000000E+00  0.00000000000E+00  0.45593999997E+02  0.45594000000E+02  0.51100000000E-03 0. -1.
         11   -1    0    0    0    0 -0.00000000000E+00 -0.00000000000E+00 -0.45593999997E+02  0.45594000000E+02  0.51100000000E-03 0.  1.
    9900012    2    1    2    0    0 -0.30412436457E+01  0.39029383177E+02  0.10982892446E+02  0.50528857847E+02  0.29999993912E+02 0.  0.
         12    1    1    2    0    0  0.30412436457E+01 -0.39029383177E+02 -0.10982892446E+02  0.40659142153E+02  0.00000000000E+00 0. -1.
         11    1    3    3    0    0  0.33266051516E+01  0.33577020669E+01  0.83708526545E+01  0.96130972859E+01  0.51100000000E-03 0. -1.
        -11    1    3    3    0    0  0.13445617165E+01  0.19511355414E+02  0.94842559691E+01  0.21735959787E+02  0.51100000000E-03 0.  1.
         12    1    3    3    0    0 -0.77124105138E+01  0.16160325696E+02 -0.68722161778E+01  0.19179800774E+02  0.00000000000E+00 0. -1.
</event>
<event>
 7    1  0.2450552E-011  0.5052886E+02  0.7816164E-02  0.1300439E+00
        -11   -1    0    0    0    0  0.00000000000E+00  0.00000000000E+00  0.45593999997E+02  0.45594000000E+02  0.51100000000E-03 0.  1.
         11   -1    0    0    0    0 -0.00000000000E+00 -0.00000000000E+00 -0.45593999997E+02  0.45594000000E+02  0.51100000000E-03 0. -1.
    9900012    2    1    2    0    0  0.34286074508E+01 -0.19657242397E+02  0.35426026457E+02  0.50528857385E+02  0.29999992506E+02 0.  0.
         12    1    1    2    0    0 -0.34286074508E+01  0.19657242397E+02 -0.35426026457E+02  0.40659142615E+02  0.00000000000E+00 0. -1.
         11    1    3    3    0    0  0.23574979409E+01  0.22469805598E+01  0.53197272450E+01  0.62374847815E+01  0.51100000000E-03 0. -1.
        -11    1    3    3    0    0 -0.10475553463E+02 -0.44641009263E+01  0.84198483169E+01  0.14161894767E+02  0.51100000000E-03 0.  1.
        -12    1    3    3    0    0  0.11546662973E+02 -0.17440122031E+02  0.21686450895E+02  0.30129477836E+02  0.00000000000E+00 0.  1.
</event>
<event>
 7    1  0.2450552E-011  0.5052885E+02  0.7816164E-02  0.1300439E+00
        -11   -1    0    0    0    0  0.00000000000E+00  0.00000000000E+00  0.45593999997E+02  0.45594000000E+02  0.51100000000E-03 0.  1.
         11   -1    0    0    0    0 -0.00000000000E+00 -0.00000000000E+00 -0.45593999997E+02  0.45594000000E+02  0.51100000000E-03 0. -1.
    9900012    2    1    2    0    0  0.31493315284E+02  0.11587079142E+02  0.22958160306E+02  0.50528850534E+02  0.29999971685E+02 0.  0.
         12    1    1    2    0    0 -0.31493315284E+02 -0.11587079142E+02 -0.22958160306E+02  0.40659149466E+02  0.00000000000E+00 0. -1.
         11    1    3    3    0    0  0.15280679605E+02  0.13908220348E+02  0.14938243709E+02  0.25496840742E+02  0.51100000000E-03 0. -1.
        -11    1    3    3    0    0  0.49382888311E+01  0.57188964431E+01 -0.21445790535E+01  0.78544059409E+01  0.51100000000E-03 0.  1.
        -12    1    3    3    0    0  0.11274346848E+02 -0.80400376496E+01  0.10164495650E+02  0.17177603852E+02  0.00000000000E+00 0.  1.
</event>
<event>
 7    1  0.2450552E-011  0.5052886E+02  0.7816164E-02  0.1300439E+00
        -11   -1    0    0    0    0  0.00000000000E+00  0.00000000000E+00  0.45593999997E+02  0.45594000000E+02  0.51100000000E-03 0.  1.
         11   -1    0    0    0    0 -0.00000000000E+00 -0.00000000000E+00 -0.45593999997E+02  0.45594000000E+02  0.51100000000E-03 0. -1.
    9900012    2    1    2    0    0  0.34086635989E+01 -0.11732896564E+02  0.38779965891E+02  0.50528860759E+02  0.30000002762E+02 0.  0.
         12    1    1    2    0    0 -0.34086635989E+01  0.11732896564E+02 -0.38779965891E+02  0.40659139241E+02  0.00000000000E+00 0. -1.
         11    1    3    3    0    0  0.38051712038E+01 -0.97761632552E+01  0.29672826525E+02  0.31472675929E+02  0.51100000000E-03 0. -1.
        -11    1    3    3    0    0  0.55415844433E+00  0.44413895113E+01  0.11357445387E+02  0.12207563162E+02  0.51100000000E-03 0.  1.
         12    1    3    3    0    0 -0.95066604926E+00 -0.63981228202E+01 -0.22503060207E+01  0.68486216676E+01  0.00000000000E+00 0. -1.
</event>
<event>
 7    1  0.2450552E-011  0.5052886E+02  0.7816164E-02  0.1300439E+00
        -11   -1    0    0    0    0  0.00000000000E+00  0.00000000000E+00  0.45593999997E+02  0.45594000000E+02  0.51100000000E-03 0. -1.
         11   -1    0    0    0    0 -0.00000000000E+00 -0.00000000000E+00 -0.45593999997E+02  0.45594000000E+02  0.51100000000E-03 0.  1.
    9900012    2    1    2    0    0 -0.13368195545E+02  0.48404356339E+01 -0.38092355189E+02  0.50528855972E+02  0.29999988211E+02 0.  0.
         12    1    1    2    0    0  0.13368195545E+02 -0.48404356339E+01  0.38092355189E+02  0.40659144028E+02  0.00000000000E+00 0. -1.
         11    1    3    3    0    0  0.18794423230E+01  0.46777262320E+01 -0.95445591480E+00  0.51307321604E+01  0.51100000000E-03 0. -1.
        -11    1    3    3    0    0  0.11101756936E+00  0.55771330114E+01 -0.87510510436E+00  0.56464632056E+01  0.51100000000E-03 0.  1.
        -12    1    3    3    0    0 -0.15358655437E+02 -0.54144236095E+01 -0.36262794170E+02  0.39751660606E+02  0.00000000000E+00 0.  1.
</event>
<event>
 7    1  0.2450552E-011  0.5052887E+02  0.7816164E-02  0.1300439E+00
        -11   -1    0    0    0    0  0.00000000000E+00  0.00000000000E+00  0.45593999997E+02  0.45594000000E+02  0.51100000000E-03 0.  1.
         11   -1    0    0    0    0 -0.00000000000E+00 -0.00000000000E+00 -0.45593999997E+02  0.45594000000E+02  0.51100000000E-03 0. -1.
    9900012    2    1    2    0    0  0.30418420868E+01 -0.72313184254E+01  0.39895115139E+02  0.50528868413E+02  0.30000026028E+02 0.  0.
         12    1    1    2    0    0 -0.30418420868E+01  0.72313184254E+01 -0.39895115139E+02  0.40659131587E+02  0.00000000000E+00 0. -1.
         11    1    3    3    0    0 -0.74964331097E+00  0.12537209858E+00  0.24253584728E+02  0.24265491045E+02  0.51100000000E-03 0. -1.
        -11    1    3    3    0    0 -0.66519103062E+01  0.21249676256E+01  0.55415980011E+01  0.89147465919E+01  0.51100000000E-03 0.  1.
        -12    1    3    3    0    0  0.10443395704E+02 -0.94816581495E+01  0.10099932410E+02  0.17348630776E+02  0.00000000000E+00 0.  1.
</event>
<event>
 7    1  0.2450552E-011  0.5052886E+02  0.7816164E-02  0.1300439E+00
        -11   -1    0    0    0    0  0.00000000000E+00  0.00000000000E+00  0.45593999997E+02  0.45594000000E+02  0.51100000000E-03 0.  1.
         11   -1    0    0    0    0 -0.00000000000E+00 -0.00000000000E+00 -0.45593999997E+02  0.45594000000E+02  0.51100000000E-03 0. -1.
    9900012    2    1    2    0    0 -0.66968086310E+01 -0.14870847536E+02  0.37244813433E+02  0.50528862283E+02  0.30000007394E+02 0.  0.
         12    1    1    2    0    0  0.66968086310E+01  0.14870847536E+02 -0.37244813433E+02  0.40659137717E+02  0.00000000000E+00 0. -1.
         11    1    3    3    0    0 -0.72889542471E+01  0.19409748790E+01  0.73632978569E+01  0.10541081211E+02  0.51100000000E-03 0. -1.
        -11    1    3    3    0    0  0.41063628637E+00 -0.37881201943E+01  0.26167756927E+02  0.26443713423E+02  0.51100000000E-03 0.  1.
         12    1    3    3    0    0  0.18150932965E+00 -0.13023702221E+02  0.37137586488E+01  0.13544067649E+02  0.00000000000E+00 0. -1.
</event>
<event>
 7    1  0.2450552E-011  0.5052886E+02  0.7816164E-02  0.1300439E+00
        -11   -1    0    0    0    0  0.00000000000E+00  0.00000000000E+00  0.45593999997E+02  0.45594000000E+02  0.51100000000E-03 0. -1.
         11   -1    0    0    0    0 -0.00000000000E+00 -0.00000000000E+00 -0.45593999997E+02  0.45594000000E+02  0.51100000000E-03 0.  1.
    9900012    2    1    2    0    0  0.33235325976E+02  0.22756183558E+02 -0.55438996189E+01  0.50528860734E+02  0.30000002688E+02 0.  0.
         12    1    1    2    0    0 -0.33235325976E+02 -0.22756183558E+02  0.55438996189E+01  0.40659139266E+02  0.00000000000E+00 0. -1.
         11    1    3    3    0    0 -0.11636116436E+01 -0.43241949924E+00  0.10401473455E+01  0.16195324763E+01  0.51100000000E-03 0. -1.
        -11    1    3    3    0    0  0.99173269862E+01  0.15580926877E+02 -0.12872813234E+02  0.22512840286E+02  0.51100000000E-03 0.  1.
        -12    1    3    3    0    0  0.24481610633E+02  0.76076761800E+01  0.62887662699E+01  0.26396487972E+02  0.00000000000E+00 0.  1.
</event>
<event>
 7    1  0.2450552E-011  0.5052886E+02  0.7816164E-02  0.1300439E+00
        -11   -1    0    0    0    0  0.00000000000E+00  0.00000000000E+00  0.45593999997E+02  0.45594000000E+02  0.51100000000E-03 0.  1.
         11   -1    0    0    0    0 -0.00000000000E+00 -0.00000000000E+00 -0.45593999997E+02  0.45594000000E+02  0.51100000000E-03 0. -1.
    9900012    2    1    2    0    0  0.81099117942E+01  0.10715020628E+01  0.39827715234E+02  0.50528859739E+02  0.29999999663E+02 0.  0.
         12    1    1    2    0    0 -0.81099117942E+01 -0.10715020628E+01 -0.39827715234E+02  0.40659140261E+02  0.00000000000E+00 0. -1.
         11    1    3    3    0    0  0.77462760685E+00  0.10569629311E+02  0.35403195556E+01  0.11173673278E+02  0.51100000000E-03 0. -1.
        -11    1    3    3    0    0  0.40251752112E+00  0.13114410817E+01  0.10055452032E+02  0.10148596646E+02  0.51100000000E-03 0.  1.
         12    1    3    3    0    0  0.69327666662E+01 -0.10809568330E+02  0.26231943647E+02  0.29206589815E+02  0.00000000000E+00 0. -1.
</event>
<event>
 7    1  0.2450552E-011  0.5052886E+02  0.7816164E-02  0.1300439E+00
        -11   -1    0    0    0    0  0.00000000000E+00  0.00000000000E+00  0.45593999997E+02  0.45594000000E+02  0.51100000000E-03 0.  1.
         11   -1    0    0    0    0 -0.00000000000E+00 -0.00000000000E+00 -0.45593999997E+02  0.45594000000E+02  0.51100000000E-03 0. -1.
    9900012    2    1    2    0    0 -0.10091570326E+02 -0.22629352017E+01  0.39321817215E+02  0.50528856177E+02  0.29999988835E+02 0.  0.
         12    1    1    2    0    0  0.10091570326E+02  0.22629352017E+01 -0.39321817215E+02  0.40659143823E+02  0.00000000000E+00 0. -1.
         11    1    3    3    0    0 -0.71840911452E+01  0.28923681112E+01  0.33467052989E+01  0.84366696920E+01  0.51100000000E-03 0. -1.
        -11    1    3    3    0    0  0.32087299941E+01 -0.10976076861E+01  0.34423520076E+02  0.34590163710E+02  0.51100000000E-03 0.  1.
         12    1    3    3    0    0 -0.61162091752E+01 -0.40576956268E+01  0.15515918397E+01  0.75020227747E+01  0.00000000000E+00 0. -1.
</event>
<event>
 7    1  0.2450552E-011  0.5052887E+02  0.7816164E-02  0.1300439E+00
        -11   -1    0    0    0    0  0.00000000000E+00  0.00000000000E+00  0.45593999997E+02  0.45594000000E+02  0.51100000000E-03 0. -1.
         11   -1    0    0    0    0 -0.00000000000E+00 -0.00000000000E+00 -0.45593999997E+02  0.45594000000E+02  0.51100000000E-03 0.  1.
    9900012    2    1    2    0    0  0.35980745630E+02  0.18821338101E+02  0.20756731867E+01  0.50528865194E+02  0.30000016243E+02 0.  0.
         12    1    1    2    0    0 -0.35980745630E+02 -0.18821338101E+02 -0.20756731867E+01  0.40659134806E+02  0.00000000000E+00 0. -1.
         11    1    3    3    0    0  0.19647008726E+02  0.31612155333E+01 -0.50579318473E+01  0.20532435568E+02  0.51100000000E-03 0. -1.
        -11    1    3    3    0    0  0.99508907896E+01  0.14491556391E+01 -0.40274234796E+01  0.10832378304E+02  0.51100000000E-03 0.  1.
         12    1    3    3    0    0  0.63828461145E+01  0.14210966929E+02  0.11161028514E+02  0.19164051322E+02  0.00000000000E+00 0. -1.
</event>
<event>
 7    1  0.2450552E-011  0.5052886E+02  0.7816164E-02  0.1300439E+00
        -11   -1    0    0    0    0  0.00000000000E+00  0.00000000000E+00  0.45593999997E+02  0.45594000000E+02  0.51100000000E-03 0.  1.
         11   -1    0    0    0    0 -0.00000000000E+00 -0.00000000000E+00 -0.45593999997E+02  0.45594000000E+02  0.51100000000E-03 0. -1.
    9900012    2    1    2    0    0  0.10816421129E+02  0.15292380287E+01  0.39164169745E+02  0.50528859247E+02  0.29999998168E+02 0.  0.
         12    1    1    2    0    0 -0.10816421129E+02 -0.15292380287E+01 -0.39164169745E+02  0.40659140753E+02  0.00000000000E+00 0. -1.
         11    1    3    3    0    0  0.92141028678E+01  0.10356589546E+02  0.24436622017E+02  0.28094610418E+02  0.51100000000E-03 0. -1.
        -11    1    3    3    0    0 -0.58934567167E-01 -0.27808909260E+01  0.15825712183E+02  0.16068291571E+02  0.51100000000E-03 0.  1.
        -12    1    3    3    0    0  0.16612528279E+01 -0.60464605913E+01 -0.10981644561E+01  0.63659572581E+01  0.00000000000E+00 0.  1.
</event>
<event>
 7    1  0.2450552E-011  0.5052887E+02  0.7816164E-02  0.1300439E+00
        -11   -1    0    0    0    0  0.00000000000E+00  0.00000000000E+00  0.45593999997E+02  0.45594000000E+02  0.51100000000E-03 0.  1.
         11   -1    0    0    0    0 -0.00000000000E+00 -0.00000000000E+00 -0.45593999997E+02  0.45594000000E+02  0.51100000000E-03 0. -1.
    9900012    2    1    2    0    0  0.12847720181E+02 -0.12599950986E+02  0.36460145396E+02  0.50528869648E+02  0.30000029782E+02 0.  0.
         12    1    1    2    0    0 -0.12847720181E+02  0.12599950986E+02 -0.36460145396E+02  0.40659130352E+02  0.00000000000E+00 0. -1.
         11    1    3    3    0    0  0.44072938323E+01 -0.49435970951E+01 -0.28635793615E+01  0.72155026287E+01  0.51100000000E-03 0. -1.
        -11    1    3    3    0    0 -0.21966125286E+01 -0.71810345870E+01  0.16141895118E+02  0.17803177879E+02  0.51100000000E-03 0.  1.
         12    1    3    3    0    0  0.10637038877E+02 -0.47531930407E+00  0.23181829640E+02  0.25510189140E+02  0.00000000000E+00 0. -1.
</event>
<event>
 7    1  0.2450552E-011  0.5052886E+02  0.7816164E-02  0.1300439E+00
        -11   -1    0    0    0    0  0.00000000000E+00  0.00000000000E+00  0.45593999997E+02  0.45594000000E+02  0.51100000000E-03 0. -1.
         11   -1    0    0    0    0 -0.00000000000E+00 -0.00000000000E+00 -0.45593999997E+02  0.45594000000E+02  0.51100000000E-03 0.  1.
    9900012    2    1    2    0    0  0.14830676476E+02  0.37098740504E+02 -0.75432152226E+01  0.50528860712E+02  0.30000002621E+02 0.  0.
         12    1    1    2    0    0 -0.14830676476E+02 -0.37098740504E+02  0.75432152226E+01  0.40659139288E+02  0.00000000000E+00 0. -1.
         11    1    3    3    0    0 -0.71981116359E+01  0.64408261666E+01 -0.35642285572E+01  0.10295667938E+02  0.51100000000E-03 0. -1.
        -11    1    3    3    0    0  0.66045419019E+01  0.18436265436E+02  0.19492537290E+01  0.19680331484E+02  0.51100000000E-03 0.  1.
        -12    1    3    3    0    0  0.15424246210E+02  0.12221648902E+02 -0.59282403945E+01  0.20552861290E+02  0.00000000000E+00 0.  1.
</event>
<event>
 7    1  0.2450552E-011  0.5052887E+02  0.7816164E-02  0.1300439E+00
        -11   -1    0    0    0    0  0.00000000000E+00  0.00000000000E+00  0.45593999997E+02  0.45594000000E+02  0.51100000000E-03 0.  1.
         11   -1    0    0    0    0 -0.00000000000E+00 -0.00000000000E+00 -0.45593999997E+02  0.45594000000E+02  0.51100000000E-03 0. -1.
    9900012    2    1    2    0    0  0.40250486184E+02  0.39260315382E+01  0.42011273038E+01  0.50528870247E+02  0.30000031603E+02 0.  0.
         12    1    1    2    0    0 -0.40250486184E+02 -0.39260315382E+01 -0.42011273038E+01  0.40659129753E+02  0.00000000000E+00 0. -1.
         11    1    3    3    0    0  0.96356844391E+00  0.10386376053E+01  0.41449234152E+01  0.43803678613E+01  0.51100000000E-03 0. -1.
        -11    1    3    3    0    0  0.41224696452E+02  0.33555194669E+00  0.35854639596E+01  0.41381683687E+02  0.51100000000E-03 0.  1.
         12    1    3    3    0    0 -0.19377787125E+01  0.25518419862E+01 -0.35292600710E+01  0.47668186991E+01  0.00000000000E+00 0. -1.
</event>
<event>
 7    1  0.2450552E-011  0.5052888E+02  0.7816164E-02  0.1300439E+00
        -11   -1    0    0    0    0  0.00000000000E+00  0.00000000000E+00  0.45593999997E+02  0.45594000000E+02  0.51100000000E-03 0. -1.
         11   -1    0    0    0    0 -0.00000000000E+00 -0.00000000000E+00 -0.45593999997E+02  0.45594000000E+02  0.51100000000E-03 0.  1.
    9900012    2    1    2    0    0  0.32986089616E+02  0.23333725355E+02 -0.45408559342E+01  0.50528877780E+02  0.30000054499E+02 0.  0.
         12    1    1    2    0    0 -0.32986089616E+02 -0.23333725355E+02  0.45408559342E+01  0.40659122220E+02  0.00000000000E+00 0. -1.
         11    1    3    3    0    0  0.14690162158E+02  0.45379426345E+01 -0.99506539585E+01  0.18314183084E+02  0.51100000000E-03 0. -1.
        -11    1    3    3    0    0  0.14682122204E+02  0.14005107122E+02 -0.43556704437E+01  0.20752821572E+02  0.51100000000E-03 0.  1.
        -12    1    3    3    0    0  0.36138052540E+01  0.47906755982E+01  0.97654684680E+01  0.11461873124E+02  0.00000000000E+00 0.  1.
</event>
<event>
 7    1  0.2450552E-011  0.5052882E+02  0.7816164E-02  0.1300439E+00
        -11   -1    0    0    0    0  0.00000000000E+00  0.00000000000E+00  0.45593999997E+02  0.45594000000E+02  0.51100000000E-03 0.  1.
         11   -1    0    0    0    0 -0.00000000000E+00 -0.00000000000E+00 -0.45593999997E+02  0.45594000000E+02  0.51100000000E-03 0. -1.
    9900012    2    1    2    0    0  0.10665606179E+02 -0.22828813826E+02  0.31910168843E+02  0.50528821805E+02  0.29999884359E+02 0.  0.
         12    1    1    2    0    0 -0.10665606179E+02  0.22828813826E+02 -0.31910168843E+02  0.40659178195E+02  0.00000000000E+00 0. -1.
         11    1    3    3    0    0 -0.42009596578E+01  0.32956186741E+01  0.85346323926E+01  0.10067229750E+02  0.51100000000E-03 0. -1.
        -11    1    3    3    0    0 -0.15184461344E+01 -0.97281457794E+01  0.68896245824E+01  0.12017047313E+02  0.51100000000E-03 0.  1.
         12    1    3    3    0    0  0.16385011971E+02 -0.16396286720E+02  0.16485911868E+02  0.28444544743E+02  0.00000000000E+00 0. -1.
</event>
<event>
 7    1  0.2450552E-011  0.5052886E+02  0.7816164E-02  0.1300439E+00
        -11   -1    0    0    0    0  0.00000000000E+00  0.00000000000E+00  0.45593999997E+02  0.45594000000E+02  0.51100000000E-03 0.  1.
         11   -1    0    0    0    0 -0.00000000000E+00 -0.00000000000E+00 -0.45593999997E+02  0.45594000000E+02  0.51100000000E-03 0. -1.
    9900012    2    1    2    0    0 -0.38831700056E+02  0.65246055959E+01  0.10133815273E+02  0.50528860567E+02  0.30000002181E+02 0.  0.
         12    1    1    2    0    0  0.38831700056E+02 -0.65246055959E+01 -0.10133815273E+02  0.40659139433E+02  0.00000000000E+00 0. -1.
         11    1    3    3    0    0 -0.14554177672E+01 -0.80062037264E+00  0.36723790401E+01  0.40305833242E+01  0.51100000000E-03 0. -1.
        -11    1    3    3    0    0 -0.66257546461E+01  0.75139657146E+01  0.11593146251E+02  0.15321923693E+02  0.51100000000E-03 0.  1.
         12    1    3    3    0    0 -0.30750527643E+02 -0.18873974607E+00 -0.51317100182E+01  0.31176353550E+02  0.00000000000E+00 0. -1.
</event>
<event>
 7    1  0.2450552E-011  0.5052886E+02  0.7816164E-02  0.1300439E+00
        -11   -1    0    0    0    0  0.00000000000E+00  0.00000000000E+00  0.45593999997E+02  0.45594000000E+02  0.51100000000E-03 0. -1.
         11   -1    0    0    0    0 -0.00000000000E+00 -0.00000000000E+00 -0.45593999997E+02  0.45594000000E+02  0.51100000000E-03 0.  1.
    9900012    2    1    2    0    0 -0.11468446929E+02  0.14603778621E+02 -0.36171395690E+02  0.50528862145E+02  0.30000006975E+02 0.  0.
         12    1    1    2    0    0  0.11468446929E+02 -0.14603778621E+02  0.36171395690E+02  0.40659137855E+02  0.00000000000E+00 0. -1.
         11    1    3    3    0    0  0.71963526129E+01  0.24382625780E+01 -0.68838558518E+01  0.10252808736E+02  0.51100000000E-03 0. -1.
        -11    1    3    3    0    0 -0.27528877848E+01  0.93548674871E+01 -0.46275756541E+01  0.10793812744E+02  0.51100000000E-03 0.  1.
         12    1    3    3    0    0 -0.15911911757E+02  0.28106485560E+01 -0.24659964184E+02  0.29482240665E+02  0.00000000000E+00 0. -1.
</event>
<event>
 7    1  0.2450552E-011  0.5052886E+02  0.7816164E-02  0.1300439E+00
        -11   -1    0    0    0    0  0.00000000000E+00  0.00000000000E+00  0.45593999997E+02  0.45594000000E+02  0.51100000000E-03 0. -1.
         11   -1    0    0    0    0 -0.00000000000E+00 -0.00000000000E+00 -0.45593999997E+02  0.45594000000E+02  0.51100000000E-03 0.  1.
    9900012    2    1    2    0    0  0.34680917274E+02 -0.14952407680E+02 -0.15060708325E+02  0.50528862606E+02  0.30000008377E+02 0.  0.
         12    1    1    2    0    0 -0.34680917274E+02  0.14952407680E+02  0.15060708325E+02  0.40659137394E+02  0.00000000000E+00 0. -1.
         11    1    3    3    0    0  0.13702849814E+02  0.57715272401E+01 -0.25743843662E+01  0.15089932897E+02  0.51100000000E-03 0. -1.
        -11    1    3    3    0    0  0.13049754878E+02 -0.56470425578E+01  0.16539393267E+00  0.14220145830E+02  0.51100000000E-03 0.  1.
         12    1    3    3    0    0  0.79283125824E+01 -0.15076892362E+02 -0.12651717891E+02  0.21218783879E+02  0.00000000000E+00 0. -1.
</event>
<event>
 7    1  0.2450552E-011  0.5052886E+02  0.7816164E-02  0.1300439E+00
        -11   -1    0    0    0    0  0.00000000000E+00  0.00000000000E+00  0.45593999997E+02  0.45594000000E+02  0.51100000000E-03 0.  1.
         11   -1    0    0    0    0 -0.00000000000E+00 -0.00000000000E+00 -0.45593999997E+02  0.45594000000E+02  0.51100000000E-03 0. -1.
    9900012    2    1    2    0    0 -0.16751933321E+02 -0.10475983030E+02  0.35535783840E+02  0.50528862976E+02  0.30000009501E+02 0.  0.
         12    1    1    2    0    0  0.16751933321E+02  0.10475983030E+02 -0.35535783840E+02  0.40659137024E+02  0.00000000000E+00 0. -1.
         11    1    3    3    0    0 -0.59694920780E+01  0.38751560639E+01  0.69348561665E+01  0.99369965533E+01  0.51100000000E-03 0. -1.
        -11    1    3    3    0    0  0.72638475915E+00 -0.15558845237E+00 -0.35409298945E+01  0.36180142846E+01  0.51100000000E-03 0.  1.
        -12    1    3    3    0    0 -0.11508826002E+02 -0.14195550642E+02  0.32141857568E+02  0.36973852138E+02  0.00000000000E+00 0.  1.
</event>
<event>
 7    1  0.2450552E-011  0.5052886E+02  0.7816164E-02  0.1300439E+00
        -11   -1    0    0    0    0  0.00000000000E+00  0.00000000000E+00  0.45593999997E+02  0.45594000000E+02  0.51100000000E-03 0.  1.
         11   -1    0    0    0    0 -0.00000000000E+00 -0.00000000000E+00 -0.45593999997E+02  0.45594000000E+02  0.51100000000E-03 0. -1.
    9900012    2    1    2    0    0  0.13485859168E+02 -0.24143303740E+02  0.29806010023E+02  0.50528859005E+02  0.29999997432E+02 0.  0.
         12    1    1    2    0    0 -0.13485859168E+02  0.24143303740E+02 -0.29806010023E+02  0.40659140995E+02  0.00000000000E+00 0. -1.
         11    1    3    3    0    0  0.13564756263E+02 -0.52351648545E+01  0.10560915962E+02  0.17970601263E+02  0.51100000000E-03 0. -1.
        -11    1    3    3    0    0  0.25637094151E+00 -0.16879431379E+02  0.42303298531E+01  0.17403350846E+02  0.51100000000E-03 0.  1.
         12    1    3    3    0    0 -0.33526803680E+00 -0.20287075058E+01  0.15014764208E+02  0.15154906896E+02  0.00000000000E+00 0. -1.
</event>
<event>
 7    1  0.2450552E-011  0.5052885E+02  0.7816164E-02  0.1300439E+00
        -11   -1    0    0    0    0  0.00000000000E+00  0.00000000000E+00  0.45593999997E+02  0.45594000000E+02  0.51100000000E-03 0.  1.
         11   -1    0    0    0    0 -0.00000000000E+00 -0.00000000000E+00 -0.45593999997E+02  0.45594000000E+02  0.51100000000E-03 0. -1.
    9900012    2    1    2    0    0 -0.69595938478E+01 -0.33170353105E+02  0.22460138554E+02  0.50528854713E+02  0.29999984385E+02 0.  0.
         12    1    1    2    0    0  0.69595938478E+01  0.33170353105E+02 -0.22460138554E+02  0.40659145287E+02  0.00000000000E+00 0. -1.
         11    1    3    3    0    0 -0.38231192172E+01  0.20826632724E+00  0.29785306421E+00  0.38403557284E+01  0.51100000000E-03 0. -1.
        -11    1    3    3    0    0 -0.41828033377E+01 -0.19120348894E+02 -0.85656598529E+00  0.19591255476E+02  0.51100000000E-03 0.  1.
        -12    1    3    3    0    0  0.10463287070E+01 -0.14258270538E+02  0.23018851475E+02  0.27097243508E+02  0.00000000000E+00 0.  1.
</event>
<event>
 7    1  0.2450552E-011  0.5052886E+02  0.7816164E-02  0.1300439E+00
        -11   -1    0    0    0    0  0.00000000000E+00  0.00000000000E+00  0.45593999997E+02  0.45594000000E+02  0.51100000000E-03 0. -1.
         11   -1    0    0    0    0 -0.00000000000E+00 -0.00000000000E+00 -0.45593999997E+02  0.45594000000E+02  0.51100000000E-03 0.  1.
    9900012    2    1    2    0    0  0.18429383911E+02  0.34489799301E+02 -0.11134506072E+02  0.50528859913E+02  0.30000000190E+02 0.  0.
         12    1    1    2    0    0 -0.18429383911E+02 -0.34489799301E+02  0.11134506072E+02  0.40659140087E+02  0.00000000000E+00 0. -1.
         11    1    3    3    0    0  0.40666320254E+00  0.14291106658E+01  0.42739016662E+01  0.45248168989E+01  0.51100000000E-03 0. -1.
        -11    1    3    3    0    0 -0.19831690014E+01  0.12876186213E+02 -0.11384641975E+02  0.17301422017E+02  0.51100000000E-03 0.  1.
        -12    1    3    3    0    0  0.20005889710E+02  0.20184502422E+02 -0.40237657641E+01  0.28702620996E+02  0.00000000000E+00 0.  1.
</event>
<event>
 7    1  0.2450552E-011  0.5052885E+02  0.7816164E-02  0.1300439E+00
        -11   -1    0    0    0    0  0.00000000000E+00  0.00000000000E+00  0.45593999997E+02  0.45594000000E+02  0.51100000000E-03 0. -1.
         11   -1    0    0    0    0 -0.00000000000E+00 -0.00000000000E+00 -0.45593999997E+02  0.45594000000E+02  0.51100000000E-03 0.  1.
    9900012    2    1    2    0    0  0.36787193475E+02  0.17316127757E+02 -0.14365263031E+00  0.50528849488E+02  0.29999968503E+02 0.  0.
         12    1    1    2    0    0 -0.36787193475E+02 -0.17316127757E+02  0.14365263031E+00  0.40659150512E+02  0.00000000000E+00 0. -1.
         11    1    3    3    0    0  0.24752007888E+02  0.56186181216E+01 -0.18568098828E+01  0.25449528626E+02  0.51100000000E-03 0. -1.
        -11    1    3    3    0    0  0.15813824072E+02  0.38014728352E+01  0.12931480962E+01  0.16315650761E+02  0.51100000000E-03 0.  1.
         12    1    3    3    0    0 -0.37786384847E+01  0.78960367999E+01  0.42000915625E+00  0.87636701007E+01  0.00000000000E+00 0. -1.
</event>
<event>
 7    1  0.2450552E-011  0.5052886E+02  0.7816164E-02  0.1300439E+00
        -11   -1    0    0    0    0  0.00000000000E+00  0.00000000000E+00  0.45593999997E+02  0.45594000000E+02  0.51100000000E-03 0.  1.
         11   -1    0    0    0    0 -0.00000000000E+00 -0.00000000000E+00 -0.45593999997E+02  0.45594000000E+02  0.51100000000E-03 0. -1.
    9900012    2    1    2    0    0 -0.28167301300E+02 -0.64746326371E+01  0.28598041833E+02  0.50528859244E+02  0.29999998159E+02 0.  0.
         12    1    1    2    0    0  0.28167301300E+02  0.64746326371E+01 -0.28598041833E+02  0.40659140756E+02  0.00000000000E+00 0. -1.
         11    1    3    3    0    0 -0.10066793308E+02 -0.44929105511E+01 -0.18247858519E+00  0.11025419331E+02  0.51100000000E-03 0. -1.
        -11    1    3    3    0    0 -0.10527592115E+02 -0.10860785038E+02  0.18938138227E+02  0.24237160047E+02  0.51100000000E-03 0.  1.
         12    1    3    3    0    0 -0.75729158776E+01  0.88790629515E+01  0.98423821907E+01  0.15266279867E+02  0.00000000000E+00 0. -1.
</event>
<event>
 7    1  0.2450552E-011  0.5052888E+02  0.7816164E-02  0.1300439E+00
        -11   -1    0    0    0    0  0.00000000000E+00  0.00000000000E+00  0.45593999997E+02  0.45594000000E+02  0.51100000000E-03 0.  1.
         11   -1    0    0    0    0 -0.00000000000E+00 -0.00000000000E+00 -0.45593999997E+02  0.45594000000E+02  0.51100000000E-03 0. -1.
    9900012    2    1    2    0    0 -0.21949104506E+01 -0.14278729128E+02  0.38006109320E+02  0.50528879460E+02  0.30000059608E+02 0.  0.
         12    1    1    2    0    0  0.21949104506E+01  0.14278729128E+02 -0.38006109320E+02  0.40659120540E+02  0.00000000000E+00 0. -1.
         11    1    3    3    0    0 -0.61185962750E+01  0.29865007384E+01  0.12224070420E+02  0.13992294484E+02  0.51100000000E-03 0. -1.
        -11    1    3    3    0    0 -0.71711288713E+01 -0.10836574733E+02  0.14329971536E+02  0.19344366769E+02  0.51100000000E-03 0.  1.
        -12    1    3    3    0    0  0.11094814696E+02 -0.64286551343E+01  0.11452067364E+02  0.17192218207E+02  0.00000000000E+00 0.  1.
</event>
<event>
 7    1  0.2450552E-011  0.5052889E+02  0.7816164E-02  0.1300439E+00
        -11   -1    0    0    0    0  0.00000000000E+00  0.00000000000E+00  0.45593999997E+02  0.45594000000E+02  0.51100000000E-03 0.  1.
         11   -1    0    0    0    0 -0.00000000000E+00 -0.00000000000E+00 -0.45593999997E+02  0.45594000000E+02  0.51100000000E-03 0. -1.
    9900012    2    1    2    0    0  0.12577309482E+02  0.24466951174E+02  0.29938984049E+02  0.50528890572E+02  0.30000093383E+02 0.  0.
         12    1    1    2    0    0 -0.12577309482E+02 -0.24466951174E+02 -0.29938984049E+02  0.40659109428E+02  0.00000000000E+00 0. -1.
         11    1    3    3    0    0  0.17865141299E+01  0.89544467138E+01  0.42058499040E+01  0.10053005638E+02  0.51100000000E-03 0. -1.
        -11    1    3    3    0    0 -0.36368794140E+01  0.11732924945E+02  0.21846793700E+02  0.25063336068E+02  0.51100000000E-03 0.  1.
        -12    1    3    3    0    0  0.14427674767E+02  0.37795795151E+01  0.38863404450E+01  0.15412548866E+02  0.00000000000E+00 0.  1.
</event>
<event>
 7    1  0.2450552E-011  0.5052886E+02  0.7816164E-02  0.1300439E+00
        -11   -1    0    0    0    0  0.00000000000E+00  0.00000000000E+00  0.45593999997E+02  0.45594000000E+02  0.51100000000E-03 0.  1.
         11   -1    0    0    0    0 -0.00000000000E+00 -0.00000000000E+00 -0.45593999997E+02  0.45594000000E+02  0.51100000000E-03 0. -1.
    9900012    2    1    2    0    0 -0.67132914462E+01 -0.39682257447E+02 -0.57806337306E+01  0.50528861243E+02  0.30000004234E+02 0.  0.
         12    1    1    2    0    0  0.67132914462E+01  0.39682257447E+02  0.57806337306E+01  0.40659138757E+02  0.00000000000E+00 0. -1.
         11    1    3    3    0    0  0.14753486413E+01  0.15137162887E+01 -0.23319790632E+01  0.31473984858E+01  0.51100000000E-03 0. -1.
        -11    1    3    3    0    0  0.50248250246E+01 -0.27813675528E+02 -0.41223922512E+01  0.28562974828E+02  0.51100000000E-03 0.  1.
        -12    1    3    3    0    0 -0.13213465112E+02 -0.13382298208E+02  0.67373758382E+00  0.18818487929E+02  0.00000000000E+00 0.  1.
</event>
<event>
 7    1  0.2450552E-011  0.5052895E+02  0.7816164E-02  0.1300438E+00
        -11   -1    0    0    0    0  0.00000000000E+00  0.00000000000E+00  0.45593999997E+02  0.45594000000E+02  0.51100000000E-03 0. -1.
         11   -1    0    0    0    0 -0.00000000000E+00 -0.00000000000E+00 -0.45593999997E+02  0.45594000000E+02  0.51100000000E-03 0.  1.
    9900012    2    1    2    0    0 -0.38862755977E+02  0.84802833171E+01  0.84219691216E+01  0.50528947242E+02  0.30000265637E+02 0.  0.
         12    1    1    2    0    0  0.38862755977E+02 -0.84802833171E+01 -0.84219691216E+01  0.40659052758E+02  0.00000000000E+00 0. -1.
         11    1    3    3    0    0 -0.13601551803E+02 -0.25886517965E+00  0.14628233975E+02  0.19976347317E+02  0.51100000000E-03 0. -1.
        -11    1    3    3    0    0 -0.19320122827E+02  0.16004459436E-01 -0.47788229909E+01  0.19902375527E+02  0.51100000000E-03 0.  1.
        -12    1    3    3    0    0 -0.59410813470E+01  0.87231440374E+01 -0.14274418625E+01  0.10650224399E+02  0.00000000000E+00 0.  1.
</event>
<event>
 7    1  0.2450552E-011  0.5052889E+02  0.7816164E-02  0.1300439E+00
        -11   -1    0    0    0    0  0.00000000000E+00  0.00000000000E+00  0.45593999997E+02  0.45594000000E+02  0.51100000000E-03 0.  1.
         11   -1    0    0    0    0 -0.00000000000E+00 -0.00000000000E+00 -0.45593999997E+02  0.45594000000E+02  0.51100000000E-03 0. -1.
    9900012    2    1    2    0    0  0.18883693819E+02 -0.34369509276E+02  0.10738055216E+02  0.50528894133E+02  0.30000104205E+02 0.  0.
         12    1    1    2    0    0 -0.18883693819E+02  0.34369509276E+02 -0.10738055216E+02  0.40659105867E+02  0.00000000000E+00 0. -1.
         11    1    3    3    0    0 -0.91375352673E+00 -0.20876502213E+02  0.14857973366E+01  0.20949245431E+02  0.51100000000E-03 0. -1.
        -11    1    3    3    0    0  0.20135678917E+01 -0.71637842660E+01  0.75911193752E+01  0.10630115441E+02  0.51100000000E-03 0.  1.
         12    1    3    3    0    0  0.17783879454E+02 -0.63292227969E+01  0.16611385047E+01  0.18949533260E+02  0.00000000000E+00 0. -1.
</event>
<event>
 7    1  0.2450552E-011  0.5052886E+02  0.7816164E-02  0.1300439E+00
        -11   -1    0    0    0    0  0.00000000000E+00  0.00000000000E+00  0.45593999997E+02  0.45594000000E+02  0.51100000000E-03 0.  1.
         11   -1    0    0    0    0 -0.00000000000E+00 -0.00000000000E+00 -0.45593999997E+02  0.45594000000E+02  0.51100000000E-03 0. -1.
    9900012    2    1    2    0    0 -0.11133314430E+02 -0.23574382265E+02  0.31200379571E+02  0.50528857428E+02  0.29999992637E+02 0.  0.
         12    1    1    2    0    0  0.11133314430E+02  0.23574382265E+02 -0.31200379571E+02  0.40659142572E+02  0.00000000000E+00 0. -1.
         11    1    3    3    0    0  0.38014600722E+01  0.45947101977E+01  0.51824537109E+01  0.79006510623E+01  0.51100000000E-03 0.  1.
        -11    1    3    3    0    0 -0.41769255154E+01 -0.40034421820E+01  0.10423589050E+02  0.11921638520E+02  0.51100000000E-03 0. -1.
        -12    1    3    3    0    0 -0.10757848987E+02 -0.24165650280E+02  0.15594336810E+02  0.30706567845E+02  0.00000000000E+00 0.  1.
</event>
<event>
 7    1  0.2450552E-011  0.5052885E+02  0.7816164E-02  0.1300439E+00
        -11   -1    0    0    0    0  0.00000000000E+00  0.00000000000E+00  0.45593999997E+02  0.45594000000E+02  0.51100000000E-03 0.  1.
         11   -1    0    0    0    0 -0.00000000000E+00 -0.00000000000E+00 -0.45593999997E+02  0.45594000000E+02  0.51100000000E-03 0. -1.
    9900012    2    1    2    0    0 -0.14470168588E+02 -0.23138953722E+02  0.30139163474E+02  0.50528854249E+02  0.29999982975E+02 0.  0.
         12    1    1    2    0    0  0.14470168588E+02  0.23138953722E+02 -0.30139163474E+02  0.40659145751E+02  0.00000000000E+00 0. -1.
         11    1    3    3    0    0 -0.83534394179E+01 -0.18769805081E+02  0.43020464400E+01  0.20990310544E+02  0.51100000000E-03 0. -1.
        -11    1    3    3    0    0 -0.11377871217E+01  0.30781159141E+01  0.15061296773E+01  0.36107871691E+01  0.51100000000E-03 0.  1.
        -12    1    3    3    0    0 -0.49789420484E+01 -0.74472645552E+01  0.24330987356E+02  0.25927756536E+02  0.00000000000E+00 0.  1.
</event>
<event>
 7    1  0.2450552E-011  0.5052882E+02  0.7816164E-02  0.1300439E+00
        -11   -1    0    0    0    0  0.00000000000E+00  0.00000000000E+00  0.45593999997E+02  0.45594000000E+02  0.51100000000E-03 0.  1.
         11   -1    0    0    0    0 -0.00000000000E+00 -0.00000000000E+00 -0.45593999997E+02  0.45594000000E+02  0.51100000000E-03 0. -1.
    9900012    2    1    2    0    0 -0.35748184235E+02 -0.89738974781E+01  0.17166984421E+02  0.50528820640E+02  0.29999880818E+02 0.  0.
         12    1    1    2    0    0  0.35748184235E+02  0.89738974781E+01 -0.17166984421E+02  0.40659179360E+02  0.00000000000E+00 0. -1.
         11    1    3    3    0    0 -0.10327884890E+01 -0.98418188556E+00  0.36883695427E+01  0.39546600602E+01  0.51100000000E-03 0. -1.
        -11    1    3    3    0    0 -0.24316998310E+02  0.54011039250E+01 -0.88705143509E-02  0.24909604762E+02  0.51100000000E-03 0.  1.
        -12    1    3    3    0    0 -0.10398397436E+02 -0.13390819517E+02  0.13487485393E+02  0.21664555819E+02  0.00000000000E+00 0.  1.
</event>
<event>
 7    1  0.2450552E-011  0.5052887E+02  0.7816164E-02  0.1300439E+00
        -11   -1    0    0    0    0  0.00000000000E+00  0.00000000000E+00  0.45593999997E+02  0.45594000000E+02  0.51100000000E-03 0.  1.
         11   -1    0    0    0    0 -0.00000000000E+00 -0.00000000000E+00 -0.45593999997E+02  0.45594000000E+02  0.51100000000E-03 0. -1.
    9900012    2    1    2    0    0 -0.22575704496E+02  0.33807087307E+02 -0.76346801356E+00  0.50528874713E+02  0.30000045178E+02 0.  0.
         12    1    1    2    0    0  0.22575704496E+02 -0.33807087307E+02  0.76346801356E+00  0.40659125287E+02  0.00000000000E+00 0. -1.
         11    1    3    3    0    0 -0.39567656558E+01  0.45781997527E+01 -0.48952480036E+01  0.77832744208E+01  0.51100000000E-03 0. -1.
        -11    1    3    3    0    0 -0.17736668183E+02  0.32866270524E+02  0.24205552683E+00  0.37347553166E+02  0.51100000000E-03 0.  1.
         12    1    3    3    0    0 -0.88227065698E+00 -0.36373829692E+01  0.38897244633E+01  0.53980471262E+01  0.00000000000E+00 0. -1.
</event>
<event>
 7    1  0.2450552E-011  0.5052883E+02  0.7816164E-02  0.1300439E+00
        -11   -1    0    0    0    0  0.00000000000E+00  0.00000000000E+00  0.45593999997E+02  0.45594000000E+02  0.51100000000E-03 0.  1.
         11   -1    0    0    0    0 -0.00000000000E+00 -0.00000000000E+00 -0.45593999997E+02  0.45594000000E+02  0.51100000000E-03 0. -1.
    9900012    2    1    2    0    0 -0.35205888852E+02 -0.23816558416E+01  0.20200024180E+02  0.50528832876E+02  0.29999918009E+02 0.  0.
         12    1    1    2    0    0  0.35205888852E+02  0.23816558416E+01 -0.20200024180E+02  0.40659167124E+02  0.00000000000E+00 0. -1.
         11    1    3    3    0    0  0.20147527964E+01  0.11007064133E+01  0.44192870296E+01  0.49800483482E+01  0.51100000000E-03 0. -1.
        -11    1    3    3    0    0 -0.13082146338E+02 -0.10283072235E+02  0.15440722965E+01  0.16711322117E+02  0.51100000000E-03 0.  1.
        -12    1    3    3    0    0 -0.24138495310E+02  0.68007099805E+01  0.14236664854E+02  0.28837462410E+02  0.00000000000E+00 0.  1.
</event>
<event>
 7    1  0.2450552E-011  0.5052886E+02  0.7816164E-02  0.1300439E+00
        -11   -1    0    0    0    0  0.00000000000E+00  0.00000000000E+00  0.45593999997E+02  0.45594000000E+02  0.51100000000E-03 0. -1.
         11   -1    0    0    0    0 -0.00000000000E+00 -0.00000000000E+00 -0.45593999997E+02  0.45594000000E+02  0.51100000000E-03 0.  1.
    9900012    2    1    2    0    0 -0.57486515249E+01  0.34826479146E+02 -0.20180065746E+02  0.50528859606E+02  0.29999999257E+02 0.  0.
         12    1    1    2    0    0  0.57486515249E+01 -0.34826479146E+02  0.20180065746E+02  0.40659140394E+02  0.00000000000E+00 0. -1.
         11    1    3    3    0    0  0.35604489991E+01  0.36040349085E+01  0.16322729220E+01  0.53226102478E+01  0.51100000000E-03 0. -1.
        -11    1    3    3    0    0 -0.76647204735E+01  0.34059503765E+02 -0.15719600999E+02  0.38287120452E+02  0.51100000000E-03 0.  1.
         12    1    3    3    0    0 -0.16443800506E+01 -0.28370595272E+01 -0.60927376692E+01  0.69191289059E+01  0.00000000000E+00 0. -1.
</event>
<event>
 7    1  0.2450552E-011  0.5052886E+02  0.7816164E-02  0.1300439E+00
        -11   -1    0    0    0    0  0.00000000000E+00  0.00000000000E+00  0.45593999997E+02  0.45594000000E+02  0.51100000000E-03 0. -1.
         11   -1    0    0    0    0 -0.00000000000E+00 -0.00000000000E+00 -0.45593999997E+02  0.45594000000E+02  0.51100000000E-03 0.  1.
    9900012    2    1    2    0    0  0.30275804724E+02 -0.29069936578E+00 -0.27137737926E+02  0.50528859852E+02  0.30000000005E+02 0.  0.
         12    1    1    2    0    0 -0.30275804724E+02  0.29069936578E+00  0.27137737926E+02  0.40659140148E+02  0.00000000000E+00 0. -1.
         11    1    3    3    0    0  0.90969635117E+01 -0.95935009922E+01 -0.11304989240E+02  0.17395194406E+02  0.51100000000E-03 0.  1.
        -11    1    3    3    0    0  0.16997405984E+02  0.65997116467E+01 -0.18933904943E+01  0.18331746557E+02  0.51100000000E-03 0. -1.
         12    1    3    3    0    0  0.41814352292E+01  0.27030899797E+01 -0.13939358192E+02  0.14801918890E+02  0.00000000000E+00 0. -1.
</event>
<event>
 7    1  0.2450552E-011  0.5052888E+02  0.7816164E-02  0.1300439E+00
        -11   -1    0    0    0    0  0.00000000000E+00  0.00000000000E+00  0.45593999997E+02  0.45594000000E+02  0.51100000000E-03 0.  1.
         11   -1    0    0    0    0 -0.00000000000E+00 -0.00000000000E+00 -0.45593999997E+02  0.45594000000E+02  0.51100000000E-03 0. -1.
    9900012    2    1    2    0    0  0.93098159616E+01  0.34067476697E+02  0.20146910334E+02  0.50528884936E+02  0.30000076252E+02 0.  0.
         12    1    1    2    0    0 -0.93098159616E+01 -0.34067476697E+02 -0.20146910334E+02  0.40659115064E+02  0.00000000000E+00 0. -1.
         11    1    3    3    0    0 -0.43505192755E+01  0.13505960482E+01 -0.24960921664E+01  0.51943819668E+01  0.51100000000E-03 0. -1.
        -11    1    3    3    0    0  0.69352522172E+01  0.10316862234E+02  0.17369355748E+02  0.21359538596E+02  0.51100000000E-03 0.  1.
        -12    1    3    3    0    0  0.67250830200E+01  0.22400018415E+02  0.52736467524E+01  0.23974964373E+02  0.00000000000E+00 0.  1.
</event>
<event>
 7    1  0.2450552E-011  0.5052881E+02  0.7816164E-02  0.1300439E+00
        -11   -1    0    0    0    0  0.00000000000E+00  0.00000000000E+00  0.45593999997E+02  0.45594000000E+02  0.51100000000E-03 0.  1.
         11   -1    0    0    0    0 -0.00000000000E+00 -0.00000000000E+00 -0.45593999997E+02  0.45594000000E+02  0.51100000000E-03 0. -1.
    9900012    2    1    2    0    0 -0.28083935144E+02  0.21526493353E+02  0.20026798202E+02  0.50528807000E+02  0.29999839357E+02 0.  0.
         12    1    1    2    0    0  0.28083935144E+02 -0.21526493353E+02 -0.20026798202E+02  0.40659193000E+02  0.00000000000E+00 0. -1.
         11    1    3    3    0    0 -0.12658240039E+02  0.10667572080E+02  0.21180951085E+00  0.16555150211E+02  0.51100000000E-03 0. -1.
        -11    1    3    3    0    0  0.22245201645E+00  0.80827337854E+01 -0.59299592363E+00  0.81075097763E+01  0.51100000000E-03 0.  1.
        -12    1    3    3    0    0 -0.15648147121E+02  0.27761874875E+01  0.20407984614E+02  0.25866147013E+02  0.00000000000E+00 0.  1.
</event>
<event>
 7    1  0.2450552E-011  0.5052885E+02  0.7816164E-02  0.1300439E+00
        -11   -1    0    0    0    0  0.00000000000E+00  0.00000000000E+00  0.45593999997E+02  0.45594000000E+02  0.51100000000E-03 0.  1.
         11   -1    0    0    0    0 -0.00000000000E+00 -0.00000000000E+00 -0.45593999997E+02  0.45594000000E+02  0.51100000000E-03 0. -1.
    9900012    2    1    2    0    0 -0.34966268253E+02 -0.32442899739E+01  0.20493925976E+02  0.50528851769E+02  0.29999975436E+02 0.  0.
         12    1    1    2    0    0  0.34966268253E+02  0.32442899739E+01 -0.20493925976E+02  0.40659148231E+02  0.00000000000E+00 0. -1.
         11    1    3    3    0    0 -0.88840093045E+01  0.16313687305E+01 -0.36365564147E+01  0.97371211390E+01  0.51100000000E-03 0. -1.
        -11    1    3    3    0    0 -0.87098819674E+00  0.42838017208E+01  0.89744265008E+01  0.99824800977E+01  0.51100000000E-03 0.  1.
        -12    1    3    3    0    0 -0.25211270752E+02 -0.91594604252E+01  0.15156055890E+02  0.30809250532E+02  0.00000000000E+00 0.  1.
</event>
<event>
 7    1  0.2450552E-011  0.5052886E+02  0.7816164E-02  0.1300439E+00
        -11   -1    0    0    0    0  0.00000000000E+00  0.00000000000E+00  0.45593999997E+02  0.45594000000E+02  0.51100000000E-03 0. -1.
         11   -1    0    0    0    0 -0.00000000000E+00 -0.00000000000E+00 -0.45593999997E+02  0.45594000000E+02  0.51100000000E-03 0.  1.
    9900012    2    1    2    0    0 -0.39372221201E+02  0.14309513074E+01  0.10047184472E+02  0.50528864007E+02  0.30000012634E+02 0.  0.
         12    1    1    2    0    0  0.39372221201E+02 -0.14309513074E+01 -0.10047184472E+02  0.40659135993E+02  0.00000000000E+00 0. -1.
         11    1    3    3    0    0  0.24896029507E+01 -0.43288178541E-01  0.29193292590E+01  0.38369884417E+01  0.51100000000E-03 0. -1.
        -11    1    3    3    0    0 -0.21059687810E+02 -0.85391478032E+01  0.63351015911E+01  0.23591545271E+02  0.51100000000E-03 0.  1.
        -12    1    3    3    0    0 -0.20802136342E+02  0.10013387289E+02  0.79275362213E+00  0.23100330294E+02  0.00000000000E+00 0.  1.
</event>
<event>
 7    1  0.2450552E-011  0.5052887E+02  0.7816164E-02  0.1300439E+00
        -11   -1    0    0    0    0  0.00000000000E+00  0.00000000000E+00  0.45593999997E+02  0.45594000000E+02  0.51100000000E-03 0.  1.
         11   -1    0    0    0    0 -0.00000000000E+00 -0.00000000000E+00 -0.45593999997E+02  0.45594000000E+02  0.51100000000E-03 0. -1.
    9900012    2    1    2    0    0 -0.31243590408E+02 -0.65159652150E+01  0.25190183668E+02  0.50528866986E+02  0.30000021691E+02 0.  0.
         12    1    1    2    0    0  0.31243590408E+02  0.65159652150E+01 -0.25190183668E+02  0.40659133014E+02  0.00000000000E+00 0. -1.
         11    1    3    3    0    0 -0.37686958098E+01  0.10591551640E+01  0.69917530867E+01  0.80130823816E+01  0.51100000000E-03 0. -1.
        -11    1    3    3    0    0 -0.41572525696E+01 -0.13096366273E+02  0.10675880114E+02  0.17400344105E+02  0.51100000000E-03 0.  1.
         12    1    3    3    0    0 -0.23317642028E+02  0.55212458939E+01  0.75225504667E+01  0.25115440500E+02  0.00000000000E+00 0. -1.
</event>
<event>
 7    1  0.2450552E-011  0.5052889E+02  0.7816164E-02  0.1300439E+00
        -11   -1    0    0    0    0  0.00000000000E+00  0.00000000000E+00  0.45593999997E+02  0.45594000000E+02  0.51100000000E-03 0.  1.
         11   -1    0    0    0    0 -0.00000000000E+00 -0.00000000000E+00 -0.45593999997E+02  0.45594000000E+02  0.51100000000E-03 0. -1.
    9900012    2    1    2    0    0 -0.17497396507E+02 -0.36820994791E+01  0.36516385380E+02  0.50528891029E+02  0.30000094772E+02 0.  0.
         12    1    1    2    0    0  0.17497396507E+02  0.36820994791E+01 -0.36516385380E+02  0.40659108971E+02  0.00000000000E+00 0. -1.
         11    1    3    3    0    0 -0.12181812030E+02 -0.10084052308E+02  0.13786267705E+02  0.20979652828E+02  0.51100000000E-03 0. -1.
        -11    1    3    3    0    0 -0.45935603478E+01 -0.23300465156E+01  0.19567616457E+02  0.20234167329E+02  0.51100000000E-03 0.  1.
        -12    1    3    3    0    0 -0.72202412940E+00  0.87319993445E+01  0.31625012175E+01  0.93150708719E+01  0.00000000000E+00 0.  1.
</event>
<event>
 7    1  0.2450552E-011  0.5052885E+02  0.7816164E-02  0.1300439E+00
        -11   -1    0    0    0    0  0.00000000000E+00  0.00000000000E+00  0.45593999997E+02  0.45594000000E+02  0.51100000000E-03 0.  1.
         11   -1    0    0    0    0 -0.00000000000E+00 -0.00000000000E+00 -0.45593999997E+02  0.45594000000E+02  0.51100000000E-03 0. -1.
    9900012    2    1    2    0    0  0.25549278330E+02 -0.10624424606E+02  0.29791313238E+02  0.50528851388E+02  0.29999974280E+02 0.  0.
         12    1    1    2    0    0 -0.25549278330E+02  0.10624424606E+02 -0.29791313238E+02  0.40659148612E+02  0.00000000000E+00 0. -1.
         11    1    3    3    0    0  0.29020511049E+00 -0.55476289082E+01 -0.38028825707E+00  0.55682155965E+01  0.51100000000E-03 0. -1.
        -11    1    3    3    0    0  0.25196949821E+02 -0.87595471155E+01  0.17842621835E+02  0.32093225145E+02  0.51100000000E-03 0.  1.
         12    1    3    3    0    0  0.62123398276E-01  0.36827514181E+01  0.12328979660E+02  0.12867410647E+02  0.00000000000E+00 0. -1.
</event>
<event>
 7    1  0.2450552E-011  0.5052886E+02  0.7816164E-02  0.1300439E+00
        -11   -1    0    0    0    0  0.00000000000E+00  0.00000000000E+00  0.45593999997E+02  0.45594000000E+02  0.51100000000E-03 0.  1.
         11   -1    0    0    0    0 -0.00000000000E+00 -0.00000000000E+00 -0.45593999997E+02  0.45594000000E+02  0.51100000000E-03 0. -1.
    9900012    2    1    2    0    0 -0.35222286956E+02 -0.92149253888E+01  0.18100862960E+02  0.50528860951E+02  0.30000003346E+02 0.  0.
         12    1    1    2    0    0  0.35222286956E+02  0.92149253888E+01 -0.18100862960E+02  0.40659139049E+02  0.00000000000E+00 0. -1.
         11    1    3    3    0    0 -0.10780370912E+02  0.55516750113E+01  0.31811546245E+01  0.12536236973E+02  0.51100000000E-03 0. -1.
        -11    1    3    3    0    0 -0.97660375190E+00 -0.10290837564E+02  0.81501961753E+01  0.13163616168E+02  0.51100000000E-03 0.  1.
         12    1    3    3    0    0 -0.23465312292E+02 -0.44757628357E+01  0.67695121604E+01  0.24829007810E+02  0.00000000000E+00 0. -1.
</event>
<event>
 7    1  0.2450552E-011  0.5052890E+02  0.7816164E-02  0.1300439E+00
        -11   -1    0    0    0    0  0.00000000000E+00  0.00000000000E+00  0.45593999997E+02  0.45594000000E+02  0.51100000000E-03 0. -1.
         11   -1    0    0    0    0 -0.00000000000E+00 -0.00000000000E+00 -0.45593999997E+02  0.45594000000E+02  0.51100000000E-03 0.  1.
    9900012    2    1    2    0    0  0.38319566276E+02  0.12420881952E+02  0.55222535002E+01  0.50528895831E+02  0.30000109369E+02 0.  0.
         12    1    1    2    0    0 -0.38319566276E+02 -0.12420881952E+02 -0.55222535002E+01  0.40659104169E+02  0.00000000000E+00 0. -1.
         11    1    3    3    0    0  0.19141311971E+02  0.11077999630E+02 -0.10636420722E+02  0.24540687558E+02  0.51100000000E-03 0. -1.
        -11    1    3    3    0    0  0.16210078689E+01  0.30258487853E+00  0.47398348509E+01  0.50184916853E+01  0.51100000000E-03 0.  1.
        -12    1    3    3    0    0  0.17557246436E+02  0.10402974431E+01  0.11418839371E+02  0.20969716588E+02  0.00000000000E+00 0.  1.
</event>
<event>
 7    1  0.2450552E-011  0.5052886E+02  0.7816164E-02  0.1300439E+00
        -11   -1    0    0    0    0  0.00000000000E+00  0.00000000000E+00  0.45593999997E+02  0.45594000000E+02  0.51100000000E-03 0.  1.
         11   -1    0    0    0    0 -0.00000000000E+00 -0.00000000000E+00 -0.45593999997E+02  0.45594000000E+02  0.51100000000E-03 0. -1.
    9900012    2    1    2    0    0 -0.94994094272E+01  0.23322547761E+02  0.31921558894E+02  0.50528856677E+02  0.29999990356E+02 0.  0.
         12    1    1    2    0    0  0.94994094272E+01 -0.23322547761E+02 -0.31921558894E+02  0.40659143323E+02  0.00000000000E+00 0. -1.
         11    1    3    3    0    0 -0.81625514210E+01  0.14799449447E+02  0.94457688696E+01  0.19361650225E+02  0.51100000000E-03 0.  1.
        -11    1    3    3    0    0  0.42771859338E+01  0.40499002859E+01  0.23215367655E+02  0.23950977171E+02  0.51100000000E-03 0. -1.
         12    1    3    3    0    0 -0.56140439400E+01  0.44731980281E+01 -0.73957763123E+00  0.72162292807E+01  0.00000000000E+00 0. -1.
</event>
<event>
 7    1  0.2450552E-011  0.5052885E+02  0.7816164E-02  0.1300439E+00
        -11   -1    0    0    0    0  0.00000000000E+00  0.00000000000E+00  0.45593999997E+02  0.45594000000E+02  0.51100000000E-03 0.  1.
         11   -1    0    0    0    0 -0.00000000000E+00 -0.00000000000E+00 -0.45593999997E+02  0.45594000000E+02  0.51100000000E-03 0. -1.
    9900012    2    1    2    0    0 -0.16725203197E+02  0.16109600577E+01  0.37024838517E+02  0.50528852425E+02  0.29999977431E+02 0.  0.
         12    1    1    2    0    0  0.16725203197E+02 -0.16109600577E+01 -0.37024838517E+02  0.40659147575E+02  0.00000000000E+00 0. -1.
         11    1    3    3    0    0 -0.62139662793E+01  0.40870936917E+01  0.36907992428E+01  0.83029941032E+01  0.51100000000E-03 0. -1.
        -11    1    3    3    0    0 -0.15077055265E+02 -0.82871578541E+01  0.16485640023E+02  0.23827943847E+02  0.51100000000E-03 0.  1.
        -12    1    3    3    0    0  0.45658183473E+01  0.58110242201E+01  0.16848399252E+02  0.18397914475E+02  0.00000000000E+00 0.  1.
</event>
<event>
 7    1  0.2450552E-011  0.5052885E+02  0.7816164E-02  0.1300439E+00
        -11   -1    0    0    0    0  0.00000000000E+00  0.00000000000E+00  0.45593999997E+02  0.45594000000E+02  0.51100000000E-03 0.  1.
         11   -1    0    0    0    0 -0.00000000000E+00 -0.00000000000E+00 -0.45593999997E+02  0.45594000000E+02  0.51100000000E-03 0. -1.
    9900012    2    1    2    0    0 -0.32877366220E+02 -0.18862014451E+02  0.14712913810E+02  0.50528848121E+02  0.29999964350E+02 0.  0.
         12    1    1    2    0    0  0.32877366220E+02  0.18862014451E+02 -0.14712913810E+02  0.40659151879E+02  0.00000000000E+00 0. -1.
         11    1    3    3    0    0 -0.86062859264E+01 -0.94839609008E+01 -0.54192527257E+01  0.13906184674E+02  0.51100000000E-03 0. -1.
        -11    1    3    3    0    0 -0.38503698129E+01 -0.17417706901E+01 -0.27303712216E+01  0.50313060036E+01  0.51100000000E-03 0.  1.
        -12    1    3    3    0    0 -0.20420710481E+02 -0.76362828602E+01  0.22862537757E+02  0.31591357444E+02  0.00000000000E+00 0.  1.
</event>
<event>
 7    1  0.2450552E-011  0.5052887E+02  0.7816164E-02  0.1300439E+00
        -11   -1    0    0    0    0  0.00000000000E+00  0.00000000000E+00  0.45593999997E+02  0.45594000000E+02  0.51100000000E-03 0.  1.
         11   -1    0    0    0    0 -0.00000000000E+00 -0.00000000000E+00 -0.45593999997E+02  0.45594000000E+02  0.51100000000E-03 0. -1.
    9900012    2    1    2    0    0 -0.16973972435E+02  0.31812722590E+01  0.36809358912E+02  0.50528866501E+02  0.30000020215E+02 0.  0.
         12    1    1    2    0    0  0.16973972435E+02 -0.31812722590E+01 -0.36809358912E+02  0.40659133499E+02  0.00000000000E+00 0. -1.
         11    1    3    3    0    0 -0.11816057646E+02 -0.17080612656E+01  0.10221309025E+02  0.15716610641E+02  0.51100000000E-03 0. -1.
        -11    1    3    3    0    0 -0.10003735242E+02  0.66830325244E+01  0.27069683766E+02  0.29622718004E+02  0.51100000000E-03 0.  1.
         12    1    3    3    0    0  0.48458204525E+01 -0.17936989998E+01 -0.48163387928E+00  0.51895378555E+01  0.00000000000E+00 0. -1.
</event>
<event>
 7    1  0.2450552E-011  0.5052886E+02  0.7816164E-02  0.1300439E+00
        -11   -1    0    0    0    0  0.00000000000E+00  0.00000000000E+00  0.45593999997E+02  0.45594000000E+02  0.51100000000E-03 0.  1.
         11   -1    0    0    0    0 -0.00000000000E+00 -0.00000000000E+00 -0.45593999997E+02  0.45594000000E+02  0.51100000000E-03 0. -1.
    9900012    2    1    2    0    0  0.19473016882E+02 -0.11855277254E+02  0.33666299483E+02  0.50528859500E+02  0.29999998938E+02 0.  0.
         12    1    1    2    0    0 -0.19473016882E+02  0.11855277254E+02 -0.33666299483E+02  0.40659140500E+02  0.00000000000E+00 0. -1.
         11    1    3    3    0    0  0.98605833308E+01 -0.15867146428E+02  0.14179448473E+02  0.23453234290E+02  0.51100000000E-03 0. -1.
        -11    1    3    3    0    0  0.10865491242E+02 -0.15140676747E+01  0.61307889849E+01  0.12567333635E+02  0.51100000000E-03 0.  1.
         12    1    3    3    0    0 -0.12530576904E+01  0.55259368485E+01  0.13356062025E+02  0.14508291575E+02  0.00000000000E+00 0. -1.
</event>
<event>
 7    1  0.2450552E-011  0.5052891E+02  0.7816164E-02  0.1300439E+00
        -11   -1    0    0    0    0  0.00000000000E+00  0.00000000000E+00  0.45593999997E+02  0.45594000000E+02  0.51100000000E-03 0.  1.
         11   -1    0    0    0    0 -0.00000000000E+00 -0.00000000000E+00 -0.45593999997E+02  0.45594000000E+02  0.51100000000E-03 0. -1.
    9900012    2    1    2    0    0 -0.27581928922E+02  0.17199353723E+02  0.24425003674E+02  0.50528912750E+02  0.30000160794E+02 0.  0.
         12    1    1    2    0    0  0.27581928922E+02 -0.17199353723E+02 -0.24425003674E+02  0.40659087250E+02  0.00000000000E+00 0. -1.
         11    1    3    3    0    0 -0.34979381302E+01  0.46228722676E+01 -0.49508705437E+00  0.58182154153E+01  0.51100000000E-03 0. -1.
        -11    1    3    3    0    0 -0.27004049410E+02  0.55484287204E+01  0.12789495442E+02  0.30390375775E+02  0.51100000000E-03 0.  1.
        -12    1    3    3    0    0  0.29200586180E+01  0.70280527349E+01  0.12130595286E+02  0.14320321560E+02  0.00000000000E+00 0.  1.
</event>
<event>
 7    1  0.2450552E-011  0.5052886E+02  0.7816164E-02  0.1300439E+00
        -11   -1    0    0    0    0  0.00000000000E+00  0.00000000000E+00  0.45593999997E+02  0.45594000000E+02  0.51100000000E-03 0.  1.
         11   -1    0    0    0    0 -0.00000000000E+00 -0.00000000000E+00 -0.45593999997E+02  0.45594000000E+02  0.51100000000E-03 0. -1.
    9900012    2    1    2    0    0 -0.24260974048E+02 -0.18647082917E+02  0.26774182516E+02  0.50528863112E+02  0.30000009914E+02 0.  0.
         12    1    1    2    0    0  0.24260974048E+02  0.18647082917E+02 -0.26774182516E+02  0.40659136888E+02  0.00000000000E+00 0. -1.
         11    1    3    3    0    0 -0.73036718891E+01 -0.12570399112E+01 -0.21000519793E+01  0.77028560274E+01  0.51100000000E-03 0. -1.
        -11    1    3    3    0    0 -0.13956354796E+02 -0.19479903440E+02  0.14533216373E+02  0.28026074567E+02  0.51100000000E-03 0.  1.
        -12    1    3    3    0    0 -0.30009473632E+01  0.20898604345E+01  0.14341018123E+02  0.14799932517E+02  0.00000000000E+00 0.  1.
</event>
<event>
 7    1  0.2450552E-011  0.5052885E+02  0.7816164E-02  0.1300439E+00
        -11   -1    0    0    0    0  0.00000000000E+00  0.00000000000E+00  0.45593999997E+02  0.45594000000E+02  0.51100000000E-03 0.  1.
         11   -1    0    0    0    0 -0.00000000000E+00 -0.00000000000E+00 -0.45593999997E+02  0.45594000000E+02  0.51100000000E-03 0. -1.
    9900012    2    1    2    0    0 -0.18596119778E+02 -0.33774628561E+02 -0.12908330096E+02  0.50528853537E+02  0.29999980811E+02 0.  0.
         12    1    1    2    0    0  0.18596119778E+02  0.33774628561E+02  0.12908330096E+02  0.40659146463E+02  0.00000000000E+00 0. -1.
         11    1    3    3    0    0 -0.41503631817E+01 -0.16604759035E+02 -0.14312206847E+02  0.22311046642E+02  0.51100000000E-03 0. -1.
        -11    1    3    3    0    0 -0.13680344480E+02 -0.17558193289E+02 -0.41123358198E+01  0.22635222173E+02  0.51100000000E-03 0.  1.
         12    1    3    3    0    0 -0.76541211668E+00  0.38832376249E+00  0.55162125712E+01  0.55825847225E+01  0.00000000000E+00 0. -1.
</event>
<event>
 7    1  0.2450552E-011  0.5052886E+02  0.7816164E-02  0.1300439E+00
        -11   -1    0    0    0    0  0.00000000000E+00  0.00000000000E+00  0.45593999997E+02  0.45594000000E+02  0.51100000000E-03 0.  1.
         11   -1    0    0    0    0 -0.00000000000E+00 -0.00000000000E+00 -0.45593999997E+02  0.45594000000E+02  0.51100000000E-03 0. -1.
    9900012    2    1    2    0    0  0.34225720132E+02 -0.34866523873E+01  0.21670458895E+02  0.50528862625E+02  0.30000008435E+02 0.  0.
         12    1    1    2    0    0 -0.34225720132E+02  0.34866523873E+01 -0.21670458895E+02  0.40659137375E+02  0.00000000000E+00 0. -1.
         11    1    3    3    0    0 -0.13683603817E+01  0.34828826301E+01  0.70957733904E+01  0.80220247954E+01  0.51100000000E-03 0. -1.
        -11    1    3    3    0    0  0.94982922048E+01 -0.86579399519E+01  0.92111599052E+01  0.15812113903E+02  0.51100000000E-03 0.  1.
        -12    1    3    3    0    0  0.26095788308E+02  0.16884049345E+01  0.53635255989E+01  0.26694723926E+02  0.00000000000E+00 0.  1.
</event>
<event>
 7    1  0.2450552E-011  0.5052884E+02  0.7816164E-02  0.1300439E+00
        -11   -1    0    0    0    0  0.00000000000E+00  0.00000000000E+00  0.45593999997E+02  0.45594000000E+02  0.51100000000E-03 0.  1.
         11   -1    0    0    0    0 -0.00000000000E+00 -0.00000000000E+00 -0.45593999997E+02  0.45594000000E+02  0.51100000000E-03 0. -1.
    9900012    2    1    2    0    0  0.31422183833E+02  0.43012589282E+01  0.25442336321E+02  0.50528844294E+02  0.29999952717E+02 0.  0.
         12    1    1    2    0    0 -0.31422183833E+02 -0.43012589282E+01 -0.25442336321E+02  0.40659155706E+02  0.00000000000E+00 0. -1.
         11    1    3    3    0    0  0.10878171765E+02 -0.10299693271E+02  0.65008095332E+01  0.16330303955E+02  0.51100000000E-03 0. -1.
        -11    1    3    3    0    0  0.13054170609E+02  0.11938333431E+01  0.91224139426E+01  0.15970442848E+02  0.51100000000E-03 0.  1.
        -12    1    3    3    0    0  0.74898414594E+01  0.13407118856E+02  0.98191128452E+01  0.18228097492E+02  0.00000000000E+00 0.  1.
</event>
<event>
 7    1  0.2450552E-011  0.5052884E+02  0.7816164E-02  0.1300439E+00
        -11   -1    0    0    0    0  0.00000000000E+00  0.00000000000E+00  0.45593999997E+02  0.45594000000E+02  0.51100000000E-03 0.  1.
         11   -1    0    0    0    0 -0.00000000000E+00 -0.00000000000E+00 -0.45593999997E+02  0.45594000000E+02  0.51100000000E-03 0. -1.
    9900012    2    1    2    0    0  0.15956414187E+02 -0.13798758186E+02  0.34758515995E+02  0.50528839711E+02  0.29999938787E+02 0.  0.
         12    1    1    2    0    0 -0.15956414187E+02  0.13798758186E+02 -0.34758515995E+02  0.40659160289E+02  0.00000000000E+00 0. -1.
         11    1    3    3    0    0 -0.14051125730E+01 -0.70935484689E+01  0.11023094068E+02  0.13183374921E+02  0.51100000000E-03 0. -1.
        -11    1    3    3    0    0  0.75175515318E+01 -0.12549456295E+02  0.51341400591E+01  0.15503606959E+02  0.51100000000E-03 0.  1.
         12    1    3    3    0    0  0.98439752284E+01  0.58442465783E+01  0.18601281868E+02  0.21841857831E+02  0.00000000000E+00 0. -1.
</event>
<event>
 7    1  0.2450552E-011  0.5052886E+02  0.7816164E-02  0.1300439E+00
        -11   -1    0    0    0    0  0.00000000000E+00  0.00000000000E+00  0.45593999997E+02  0.45594000000E+02  0.51100000000E-03 0. -1.
         11   -1    0    0    0    0 -0.00000000000E+00 -0.00000000000E+00 -0.45593999997E+02  0.45594000000E+02  0.51100000000E-03 0.  1.
    9900012    2    1    2    0    0 -0.17828632369E+02  0.35472445273E+02  0.87756009416E+01  0.50528859850E+02  0.30000000001E+02 0.  0.
         12    1    1    2    0    0  0.17828632369E+02 -0.35472445273E+02 -0.87756009416E+01  0.40659140150E+02  0.00000000000E+00 0. -1.
         11    1    3    3    0    0 -0.51126113416E+01  0.13396721764E+01 -0.20399972897E+01  0.56652542285E+01  0.51100000000E-03 0. -1.
        -11    1    3    3    0    0 -0.17853979246E+02  0.31151396312E+02  0.44878484638E+01  0.36184455934E+02  0.51100000000E-03 0.  1.
         12    1    3    3    0    0  0.51379582186E+01  0.29813767843E+01  0.63277497674E+01  0.86791496879E+01  0.00000000000E+00 0. -1.
</event>
<event>
 7    1  0.2450552E-011  0.5052885E+02  0.7816164E-02  0.1300439E+00
        -11   -1    0    0    0    0  0.00000000000E+00  0.00000000000E+00  0.45593999997E+02  0.45594000000E+02  0.51100000000E-03 0.  1.
         11   -1    0    0    0    0 -0.00000000000E+00 -0.00000000000E+00 -0.45593999997E+02  0.45594000000E+02  0.51100000000E-03 0. -1.
    9900012    2    1    2    0    0 -0.28135384509E+02  0.26544120063E+02  0.12529023223E+02  0.50528848579E+02  0.29999965741E+02 0.  0.
         12    1    1    2    0    0  0.28135384509E+02 -0.26544120063E+02 -0.12529023223E+02  0.40659151421E+02  0.00000000000E+00 0. -1.
         11    1    3    3    0    0 -0.14041321390E+02  0.23731231565E+02  0.17977358088E+01  0.27632624057E+02  0.51100000000E-03 0. -1.
        -11    1    3    3    0    0 -0.11631403736E+02  0.82322353921E+01  0.70653676774E+01  0.15905303301E+02  0.51100000000E-03 0.  1.
         12    1    3    3    0    0 -0.24626593829E+01 -0.54193468947E+01  0.36659197368E+01  0.69909212210E+01  0.00000000000E+00 0. -1.
</event>
<event>
 7    1  0.2450552E-011  0.5052886E+02  0.7816164E-02  0.1300439E+00
        -11   -1    0    0    0    0  0.00000000000E+00  0.00000000000E+00  0.45593999997E+02  0.45594000000E+02  0.51100000000E-03 0.  1.
         11   -1    0    0    0    0 -0.00000000000E+00 -0.00000000000E+00 -0.45593999997E+02  0.45594000000E+02  0.51100000000E-03 0. -1.
    9900012    2    1    2    0    0  0.34567776732E+02  0.17856429713E+02  0.11806025425E+02  0.50528861954E+02  0.30000006395E+02 0.  0.
         12    1    1    2    0    0 -0.34567776732E+02 -0.17856429713E+02 -0.11806025425E+02  0.40659138046E+02  0.00000000000E+00 0. -1.
         11    1    3    3    0    0  0.11871728502E+02 -0.89910148610E+00 -0.58802856229E+01  0.13278707782E+02  0.51100000000E-03 0. -1.
        -11    1    3    3    0    0 -0.21971738524E+00  0.48352482046E+01  0.67202254476E+01  0.82818676189E+01  0.51100000000E-03 0.  1.
         12    1    3    3    0    0  0.22915765616E+02  0.13920282994E+02  0.10966085601E+02  0.28968286553E+02  0.00000000000E+00 0. -1.
</event>
<event>
 7    1  0.2450552E-011  0.5052885E+02  0.7816164E-02  0.1300439E+00
        -11   -1    0    0    0    0  0.00000000000E+00  0.00000000000E+00  0.45593999997E+02  0.45594000000E+02  0.51100000000E-03 0. -1.
         11   -1    0    0    0    0 -0.00000000000E+00 -0.00000000000E+00 -0.45593999997E+02  0.45594000000E+02  0.51100000000E-03 0.  1.
    9900012    2    1    2    0    0 -0.14214065019E+02 -0.11383015530E+02 -0.36353176077E+02  0.50528854684E+02  0.29999984298E+02 0.  0.
         12    1    1    2    0    0  0.14214065019E+02  0.11383015530E+02  0.36353176077E+02  0.40659145316E+02  0.00000000000E+00 0. -1.
         11    1    3    3    0    0 -0.73531768026E+01 -0.80769817801E+01 -0.23011830818E+02  0.25472557815E+02  0.51100000000E-03 0.  1.
        -11    1    3    3    0    0 -0.13167713706E+02 -0.13814889620E+01 -0.44111672781E+01  0.13955486126E+02  0.51100000000E-03 0. -1.
         12    1    3    3    0    0  0.63068254895E+01 -0.19245447875E+01 -0.89301779808E+01  0.11100810744E+02  0.00000000000E+00 0. -1.
</event>
<event>
 7    1  0.2450552E-011  0.5052886E+02  0.7816164E-02  0.1300439E+00
        -11   -1    0    0    0    0  0.00000000000E+00  0.00000000000E+00  0.45593999997E+02  0.45594000000E+02  0.51100000000E-03 0. -1.
         11   -1    0    0    0    0 -0.00000000000E+00 -0.00000000000E+00 -0.45593999997E+02  0.45594000000E+02  0.51100000000E-03 0.  1.
    9900012    2    1    2    0    0  0.87558831142E+00 -0.40297360635E+02 -0.53405481148E+01  0.50528863472E+02  0.30000011009E+02 0.  0.
         12    1    1    2    0    0 -0.87558831142E+00  0.40297360635E+02  0.53405481148E+01  0.40659136528E+02  0.00000000000E+00 0. -1.
         11    1    3    3    0    0  0.53007263897E+01 -0.24841159728E+02 -0.70284080354E+01  0.26354875008E+02  0.51100000000E-03 0. -1.
        -11    1    3    3    0    0  0.69449465939E+01 -0.74493759018E+01  0.12466641357E+01  0.10260587520E+02  0.51100000000E-03 0.  1.
         12    1    3    3    0    0 -0.11370084672E+02 -0.80068250050E+01  0.44119578491E+00  0.13913400944E+02  0.00000000000E+00 0. -1.
</event>
<event>
 7    1  0.2450552E-011  0.5052886E+02  0.7816164E-02  0.1300439E+00
        -11   -1    0    0    0    0  0.00000000000E+00  0.00000000000E+00  0.45593999997E+02  0.45594000000E+02  0.51100000000E-03 0.  1.
         11   -1    0    0    0    0 -0.00000000000E+00 -0.00000000000E+00 -0.45593999997E+02  0.45594000000E+02  0.51100000000E-03 0. -1.
    9900012    2    1    2    0    0 -0.29463897950E+02 -0.30902953195E+01  0.27847699570E+02  0.50528861065E+02  0.30000003694E+02 0.  0.
         12    1    1    2    0    0  0.29463897950E+02  0.30902953195E+01 -0.27847699570E+02  0.40659138935E+02  0.00000000000E+00 0. -1.
         11    1    3    3    0    0 -0.41035310489E+00 -0.81233940197E+01  0.27452122303E+01  0.85845273907E+01  0.51100000000E-03 0. -1.
        -11    1    3    3    0    0 -0.14341354925E+02 -0.33232553195E+01  0.18824853537E+02  0.23897564687E+02  0.51100000000E-03 0.  1.
        -12    1    3    3    0    0 -0.14712189920E+02  0.83563540197E+01  0.62776338026E+01  0.18046768988E+02  0.00000000000E+00 0.  1.
</event>
<event>
 7    1  0.2450552E-011  0.5052885E+02  0.7816164E-02  0.1300439E+00
        -11   -1    0    0    0    0  0.00000000000E+00  0.00000000000E+00  0.45593999997E+02  0.45594000000E+02  0.51100000000E-03 0.  1.
         11   -1    0    0    0    0 -0.00000000000E+00 -0.00000000000E+00 -0.45593999997E+02  0.45594000000E+02  0.51100000000E-03 0. -1.
    9900012    2    1    2    0    0  0.12791699147E+02 -0.11006832756E+02  0.36991734526E+02  0.50528851490E+02  0.29999974588E+02 0.  0.
         12    1    1    2    0    0 -0.12791699147E+02  0.11006832756E+02 -0.36991734526E+02  0.40659148510E+02  0.00000000000E+00 0. -1.
         11    1    3    3    0    0  0.43654120127E+01 -0.68880791176E+01  0.71166138201E+01  0.10823522924E+02  0.51100000000E-03 0.  1.
        -11    1    3    3    0    0  0.10872147088E+02 -0.31816933101E+00  0.15084923397E+01  0.10980909044E+02  0.51100000000E-03 0. -1.
         12    1    3    3    0    0 -0.24458599541E+01 -0.38005843072E+01  0.28366628366E+02  0.28724419521E+02  0.00000000000E+00 0. -1.
</event>
<event>
 7    1  0.2450552E-011  0.5052886E+02  0.7816164E-02  0.1300439E+00
        -11   -1    0    0    0    0  0.00000000000E+00  0.00000000000E+00  0.45593999997E+02  0.45594000000E+02  0.51100000000E-03 0.  1.
         11   -1    0    0    0    0 -0.00000000000E+00 -0.00000000000E+00 -0.45593999997E+02  0.45594000000E+02  0.51100000000E-03 0. -1.
    9900012    2    1    2    0    0 -0.30051195907E+02  0.26231641425E+02  0.78734986001E+01  0.50528863665E+02  0.30000011595E+02 0.  0.
         12    1    1    2    0    0  0.30051195907E+02 -0.26231641425E+02 -0.78734986001E+01  0.40659136335E+02  0.00000000000E+00 0. -1.
         11    1    3    3    0    0 -0.32196420202E+01 -0.12279690547E+01 -0.48351751208E+01  0.59374170687E+01  0.51100000000E-03 0. -1.
        -11    1    3    3    0    0 -0.19931805982E+02  0.70270207992E+01  0.72753180133E+01  0.22351424193E+02  0.51100000000E-03 0.  1.
        -12    1    3    3    0    0 -0.68997479053E+01  0.20432589681E+02  0.54333557077E+01  0.22240022403E+02  0.00000000000E+00 0.  1.
</event>
<event>
 7    1  0.2450552E-011  0.5052887E+02  0.7816164E-02  0.1300439E+00
        -11   -1    0    0    0    0  0.00000000000E+00  0.00000000000E+00  0.45593999997E+02  0.45594000000E+02  0.51100000000E-03 0.  1.
         11   -1    0    0    0    0 -0.00000000000E+00 -0.00000000000E+00 -0.45593999997E+02  0.45594000000E+02  0.51100000000E-03 0. -1.
    9900012    2    1    2    0    0  0.16517190906E+02 -0.20104803457E+02  0.31243308817E+02  0.50528867406E+02  0.30000022966E+02 0.  0.
         12    1    1    2    0    0 -0.16517190906E+02  0.20104803457E+02 -0.31243308817E+02  0.40659132594E+02  0.00000000000E+00 0. -1.
         11    1    3    3    0    0  0.61422736753E+01 -0.77987207020E+01 -0.23389251123E+01  0.10198928445E+02  0.51100000000E-03 0. -1.
        -11    1    3    3    0    0 -0.32487593757E+01 -0.64665759838E+01  0.81998097413E+01  0.10936540700E+02  0.51100000000E-03 0.  1.
         12    1    3    3    0    0  0.13623676606E+02 -0.58395067715E+01  0.25382424188E+02  0.29393398260E+02  0.00000000000E+00 0. -1.
</event>
<event>
 7    1  0.2450552E-011  0.5052886E+02  0.7816164E-02  0.1300439E+00
        -11   -1    0    0    0    0  0.00000000000E+00  0.00000000000E+00  0.45593999997E+02  0.45594000000E+02  0.51100000000E-03 0. -1.
         11   -1    0    0    0    0 -0.00000000000E+00 -0.00000000000E+00 -0.45593999997E+02  0.45594000000E+02  0.51100000000E-03 0.  1.
    9900012    2    1    2    0    0  0.81891561327E+01 -0.32189436958E+02 -0.23450881662E+02  0.50528856126E+02  0.29999988681E+02 0.  0.
         12    1    1    2    0    0 -0.81891561327E+01  0.32189436958E+02  0.23450881662E+02  0.40659143874E+02  0.00000000000E+00 0. -1.
         11    1    3    3    0    0  0.58675655023E+01 -0.37939485679E+01 -0.46088291322E+00  0.70024841293E+01  0.51100000000E-03 0. -1.
        -11    1    3    3    0    0  0.10195002995E+02 -0.14130922135E+02 -0.20724691600E+02  0.27076445273E+02  0.51100000000E-03 0.  1.
         12    1    3    3    0    0 -0.78734123652E+01 -0.14264566255E+02 -0.22653071485E+01  0.16449926723E+02  0.00000000000E+00 0. -1.
</event>
<event>
 7    1  0.2450552E-011  0.5052886E+02  0.7816164E-02  0.1300439E+00
        -11   -1    0    0    0    0  0.00000000000E+00  0.00000000000E+00  0.45593999997E+02  0.45594000000E+02  0.51100000000E-03 0.  1.
         11   -1    0    0    0    0 -0.00000000000E+00 -0.00000000000E+00 -0.45593999997E+02  0.45594000000E+02  0.51100000000E-03 0. -1.
    9900012    2    1    2    0    0  0.51767080975E+01 -0.14908758788E+02  0.37471274848E+02  0.50528857927E+02  0.29999994156E+02 0.  0.
         12    1    1    2    0    0 -0.51767080975E+01  0.14908758788E+02 -0.37471274848E+02  0.40659142073E+02  0.00000000000E+00 0. -1.
         11    1    3    3    0    0  0.13937458742E+01  0.50594384180E+01  0.18160790748E+02  0.18903829388E+02  0.51100000000E-03 0.  1.
        -11    1    3    3    0    0  0.33855280439E+01  0.13653610971E+01  0.36082775457E+01  0.51328041234E+01  0.51100000000E-03 0. -1.
         12    1    3    3    0    0  0.39743417946E+00 -0.21333558304E+02  0.15702206554E+02  0.26492224416E+02  0.00000000000E+00 0. -1.
</event>
<event>
 7    1  0.2450552E-011  0.5052886E+02  0.7816164E-02  0.1300439E+00
        -11   -1    0    0    0    0  0.00000000000E+00  0.00000000000E+00  0.45593999997E+02  0.45594000000E+02  0.51100000000E-03 0.  1.
         11   -1    0    0    0    0 -0.00000000000E+00 -0.00000000000E+00 -0.45593999997E+02  0.45594000000E+02  0.51100000000E-03 0. -1.
    9900012    2    1    2    0    0 -0.40893897817E+01 -0.19114269345E+02  0.35652315693E+02  0.50528855695E+02  0.29999987370E+02 0.  0.
         12    1    1    2    0    0  0.40893897817E+01  0.19114269345E+02 -0.35652315693E+02  0.40659144305E+02  0.00000000000E+00 0. -1.
         11    1    3    3    0    0 -0.29781544281E+01 -0.20183133710E+02  0.21550077046E+02  0.29675479964E+02  0.51100000000E-03 0. -1.
        -11    1    3    3    0    0 -0.66309868159E+01 -0.31685469379E+01  0.34234074571E+01  0.81073666951E+01  0.51100000000E-03 0.  1.
         12    1    3    3    0    0  0.55197514623E+01  0.42374113030E+01  0.10678831190E+02  0.12746009036E+02  0.00000000000E+00 0. -1.
</event>
<event>
 7    1  0.2450552E-011  0.5052885E+02  0.7816164E-02  0.1300439E+00
        -11   -1    0    0    0    0  0.00000000000E+00  0.00000000000E+00  0.45593999997E+02  0.45594000000E+02  0.51100000000E-03 0.  1.
         11   -1    0    0    0    0 -0.00000000000E+00 -0.00000000000E+00 -0.45593999997E+02  0.45594000000E+02  0.51100000000E-03 0. -1.
    9900012    2    1    2    0    0 -0.85077461569E+01  0.91661170765E+01  0.38688075179E+02  0.50528848410E+02  0.29999965227E+02 0.  0.
         12    1    1    2    0    0  0.85077461569E+01 -0.91661170765E+01 -0.38688075179E+02  0.40659151590E+02  0.00000000000E+00 0. -1.
         11    1    3    3    0    0 -0.10933326093E+02  0.64821681848E+01  0.34580740620E+01  0.13172486489E+02  0.51100000000E-03 0. -1.
        -11    1    3    3    0    0  0.79096968304E+00 -0.37463117795E+01  0.44550914736E+01  0.58743787151E+01  0.51100000000E-03 0.  1.
         12    1    3    3    0    0  0.16346102532E+01  0.64302606713E+01  0.30774909644E+02  0.31481983206E+02  0.00000000000E+00 0. -1.
</event>
<event>
 7    1  0.2450552E-011  0.5052886E+02  0.7816164E-02  0.1300439E+00
        -11   -1    0    0    0    0  0.00000000000E+00  0.00000000000E+00  0.45593999997E+02  0.45594000000E+02  0.51100000000E-03 0.  1.
         11   -1    0    0    0    0 -0.00000000000E+00 -0.00000000000E+00 -0.45593999997E+02  0.45594000000E+02  0.51100000000E-03 0. -1.
    9900012    2    1    2    0    0 -0.20880246971E+02 -0.60921730785E+01  0.34352094892E+02  0.50528859456E+02  0.29999998801E+02 0.  0.
         12    1    1    2    0    0  0.20880246971E+02  0.60921730785E+01 -0.34352094892E+02  0.40659140544E+02  0.00000000000E+00 0. -1.
         11    1    3    3    0    0 -0.91723628164E+01 -0.10284317709E+02  0.40646743643E+01  0.14367359129E+02  0.51100000000E-03 0. -1.
        -11    1    3    3    0    0 -0.48035976454E+01 -0.76332037937E+00  0.16877556414E+00  0.48667950226E+01  0.51100000000E-03 0.  1.
        -12    1    3    3    0    0 -0.69042865090E+01  0.49554650102E+01  0.30118644963E+02  0.31294705304E+02  0.00000000000E+00 0.  1.
</event>
<event>
 7    1  0.2450552E-011  0.5052886E+02  0.7816164E-02  0.1300439E+00
        -11   -1    0    0    0    0  0.00000000000E+00  0.00000000000E+00  0.45593999997E+02  0.45594000000E+02  0.51100000000E-03 0.  1.
         11   -1    0    0    0    0 -0.00000000000E+00 -0.00000000000E+00 -0.45593999997E+02  0.45594000000E+02  0.51100000000E-03 0. -1.
    9900012    2    1    2    0    0 -0.16055167117E+02  0.36516199706E+02  0.78717425787E+01  0.50528861256E+02  0.30000004275E+02 0.  0.
         12    1    1    2    0    0  0.16055167117E+02 -0.36516199706E+02 -0.78717425787E+01  0.40659138744E+02  0.00000000000E+00 0. -1.
         11    1    3    3    0    0 -0.26739879316E+01  0.11429312641E+02  0.48129482510E+01  0.12686365517E+02  0.51100000000E-03 0. -1.
        -11    1    3    3    0    0 -0.12998573734E+02  0.82508061259E+01  0.11295950089E+02  0.19095476153E+02  0.51100000000E-03 0.  1.
         12    1    3    3    0    0 -0.38260545073E+00  0.16836080939E+02 -0.82371557609E+01  0.18747019586E+02  0.00000000000E+00 0. -1.
</event>
<event>
 7    1  0.2450552E-011  0.5052885E+02  0.7816164E-02  0.1300439E+00
        -11   -1    0    0    0    0  0.00000000000E+00  0.00000000000E+00  0.45593999997E+02  0.45594000000E+02  0.51100000000E-03 0. -1.
         11   -1    0    0    0    0 -0.00000000000E+00 -0.00000000000E+00 -0.45593999997E+02  0.45594000000E+02  0.51100000000E-03 0.  1.
    9900012    2    1    2    0    0  0.25266712925E+02 -0.72316517367E+01 -0.31023582448E+02  0.50528852975E+02  0.29999979104E+02 0.  0.
         12    1    1    2    0    0 -0.25266712925E+02  0.72316517367E+01  0.31023582448E+02  0.40659147025E+02  0.00000000000E+00 0. -1.
         11    1    3    3    0    0 -0.39798886043E+01  0.39665218014E+01 -0.18242227919E+01  0.59076727702E+01  0.51100000000E-03 0. -1.
        -11    1    3    3    0    0  0.42559934001E+01 -0.32491815526E+00 -0.11133251271E+02  0.11923436407E+02  0.51100000000E-03 0.  1.
        -12    1    3    3    0    0  0.24990608130E+02 -0.10873255383E+02 -0.18066108385E+02  0.32697743798E+02  0.00000000000E+00 0.  1.
</event>
<event>
 7    1  0.2450552E-011  0.5052895E+02  0.7816164E-02  0.1300438E+00
        -11   -1    0    0    0    0  0.00000000000E+00  0.00000000000E+00  0.45593999997E+02  0.45594000000E+02  0.51100000000E-03 0.  1.
         11   -1    0    0    0    0 -0.00000000000E+00 -0.00000000000E+00 -0.45593999997E+02  0.45594000000E+02  0.51100000000E-03 0. -1.
    9900012    2    1    2    0    0 -0.13837639674E+02 -0.24657962674E+02  0.29217505362E+02  0.50528954087E+02  0.30000286441E+02 0.  0.
         12    1    1    2    0    0  0.13837639674E+02  0.24657962674E+02 -0.29217505362E+02  0.40659045913E+02  0.00000000000E+00 0. -1.
         11    1    3    3    0    0 -0.85202524436E+00 -0.18192362952E+02  0.20883979416E+02  0.27709720556E+02  0.51100000000E-03 0.  1.
        -11    1    3    3    0    0  0.27592945508E+01 -0.14777172964E+00 -0.15668472698E+01  0.31765631632E+01  0.51100000000E-03 0. -1.
         12    1    3    3    0    0 -0.15744908981E+02 -0.63178279926E+01  0.99003732159E+01  0.19642670368E+02  0.00000000000E+00 0. -1.
</event>
<event>
 7    1  0.2450552E-011  0.5052886E+02  0.7816164E-02  0.1300439E+00
        -11   -1    0    0    0    0  0.00000000000E+00  0.00000000000E+00  0.45593999997E+02  0.45594000000E+02  0.51100000000E-03 0.  1.
         11   -1    0    0    0    0 -0.00000000000E+00 -0.00000000000E+00 -0.45593999997E+02  0.45594000000E+02  0.51100000000E-03 0. -1.
    9900012    2    1    2    0    0  0.29088260897E+02  0.18098825122E+02  0.21896829882E+02  0.50528861400E+02  0.30000004711E+02 0.  0.
         12    1    1    2    0    0 -0.29088260897E+02 -0.18098825122E+02 -0.21896829882E+02  0.40659138600E+02  0.00000000000E+00 0. -1.
         11    1    3    3    0    0  0.68648881182E+01  0.64179277132E+01  0.12028819236E+00  0.93984549005E+01  0.51100000000E-03 0. -1.
        -11    1    3    3    0    0  0.16683733493E+02  0.75550949442E+01  0.26891269677E+02  0.32535623676E+02  0.51100000000E-03 0.  1.
         12    1    3    3    0    0  0.55396392860E+01  0.41258024643E+01 -0.51147279873E+01  0.85947828232E+01  0.00000000000E+00 0. -1.
</event>
<event>
 7    1  0.2450552E-011  0.5052886E+02  0.7816164E-02  0.1300439E+00
        -11   -1    0    0    0    0  0.00000000000E+00  0.00000000000E+00  0.45593999997E+02  0.45594000000E+02  0.51100000000E-03 0. -1.
         11   -1    0    0    0    0 -0.00000000000E+00 -0.00000000000E+00 -0.45593999997E+02  0.45594000000E+02  0.51100000000E-03 0.  1.
    9900012    2    1    2    0    0  0.14974719899E+02  0.32270344961E+02  0.19686240165E+02  0.50528862628E+02  0.30000008445E+02 0.  0.
         12    1    1    2    0    0 -0.14974719899E+02 -0.32270344961E+02 -0.19686240165E+02  0.40659137372E+02  0.00000000000E+00 0. -1.
         11    1    3    3    0    0  0.83449964827E+01  0.16565668288E+02  0.10419262473E+02  0.21274899832E+02  0.51100000000E-03 0. -1.
        -11    1    3    3    0    0  0.97539880203E+01  0.11624280866E+02 -0.34292080023E+01  0.15557109492E+02  0.51100000000E-03 0.  1.
         12    1    3    3    0    0 -0.31242646042E+01  0.40803958075E+01  0.12696185694E+02  0.13696853305E+02  0.00000000000E+00 0. -1.
</event>
<event>
 7    1  0.2450552E-011  0.5052886E+02  0.7816164E-02  0.1300439E+00
        -11   -1    0    0    0    0  0.00000000000E+00  0.00000000000E+00  0.45593999997E+02  0.45594000000E+02  0.51100000000E-03 0.  1.
         11   -1    0    0    0    0 -0.00000000000E+00 -0.00000000000E+00 -0.45593999997E+02  0.45594000000E+02  0.51100000000E-03 0. -1.
    9900012    2    1    2    0    0 -0.38026879953E+02 -0.12603845624E+02  0.69472928362E+01  0.50528863251E+02  0.30000010336E+02 0.  0.
         12    1    1    2    0    0  0.38026879953E+02  0.12603845624E+02 -0.69472928362E+01  0.40659136749E+02  0.00000000000E+00 0. -1.
         11    1    3    3    0    0 -0.29981549148E+02  0.10231728251E-01 -0.36677286385E+01  0.30205059636E+02  0.51100000000E-03 0.  1.
        -11    1    3    3    0    0 -0.70438992770E+00  0.95369359947E+00  0.27788730910E+01  0.30212303072E+01  0.51100000000E-03 0. -1.
        -12    1    3    3    0    0 -0.73409408772E+01 -0.13567770951E+02  0.78361483837E+01  0.17302573307E+02  0.00000000000E+00 0.  1.
</event>
<event>
 7    1  0.2450552E-011  0.5052886E+02  0.7816164E-02  0.1300439E+00
        -11   -1    0    0    0    0  0.00000000000E+00  0.00000000000E+00  0.45593999997E+02  0.45594000000E+02  0.51100000000E-03 0. -1.
         11   -1    0    0    0    0 -0.00000000000E+00 -0.00000000000E+00 -0.45593999997E+02  0.45594000000E+02  0.51100000000E-03 0.  1.
    9900012    2    1    2    0    0 -0.39017583205E+02  0.96277365848E+01 -0.61725339127E+01  0.50528864669E+02  0.30000014649E+02 0.  0.
         12    1    1    2    0    0  0.39017583205E+02 -0.96277365848E+01  0.61725339127E+01  0.40659135331E+02  0.00000000000E+00 0. -1.
         11    1    3    3    0    0 -0.15478666391E+02  0.16180359688E+02 -0.54386801591E+00  0.22398413907E+02  0.51100000000E-03 0. -1.
        -11    1    3    3    0    0  0.45951242372E+00 -0.21510010767E+00 -0.31446627805E+01  0.31853294944E+01  0.51100000000E-03 0.  1.
        -12    1    3    3    0    0 -0.23998429238E+02 -0.63375229950E+01 -0.24840031163E+01  0.24945121269E+02  0.00000000000E+00 0.  1.
</event>
<event>
 7    1  0.2450552E-011  0.5052887E+02  0.7816164E-02  0.1300439E+00
        -11   -1    0    0    0    0  0.00000000000E+00  0.00000000000E+00  0.45593999997E+02  0.45594000000E+02  0.51100000000E-03 0.  1.
         11   -1    0    0    0    0 -0.00000000000E+00 -0.00000000000E+00 -0.45593999997E+02  0.45594000000E+02  0.51100000000E-03 0. -1.
    9900012    2    1    2    0    0  0.39007672752E+02 -0.15892042541E+01  0.11359616458E+02  0.50528868311E+02  0.30000025717E+02 0.  0.
         12    1    1    2    0    0 -0.39007672752E+02  0.15892042541E+01 -0.11359616458E+02  0.40659131689E+02  0.00000000000E+00 0. -1.
         11    1    3    3    0    0  0.23690079794E+01 -0.65100419676E+01 -0.28176364876E+01  0.74787646616E+01  0.51100000000E-03 0. -1.
        -11    1    3    3    0    0  0.11986309950E+02 -0.60266368083E+01  0.70255749827E+01  0.15144328362E+02  0.51100000000E-03 0.  1.
        -12    1    3    3    0    0  0.24652354822E+02  0.10947474522E+02  0.71516779629E+01  0.27905775287E+02  0.00000000000E+00 0.  1.
</event>
<event>
 7    1  0.2450552E-011  0.5052887E+02  0.7816164E-02  0.1300439E+00
        -11   -1    0    0    0    0  0.00000000000E+00  0.00000000000E+00  0.45593999997E+02  0.45594000000E+02  0.51100000000E-03 0.  1.
         11   -1    0    0    0    0 -0.00000000000E+00 -0.00000000000E+00 -0.45593999997E+02  0.45594000000E+02  0.51100000000E-03 0. -1.
    9900012    2    1    2    0    0 -0.11655019368E+02  0.69063529810E+01  0.38335724959E+02  0.50528868233E+02  0.30000025480E+02 0.  0.
         12    1    1    2    0    0  0.11655019368E+02 -0.69063529810E+01 -0.38335724959E+02  0.40659131767E+02  0.00000000000E+00 0. -1.
         11    1    3    3    0    0 -0.97548185578E+01  0.92390270557E+01  0.14950087427E+02  0.20100279112E+02  0.51100000000E-03 0. -1.
        -11    1    3    3    0    0 -0.69247979196E+01 -0.61690923461E+01  0.22114298837E+02  0.23980257294E+02  0.51100000000E-03 0.  1.
        -12    1    3    3    0    0  0.50245971097E+01  0.38364182714E+01  0.12713386949E+01  0.64483318265E+01  0.00000000000E+00 0.  1.
</event>
<event>
 7    1  0.2450552E-011  0.5052885E+02  0.7816164E-02  0.1300439E+00
        -11   -1    0    0    0    0  0.00000000000E+00  0.00000000000E+00  0.45593999997E+02  0.45594000000E+02  0.51100000000E-03 0.  1.
         11   -1    0    0    0    0 -0.00000000000E+00 -0.00000000000E+00 -0.45593999997E+02  0.45594000000E+02  0.51100000000E-03 0. -1.
    9900012    2    1    2    0    0  0.77392606291E+01  0.36817530517E+02 -0.15418802229E+02  0.50528853789E+02  0.29999981577E+02 0.  0.
         12    1    1    2    0    0 -0.77392606291E+01 -0.36817530517E+02  0.15418802229E+02  0.40659146211E+02  0.00000000000E+00 0. -1.
         11    1    3    3    0    0 -0.61402008936E+01  0.12918480573E+02 -0.11809019691E+02  0.18548373343E+02  0.51100000000E-03 0. -1.
        -11    1    3    3    0    0  0.86356126243E+01  0.74188611484E+01 -0.82673831299E+01  0.14069930000E+02  0.51100000000E-03 0.  1.
        -12    1    3    3    0    0  0.52438488984E+01  0.16480188795E+02  0.46576005920E+01  0.17910550446E+02  0.00000000000E+00 0.  1.
</event>
<event>
 7    1  0.2450552E-011  0.5052887E+02  0.7816164E-02  0.1300439E+00
        -11   -1    0    0    0    0  0.00000000000E+00  0.00000000000E+00  0.45593999997E+02  0.45594000000E+02  0.51100000000E-03 0. -1.
         11   -1    0    0    0    0 -0.00000000000E+00 -0.00000000000E+00 -0.45593999997E+02  0.45594000000E+02  0.51100000000E-03 0.  1.
    9900012    2    1    2    0    0 -0.11038047088E+02 -0.37282974643E+02  0.11887236579E+02  0.50528867259E+02  0.30000022522E+02 0.  0.
         12    1    1    2    0    0  0.11038047088E+02  0.37282974643E+02 -0.11887236579E+02  0.40659132741E+02  0.00000000000E+00 0. -1.
         11    1    3    3    0    0  0.74427398408E+01 -0.11851589236E+02 -0.13675769772E+01  0.14061465457E+02  0.51100000000E-03 0. -1.
        -11    1    3    3    0    0 -0.30343429600E+01 -0.14518938859E+02  0.37416885367E+01  0.15297289176E+02  0.51100000000E-03 0.  1.
         12    1    3    3    0    0 -0.15446443969E+02 -0.10912446548E+02  0.95131250196E+01  0.21170112626E+02  0.00000000000E+00 0. -1.
</event>
<event>
 7    1  0.2450552E-011  0.5052886E+02  0.7816164E-02  0.1300439E+00
        -11   -1    0    0    0    0  0.00000000000E+00  0.00000000000E+00  0.45593999997E+02  0.45594000000E+02  0.51100000000E-03 0. -1.
         11   -1    0    0    0    0 -0.00000000000E+00 -0.00000000000E+00 -0.45593999997E+02  0.45594000000E+02  0.51100000000E-03 0.  1.
    9900012    2    1    2    0    0  0.34475330467E+02 -0.10360633054E+02 -0.18901702559E+02  0.50528862187E+02  0.30000007104E+02 0.  0.
         12    1    1    2    0    0 -0.34475330467E+02  0.10360633054E+02  0.18901702559E+02  0.40659137813E+02  0.00000000000E+00 0. -1.
         11    1    3    3    0    0  0.15722508748E+02  0.46799021368E+01 -0.35973935947E+01  0.16794046751E+02  0.51100000000E-03 0. -1.
        -11    1    3    3    0    0  0.17756658780E+02 -0.49867474060E+01 -0.14750549823E+02  0.23616631874E+02  0.51100000000E-03 0.  1.
        -12    1    3    3    0    0  0.99616293891E+00 -0.10053787784E+02 -0.55375914149E+00  0.10118183562E+02  0.00000000000E+00 0.  1.
</event>
<event>
 7    1  0.2450552E-011  0.5052879E+02  0.7816164E-02  0.1300439E+00
        -11   -1    0    0    0    0  0.00000000000E+00  0.00000000000E+00  0.45593999997E+02  0.45594000000E+02  0.51100000000E-03 0. -1.
         11   -1    0    0    0    0 -0.00000000000E+00 -0.00000000000E+00 -0.45593999997E+02  0.45594000000E+02  0.51100000000E-03 0.  1.
    9900012    2    1    2    0    0 -0.20199419639E+02 -0.33103969832E+02  0.12218090637E+02  0.50528793033E+02  0.29999796901E+02 0.  0.
         12    1    1    2    0    0  0.20199419639E+02  0.33103969832E+02 -0.12218090637E+02  0.40659206967E+02  0.00000000000E+00 0. -1.
         11    1    3    3    0    0  0.40968651654E+01 -0.79827812018E+01 -0.23668082949E+01  0.92795949085E+01  0.51100000000E-03 0. -1.
        -11    1    3    3    0    0 -0.14902298999E+02 -0.46584676088E+01  0.28954115780E+01  0.15879648748E+02  0.51100000000E-03 0.  1.
        -12    1    3    3    0    0 -0.93939858062E+01 -0.20462721021E+02  0.11689487354E+02  0.25369549376E+02  0.00000000000E+00 0.  1.
</event>
<event>
 7    1  0.2450552E-011  0.5052886E+02  0.7816164E-02  0.1300439E+00
        -11   -1    0    0    0    0  0.00000000000E+00  0.00000000000E+00  0.45593999997E+02  0.45594000000E+02  0.51100000000E-03 0.  1.
         11   -1    0    0    0    0 -0.00000000000E+00 -0.00000000000E+00 -0.45593999997E+02  0.45594000000E+02  0.51100000000E-03 0. -1.
    9900012    2    1    2    0    0  0.12329619363E+01  0.39249412353E+02  0.10541762049E+02  0.50528864344E+02  0.30000013661E+02 0.  0.
         12    1    1    2    0    0 -0.12329619363E+01 -0.39249412353E+02 -0.10541762049E+02  0.40659135656E+02  0.00000000000E+00 0. -1.
         11    1    3    3    0    0  0.19125907076E+01  0.22076652766E+01 -0.34572114800E+01  0.45259364409E+01  0.51100000000E-03 0. -1.
        -11    1    3    3    0    0 -0.24702859333E+01  0.40310962347E+01 -0.57888467628E+01  0.74741418604E+01  0.51100000000E-03 0.  1.
        -12    1    3    3    0    0  0.17906571620E+01  0.33010650841E+02  0.19787820292E+02  0.38528786043E+02  0.00000000000E+00 0.  1.
</event>
<event>
 7    1  0.2450552E-011  0.5052885E+02  0.7816164E-02  0.1300439E+00
        -11   -1    0    0    0    0  0.00000000000E+00  0.00000000000E+00  0.45593999997E+02  0.45594000000E+02  0.51100000000E-03 0. -1.
         11   -1    0    0    0    0 -0.00000000000E+00 -0.00000000000E+00 -0.45593999997E+02  0.45594000000E+02  0.51100000000E-03 0.  1.
    9900012    2    1    2    0    0  0.30113059130E+01  0.40148000180E+02 -0.56777257336E+01  0.50528850337E+02  0.29999971085E+02 0.  0.
         12    1    1    2    0    0 -0.30113059130E+01 -0.40148000180E+02  0.56777257336E+01  0.40659149663E+02  0.00000000000E+00 0. -1.
         11    1    3    3    0    0 -0.24185390355E+01  0.25174229557E+01  0.32417854086E+01  0.47640237511E+01  0.51100000000E-03 0. -1.
        -11    1    3    3    0    0  0.10985383024E+02  0.89100797326E+01 -0.85137116134E+01  0.16509132222E+02  0.51100000000E-03 0.  1.
         12    1    3    3    0    0 -0.55555380750E+01  0.28720497492E+02 -0.40579952877E+00  0.29255694365E+02  0.00000000000E+00 0. -1.
</event>
<event>
 7    1  0.2450552E-011  0.5052879E+02  0.7816164E-02  0.1300439E+00
        -11   -1    0    0    0    0  0.00000000000E+00  0.00000000000E+00  0.45593999997E+02  0.45594000000E+02  0.51100000000E-03 0. -1.
         11   -1    0    0    0    0 -0.00000000000E+00 -0.00000000000E+00 -0.45593999997E+02  0.45594000000E+02  0.51100000000E-03 0.  1.
    9900012    2    1    2    0    0  0.22551086038E+02  0.29262449591E+02 -0.16980241340E+02  0.50528793988E+02  0.29999799806E+02 0.  0.
         12    1    1    2    0    0 -0.22551086038E+02 -0.29262449591E+02  0.16980241340E+02  0.40659206012E+02  0.00000000000E+00 0. -1.
         11    1    3    3    0    0  0.10053519570E+02  0.45984019757E+01 -0.31628448616E+01  0.11498788822E+02  0.51100000000E-03 0. -1.
        -11    1    3    3    0    0  0.27846135855E+01 -0.30994506437E+00 -0.11833161401E+02  0.12160339131E+02  0.51100000000E-03 0.  1.
        -12    1    3    3    0    0  0.97129528824E+01  0.24973992679E+02 -0.19842350770E+01  0.26869666036E+02  0.00000000000E+00 0.  1.
</event>
<event>
 7    1  0.2450552E-011  0.5052886E+02  0.7816164E-02  0.1300439E+00
        -11   -1    0    0    0    0  0.00000000000E+00  0.00000000000E+00  0.45593999997E+02  0.45594000000E+02  0.51100000000E-03 0.  1.
         11   -1    0    0    0    0 -0.00000000000E+00 -0.00000000000E+00 -0.45593999997E+02  0.45594000000E+02  0.51100000000E-03 0. -1.
    9900012    2    1    2    0    0  0.13093165972E+02 -0.13771780649E+02  0.35945410328E+02  0.50528862514E+02  0.30000008099E+02 0.  0.
         12    1    1    2    0    0 -0.13093165972E+02  0.13771780649E+02 -0.35945410328E+02  0.40659137486E+02  0.00000000000E+00 0. -1.
         11    1    3    3    0    0  0.16272987605E+02 -0.12117290175E+02  0.21126433424E+02  0.29291040204E+02  0.51100000000E-03 0. -1.
        -11    1    3    3    0    0  0.47286427180E+01  0.33829376661E+01  0.62390799712E+01  0.85282148399E+01  0.51100000000E-03 0.  1.
         12    1    3    3    0    0 -0.79084643514E+01 -0.50374281399E+01  0.85798969330E+01  0.12709607470E+02  0.00000000000E+00 0. -1.
</event>
<event>
 7    1  0.2450552E-011  0.5052884E+02  0.7816164E-02  0.1300439E+00
        -11   -1    0    0    0    0  0.00000000000E+00  0.00000000000E+00  0.45593999997E+02  0.45594000000E+02  0.51100000000E-03 0. -1.
         11   -1    0    0    0    0 -0.00000000000E+00 -0.00000000000E+00 -0.45593999997E+02  0.45594000000E+02  0.51100000000E-03 0.  1.
    9900012    2    1    2    0    0  0.37117707651E+01 -0.39785479258E+02  0.75170097431E+01  0.50528843129E+02  0.29999949176E+02 0.  0.
         12    1    1    2    0    0 -0.37117707651E+01  0.39785479258E+02 -0.75170097431E+01  0.40659156871E+02  0.00000000000E+00 0. -1.
         11    1    3    3    0    0  0.87150652812E+01 -0.20827890214E+02  0.28843154684E+01  0.22761209318E+02  0.51100000000E-03 0.  1.
        -11    1    3    3    0    0  0.50027868916E+01 -0.48095311958E+01  0.74833417105E+01  0.10205874310E+02  0.51100000000E-03 0. -1.
        -12    1    3    3    0    0 -0.10006081408E+02 -0.14148057847E+02 -0.28506474358E+01  0.17561759502E+02  0.00000000000E+00 0.  1.
</event>
<event>
 7    1  0.2450552E-011  0.5052877E+02  0.7816164E-02  0.1300439E+00
        -11   -1    0    0    0    0  0.00000000000E+00  0.00000000000E+00  0.45593999997E+02  0.45594000000E+02  0.51100000000E-03 0.  1.
         11   -1    0    0    0    0 -0.00000000000E+00 -0.00000000000E+00 -0.45593999997E+02  0.45594000000E+02  0.51100000000E-03 0. -1.
    9900012    2    1    2    0    0  0.67973640025E+01  0.16062954530E+02  0.36728061298E+02  0.50528767932E+02  0.29999720606E+02 0.  0.
         12    1    1    2    0    0 -0.67973640025E+01 -0.16062954530E+02 -0.36728061298E+02  0.40659232068E+02  0.00000000000E+00 0. -1.
         11    1    3    3    0    0  0.35529151858E+01 -0.37069332662E+01  0.20332059048E+02  0.20970388312E+02  0.51100000000E-03 0. -1.
        -11    1    3    3    0    0 -0.40801422908E+01  0.10269651539E+02  0.13058689854E+02  0.17106802296E+02  0.51100000000E-03 0.  1.
        -12    1    3    3    0    0  0.73245911075E+01  0.95002362571E+01  0.33373123967E+01  0.12451577324E+02  0.00000000000E+00 0.  1.
</event>
<event>
 7    1  0.2450552E-011  0.5052886E+02  0.7816164E-02  0.1300439E+00
        -11   -1    0    0    0    0  0.00000000000E+00  0.00000000000E+00  0.45593999997E+02  0.45594000000E+02  0.51100000000E-03 0.  1.
         11   -1    0    0    0    0 -0.00000000000E+00 -0.00000000000E+00 -0.45593999997E+02  0.45594000000E+02  0.51100000000E-03 0. -1.
    9900012    2    1    2    0    0  0.13278950902E+02 -0.27214321387E+02  0.27133291762E+02  0.50528863911E+02  0.30000012344E+02 0.  0.
         12    1    1    2    0    0 -0.13278950902E+02  0.27214321387E+02 -0.27133291762E+02  0.40659136089E+02  0.00000000000E+00 0. -1.
         11    1    3    3    0    0  0.99378755994E+01 -0.23398163277E+02  0.98872396994E+01  0.27276233708E+02  0.51100000000E-03 0. -1.
        -11    1    3    3    0    0 -0.24666583430E+01 -0.78671078747E+01  0.71032138853E+01  0.10882620891E+02  0.51100000000E-03 0.  1.
         12    1    3    3    0    0  0.58077336457E+01  0.40509497641E+01  0.10142838178E+02  0.12370009312E+02  0.00000000000E+00 0. -1.
</event>
<event>
 7    1  0.2450552E-011  0.5052885E+02  0.7816164E-02  0.1300439E+00
        -11   -1    0    0    0    0  0.00000000000E+00  0.00000000000E+00  0.45593999997E+02  0.45594000000E+02  0.51100000000E-03 0.  1.
         11   -1    0    0    0    0 -0.00000000000E+00 -0.00000000000E+00 -0.45593999997E+02  0.45594000000E+02  0.51100000000E-03 0. -1.
    9900012    2    1    2    0    0  0.39053719321E+02  0.49266531788E+01  0.10183399386E+02  0.50528849401E+02  0.29999968240E+02 0.  0.
         12    1    1    2    0    0 -0.39053719321E+02 -0.49266531788E+01 -0.10183399386E+02  0.40659150599E+02  0.00000000000E+00 0. -1.
         11    1    3    3    0    0  0.23626565629E+00 -0.36999030554E+01 -0.48118928353E+00  0.37385354709E+01  0.51100000000E-03 0. -1.
        -11    1    3    3    0    0  0.32583952173E+02 -0.25227321785E+01  0.62376663525E+01  0.33271408125E+02  0.51100000000E-03 0.  1.
        -12    1    3    3    0    0  0.62335014922E+01  0.11149288413E+02  0.44269223171E+01  0.13518905805E+02  0.00000000000E+00 0.  1.
</event>
<event>
 7    1  0.2450552E-011  0.5052886E+02  0.7816164E-02  0.1300439E+00
        -11   -1    0    0    0    0  0.00000000000E+00  0.00000000000E+00  0.45593999997E+02  0.45594000000E+02  0.51100000000E-03 0.  1.
         11   -1    0    0    0    0 -0.00000000000E+00 -0.00000000000E+00 -0.45593999997E+02  0.45594000000E+02  0.51100000000E-03 0. -1.
    9900012    2    1    2    0    0 -0.23857433882E+01  0.23406311287E+02  0.33160497793E+02  0.50528858427E+02  0.29999995674E+02 0.  0.
         12    1    1    2    0    0  0.23857433882E+01 -0.23406311287E+02 -0.33160497793E+02  0.40659141573E+02  0.00000000000E+00 0. -1.
         11    1    3    3    0    0 -0.17205161243E+01  0.26062603940E+00 -0.39854454452E+01  0.43487788314E+01  0.51100000000E-03 0. -1.
        -11    1    3    3    0    0  0.64660737097E+00  0.16747921788E+02  0.13127285816E+02  0.21289354581E+02  0.51100000000E-03 0.  1.
        -12    1    3    3    0    0 -0.13118346349E+01  0.63977634600E+01  0.24018657422E+02  0.24890725015E+02  0.00000000000E+00 0.  1.
</event>
<event>
 7    1  0.2450552E-011  0.5052887E+02  0.7816164E-02  0.1300439E+00
        -11   -1    0    0    0    0  0.00000000000E+00  0.00000000000E+00  0.45593999997E+02  0.45594000000E+02  0.51100000000E-03 0. -1.
         11   -1    0    0    0    0 -0.00000000000E+00 -0.00000000000E+00 -0.45593999997E+02  0.45594000000E+02  0.51100000000E-03 0.  1.
    9900012    2    1    2    0    0 -0.37813741122E+02  0.14084254435E+02  0.49919608657E+01  0.50528869243E+02  0.30000028551E+02 0.  0.
         12    1    1    2    0    0  0.37813741122E+02 -0.14084254435E+02 -0.49919608657E+01  0.40659130757E+02  0.00000000000E+00 0. -1.
         11    1    3    3    0    0 -0.67990179212E+01  0.13738478595E+02  0.54914353466E+01  0.16282760860E+02  0.51100000000E-03 0. -1.
        -11    1    3    3    0    0 -0.56272327508E+01 -0.10165158189E+00  0.58032073656E+01  0.80841386347E+01  0.51100000000E-03 0.  1.
        -12    1    3    3    0    0 -0.25387490450E+02  0.44742742220E+00 -0.63026818465E+01  0.26161969748E+02  0.00000000000E+00 0.  1.
</event>
<event>
 7    1  0.2450552E-011  0.5052890E+02  0.7816164E-02  0.1300439E+00
        -11   -1    0    0    0    0  0.00000000000E+00  0.00000000000E+00  0.45593999997E+02  0.45594000000E+02  0.51100000000E-03 0.  1.
         11   -1    0    0    0    0 -0.00000000000E+00 -0.00000000000E+00 -0.45593999997E+02  0.45594000000E+02  0.51100000000E-03 0. -1.
    9900012    2    1    2    0    0  0.23487487020E+02 -0.45445374387E+01  0.32876245335E+02  0.50528900473E+02  0.30000123477E+02 0.  0.
         12    1    1    2    0    0 -0.23487487020E+02  0.45445374387E+01 -0.32876245335E+02  0.40659099527E+02  0.00000000000E+00 0. -1.
         11    1    3    3    0    0  0.15091521290E+02 -0.94388943741E+01  0.25250314157E+02  0.30893771332E+02  0.51100000000E-03 0. -1.
        -11    1    3    3    0    0  0.65697969967E+01 -0.12932215597E+01  0.10594816895E+02  0.12533347513E+02  0.51100000000E-03 0.  1.
         12    1    3    3    0    0  0.18261687333E+01  0.61875784951E+01 -0.29688857173E+01  0.71017816271E+01  0.00000000000E+00 0. -1.
</event>
<event>
 7    1  0.2450552E-011  0.5052887E+02  0.7816164E-02  0.1300439E+00
        -11   -1    0    0    0    0  0.00000000000E+00  0.00000000000E+00  0.45593999997E+02  0.45594000000E+02  0.51100000000E-03 0.  1.
         11   -1    0    0    0    0 -0.00000000000E+00 -0.00000000000E+00 -0.45593999997E+02  0.45594000000E+02  0.51100000000E-03 0. -1.
    9900012    2    1    2    0    0  0.10970642585E+02  0.86853937749E+01  0.38175569881E+02  0.50528865731E+02  0.30000017875E+02 0.  0.
         12    1    1    2    0    0 -0.10970642585E+02 -0.86853937749E+01 -0.38175569881E+02  0.40659134269E+02  0.00000000000E+00 0. -1.
         11    1    3    3    0    0  0.57274596974E+01  0.56378583181E-01  0.51450739973E+01  0.76992700842E+01  0.51100000000E-03 0. -1.
        -11    1    3    3    0    0 -0.18445534114E+00  0.21193306982E+01  0.34206714071E+02  0.34272800793E+02  0.51100000000E-03 0.  1.
         12    1    3    3    0    0  0.54276382285E+01  0.65096844935E+01 -0.11762181870E+01  0.85567948537E+01  0.00000000000E+00 0. -1.
</event>
<event>
 7    1  0.2450552E-011  0.5052891E+02  0.7816164E-02  0.1300439E+00
        -11   -1    0    0    0    0  0.00000000000E+00  0.00000000000E+00  0.45593999997E+02  0.45594000000E+02  0.51100000000E-03 0.  1.
         11   -1    0    0    0    0 -0.00000000000E+00 -0.00000000000E+00 -0.45593999997E+02  0.45594000000E+02  0.51100000000E-03 0. -1.
    9900012    2    1    2    0    0 -0.11003057797E+02  0.34726284169E+01  0.38987629028E+02  0.50528909427E+02  0.30000150695E+02 0.  0.
         12    1    1    2    0    0  0.11003057797E+02 -0.34726284169E+01 -0.38987629028E+02  0.40659090573E+02  0.00000000000E+00 0. -1.
         11    1    3    3    0    0 -0.85553780227E+01 -0.35531875650E+01  0.10114862167E+02  0.13716051615E+02  0.51100000000E-03 0. -1.
        -11    1    3    3    0    0 -0.30751889120E+00  0.16454228583E+01  0.30696443135E+02  0.30742049471E+02  0.51100000000E-03 0.  1.
        -12    1    3    3    0    0 -0.21401608826E+01  0.53803931236E+01 -0.18236762745E+01  0.60708083417E+01  0.00000000000E+00 0.  1.
</event>
<event>
 7    1  0.2450552E-011  0.5052886E+02  0.7816164E-02  0.1300439E+00
        -11   -1    0    0    0    0  0.00000000000E+00  0.00000000000E+00  0.45593999997E+02  0.45594000000E+02  0.51100000000E-03 0.  1.
         11   -1    0    0    0    0 -0.00000000000E+00 -0.00000000000E+00 -0.45593999997E+02  0.45594000000E+02  0.51100000000E-03 0. -1.
    9900012    2    1    2    0    0 -0.80532794059E+01 -0.30030064146E+02  0.26201256664E+02  0.50528856963E+02  0.29999991224E+02 0.  0.
         12    1    1    2    0    0  0.80532794059E+01  0.30030064146E+02 -0.26201256664E+02  0.40659143037E+02  0.00000000000E+00 0. -1.
         11    1    3    3    0    0  0.39797420011E+01 -0.93139373909E+00 -0.16911455619E+01  0.44233261541E+01  0.51100000000E-03 0.  1.
        -11    1    3    3    0    0 -0.11267529018E+02 -0.57385878370E+01  0.56808648149E+01  0.13862208548E+02  0.51100000000E-03 0. -1.
        -12    1    3    3    0    0 -0.76549238919E+00 -0.23360082569E+02  0.22211537411E+02  0.32243322260E+02  0.00000000000E+00 0.  1.
</event>
<event>
 7    1  0.2450552E-011  0.5052887E+02  0.7816164E-02  0.1300439E+00
        -11   -1    0    0    0    0  0.00000000000E+00  0.00000000000E+00  0.45593999997E+02  0.45594000000E+02  0.51100000000E-03 0.  1.
         11   -1    0    0    0    0 -0.00000000000E+00 -0.00000000000E+00 -0.45593999997E+02  0.45594000000E+02  0.51100000000E-03 0. -1.
    9900012    2    1    2    0    0  0.33192260284E+02  0.12954569254E+02  0.19586170293E+02  0.50528867274E+02  0.30000022566E+02 0.  0.
         12    1    1    2    0    0 -0.33192260284E+02 -0.12954569254E+02 -0.19586170293E+02  0.40659132726E+02  0.00000000000E+00 0. -1.
         11    1    3    3    0    0 -0.48681837075E+00 -0.32530890468E+00  0.34757605629E+01  0.35247311616E+01  0.51100000000E-03 0. -1.
        -11    1    3    3    0    0 -0.19125639385E+01  0.47830416797E+01 -0.27482237881E+01  0.58385034708E+01  0.51100000000E-03 0.  1.
        -12    1    3    3    0    0  0.35591642593E+02  0.84968364786E+01  0.18858633518E+02  0.41165632642E+02  0.00000000000E+00 0.  1.
</event>
<event>
 7    1  0.2450552E-011  0.5052885E+02  0.7816164E-02  0.1300439E+00
        -11   -1    0    0    0    0  0.00000000000E+00  0.00000000000E+00  0.45593999997E+02  0.45594000000E+02  0.51100000000E-03 0.  1.
         11   -1    0    0    0    0 -0.00000000000E+00 -0.00000000000E+00 -0.45593999997E+02  0.45594000000E+02  0.51100000000E-03 0. -1.
    9900012    2    1    2    0    0 -0.22170288107E+02  0.12041175630E+02  0.31885031660E+02  0.50528845689E+02  0.29999956958E+02 0.  0.
         12    1    1    2    0    0  0.22170288107E+02 -0.12041175630E+02 -0.31885031660E+02  0.40659154311E+02  0.00000000000E+00 0. -1.
         11    1    3    3    0    0 -0.11143663427E+02 -0.78203895246E+01  0.76862317312E+01  0.15633869815E+02  0.51100000000E-03 0. -1.
        -11    1    3    3    0    0  0.19542455936E+01  0.45153181887E+01  0.34658501319E+01  0.60182465539E+01  0.51100000000E-03 0.  1.
        -12    1    3    3    0    0 -0.12980870273E+02  0.15346246966E+02  0.20732949797E+02  0.28876729321E+02  0.00000000000E+00 0.  1.
</event>
<event>
 7    1  0.2450552E-011  0.5052887E+02  0.7816164E-02  0.1300439E+00
        -11   -1    0    0    0    0  0.00000000000E+00  0.00000000000E+00  0.45593999997E+02  0.45594000000E+02  0.51100000000E-03 0.  1.
         11   -1    0    0    0    0 -0.00000000000E+00 -0.00000000000E+00 -0.45593999997E+02  0.45594000000E+02  0.51100000000E-03 0. -1.
    9900012    2    1    2    0    0  0.17354363341E+02  0.25514663805E+02  0.26476275244E+02  0.50528866379E+02  0.30000019846E+02 0.  0.
         12    1    1    2    0    0 -0.17354363341E+02 -0.25514663805E+02 -0.26476275244E+02  0.40659133621E+02  0.00000000000E+00 0. -1.
         11    1    3    3    0    0 -0.34437306393E+01  0.10987404736E+01  0.33367071203E+01  0.49193623583E+01  0.51100000000E-03 0. -1.
        -11    1    3    3    0    0  0.33114080535E+01  0.17990475505E+02  0.19293385320E+02  0.26586789004E+02  0.51100000000E-03 0.  1.
         12    1    3    3    0    0  0.17486685926E+02  0.64254478267E+01  0.38461828037E+01  0.19022715017E+02  0.00000000000E+00 0. -1.
</event>
<event>
 7    1  0.4765953E-011  0.5052886E+02  0.7816164E-02  0.1300439E+00
        -11   -1    0    0    0    0  0.00000000000E+00  0.00000000000E+00  0.45593999997E+02  0.45594000000E+02  0.51100000000E-03 0. -1.
         11   -1    0    0    0    0 -0.00000000000E+00 -0.00000000000E+00 -0.45593999997E+02  0.45594000000E+02  0.51100000000E-03 0.  1.
    9900012    2    1    2    0    0 -0.50540472270E+01  0.16898555949E+02 -0.36634148324E+02  0.50528863143E+02  0.30000010009E+02 0.  0.
         12    1    1    2    0    0  0.50540472270E+01 -0.16898555949E+02  0.36634148324E+02  0.40659136857E+02  0.00000000000E+00 0. -1.
         11    1    3    3    0    0  0.46350001550E+01 -0.13799378875E+01 -0.33817350104E+01  0.59011513243E+01  0.51100000000E-03 0. -1.
        -11    1    3    3    0    0 -0.43069775137E+01  0.12282274518E+02 -0.30488179986E+01  0.13367857498E+02  0.51100000000E-03 0.  1.
        -12    1    3    3    0    0 -0.53820698683E+01  0.59962193181E+01 -0.30203595315E+02  0.31259854320E+02  0.00000000000E+00 0.  1.
</event>
<event>
 7    1  0.2450552E-011  0.5052886E+02  0.7816164E-02  0.1300439E+00
        -11   -1    0    0    0    0  0.00000000000E+00  0.00000000000E+00  0.45593999997E+02  0.45594000000E+02  0.51100000000E-03 0. -1.
         11   -1    0    0    0    0 -0.00000000000E+00 -0.00000000000E+00 -0.45593999997E+02  0.45594000000E+02  0.51100000000E-03 0.  1.
    9900012    2    1    2    0    0 -0.18660222325E+02  0.18640293420E+02 -0.30943518628E+02  0.50528858579E+02  0.29999996136E+02 0.  0.
         12    1    1    2    0    0  0.18660222325E+02 -0.18640293420E+02  0.30943518628E+02  0.40659141421E+02  0.00000000000E+00 0. -1.
         11    1    3    3    0    0 -0.66783789431E+01  0.93198956921E+01 -0.14031379270E+02  0.18120176752E+02  0.51100000000E-03 0. -1.
        -11    1    3    3    0    0 -0.17931725453E+02  0.26449893813E+01 -0.14315616963E+02  0.23097178093E+02  0.51100000000E-03 0.  1.
         12    1    3    3    0    0  0.59498820709E+01  0.66754083467E+01 -0.25965223949E+01  0.93115037346E+01  0.00000000000E+00 0. -1.
</event>
<event>
 7    1  0.2450552E-011  0.5052891E+02  0.7816164E-02  0.1300439E+00
        -11   -1    0    0    0    0  0.00000000000E+00  0.00000000000E+00  0.45593999997E+02  0.45594000000E+02  0.51100000000E-03 0. -1.
         11   -1    0    0    0    0 -0.00000000000E+00 -0.00000000000E+00 -0.45593999997E+02  0.45594000000E+02  0.51100000000E-03 0.  1.
    9900012    2    1    2    0    0 -0.20241850525E+02  0.97766210024E+01 -0.33879889212E+02  0.50528908471E+02  0.30000147789E+02 0.  0.
         12    1    1    2    0    0  0.20241850525E+02 -0.97766210024E+01  0.33879889212E+02  0.40659091529E+02  0.00000000000E+00 0. -1.
         11    1    3    3    0    0 -0.29532323460E+01 -0.83508744103E+01 -0.73608146168E+01  0.11516956056E+02  0.51100000000E-03 0. -1.
        -11    1    3    3    0    0 -0.11907506982E+02  0.52770376466E+01 -0.63263494158E+01  0.14479590673E+02  0.51100000000E-03 0.  1.
        -12    1    3    3    0    0 -0.53811111972E+01  0.12850457766E+02 -0.20192725180E+02  0.24532361743E+02  0.00000000000E+00 0.  1.
</event>
<event>
 7    1  0.2450552E-011  0.5052887E+02  0.7816164E-02  0.1300439E+00
        -11   -1    0    0    0    0  0.00000000000E+00  0.00000000000E+00  0.45593999997E+02  0.45594000000E+02  0.51100000000E-03 0. -1.
         11   -1    0    0    0    0 -0.00000000000E+00 -0.00000000000E+00 -0.45593999997E+02  0.45594000000E+02  0.51100000000E-03 0.  1.
    9900012    2    1    2    0    0  0.39344595072E+01  0.13404699830E+02 -0.38183753397E+02  0.50528868521E+02  0.30000026357E+02 0.  0.
         12    1    1    2    0    0 -0.39344595072E+01 -0.13404699830E+02  0.38183753397E+02  0.40659131479E+02  0.00000000000E+00 0. -1.
         11    1    3    3    0    0  0.22579236737E+01 -0.34819372068E+01 -0.45410936907E+01  0.61517183125E+01  0.51100000000E-03 0. -1.
        -11    1    3    3    0    0  0.89617183607E+01  0.76599057379E+01 -0.29737889069E+02  0.31989507631E+02  0.51100000000E-03 0.  1.
         12    1    3    3    0    0 -0.72851825273E+01  0.92267312986E+01 -0.39047706367E+01  0.12387642578E+02  0.00000000000E+00 0. -1.
</event>
<event>
 7    1  0.2450552E-011  0.5052886E+02  0.7816164E-02  0.1300439E+00
        -11   -1    0    0    0    0  0.00000000000E+00  0.00000000000E+00  0.45593999997E+02  0.45594000000E+02  0.51100000000E-03 0.  1.
         11   -1    0    0    0    0 -0.00000000000E+00 -0.00000000000E+00 -0.45593999997E+02  0.45594000000E+02  0.51100000000E-03 0. -1.
    9900012    2    1    2    0    0 -0.16155544850E+02 -0.17846715107E+02  0.32766728180E+02  0.50528863940E+02  0.30000012432E+02 0.  0.
         12    1    1    2    0    0  0.16155544850E+02  0.17846715107E+02 -0.32766728180E+02  0.40659136060E+02  0.00000000000E+00 0. -1.
         11    1    3    3    0    0  0.38178833552E+01  0.32089881327E+01  0.11048072613E+01  0.51082714783E+01  0.51100000000E-03 0. -1.
        -11    1    3    3    0    0 -0.97032718827E+00 -0.54204720935E+01  0.14244637494E+02  0.15271959605E+02  0.51100000000E-03 0.  1.
        -12    1    3    3    0    0 -0.19003101017E+02 -0.15635231146E+02  0.17417283425E+02  0.30148632857E+02  0.00000000000E+00 0.  1.
</event>
<event>
 7    1  0.2450552E-011  0.5052886E+02  0.7816164E-02  0.1300439E+00
        -11   -1    0    0    0    0  0.00000000000E+00  0.00000000000E+00  0.45593999997E+02  0.45594000000E+02  0.51100000000E-03 0.  1.
         11   -1    0    0    0    0 -0.00000000000E+00 -0.00000000000E+00 -0.45593999997E+02  0.45594000000E+02  0.51100000000E-03 0. -1.
    9900012    2    1    2    0    0  0.60646140066E+01 -0.29194738853E+02  0.27641520814E+02  0.50528855977E+02  0.29999988228E+02 0.  0.
         12    1    1    2    0    0 -0.60646140066E+01  0.29194738853E+02 -0.27641520814E+02  0.40659144023E+02  0.00000000000E+00 0. -1.
         11    1    3    3    0    0  0.43698812336E+00 -0.48642600719E+01  0.65770098204E+01  0.81920109317E+01  0.51100000000E-03 0. -1.
        -11    1    3    3    0    0  0.22417047308E+01  0.17127213633E+01  0.15158220869E+02  0.15418505593E+02  0.51100000000E-03 0.  1.
         12    1    3    3    0    0  0.33859211525E+01 -0.26043200144E+02  0.59062901251E+01  0.26918339452E+02  0.00000000000E+00 0. -1.
</event>
<event>
 7    1  0.2450552E-011  0.5052885E+02  0.7816164E-02  0.1300439E+00
        -11   -1    0    0    0    0  0.00000000000E+00  0.00000000000E+00  0.45593999997E+02  0.45594000000E+02  0.51100000000E-03 0.  1.
         11   -1    0    0    0    0 -0.00000000000E+00 -0.00000000000E+00 -0.45593999997E+02  0.45594000000E+02  0.51100000000E-03 0. -1.
    9900012    2    1    2    0    0  0.82963940385E+00 -0.15801895318E+02  0.37453679457E+02  0.50528852172E+02  0.29999976663E+02 0.  0.
         12    1    1    2    0    0 -0.82963940385E+00  0.15801895318E+02 -0.37453679457E+02  0.40659147828E+02  0.00000000000E+00 0. -1.
         11    1    3    3    0    0 -0.83766700299E+01 -0.85409205694E+01  0.25669643677E+02  0.28320426052E+02  0.51100000000E-03 0. -1.
        -11    1    3    3    0    0  0.35018235458E+01  0.41491663704E+01  0.63169851978E+01  0.83296249595E+01  0.51100000000E-03 0.  1.
        -12    1    3    3    0    0  0.57044858880E+01 -0.11410141119E+02  0.54670505821E+01  0.13878801161E+02  0.00000000000E+00 0.  1.
</event>
<event>
 7    1  0.2450552E-011  0.5052887E+02  0.7816164E-02  0.1300439E+00
        -11   -1    0    0    0    0  0.00000000000E+00  0.00000000000E+00  0.45593999997E+02  0.45594000000E+02  0.51100000000E-03 0. -1.
         11   -1    0    0    0    0 -0.00000000000E+00 -0.00000000000E+00 -0.45593999997E+02  0.45594000000E+02  0.51100000000E-03 0.  1.
    9900012    2    1    2    0    0  0.27399853467E+02  0.13791296713E+02 -0.26687322136E+02  0.50528868211E+02  0.30000025414E+02 0.  0.
         12    1    1    2    0    0 -0.27399853467E+02 -0.13791296713E+02  0.26687322136E+02  0.40659131789E+02  0.00000000000E+00 0. -1.
         11    1    3    3    0    0  0.18157101925E+02 -0.47029709993E+01 -0.13828699996E+02  0.23303030498E+02  0.51100000000E-03 0. -1.
        -11    1    3    3    0    0 -0.25788995190E+01  0.10062014771E+01 -0.24203880306E+01  0.36771514276E+01  0.51100000000E-03 0.  1.
         12    1    3    3    0    0  0.11821651061E+02  0.17488066235E+02 -0.10438234110E+02  0.23548686285E+02  0.00000000000E+00 0. -1.
</event>
<event>
 7    1  0.2681006E-011  0.5052886E+02  0.7816164E-02  0.1300439E+00
        -11   -1    0    0    0    0  0.00000000000E+00  0.00000000000E+00  0.45593999997E+02  0.45594000000E+02  0.51100000000E-03 0. -1.
         11   -1    0    0    0    0 -0.00000000000E+00 -0.00000000000E+00 -0.45593999997E+02  0.45594000000E+02  0.51100000000E-03 0.  1.
    9900012    2    1    2    0    0 -0.89186856106E+01  0.24463504498E+02 -0.31227543578E+02  0.50528862242E+02  0.30000007270E+02 0.  0.
         12    1    1    2    0    0  0.89186856106E+01 -0.24463504498E+02  0.31227543578E+02  0.40659137758E+02  0.00000000000E+00 0. -1.
         11    1    3    3    0    0  0.71531197203E+01  0.23203004286E+01 -0.95661149310E+01  0.12168051239E+02  0.51100000000E-03 0. -1.
        -11    1    3    3    0    0 -0.49383912106E+01  0.42185415037E+01 -0.14816443423E+02  0.16177478053E+02  0.51100000000E-03 0.  1.
         12    1    3    3    0    0 -0.11133414120E+02  0.17924662566E+02 -0.68449852233E+01  0.22183332950E+02  0.00000000000E+00 0. -1.
</event>
<event>
 7    1  0.2450552E-011  0.5052886E+02  0.7816164E-02  0.1300439E+00
        -11   -1    0    0    0    0  0.00000000000E+00  0.00000000000E+00  0.45593999997E+02  0.45594000000E+02  0.51100000000E-03 0. -1.
         11   -1    0    0    0    0 -0.00000000000E+00 -0.00000000000E+00 -0.45593999997E+02  0.45594000000E+02  0.51100000000E-03 0.  1.
    9900012    2    1    2    0    0  0.17878709796E+02 -0.43565367040E+01 -0.36256562367E+02  0.50528856002E+02  0.29999988303E+02 0.  0.
         12    1    1    2    0    0 -0.17878709796E+02  0.43565367040E+01  0.36256562367E+02  0.40659143998E+02  0.00000000000E+00 0. -1.
         11    1    3    3    0    0 -0.11239806142E+00  0.50716178989E+01 -0.98680657180E+01  0.11095614571E+02  0.51100000000E-03 0. -1.
        -11    1    3    3    0    0 -0.14984707415E+00  0.60818421498E+00  0.32241909068E+01  0.32844709542E+01  0.51100000000E-03 0.  1.
        -12    1    3    3    0    0  0.18140954931E+02 -0.10036338818E+02 -0.29612687556E+02  0.36148770476E+02  0.00000000000E+00 0.  1.
</event>
<event>
 7    1  0.2450552E-011  0.5052884E+02  0.7816164E-02  0.1300439E+00
        -11   -1    0    0    0    0  0.00000000000E+00  0.00000000000E+00  0.45593999997E+02  0.45594000000E+02  0.51100000000E-03 0. -1.
         11   -1    0    0    0    0 -0.00000000000E+00 -0.00000000000E+00 -0.45593999997E+02  0.45594000000E+02  0.51100000000E-03 0.  1.
    9900012    2    1    2    0    0  0.30442492968E+02 -0.12259406311E+02 -0.24002676638E+02  0.50528844734E+02  0.29999954052E+02 0.  0.
         12    1    1    2    0    0 -0.30442492968E+02  0.12259406311E+02  0.24002676638E+02  0.40659155266E+02  0.00000000000E+00 0. -1.
         11    1    3    3    0    0  0.12961329476E+02 -0.18583933966E+02 -0.18519766564E+02  0.29263294710E+02  0.51100000000E-03 0.  1.
        -11    1    3    3    0    0 -0.68750119678E+00  0.15686821193E+01 -0.44938809126E-01  0.17133129442E+01  0.51100000000E-03 0. -1.
        -12    1    3    3    0    0  0.18168664689E+02  0.47558455358E+01 -0.54379712650E+01  0.19552237080E+02  0.00000000000E+00 0.  1.
</event>
<event>
 7    1  0.2450552E-011  0.5052892E+02  0.7816164E-02  0.1300439E+00
        -11   -1    0    0    0    0  0.00000000000E+00  0.00000000000E+00  0.45593999997E+02  0.45594000000E+02  0.51100000000E-03 0.  1.
         11   -1    0    0    0    0 -0.00000000000E+00 -0.00000000000E+00 -0.45593999997E+02  0.45594000000E+02  0.51100000000E-03 0. -1.
    9900012    2    1    2    0    0  0.95259657015E+01 -0.35314287731E+02  0.17757182647E+02  0.50528923817E+02  0.30000194434E+02 0.  0.
         12    1    1    2    0    0 -0.95259657015E+01  0.35314287731E+02 -0.17757182647E+02  0.40659076183E+02  0.00000000000E+00 0. -1.
         11    1    3    3    0    0  0.16195682957E+01  0.19263361303E+01  0.31135597517E+01  0.40035018346E+01  0.51100000000E-03 0.  1.
        -11    1    3    3    0    0 -0.22271146409E+01 -0.15114490952E+02  0.16036949262E+02  0.22149302884E+02  0.51100000000E-03 0. -1.
        -12    1    3    3    0    0  0.10133512047E+02 -0.22126132909E+02 -0.13933263669E+01  0.24376119098E+02  0.00000000000E+00 0.  1.
</event>
<event>
 7    1  0.2450552E-011  0.5052885E+02  0.7816164E-02  0.1300439E+00
        -11   -1    0    0    0    0  0.00000000000E+00  0.00000000000E+00  0.45593999997E+02  0.45594000000E+02  0.51100000000E-03 0.  1.
         11   -1    0    0    0    0 -0.00000000000E+00 -0.00000000000E+00 -0.45593999997E+02  0.45594000000E+02  0.51100000000E-03 0. -1.
    9900012    2    1    2    0    0  0.29551108120E+02  0.30104089909E+01  0.27763933433E+02  0.50528849086E+02  0.29999967281E+02 0.  0.
         12    1    1    2    0    0 -0.29551108120E+02 -0.30104089909E+01 -0.27763933433E+02  0.40659150914E+02  0.00000000000E+00 0. -1.
         11    1    3    3    0    0  0.18083175002E+02  0.17680405207E+01  0.28268955458E+02  0.33604479291E+02  0.51100000000E-03 0. -1.
        -11    1    3    3    0    0  0.11339748945E+01 -0.33895807760E+01  0.34121701703E+01  0.49414635919E+01  0.51100000000E-03 0.  1.
         12    1    3    3    0    0  0.10333958223E+02  0.46319492462E+01 -0.39171921955E+01  0.11982906203E+02  0.00000000000E+00 0. -1.
</event>
<event>
 7    1  0.2450552E-011  0.5052886E+02  0.7816164E-02  0.1300439E+00
        -11   -1    0    0    0    0  0.00000000000E+00  0.00000000000E+00  0.45593999997E+02  0.45594000000E+02  0.51100000000E-03 0.  1.
         11   -1    0    0    0    0 -0.00000000000E+00 -0.00000000000E+00 -0.45593999997E+02  0.45594000000E+02  0.51100000000E-03 0. -1.
    9900012    2    1    2    0    0  0.18729322467E+02  0.22211195872E+02  0.28443647797E+02  0.50528857828E+02  0.29999993855E+02 0.  0.
         12    1    1    2    0    0 -0.18729322467E+02 -0.22211195872E+02 -0.28443647797E+02  0.40659142172E+02  0.00000000000E+00 0. -1.
         11    1    3    3    0    0 -0.68592820601E+00 -0.23707892027E+01 -0.21400934530E+01  0.32666709654E+01  0.51100000000E-03 0. -1.
        -11    1    3    3    0    0  0.13863006776E+02  0.60792946343E+01  0.67266850570E+01  0.16564693545E+02  0.51100000000E-03 0.  1.
         12    1    3    3    0    0  0.55522438973E+01  0.18502690440E+02  0.23857056193E+02  0.30697493318E+02  0.00000000000E+00 0. -1.
</event>
<event>
 7    1  0.2450552E-011  0.5052887E+02  0.7816164E-02  0.1300439E+00
        -11   -1    0    0    0    0  0.00000000000E+00  0.00000000000E+00  0.45593999997E+02  0.45594000000E+02  0.51100000000E-03 0. -1.
         11   -1    0    0    0    0 -0.00000000000E+00 -0.00000000000E+00 -0.45593999997E+02  0.45594000000E+02  0.51100000000E-03 0.  1.
    9900012    2    1    2    0    0  0.21130997342E+02  0.31599532377E+02  0.14426196842E+02  0.50528872483E+02  0.30000038399E+02 0.  0.
         12    1    1    2    0    0 -0.21130997342E+02 -0.31599532377E+02 -0.14426196842E+02  0.40659127517E+02  0.00000000000E+00 0. -1.
         11    1    3    3    0    0  0.64388443596E+01  0.11394716381E+02 -0.47940740796E+01  0.13938487171E+02  0.51100000000E-03 0. -1.
        -11    1    3    3    0    0  0.16268542123E+02  0.18674094798E+02  0.93408819638E+01  0.26469593036E+02  0.51100000000E-03 0.  1.
         12    1    3    3    0    0 -0.15763891407E+01  0.15307211981E+01  0.98793889579E+01  0.10120792276E+02  0.00000000000E+00 0. -1.
</event>
<event>
 7    1  0.2450552E-011  0.5052886E+02  0.7816164E-02  0.1300439E+00
        -11   -1    0    0    0    0  0.00000000000E+00  0.00000000000E+00  0.45593999997E+02  0.45594000000E+02  0.51100000000E-03 0.  1.
         11   -1    0    0    0    0 -0.00000000000E+00 -0.00000000000E+00 -0.45593999997E+02  0.45594000000E+02  0.51100000000E-03 0. -1.
    9900012    2    1    2    0    0  0.11671748669E+02 -0.10658100453E+02  0.37461189549E+02  0.50528861487E+02  0.30000004974E+02 0.  0.
         12    1    1    2    0    0 -0.11671748669E+02  0.10658100453E+02 -0.37461189549E+02  0.40659138513E+02  0.00000000000E+00 0. -1.
         11    1    3    3    0    0  0.10059307499E+02  0.56159477332E+01  0.16010313944E+02  0.19724570696E+02  0.51100000000E-03 0. -1.
        -11    1    3    3    0    0  0.51567251995E+01 -0.63678362167E+01  0.17923287342E+02  0.19707495586E+02  0.51100000000E-03 0.  1.
         12    1    3    3    0    0 -0.35442840288E+01 -0.99062119696E+01  0.35275882625E+01  0.11096795205E+02  0.00000000000E+00 0. -1.
</event>
<event>
 7    1  0.2450552E-011  0.5052886E+02  0.7816164E-02  0.1300439E+00
        -11   -1    0    0    0    0  0.00000000000E+00  0.00000000000E+00  0.45593999997E+02  0.45594000000E+02  0.51100000000E-03 0. -1.
         11   -1    0    0    0    0 -0.00000000000E+00 -0.00000000000E+00 -0.45593999997E+02  0.45594000000E+02  0.51100000000E-03 0.  1.
    9900012    2    1    2    0    0  0.15057918920E+02 -0.28534139414E+02 -0.24743230628E+02  0.50528862082E+02  0.30000006786E+02 0.  0.
         12    1    1    2    0    0 -0.15057918920E+02  0.28534139414E+02  0.24743230628E+02  0.40659137918E+02  0.00000000000E+00 0. -1.
         11    1    3    3    0    0  0.55029721991E+01 -0.15266962239E+02 -0.80539355868E+01  0.18117083588E+02  0.51100000000E-03 0. -1.
        -11    1    3    3    0    0  0.10073215765E+01 -0.12372760031E+02 -0.19717343321E+02  0.23299646251E+02  0.51100000000E-03 0.  1.
         12    1    3    3    0    0  0.85476251444E+01 -0.89441714440E+00  0.30280482799E+01  0.91121322435E+01  0.00000000000E+00 0. -1.
</event>
<event>
 7    1  0.2450552E-011  0.5052886E+02  0.7816164E-02  0.1300439E+00
        -11   -1    0    0    0    0  0.00000000000E+00  0.00000000000E+00  0.45593999997E+02  0.45594000000E+02  0.51100000000E-03 0.  1.
         11   -1    0    0    0    0 -0.00000000000E+00 -0.00000000000E+00 -0.45593999997E+02  0.45594000000E+02  0.51100000000E-03 0. -1.
    9900012    2    1    2    0    0  0.28414163282E+02 -0.12781517783E+02  0.26123426588E+02  0.50528864636E+02  0.30000014547E+02 0.  0.
         12    1    1    2    0    0 -0.28414163282E+02  0.12781517783E+02 -0.26123426588E+02  0.40659135364E+02  0.00000000000E+00 0. -1.
         11    1    3    3    0    0 -0.31810817925E+01 -0.11651980861E+01  0.87667637586E+01  0.93985698386E+01  0.51100000000E-03 0. -1.
        -11    1    3    3    0    0  0.47855429634E+01 -0.88787163915E+01  0.69148000494E+01  0.12228960962E+02  0.51100000000E-03 0.  1.
         12    1    3    3    0    0  0.26809702112E+02 -0.27376033056E+01  0.10441862780E+02  0.28901333836E+02  0.00000000000E+00 0. -1.
</event>
<event>
 7    1  0.2450552E-011  0.5052886E+02  0.7816164E-02  0.1300439E+00
        -11   -1    0    0    0    0  0.00000000000E+00  0.00000000000E+00  0.45593999997E+02  0.45594000000E+02  0.51100000000E-03 0.  1.
         11   -1    0    0    0    0 -0.00000000000E+00 -0.00000000000E+00 -0.45593999997E+02  0.45594000000E+02  0.51100000000E-03 0. -1.
    9900012    2    1    2    0    0 -0.38192453433E+02 -0.86914887914E+01  0.10906872764E+02  0.50528863879E+02  0.30000012246E+02 0.  0.
         12    1    1    2    0    0  0.38192453433E+02  0.86914887914E+01 -0.10906872764E+02  0.40659136121E+02  0.00000000000E+00 0. -1.
         11    1    3    3    0    0 -0.13472722330E+01  0.21383482528E+01  0.86308943190E+01  0.89933315699E+01  0.51100000000E-03 0. -1.
        -11    1    3    3    0    0 -0.12289965563E+02  0.34760658094E+01 -0.15291644473E+01  0.12863305610E+02  0.51100000000E-03 0.  1.
        -12    1    3    3    0    0 -0.24555215637E+02 -0.14305902854E+02  0.38051428922E+01  0.28672226699E+02  0.00000000000E+00 0.  1.
</event>
<event>
 7    1  0.2450552E-011  0.5052888E+02  0.7816164E-02  0.1300439E+00
        -11   -1    0    0    0    0  0.00000000000E+00  0.00000000000E+00  0.45593999997E+02  0.45594000000E+02  0.51100000000E-03 0.  1.
         11   -1    0    0    0    0 -0.00000000000E+00 -0.00000000000E+00 -0.45593999997E+02  0.45594000000E+02  0.51100000000E-03 0. -1.
    9900012    2    1    2    0    0 -0.11294562022E+02 -0.36069245899E+02  0.14986884326E+02  0.50528876389E+02  0.30000050273E+02 0.  0.
         12    1    1    2    0    0  0.11294562022E+02  0.36069245899E+02 -0.14986884326E+02  0.40659123611E+02  0.00000000000E+00 0. -1.
         11    1    3    3    0    0  0.17782451251E+01 -0.49830044901E+01 -0.16900978031E+00  0.52934916681E+01  0.51100000000E-03 0. -1.
        -11    1    3    3    0    0  0.92857105064E+00 -0.28133719975E+02  0.81627947070E+01  0.29308696005E+02  0.51100000000E-03 0.  1.
        -12    1    3    3    0    0 -0.14001378197E+02 -0.29525214338E+01  0.69930993989E+01  0.15926688716E+02  0.00000000000E+00 0.  1.
</event>
<event>
 7    1  0.2450552E-011  0.5052886E+02  0.7816164E-02  0.1300439E+00
        -11   -1    0    0    0    0  0.00000000000E+00  0.00000000000E+00  0.45593999997E+02  0.45594000000E+02  0.51100000000E-03 0.  1.
         11   -1    0    0    0    0 -0.00000000000E+00 -0.00000000000E+00 -0.45593999997E+02  0.45594000000E+02  0.51100000000E-03 0. -1.
    9900012    2    1    2    0    0 -0.10463267553E+00 -0.37604339453E+01  0.40484740787E+02  0.50528855296E+02  0.29999986159E+02 0.  0.
         12    1    1    2    0    0  0.10463267553E+00  0.37604339453E+01 -0.40484740787E+02  0.40659144704E+02  0.00000000000E+00 0. -1.
         11    1    3    3    0    0  0.75738146005E+01 -0.11613068567E+02  0.20404753530E+02  0.24669414181E+02  0.51100000000E-03 0. -1.
        -11    1    3    3    0    0 -0.53861631280E+01 -0.18089660442E+01  0.11107520656E+02  0.12476382760E+02  0.51100000000E-03 0.  1.
        -12    1    3    3    0    0 -0.22922841481E+01  0.96616006660E+01  0.89724666003E+01  0.13383058355E+02  0.00000000000E+00 0.  1.
</event>
<event>
 7    1  0.2992812E-011  0.5052884E+02  0.7816164E-02  0.1300439E+00
        -11   -1    0    0    0    0  0.00000000000E+00  0.00000000000E+00  0.45593999997E+02  0.45594000000E+02  0.51100000000E-03 0.  1.
         11   -1    0    0    0    0 -0.00000000000E+00 -0.00000000000E+00 -0.45593999997E+02  0.45594000000E+02  0.51100000000E-03 0. -1.
    9900012    2    1    2    0    0 -0.17866244179E+02 -0.19835713968E+02  0.30667717358E+02  0.50528842143E+02  0.29999946178E+02 0.  0.
         12    1    1    2    0    0  0.17866244179E+02  0.19835713968E+02 -0.30667717358E+02  0.40659157857E+02  0.00000000000E+00 0. -1.
         11    1    3    3    0    0 -0.36650876739E+01 -0.33544751303E+01 -0.49839591408E+01  0.70374157214E+01  0.51100000000E-03 0. -1.
        -11    1    3    3    0    0 -0.10570760406E+02 -0.13372747780E+02  0.16396593327E+02  0.23652053436E+02  0.51100000000E-03 0.  1.
        -12    1    3    3    0    0 -0.36303960993E+01 -0.31084910574E+01  0.19255083172E+02  0.19839372986E+02  0.00000000000E+00 0.  1.
</event>
<event>
 7    1  0.2450552E-011  0.5052885E+02  0.7816164E-02  0.1300439E+00
        -11   -1    0    0    0    0  0.00000000000E+00  0.00000000000E+00  0.45593999997E+02  0.45594000000E+02  0.51100000000E-03 0.  1.
         11   -1    0    0    0    0 -0.00000000000E+00 -0.00000000000E+00 -0.45593999997E+02  0.45594000000E+02  0.51100000000E-03 0. -1.
    9900012    2    1    2    0    0 -0.78474528050E+01  0.11843447842E+02  0.38096146134E+02  0.50528854380E+02  0.29999983373E+02 0.  0.
         12    1    1    2    0    0  0.78474528050E+01 -0.11843447842E+02 -0.38096146134E+02  0.40659145620E+02  0.00000000000E+00 0. -1.
         11    1    3    3    0    0 -0.10537729287E+02 -0.61832555025E+01  0.11725397206E+02  0.16934028671E+02  0.51100000000E-03 0. -1.
        -11    1    3    3    0    0 -0.29708708432E+01  0.81995406912E+01  0.71494053499E+01  0.11277080218E+02  0.51100000000E-03 0.  1.
        -12    1    3    3    0    0  0.56611473256E+01  0.98271626535E+01  0.19221343578E+02  0.22317745491E+02  0.00000000000E+00 0.  1.
</event>
<event>
 7    1  0.2450552E-011  0.5052886E+02  0.7816164E-02  0.1300439E+00
        -11   -1    0    0    0    0  0.00000000000E+00  0.00000000000E+00  0.45593999997E+02  0.45594000000E+02  0.51100000000E-03 0.  1.
         11   -1    0    0    0    0 -0.00000000000E+00 -0.00000000000E+00 -0.45593999997E+02  0.45594000000E+02  0.51100000000E-03 0. -1.
    9900012    2    1    2    0    0  0.14222370102E+02 -0.13714581828E+02  0.35535901293E+02  0.50528857772E+02  0.29999993682E+02 0.  0.
         12    1    1    2    0    0 -0.14222370102E+02  0.13714581828E+02 -0.35535901293E+02  0.40659142228E+02  0.00000000000E+00 0. -1.
         11    1    3    3    0    0  0.82342011388E+01  0.26037880471E-01  0.52256614472E+01  0.97524501633E+01  0.51100000000E-03 0. -1.
        -11    1    3    3    0    0  0.64074479277E+01 -0.14456083348E+02  0.67357266135E+01  0.17187313577E+02  0.51100000000E-03 0.  1.
        -12    1    3    3    0    0 -0.41927896420E+00  0.71546364017E+00  0.23574513233E+02  0.23589094031E+02  0.00000000000E+00 0.  1.
</event>
<event>
 7    1  0.2450552E-011  0.5052886E+02  0.7816164E-02  0.1300439E+00
        -11   -1    0    0    0    0  0.00000000000E+00  0.00000000000E+00  0.45593999997E+02  0.45594000000E+02  0.51100000000E-03 0.  1.
         11   -1    0    0    0    0 -0.00000000000E+00 -0.00000000000E+00 -0.45593999997E+02  0.45594000000E+02  0.51100000000E-03 0. -1.
    9900012    2    1    2    0    0 -0.39877932294E+02 -0.70269431669E+01  0.36794307494E+01  0.50528860500E+02  0.30000001974E+02 0.  0.
         12    1    1    2    0    0  0.39877932294E+02  0.70269431669E+01 -0.36794307494E+01  0.40659139500E+02  0.00000000000E+00 0. -1.
         11    1    3    3    0    0 -0.65769864869E+01 -0.70995299613E+01 -0.54212582024E+01  0.11092795756E+02  0.51100000000E-03 0. -1.
        -11    1    3    3    0    0 -0.21431416287E+02 -0.18149684043E+01 -0.37592346547E+01  0.21834183287E+02  0.51100000000E-03 0.  1.
        -12    1    3    3    0    0 -0.11869529520E+02  0.18875551987E+01  0.12859923606E+02  0.17601881457E+02  0.00000000000E+00 0.  1.
</event>
<event>
 7    1  0.2450552E-011  0.5052885E+02  0.7816164E-02  0.1300439E+00
        -11   -1    0    0    0    0  0.00000000000E+00  0.00000000000E+00  0.45593999997E+02  0.45594000000E+02  0.51100000000E-03 0.  1.
         11   -1    0    0    0    0 -0.00000000000E+00 -0.00000000000E+00 -0.45593999997E+02  0.45594000000E+02  0.51100000000E-03 0. -1.
    9900012    2    1    2    0    0 -0.26360261689E+02 -0.30311099584E+02 -0.62880797038E+01  0.50528854650E+02  0.29999984193E+02 0.  0.
         12    1    1    2    0    0  0.26360261689E+02  0.30311099584E+02  0.62880797038E+01  0.40659145350E+02  0.00000000000E+00 0. -1.
         11    1    3    3    0    0 -0.10733178113E+02 -0.72077440467E+01  0.44075812900E+01  0.13659409201E+02  0.51100000000E-03 0. -1.
        -11    1    3    3    0    0 -0.27061508582E+01 -0.19519940319E+02  0.17440927245E-01  0.19706639160E+02  0.51100000000E-03 0.  1.
         12    1    3    3    0    0 -0.12920932718E+02 -0.35834152176E+01 -0.10713101921E+02  0.17162806288E+02  0.00000000000E+00 0. -1.
</event>
<event>
 7    1  0.2450552E-011  0.5052886E+02  0.7816164E-02  0.1300439E+00
        -11   -1    0    0    0    0  0.00000000000E+00  0.00000000000E+00  0.45593999997E+02  0.45594000000E+02  0.51100000000E-03 0.  1.
         11   -1    0    0    0    0 -0.00000000000E+00 -0.00000000000E+00 -0.45593999997E+02  0.45594000000E+02  0.51100000000E-03 0. -1.
    9900012    2    1    2    0    0  0.15587257225E+02 -0.18755875031E+02  0.32533369423E+02  0.50528861273E+02  0.30000004325E+02 0.  0.
         12    1    1    2    0    0 -0.15587257225E+02  0.18755875031E+02 -0.32533369423E+02  0.40659138727E+02  0.00000000000E+00 0. -1.
         11    1    3    3    0    0  0.12972518026E+01  0.32734905130E+01 -0.30166552248E+01  0.46366810742E+01  0.51100000000E-03 0. -1.
        -11    1    3    3    0    0 -0.23819649143E+00  0.65295953436E+00 -0.52451513209E+00  0.87075260950E+00  0.51100000000E-03 0.  1.
        -12    1    3    3    0    0  0.14528201914E+02 -0.22682325079E+02  0.36074539780E+02  0.45021427589E+02  0.00000000000E+00 0.  1.
</event>
<event>
 7    1  0.2450552E-011  0.5052888E+02  0.7816164E-02  0.1300439E+00
        -11   -1    0    0    0    0  0.00000000000E+00  0.00000000000E+00  0.45593999997E+02  0.45594000000E+02  0.51100000000E-03 0. -1.
         11   -1    0    0    0    0 -0.00000000000E+00 -0.00000000000E+00 -0.45593999997E+02  0.45594000000E+02  0.51100000000E-03 0.  1.
    9900012    2    1    2    0    0 -0.23282003674E+02  0.13376559630E+02 -0.30531628918E+02  0.50528875477E+02  0.30000047498E+02 0.  0.
         12    1    1    2    0    0  0.23282003674E+02 -0.13376559630E+02  0.30531628918E+02  0.40659124523E+02  0.00000000000E+00 0. -1.
         11    1    3    3    0    0 -0.16126346202E+02  0.35624424392E+00 -0.46584502451E+01  0.16789494059E+02  0.51100000000E-03 0. -1.
        -11    1    3    3    0    0 -0.93258284387E+01  0.16239455018E+01 -0.15579067595E+02  0.18229526117E+02  0.51100000000E-03 0.  1.
        -12    1    3    3    0    0  0.21701709669E+01  0.11396369884E+02 -0.10294111078E+02  0.15509855301E+02  0.00000000000E+00 0.  1.
</event>
<event>
 7    1  0.2450552E-011  0.5052886E+02  0.7816164E-02  0.1300439E+00
        -11   -1    0    0    0    0  0.00000000000E+00  0.00000000000E+00  0.45593999997E+02  0.45594000000E+02  0.51100000000E-03 0.  1.
         11   -1    0    0    0    0 -0.00000000000E+00 -0.00000000000E+00 -0.45593999997E+02  0.45594000000E+02  0.51100000000E-03 0. -1.
    9900012    2    1    2    0    0  0.23147437393E+02 -0.32108394323E+01  0.33272396902E+02  0.50528859043E+02  0.29999997548E+02 0.  0.
         12    1    1    2    0    0 -0.23147437393E+02  0.32108394323E+01 -0.33272396902E+02  0.40659140957E+02  0.00000000000E+00 0. -1.
         11    1    3    3    0    0  0.85116680972E+01 -0.10802127160E+02  0.12497050220E+02  0.18582537756E+02  0.51100000000E-03 0. -1.
        -11    1    3    3    0    0 -0.31527865768E+01  0.32639703057E+00 -0.57640038995E+00  0.32216200724E+01  0.51100000000E-03 0.  1.
        -12    1    3    3    0    0  0.17788555873E+02  0.72648906973E+01  0.21351747072E+02  0.28724701215E+02  0.00000000000E+00 0.  1.
</event>
<event>
 7    1  0.2450552E-011  0.5052885E+02  0.7816164E-02  0.1300439E+00
        -11   -1    0    0    0    0  0.00000000000E+00  0.00000000000E+00  0.45593999997E+02  0.45594000000E+02  0.51100000000E-03 0. -1.
         11   -1    0    0    0    0 -0.00000000000E+00 -0.00000000000E+00 -0.45593999997E+02  0.45594000000E+02  0.51100000000E-03 0.  1.
    9900012    2    1    2    0    0 -0.20033190568E+02 -0.97872480012E+01 -0.34000699687E+02  0.50528849407E+02  0.29999968256E+02 0.  0.
         12    1    1    2    0    0  0.20033190568E+02  0.97872480012E+01  0.34000699687E+02  0.40659150593E+02  0.00000000000E+00 0. -1.
         11    1    3    3    0    0 -0.10423432422E+02  0.58721865759E+01 -0.80458751081E+01  0.14417580420E+02  0.51100000000E-03 0. -1.
        -11    1    3    3    0    0 -0.43433119408E+01 -0.37123067348E+01 -0.21607476545E+02  0.22350136975E+02  0.51100000000E-03 0.  1.
         12    1    3    3    0    0 -0.52664462052E+01 -0.11947127842E+02 -0.43473480334E+01  0.13761132011E+02  0.00000000000E+00 0. -1.
</event>
<event>
 7    1  0.2450552E-011  0.5052887E+02  0.7816164E-02  0.1300439E+00
        -11   -1    0    0    0    0  0.00000000000E+00  0.00000000000E+00  0.45593999997E+02  0.45594000000E+02  0.51100000000E-03 0. -1.
         11   -1    0    0    0    0 -0.00000000000E+00 -0.00000000000E+00 -0.45593999997E+02  0.45594000000E+02  0.51100000000E-03 0.  1.
    9900012    2    1    2    0    0  0.20993160903E+02 -0.94864500686E+01 -0.33503124399E+02  0.50528869610E+02  0.30000029666E+02 0.  0.
         12    1    1    2    0    0 -0.20993160903E+02  0.94864500686E+01  0.33503124399E+02  0.40659130390E+02  0.00000000000E+00 0. -1.
         11    1    3    3    0    0  0.91640028325E+01  0.22166109992E+01 -0.27884171408E+02  0.29435001743E+02  0.51100000000E-03 0. -1.
        -11    1    3    3    0    0 -0.14488415811E+01 -0.51002364217E+01 -0.20048228005E+00  0.53058219807E+01  0.51100000000E-03 0.  1.
        -12    1    3    3    0    0  0.13277999652E+02 -0.66028246461E+01 -0.54184707105E+01  0.15788045886E+02  0.00000000000E+00 0.  1.
</event>
<event>
 7    1  0.2450552E-011  0.5052886E+02  0.7816164E-02  0.1300439E+00
        -11   -1    0    0    0    0  0.00000000000E+00  0.00000000000E+00  0.45593999997E+02  0.45594000000E+02  0.51100000000E-03 0.  1.
         11   -1    0    0    0    0 -0.00000000000E+00 -0.00000000000E+00 -0.45593999997E+02  0.45594000000E+02  0.51100000000E-03 0. -1.
    9900012    2    1    2    0    0  0.26641969154E+02  0.30614732269E+02  0.24717242782E+01  0.50528858676E+02  0.29999996433E+02 0.  0.
         12    1    1    2    0    0 -0.26641969154E+02 -0.30614732269E+02 -0.24717242782E+01  0.40659141324E+02  0.00000000000E+00 0. -1.
         11    1    3    3    0    0  0.50010769529E+01  0.10213825502E+02 -0.52285997959E+01  0.12516838984E+02  0.51100000000E-03 0. -1.
        -11    1    3    3    0    0  0.15635714301E+02  0.20869650417E+02  0.13745612450E+02  0.29478122941E+02  0.51100000000E-03 0.  1.
         12    1    3    3    0    0  0.60051778999E+01 -0.46874364983E+00 -0.60452883759E+01  0.85338967515E+01  0.00000000000E+00 0. -1.
</event>
<event>
 7    1  0.2450552E-011  0.5052888E+02  0.7816164E-02  0.1300439E+00
        -11   -1    0    0    0    0  0.00000000000E+00  0.00000000000E+00  0.45593999997E+02  0.45594000000E+02  0.51100000000E-03 0.  1.
         11   -1    0    0    0    0 -0.00000000000E+00 -0.00000000000E+00 -0.45593999997E+02  0.45594000000E+02  0.51100000000E-03 0. -1.
    9900012    2    1    2    0    0  0.26120496083E+01  0.42747517255E+01  0.40349321677E+02  0.50528879679E+02  0.30000060272E+02 0.  0.
         12    1    1    2    0    0 -0.26120496083E+01 -0.42747517255E+01 -0.40349321677E+02  0.40659120321E+02  0.00000000000E+00 0. -1.
         11    1    3    3    0    0  0.51823750972E+01 -0.66649136757E+01  0.14130712719E+02  0.16460714691E+02  0.51100000000E-03 0. -1.
        -11    1    3    3    0    0 -0.19851939434E+01  0.56120682861E+01  0.27839474424E+02  0.28468801202E+02  0.51100000000E-03 0.  1.
         12    1    3    3    0    0 -0.58513154550E+00  0.53275971151E+01 -0.16208654649E+01  0.55993637855E+01  0.00000000000E+00 0. -1.
</event>
<event>
 7    1  0.2450552E-011  0.5052886E+02  0.7816164E-02  0.1300439E+00
        -11   -1    0    0    0    0  0.00000000000E+00  0.00000000000E+00  0.45593999997E+02  0.45594000000E+02  0.51100000000E-03 0.  1.
         11   -1    0    0    0    0 -0.00000000000E+00 -0.00000000000E+00 -0.45593999997E+02  0.45594000000E+02  0.51100000000E-03 0. -1.
    9900012    2    1    2    0    0  0.32929454489E+02 -0.20699867361E+02  0.11846177660E+02  0.50528863181E+02  0.30000010124E+02 0.  0.
         12    1    1    2    0    0 -0.32929454489E+02  0.20699867361E+02 -0.11846177660E+02  0.40659136819E+02  0.00000000000E+00 0. -1.
         11    1    3    3    0    0  0.11962575982E+02 -0.46850397126E+01  0.10073779525E+02  0.16325864615E+02  0.51100000000E-03 0. -1.
        -11    1    3    3    0    0 -0.21750523565E+01 -0.85161686686E+01  0.42267025909E+01  0.97529993642E+01  0.51100000000E-03 0.  1.
         12    1    3    3    0    0  0.23141930863E+02 -0.74986589801E+01 -0.24543044559E+01  0.24449999201E+02  0.00000000000E+00 0. -1.
</event>
<event>
 7    1  0.2450552E-011  0.5052887E+02  0.7816164E-02  0.1300439E+00
        -11   -1    0    0    0    0  0.00000000000E+00  0.00000000000E+00  0.45593999997E+02  0.45594000000E+02  0.51100000000E-03 0.  1.
         11   -1    0    0    0    0 -0.00000000000E+00 -0.00000000000E+00 -0.45593999997E+02  0.45594000000E+02  0.51100000000E-03 0. -1.
    9900012    2    1    2    0    0 -0.46543147995E+00 -0.56079693112E+01  0.40267841666E+02  0.50528867955E+02  0.30000024635E+02 0.  0.
         12    1    1    2    0    0  0.46543147995E+00  0.56079693112E+01 -0.40267841666E+02  0.40659132045E+02  0.00000000000E+00 0. -1.
         11    1    3    3    0    0  0.32850348635E+01 -0.35309497544E+01  0.29686605152E+01  0.56632151414E+01  0.51100000000E-03 0. -1.
        -11    1    3    3    0    0  0.31737400320E+01  0.96645433101E+01  0.95664868538E+01  0.13964014257E+02  0.51100000000E-03 0.  1.
         12    1    3    3    0    0 -0.69242063754E+01 -0.11741562867E+02  0.27732694297E+02  0.30901638556E+02  0.00000000000E+00 0. -1.
</event>
<event>
 7    1  0.2450552E-011  0.5052885E+02  0.7816164E-02  0.1300439E+00
        -11   -1    0    0    0    0  0.00000000000E+00  0.00000000000E+00  0.45593999997E+02  0.45594000000E+02  0.51100000000E-03 0. -1.
         11   -1    0    0    0    0 -0.00000000000E+00 -0.00000000000E+00 -0.45593999997E+02  0.45594000000E+02  0.51100000000E-03 0.  1.
    9900012    2    1    2    0    0 -0.38071204865E+02  0.11184573754E+02  0.88687853606E+01  0.50528847480E+02  0.29999962399E+02 0.  0.
         12    1    1    2    0    0  0.38071204865E+02 -0.11184573754E+02 -0.88687853606E+01  0.40659152520E+02  0.00000000000E+00 0. -1.
         11    1    3    3    0    0 -0.97071122741E+00  0.11777165775E+01 -0.19931503503E+01  0.25103675436E+01  0.51100000000E-03 0. -1.
        -11    1    3    3    0    0 -0.33595401593E+02  0.10708663496E+02  0.18328807776E+02  0.39740051294E+02  0.51100000000E-03 0.  1.
        -12    1    3    3    0    0 -0.35050920443E+01 -0.70180631990E+00 -0.74668720650E+01  0.82784286423E+01  0.00000000000E+00 0.  1.
</event>
<event>
 7    1  0.2450552E-011  0.5052890E+02  0.7816164E-02  0.1300439E+00
        -11   -1    0    0    0    0  0.00000000000E+00  0.00000000000E+00  0.45593999997E+02  0.45594000000E+02  0.51100000000E-03 0.  1.
         11   -1    0    0    0    0 -0.00000000000E+00 -0.00000000000E+00 -0.45593999997E+02  0.45594000000E+02  0.51100000000E-03 0. -1.
    9900012    2    1    2    0    0  0.22779341662E+02  0.14997898380E+02  0.30155052016E+02  0.50528898627E+02  0.30000117866E+02 0.  0.
         12    1    1    2    0    0 -0.22779341662E+02 -0.14997898380E+02 -0.30155052016E+02  0.40659101373E+02  0.00000000000E+00 0. -1.
         11    1    3    3    0    0  0.12174468102E+02 -0.26351479962E+01  0.54182368403E+01  0.13583775957E+02  0.51100000000E-03 0. -1.
        -11    1    3    3    0    0  0.32558426514E+00 -0.28254297507E+01  0.82629167486E+01  0.87386985212E+01  0.51100000000E-03 0.  1.
        -12    1    3    3    0    0  0.10279289295E+02  0.20458476127E+02  0.16473898427E+02  0.28206424149E+02  0.00000000000E+00 0.  1.
</event>
<event>
 7    1  0.2450552E-011  0.5052888E+02  0.7816164E-02  0.1300439E+00
        -11   -1    0    0    0    0  0.00000000000E+00  0.00000000000E+00  0.45593999997E+02  0.45594000000E+02  0.51100000000E-03 0. -1.
         11   -1    0    0    0    0 -0.00000000000E+00 -0.00000000000E+00 -0.45593999997E+02  0.45594000000E+02  0.51100000000E-03 0.  1.
    9900012    2    1    2    0    0 -0.36685654828E+02 -0.15023351465E+02 -0.90347085962E+01  0.50528876561E+02  0.30000050795E+02 0.  0.
         12    1    1    2    0    0  0.36685654828E+02  0.15023351465E+02  0.90347085962E+01  0.40659123439E+02  0.00000000000E+00 0. -1.
         11    1    3    3    0    0 -0.52969837679E+01 -0.95832806542E+01 -0.10128639498E+02  0.14915986172E+02  0.51100000000E-03 0. -1.
        -11    1    3    3    0    0 -0.82703973115E+01 -0.81075229595E+01  0.37893224175E+01  0.12185662267E+02  0.51100000000E-03 0.  1.
         12    1    3    3    0    0 -0.23118273749E+02  0.26674521483E+01 -0.26953915154E+01  0.23427228122E+02  0.00000000000E+00 0. -1.
</event>
<event>
 7    1  0.2450552E-011  0.5052886E+02  0.7816164E-02  0.1300439E+00
        -11   -1    0    0    0    0  0.00000000000E+00  0.00000000000E+00  0.45593999997E+02  0.45594000000E+02  0.51100000000E-03 0.  1.
         11   -1    0    0    0    0 -0.00000000000E+00 -0.00000000000E+00 -0.45593999997E+02  0.45594000000E+02  0.51100000000E-03 0. -1.
    9900012    2    1    2    0    0  0.16064042464E+02 -0.27684034780E+02  0.25074022855E+02  0.50528857558E+02  0.29999993033E+02 0.  0.
         12    1    1    2    0    0 -0.16064042464E+02  0.27684034780E+02 -0.25074022855E+02  0.40659142442E+02  0.00000000000E+00 0. -1.
         11    1    3    3    0    0  0.15989864678E+02 -0.12905072744E+02  0.28625494087E+01  0.20746345806E+02  0.51100000000E-03 0. -1.
        -11    1    3    3    0    0  0.43259564169E+01 -0.32681328521E+00  0.78509801334E+01  0.89698715242E+01  0.51100000000E-03 0.  1.
         12    1    3    3    0    0 -0.42517786309E+01 -0.14452148751E+02  0.14360493313E+02  0.20812640228E+02  0.00000000000E+00 0. -1.
</event>
<event>
 7    1  0.2450552E-011  0.5052887E+02  0.7816164E-02  0.1300439E+00
        -11   -1    0    0    0    0  0.00000000000E+00  0.00000000000E+00  0.45593999997E+02  0.45594000000E+02  0.51100000000E-03 0. -1.
         11   -1    0    0    0    0 -0.00000000000E+00 -0.00000000000E+00 -0.45593999997E+02  0.45594000000E+02  0.51100000000E-03 0.  1.
    9900012    2    1    2    0    0 -0.13231040857E+02 -0.36647752660E+02 -0.11620955319E+02  0.50528870401E+02  0.30000032071E+02 0.  0.
         12    1    1    2    0    0  0.13231040857E+02  0.36647752660E+02  0.11620955319E+02  0.40659129599E+02  0.00000000000E+00 0. -1.
         11    1    3    3    0    0 -0.22204497062E+01 -0.49300310474E+01 -0.11363009063E+02  0.12583861818E+02  0.51100000000E-03 0. -1.
        -11    1    3    3    0    0 -0.43167173975E+01 -0.30247082995E+02 -0.26923926496E+01  0.30671958810E+02  0.51100000000E-03 0.  1.
         12    1    3    3    0    0 -0.66938737532E+01 -0.14706386183E+01  0.24344463931E+01  0.72730497737E+01  0.00000000000E+00 0. -1.
</event>
<event>
 7    1  0.2450552E-011  0.5052886E+02  0.7816164E-02  0.1300439E+00
        -11   -1    0    0    0    0  0.00000000000E+00  0.00000000000E+00  0.45593999997E+02  0.45594000000E+02  0.51100000000E-03 0. -1.
         11   -1    0    0    0    0 -0.00000000000E+00 -0.00000000000E+00 -0.45593999997E+02  0.45594000000E+02  0.51100000000E-03 0.  1.
    9900012    2    1    2    0    0  0.59507383325E+01  0.27423653467E+02  0.29422738324E+02  0.50528860970E+02  0.30000003404E+02 0.  0.
         12    1    1    2    0    0 -0.59507383325E+01 -0.27423653467E+02 -0.29422738324E+02  0.40659139030E+02  0.00000000000E+00 0. -1.
         11    1    3    3    0    0  0.52030408397E+01  0.93953601379E+00  0.32086382889E+01  0.61846359498E+01  0.51100000000E-03 0.  1.
        -11    1    3    3    0    0 -0.96799254745E+01  0.12704675412E+02  0.20821537312E+02  0.26242068341E+02  0.51100000000E-03 0. -1.
         12    1    3    3    0    0  0.10427622967E+02  0.13779442042E+02  0.53925627232E+01  0.18102156680E+02  0.00000000000E+00 0. -1.
</event>
<event>
 7    1  0.2450552E-011  0.5052891E+02  0.7816164E-02  0.1300439E+00
        -11   -1    0    0    0    0  0.00000000000E+00  0.00000000000E+00  0.45593999997E+02  0.45594000000E+02  0.51100000000E-03 0. -1.
         11   -1    0    0    0    0 -0.00000000000E+00 -0.00000000000E+00 -0.45593999997E+02  0.45594000000E+02  0.51100000000E-03 0.  1.
    9900012    2    1    2    0    0 -0.26084545088E+02  0.29883057923E+02 -0.89309161870E+01  0.50528906217E+02  0.30000140938E+02 0.  0.
         12    1    1    2    0    0  0.26084545088E+02 -0.29883057923E+02  0.89309161870E+01  0.40659093783E+02  0.00000000000E+00 0. -1.
         11    1    3    3    0    0  0.28698643287E+01  0.67478195285E+01  0.26978900074E+00  0.73377091807E+01  0.51100000000E-03 0. -1.
        -11    1    3    3    0    0 -0.10407253795E+02  0.14878729322E+02 -0.13264828098E+02  0.22486511124E+02  0.51100000000E-03 0.  1.
         12    1    3    3    0    0 -0.18547155621E+02  0.82565090730E+01  0.40641229105E+01  0.20704685913E+02  0.00000000000E+00 0. -1.
</event>
<event>
 7    1  0.2450552E-011  0.5052888E+02  0.7816164E-02  0.1300439E+00
        -11   -1    0    0    0    0  0.00000000000E+00  0.00000000000E+00  0.45593999997E+02  0.45594000000E+02  0.51100000000E-03 0. -1.
         11   -1    0    0    0    0 -0.00000000000E+00 -0.00000000000E+00 -0.45593999997E+02  0.45594000000E+02  0.51100000000E-03 0.  1.
    9900012    2    1    2    0    0  0.16171603191E+02 -0.22306271219E+02 -0.29901056353E+02  0.50528884706E+02  0.30000075551E+02 0.  0.
         12    1    1    2    0    0 -0.16171603191E+02  0.22306271219E+02  0.29901056353E+02  0.40659115294E+02  0.00000000000E+00 0. -1.
         11    1    3    3    0    0  0.86067402730E+01 -0.11652991419E+02 -0.38982940447E+01  0.15002162639E+02  0.51100000000E-03 0. -1.
        -11    1    3    3    0    0  0.11367134179E+02 -0.14694422840E+02 -0.21198916240E+02  0.28187441389E+02  0.51100000000E-03 0.  1.
        -12    1    3    3    0    0 -0.38022712611E+01  0.40411430399E+01 -0.48038460689E+01  0.73392806776E+01  0.00000000000E+00 0.  1.
</event>
<event>
 7    1  0.2450552E-011  0.5052887E+02  0.7816164E-02  0.1300439E+00
        -11   -1    0    0    0    0  0.00000000000E+00  0.00000000000E+00  0.45593999997E+02  0.45594000000E+02  0.51100000000E-03 0.  1.
         11   -1    0    0    0    0 -0.00000000000E+00 -0.00000000000E+00 -0.45593999997E+02  0.45594000000E+02  0.51100000000E-03 0. -1.
    9900012    2    1    2    0    0  0.57379523108E+01 -0.27417020196E+02  0.29471133449E+02  0.50528870645E+02  0.30000032812E+02 0.  0.
         12    1    1    2    0    0 -0.57379523108E+01  0.27417020196E+02 -0.29471133449E+02  0.40659129355E+02  0.00000000000E+00 0. -1.
         11    1    3    3    0    0 -0.43556121917E+01 -0.93025907475E+01  0.65561552031E+01  0.12185759044E+02  0.51100000000E-03 0. -1.
        -11    1    3    3    0    0 -0.33070747940E+01  0.43859577240E+00  0.12964915317E+02  0.13387237930E+02  0.51100000000E-03 0.  1.
        -12    1    3    3    0    0  0.13400639296E+02 -0.18553025221E+02  0.99500629290E+01  0.24955873671E+02  0.00000000000E+00 0.  1.
</event>
<event>
 7    1  0.2450552E-011  0.5052886E+02  0.7816164E-02  0.1300439E+00
        -11   -1    0    0    0    0  0.00000000000E+00  0.00000000000E+00  0.45593999997E+02  0.45594000000E+02  0.51100000000E-03 0.  1.
         11   -1    0    0    0    0 -0.00000000000E+00 -0.00000000000E+00 -0.45593999997E+02  0.45594000000E+02  0.51100000000E-03 0. -1.
    9900012    2    1    2    0    0  0.37288043205E+02  0.49188473735E+00 -0.16202636889E+02  0.50528861313E+02  0.30000004446E+02 0.  0.
         12    1    1    2    0    0 -0.37288043205E+02 -0.49188473735E+00  0.16202636889E+02  0.40659138687E+02  0.00000000000E+00 0. -1.
         11    1    3    3    0    0  0.13889695163E+01 -0.16543684048E+00 -0.91782150171E+01  0.92841928473E+01  0.51100000000E-03 0. -1.
        -11    1    3    3    0    0  0.41160505462E+01  0.64112197822E+01  0.16607942804E+01  0.77976822901E+01  0.51100000000E-03 0.  1.
         12    1    3    3    0    0  0.31783023142E+02 -0.57538982044E+01 -0.86852161528E+01  0.33446986175E+02  0.00000000000E+00 0. -1.
</event>
<event>
 7    1  0.2450552E-011  0.5052886E+02  0.7816164E-02  0.1300439E+00
        -11   -1    0    0    0    0  0.00000000000E+00  0.00000000000E+00  0.45593999997E+02  0.45594000000E+02  0.51100000000E-03 0.  1.
         11   -1    0    0    0    0 -0.00000000000E+00 -0.00000000000E+00 -0.45593999997E+02  0.45594000000E+02  0.51100000000E-03 0. -1.
    9900012    2    1    2    0    0  0.14189847575E+02  0.98410552052E+01  0.36809886304E+02  0.50528857468E+02  0.29999992759E+02 0.  0.
         12    1    1    2    0    0 -0.14189847575E+02 -0.98410552052E+01 -0.36809886304E+02  0.40659142532E+02  0.00000000000E+00 0. -1.
         11    1    3    3    0    0  0.12992553610E+02 -0.35100768239E+01  0.24986294444E+02  0.28380310057E+02  0.51100000000E-03 0. -1.
        -11    1    3    3    0    0  0.45384608922E+01  0.78590225799E+01  0.12753652625E+02  0.15653035448E+02  0.51100000000E-03 0.  1.
         12    1    3    3    0    0 -0.33411669276E+01  0.54921094493E+01 -0.93006076491E+00  0.64955119635E+01  0.00000000000E+00 0. -1.
</event>
<event>
 7    1  0.2450552E-011  0.5052886E+02  0.7816164E-02  0.1300439E+00
        -11   -1    0    0    0    0  0.00000000000E+00  0.00000000000E+00  0.45593999997E+02  0.45594000000E+02  0.51100000000E-03 0. -1.
         11   -1    0    0    0    0 -0.00000000000E+00 -0.00000000000E+00 -0.45593999997E+02  0.45594000000E+02  0.51100000000E-03 0.  1.
    9900012    2    1    2    0    0  0.30339686629E+02 -0.24071925389E+02 -0.12377866219E+02  0.50528858975E+02  0.29999997342E+02 0.  0.
         12    1    1    2    0    0 -0.30339686629E+02  0.24071925389E+02  0.12377866219E+02  0.40659141025E+02  0.00000000000E+00 0. -1.
         11    1    3    3    0    0  0.12337972958E+01  0.23648096358E+01 -0.48979294892E+01  0.55771223694E+01  0.51100000000E-03 0. -1.
        -11    1    3    3    0    0  0.40941027927E+01 -0.16690011497E+02 -0.54631553594E+01  0.18032310672E+02  0.51100000000E-03 0.  1.
        -12    1    3    3    0    0  0.25011786541E+02 -0.97467235282E+01 -0.20167813703E+01  0.26919425934E+02  0.00000000000E+00 0.  1.
</event>
<event>
 7    1  0.2450552E-011  0.5052886E+02  0.7816164E-02  0.1300439E+00
        -11   -1    0    0    0    0  0.00000000000E+00  0.00000000000E+00  0.45593999997E+02  0.45594000000E+02  0.51100000000E-03 0.  1.
         11   -1    0    0    0    0 -0.00000000000E+00 -0.00000000000E+00 -0.45593999997E+02  0.45594000000E+02  0.51100000000E-03 0. -1.
    9900012    2    1    2    0    0  0.14010548958E+02  0.17997696195E+00  0.38168543985E+02  0.50528860514E+02  0.30000002018E+02 0.  0.
         12    1    1    2    0    0 -0.14010548958E+02 -0.17997696195E+00 -0.38168543985E+02  0.40659139486E+02  0.00000000000E+00 0. -1.
         11    1    3    3    0    0 -0.35384055712E+01 -0.12167774350E+01 -0.14689907430E+01  0.40198004150E+01  0.51100000000E-03 0. -1.
        -11    1    3    3    0    0  0.12924148658E+02 -0.21116145866E+01  0.10461462655E+02  0.16761107835E+02  0.51100000000E-03 0.  1.
        -12    1    3    3    0    0  0.46248058705E+01  0.35083689835E+01  0.29176072074E+02  0.29747952264E+02  0.00000000000E+00 0.  1.
</event>
<event>
 7    1  0.2450552E-011  0.5052886E+02  0.7816164E-02  0.1300439E+00
        -11   -1    0    0    0    0  0.00000000000E+00  0.00000000000E+00  0.45593999997E+02  0.45594000000E+02  0.51100000000E-03 0.  1.
         11   -1    0    0    0    0 -0.00000000000E+00 -0.00000000000E+00 -0.45593999997E+02  0.45594000000E+02  0.51100000000E-03 0. -1.
    9900012    2    1    2    0    0 -0.12501557124E+02  0.34950781526E+02  0.16592757383E+02  0.50528860100E+02  0.30000000761E+02 0.  0.
         12    1    1    2    0    0  0.12501557124E+02 -0.34950781526E+02 -0.16592757383E+02  0.40659139900E+02  0.00000000000E+00 0. -1.
         11    1    3    3    0    0 -0.11903014194E+02  0.88612339248E+01  0.16639070268E+02  0.22294884463E+02  0.51100000000E-03 0. -1.
        -11    1    3    3    0    0 -0.54237016888E+01  0.13515130801E+02  0.16633316550E+01  0.14657488633E+02  0.51100000000E-03 0.  1.
         12    1    3    3    0    0  0.48251587587E+01  0.12574416800E+02 -0.17096445406E+01  0.13576487004E+02  0.00000000000E+00 0. -1.
</event>
<event>
 7    1  0.2450552E-011  0.5052887E+02  0.7816164E-02  0.1300439E+00
        -11   -1    0    0    0    0  0.00000000000E+00  0.00000000000E+00  0.45593999997E+02  0.45594000000E+02  0.51100000000E-03 0.  1.
         11   -1    0    0    0    0 -0.00000000000E+00 -0.00000000000E+00 -0.45593999997E+02  0.45594000000E+02  0.51100000000E-03 0. -1.
    9900012    2    1    2    0    0 -0.27785469030E+02 -0.22410228211E+02  0.19465710298E+02  0.50528874393E+02  0.30000044204E+02 0.  0.
         12    1    1    2    0    0  0.27785469030E+02  0.22410228211E+02 -0.19465710298E+02  0.40659125607E+02  0.00000000000E+00 0. -1.
         11    1    3    3    0    0  0.19534166421E+01 -0.32480678133E+01 -0.42833597417E+01  0.57195237594E+01  0.51100000000E-03 0. -1.
        -11    1    3    3    0    0 -0.16051113979E+02 -0.15612026651E+02  0.20369842447E+02  0.30270515650E+02  0.51100000000E-03 0.  1.
        -12    1    3    3    0    0 -0.13687771694E+02 -0.35501337470E+01  0.33792275933E+01  0.14538834984E+02  0.00000000000E+00 0.  1.
</event>
<event>
 7    1  0.2450552E-011  0.5052886E+02  0.7816164E-02  0.1300439E+00
        -11   -1    0    0    0    0  0.00000000000E+00  0.00000000000E+00  0.45593999997E+02  0.45594000000E+02  0.51100000000E-03 0. -1.
         11   -1    0    0    0    0 -0.00000000000E+00 -0.00000000000E+00 -0.45593999997E+02  0.45594000000E+02  0.51100000000E-03 0.  1.
    9900012    2    1    2    0    0  0.31336099366E+02 -0.17740852925E+02  0.18880580298E+02  0.50528864516E+02  0.30000014182E+02 0.  0.
         12    1    1    2    0    0 -0.31336099366E+02  0.17740852925E+02 -0.18880580298E+02  0.40659135484E+02  0.00000000000E+00 0. -1.
         11    1    3    3    0    0  0.15126827383E+02 -0.11847402140E+02  0.22636821647E+01  0.19346992049E+02  0.51100000000E-03 0. -1.
        -11    1    3    3    0    0  0.18556125907E+02 -0.89769891984E+01  0.87132275881E+01  0.22379376198E+02  0.51100000000E-03 0.  1.
         12    1    3    3    0    0 -0.23468539237E+01  0.30835384134E+01  0.79036705448E+01  0.88024962691E+01  0.00000000000E+00 0. -1.
</event>
<event>
 7    1  0.2450552E-011  0.5052891E+02  0.7816164E-02  0.1300439E+00
        -11   -1    0    0    0    0  0.00000000000E+00  0.00000000000E+00  0.45593999997E+02  0.45594000000E+02  0.51100000000E-03 0.  1.
         11   -1    0    0    0    0 -0.00000000000E+00 -0.00000000000E+00 -0.45593999997E+02  0.45594000000E+02  0.51100000000E-03 0. -1.
    9900012    2    1    2    0    0 -0.10259395619E+02  0.16382600511E+02  0.35770330307E+02  0.50528913337E+02  0.30000162579E+02 0.  0.
         12    1    1    2    0    0  0.10259395619E+02 -0.16382600511E+02 -0.35770330307E+02  0.40659086663E+02  0.00000000000E+00 0. -1.
         11    1    3    3    0    0  0.11010380311E+01  0.25174450511E+01 -0.24226338693E+01  0.36631911576E+01  0.51100000000E-03 0. -1.
        -11    1    3    3    0    0 -0.65696220914E+00 -0.51605202144E+01  0.92613842267E+01  0.10622419982E+02  0.51100000000E-03 0.  1.
        -12    1    3    3    0    0 -0.10703471441E+02  0.19025675675E+02  0.28931579950E+02  0.36243302197E+02  0.00000000000E+00 0.  1.
</event>
<event>
 7    1  0.2450552E-011  0.5052886E+02  0.7816164E-02  0.1300439E+00
        -11   -1    0    0    0    0  0.00000000000E+00  0.00000000000E+00  0.45593999997E+02  0.45594000000E+02  0.51100000000E-03 0. -1.
         11   -1    0    0    0    0 -0.00000000000E+00 -0.00000000000E+00 -0.45593999997E+02  0.45594000000E+02  0.51100000000E-03 0.  1.
    9900012    2    1    2    0    0  0.40209751373E+01  0.39651093645E+02 -0.80490931812E+01  0.50528863643E+02  0.30000011528E+02 0.  0.
         12    1    1    2    0    0 -0.40209751373E+01 -0.39651093645E+02  0.80490931812E+01  0.40659136357E+02  0.00000000000E+00 0. -1.
         11    1    3    3    0    0  0.16701374487E+01  0.88491259844E+01 -0.54972419084E+01  0.10550642570E+02  0.51100000000E-03 0. -1.
        -11    1    3    3    0    0  0.54981762250E+01  0.32919388353E+02  0.27171424920E+01  0.33485801990E+02  0.51100000000E-03 0.  1.
         12    1    3    3    0    0 -0.31473385364E+01 -0.21174206921E+01 -0.52689937648E+01  0.64924190825E+01  0.00000000000E+00 0. -1.
</event>
<event>
 7    1  0.2450552E-011  0.5052886E+02  0.7816164E-02  0.1300439E+00
        -11   -1    0    0    0    0  0.00000000000E+00  0.00000000000E+00  0.45593999997E+02  0.45594000000E+02  0.51100000000E-03 0.  1.
         11   -1    0    0    0    0 -0.00000000000E+00 -0.00000000000E+00 -0.45593999997E+02  0.45594000000E+02  0.51100000000E-03 0. -1.
    9900012    2    1    2    0    0 -0.21191579507E+02  0.20416266013E+02  0.28058124224E+02  0.50528864559E+02  0.30000014312E+02 0.  0.
         12    1    1    2    0    0  0.21191579507E+02 -0.20416266013E+02 -0.28058124224E+02  0.40659135441E+02  0.00000000000E+00 0. -1.
         11    1    3    3    0    0  0.58136994990E+01  0.48671764119E+01  0.23142233123E+01  0.79274294629E+01  0.51100000000E-03 0. -1.
        -11    1    3    3    0    0 -0.66287953423E+01  0.43980825547E+01  0.15064455608E+02  0.17035899767E+02  0.51100000000E-03 0.  1.
         12    1    3    3    0    0 -0.20376483664E+02  0.11151007046E+02  0.10679445303E+02  0.25565535328E+02  0.00000000000E+00 0. -1.
</event>
<event>
 7    1  0.2450552E-011  0.5052886E+02  0.7816164E-02  0.1300439E+00
        -11   -1    0    0    0    0  0.00000000000E+00  0.00000000000E+00  0.45593999997E+02  0.45594000000E+02  0.51100000000E-03 0. -1.
         11   -1    0    0    0    0 -0.00000000000E+00 -0.00000000000E+00 -0.45593999997E+02  0.45594000000E+02  0.51100000000E-03 0.  1.
    9900012    2    1    2    0    0  0.22319566940E+02 -0.33941342012E+02  0.17285093137E+01  0.50528861907E+02  0.30000006254E+02 0.  0.
         12    1    1    2    0    0 -0.22319566940E+02  0.33941342012E+02 -0.17285093137E+01  0.40659138093E+02  0.00000000000E+00 0. -1.
         11    1    3    3    0    0 -0.56006595149E+01 -0.10997222908E+02  0.75904304140E+00  0.12364564096E+02  0.51100000000E-03 0. -1.
        -11    1    3    3    0    0  0.45969022167E+01 -0.87605280789E+01 -0.35184348666E+01  0.10500368869E+02  0.51100000000E-03 0.  1.
         12    1    3    3    0    0  0.23323324238E+02 -0.14183591025E+02  0.44879011389E+01  0.27663928942E+02  0.00000000000E+00 0. -1.
</event>
<event>
 7    1  0.2450552E-011  0.5052886E+02  0.7816164E-02  0.1300439E+00
        -11   -1    0    0    0    0  0.00000000000E+00  0.00000000000E+00  0.45593999997E+02  0.45594000000E+02  0.51100000000E-03 0. -1.
         11   -1    0    0    0    0 -0.00000000000E+00 -0.00000000000E+00 -0.45593999997E+02  0.45594000000E+02  0.51100000000E-03 0.  1.
    9900012    2    1    2    0    0 -0.13264724135E+02  0.33859542916E+02  0.18186372840E+02  0.50528859454E+02  0.29999998798E+02 0.  0.
         12    1    1    2    0    0  0.13264724135E+02 -0.33859542916E+02 -0.18186372840E+02  0.40659140546E+02  0.00000000000E+00 0. -1.
         11    1    3    3    0    0 -0.67863630373E+01  0.14349268646E+02  0.71165558017E+01  0.17395447700E+02  0.51100000000E-03 0.  1.
        -11    1    3    3    0    0 -0.68714986628E+01  0.24883080022E+02  0.96816458293E+01  0.27570263536E+02  0.51100000000E-03 0. -1.
         12    1    3    3    0    0  0.39313756546E+00 -0.53728057517E+01  0.13881712089E+01  0.55631482181E+01  0.00000000000E+00 0. -1.
</event>
<event>
 7    1  0.2450552E-011  0.5052886E+02  0.7816164E-02  0.1300439E+00
        -11   -1    0    0    0    0  0.00000000000E+00  0.00000000000E+00  0.45593999997E+02  0.45594000000E+02  0.51100000000E-03 0.  1.
         11   -1    0    0    0    0 -0.00000000000E+00 -0.00000000000E+00 -0.45593999997E+02  0.45594000000E+02  0.51100000000E-03 0. -1.
    9900012    2    1    2    0    0 -0.23755316771E+02 -0.66277162798E+01  0.32325283986E+02  0.50528859788E+02  0.29999999812E+02 0.  0.
         12    1    1    2    0    0  0.23755316771E+02  0.66277162798E+01 -0.32325283986E+02  0.40659140212E+02  0.00000000000E+00 0. -1.
         11    1    3    3    0    0 -0.41993240336E+01  0.25209468169E+01  0.44756850918E+01  0.66348513544E+01  0.51100000000E-03 0. -1.
        -11    1    3    3    0    0  0.56268951418E+01  0.20687774403E+00  0.10498980041E+02  0.11913577527E+02  0.51100000000E-03 0.  1.
        -12    1    3    3    0    0 -0.25182887879E+02 -0.93555408407E+01  0.17350618853E+02  0.31980430906E+02  0.00000000000E+00 0.  1.
</event>
<event>
 7    1  0.2450552E-011  0.5052886E+02  0.7816164E-02  0.1300439E+00
        -11   -1    0    0    0    0  0.00000000000E+00  0.00000000000E+00  0.45593999997E+02  0.45594000000E+02  0.51100000000E-03 0.  1.
         11   -1    0    0    0    0 -0.00000000000E+00 -0.00000000000E+00 -0.45593999997E+02  0.45594000000E+02  0.51100000000E-03 0. -1.
    9900012    2    1    2    0    0  0.17979792309E+02  0.13443300723E+02  0.33899415268E+02  0.50528860544E+02  0.30000002110E+02 0.  0.
         12    1    1    2    0    0 -0.17979792309E+02 -0.13443300723E+02 -0.33899415268E+02  0.40659139456E+02  0.00000000000E+00 0. -1.
         11    1    3    3    0    0 -0.17393690461E+01  0.66299556860E+01  0.47514803423E+01  0.83401608367E+01  0.51100000000E-03 0. -1.
        -11    1    3    3    0    0  0.65785825007E+01  0.65101082751E+01  0.27409798714E+02  0.28930197429E+02  0.51100000000E-03 0.  1.
        -12    1    3    3    0    0  0.13140578855E+02  0.30323676146E+00  0.17381362111E+01  0.13258502278E+02  0.00000000000E+00 0.  1.
</event>
<event>
 7    1  0.2450552E-011  0.5052895E+02  0.7816164E-02  0.1300438E+00
        -11   -1    0    0    0    0  0.00000000000E+00  0.00000000000E+00  0.45593999997E+02  0.45594000000E+02  0.51100000000E-03 0.  1.
         11   -1    0    0    0    0 -0.00000000000E+00 -0.00000000000E+00 -0.45593999997E+02  0.45594000000E+02  0.51100000000E-03 0. -1.
    9900012    2    1    2    0    0  0.95503517069E+01 -0.57683996697E+01  0.39098271819E+02  0.50528947973E+02  0.30000267858E+02 0.  0.
         12    1    1    2    0    0 -0.95503517069E+01  0.57683996697E+01 -0.39098271819E+02  0.40659052027E+02  0.00000000000E+00 0. -1.
         11    1    3    3    0    0  0.23364105933E+01 -0.13975332608E+02  0.29344700239E+02  0.32586502855E+02  0.51100000000E-03 0. -1.
        -11    1    3    3    0    0  0.39607945448E+01  0.70828514262E+00 -0.12697690628E+01  0.42192268253E+01  0.51100000000E-03 0.  1.
        -12    1    3    3    0    0  0.32531465688E+01  0.74986477960E+01  0.11023340643E+02  0.13723218293E+02  0.00000000000E+00 0.  1.
</event>
<event>
 7    1  0.2450552E-011  0.5052886E+02  0.7816164E-02  0.1300439E+00
        -11   -1    0    0    0    0  0.00000000000E+00  0.00000000000E+00  0.45593999997E+02  0.45594000000E+02  0.51100000000E-03 0. -1.
         11   -1    0    0    0    0 -0.00000000000E+00 -0.00000000000E+00 -0.45593999997E+02  0.45594000000E+02  0.51100000000E-03 0.  1.
    9900012    2    1    2    0    0 -0.23984384043E+02  0.30107824817E+02  0.13093281645E+02  0.50528858133E+02  0.29999994780E+02 0.  0.
         12    1    1    2    0    0  0.23984384043E+02 -0.30107824817E+02 -0.13093281645E+02  0.40659141867E+02  0.00000000000E+00 0. -1.
         11    1    3    3    0    0 -0.15995519771E+02  0.14327476143E+02 -0.90356402441E+00  0.21493014065E+02  0.51100000000E-03 0.  1.
        -11    1    3    3    0    0  0.31497136200E+01  0.96332745246E+01  0.18926193143E-01  0.10135138500E+02  0.51100000000E-03 0. -1.
         12    1    3    3    0    0 -0.11138577892E+02  0.61470741488E+01  0.13977919477E+02  0.18900705567E+02  0.00000000000E+00 0. -1.
</event>
<event>
 7    1  0.2450552E-011  0.5052886E+02  0.7816164E-02  0.1300439E+00
        -11   -1    0    0    0    0  0.00000000000E+00  0.00000000000E+00  0.45593999997E+02  0.45594000000E+02  0.51100000000E-03 0.  1.
         11   -1    0    0    0    0 -0.00000000000E+00 -0.00000000000E+00 -0.45593999997E+02  0.45594000000E+02  0.51100000000E-03 0. -1.
    9900012    2    1    2    0    0  0.23625679530E+02 -0.31277057315E+02  0.10804578413E+02  0.50528856352E+02  0.29999989367E+02 0.  0.
         12    1    1    2    0    0 -0.23625679530E+02  0.31277057315E+02 -0.10804578413E+02  0.40659143648E+02  0.00000000000E+00 0. -1.
         11    1    3    3    0    0  0.22639303382E+02 -0.98581891679E+01  0.52631955247E+01  0.25247241011E+02  0.51100000000E-03 0. -1.
        -11    1    3    3    0    0  0.32112912634E+01 -0.43469071914E+01  0.59792171194E+01  0.80597165788E+01  0.51100000000E-03 0.  1.
         12    1    3    3    0    0 -0.22249151155E+01 -0.17071960956E+02 -0.43783423131E+00  0.17221898762E+02  0.00000000000E+00 0. -1.
</event>
<event>
 7    1  0.2450552E-011  0.5052886E+02  0.7816164E-02  0.1300439E+00
        -11   -1    0    0    0    0  0.00000000000E+00  0.00000000000E+00  0.45593999997E+02  0.45594000000E+02  0.51100000000E-03 0.  1.
         11   -1    0    0    0    0 -0.00000000000E+00 -0.00000000000E+00 -0.45593999997E+02  0.45594000000E+02  0.51100000000E-03 0. -1.
    9900012    2    1    2    0    0 -0.22754817041E+02  0.20647370498E+02  0.26628363345E+02  0.50528863985E+02  0.30000012568E+02 0.  0.
         12    1    1    2    0    0  0.22754817041E+02 -0.20647370498E+02 -0.26628363345E+02  0.40659136015E+02  0.00000000000E+00 0. -1.
         11    1    3    3    0    0 -0.38332661275E+00 -0.56062947958E+00 -0.12360768782E+01  0.14103655609E+01  0.51100000000E-03 0. -1.
        -11    1    3    3    0    0 -0.27118165341E+02  0.15972500883E+02  0.27889349028E+02  0.42051533449E+02  0.51100000000E-03 0.  1.
        -12    1    3    3    0    0  0.47466749132E+01  0.52354990951E+01 -0.24908804518E-01  0.70669649748E+01  0.00000000000E+00 0.  1.
</event>
<event>
 7    1  0.2450552E-011  0.5052888E+02  0.7816164E-02  0.1300439E+00
        -11   -1    0    0    0    0  0.00000000000E+00  0.00000000000E+00  0.45593999997E+02  0.45594000000E+02  0.51100000000E-03 0.  1.
         11   -1    0    0    0    0 -0.00000000000E+00 -0.00000000000E+00 -0.45593999997E+02  0.45594000000E+02  0.51100000000E-03 0. -1.
    9900012    2    1    2    0    0  0.16481520158E+02  0.12704126928E+02  0.34930341596E+02  0.50528879108E+02  0.30000058536E+02 0.  0.
         12    1    1    2    0    0 -0.16481520158E+02 -0.12704126928E+02 -0.34930341596E+02  0.40659120892E+02  0.00000000000E+00 0. -1.
         11    1    3    3    0    0  0.81457166260E+01  0.83280357156E+01  0.14175342687E+02  0.18348003128E+02  0.51100000000E-03 0. -1.
        -11    1    3    3    0    0  0.41424588260E+01 -0.34342589510E+01  0.22509795804E+02  0.23144005856E+02  0.51100000000E-03 0.  1.
         12    1    3    3    0    0  0.41933447061E+01  0.78103501635E+01 -0.17547968946E+01  0.90368701242E+01  0.00000000000E+00 0. -1.
</event>
<event>
 7    1  0.2450552E-011  0.5052885E+02  0.7816164E-02  0.1300439E+00
        -11   -1    0    0    0    0  0.00000000000E+00  0.00000000000E+00  0.45593999997E+02  0.45594000000E+02  0.51100000000E-03 0.  1.
         11   -1    0    0    0    0 -0.00000000000E+00 -0.00000000000E+00 -0.45593999997E+02  0.45594000000E+02  0.51100000000E-03 0. -1.
    9900012    2    1    2    0    0 -0.51990376386E+01  0.17860741239E+02  0.36154257559E+02  0.50528850850E+02  0.29999972643E+02 0.  0.
         12    1    1    2    0    0  0.51990376386E+01 -0.17860741239E+02 -0.36154257559E+02  0.40659149150E+02  0.00000000000E+00 0. -1.
         11    1    3    3    0    0  0.83095758371E+01  0.12969802012E+02  0.15786206948E+02  0.22056045540E+02  0.51100000000E-03 0. -1.
        -11    1    3    3    0    0 -0.25776997612E+01  0.51250698206E+01  0.15456620453E+02  0.16486903676E+02  0.51100000000E-03 0.  1.
         12    1    3    3    0    0 -0.10930913715E+02 -0.23413059378E+00  0.49114301585E+01  0.11985901634E+02  0.00000000000E+00 0. -1.
</event>
<event>
 7    1  0.2450552E-011  0.5052886E+02  0.7816164E-02  0.1300439E+00
        -11   -1    0    0    0    0  0.00000000000E+00  0.00000000000E+00  0.45593999997E+02  0.45594000000E+02  0.51100000000E-03 0.  1.
         11   -1    0    0    0    0 -0.00000000000E+00 -0.00000000000E+00 -0.45593999997E+02  0.45594000000E+02  0.51100000000E-03 0. -1.
    9900012    2    1    2    0    0 -0.27297453787E+02 -0.23039778252E+01  0.30045077576E+02  0.50528856088E+02  0.29999988566E+02 0.  0.
         12    1    1    2    0    0  0.27297453787E+02  0.23039778252E+01 -0.30045077576E+02  0.40659143912E+02  0.00000000000E+00 0. -1.
         11    1    3    3    0    0 -0.12907094417E+02 -0.72577065637E+01  0.35931022358E+01  0.15237380838E+02  0.51100000000E-03 0. -1.
        -11    1    3    3    0    0 -0.12702884317E+02 -0.30568714250E+01  0.85719166240E+01  0.15626435542E+02  0.51100000000E-03 0.  1.
         12    1    3    3    0    0 -0.16874750531E+01  0.80106001635E+01  0.17880058716E+02  0.19665039708E+02  0.00000000000E+00 0. -1.
</event>
<event>
 7    1  0.2450552E-011  0.5052888E+02  0.7816164E-02  0.1300439E+00
        -11   -1    0    0    0    0  0.00000000000E+00  0.00000000000E+00  0.45593999997E+02  0.45594000000E+02  0.51100000000E-03 0. -1.
         11   -1    0    0    0    0 -0.00000000000E+00 -0.00000000000E+00 -0.45593999997E+02  0.45594000000E+02  0.51100000000E-03 0.  1.
    9900012    2    1    2    0    0  0.22830312928E+02 -0.11221483805E+02 -0.31717806249E+02  0.50528879001E+02  0.30000058211E+02 0.  0.
         12    1    1    2    0    0 -0.22830312928E+02  0.11221483805E+02  0.31717806249E+02  0.40659120999E+02  0.00000000000E+00 0. -1.
         11    1    3    3    0    0 -0.54464889235E+01  0.12385238428E+01 -0.21080327090E+01  0.59700908759E+01  0.51100000000E-03 0. -1.
        -11    1    3    3    0    0  0.10682947838E+02  0.13692008487E+01 -0.11641178477E+02  0.15859291348E+02  0.51100000000E-03 0.  1.
         12    1    3    3    0    0  0.17593854013E+02 -0.13829208497E+02 -0.17968595063E+02  0.28699496777E+02  0.00000000000E+00 0. -1.
</event>
<event>
 7    1  0.2450552E-011  0.5052886E+02  0.7816164E-02  0.1300439E+00
        -11   -1    0    0    0    0  0.00000000000E+00  0.00000000000E+00  0.45593999997E+02  0.45594000000E+02  0.51100000000E-03 0.  1.
         11   -1    0    0    0    0 -0.00000000000E+00 -0.00000000000E+00 -0.45593999997E+02  0.45594000000E+02  0.51100000000E-03 0. -1.
    9900012    2    1    2    0    0 -0.20731185551E+02 -0.28145470799E+01  0.34863477583E+02  0.50528858361E+02  0.29999995475E+02 0.  0.
         12    1    1    2    0    0  0.20731185551E+02  0.28145470799E+01 -0.34863477583E+02  0.40659141639E+02  0.00000000000E+00 0. -1.
         11    1    3    3    0    0  0.36181937869E+01 -0.13922941749E+00  0.12072511127E+02  0.12603818321E+02  0.51100000000E-03 0. -1.
        -11    1    3    3    0    0  0.16535774983E+01 -0.46206367343E+00 -0.14944947624E+01  0.22762548708E+01  0.51100000000E-03 0.  1.
        -12    1    3    3    0    0 -0.26002956836E+02 -0.22132539890E+01  0.24285461219E+02  0.35648785169E+02  0.00000000000E+00 0.  1.
</event>
<event>
 7    1  0.2450552E-011  0.5052895E+02  0.7816164E-02  0.1300438E+00
        -11   -1    0    0    0    0  0.00000000000E+00  0.00000000000E+00  0.45593999997E+02  0.45594000000E+02  0.51100000000E-03 0. -1.
         11   -1    0    0    0    0 -0.00000000000E+00 -0.00000000000E+00 -0.45593999997E+02  0.45594000000E+02  0.51100000000E-03 0.  1.
    9900012    2    1    2    0    0  0.12922295342E+02 -0.14015905256E+02 -0.35912772640E+02  0.50528947432E+02  0.30000266212E+02 0.  0.
         12    1    1    2    0    0 -0.12922295342E+02  0.14015905256E+02  0.35912772640E+02  0.40659052568E+02  0.00000000000E+00 0. -1.
         11    1    3    3    0    0  0.82656552394E+01 -0.84197817391E+01 -0.18142113790E+02  0.21641397231E+02  0.51100000000E-03 0. -1.
        -11    1    3    3    0    0 -0.43518873586E+01 -0.11288004417E+02 -0.10065834292E+02  0.15737820292E+02  0.51100000000E-03 0.  1.
         12    1    3    3    0    0  0.90085274612E+01  0.56918809002E+01 -0.77048245584E+01  0.13149729909E+02  0.00000000000E+00 0. -1.
</event>
<event>
 7    1  0.2450552E-011  0.5052885E+02  0.7816164E-02  0.1300439E+00
        -11   -1    0    0    0    0  0.00000000000E+00  0.00000000000E+00  0.45593999997E+02  0.45594000000E+02  0.51100000000E-03 0.  1.
         11   -1    0    0    0    0 -0.00000000000E+00 -0.00000000000E+00 -0.45593999997E+02  0.45594000000E+02  0.51100000000E-03 0. -1.
    9900012    2    1    2    0    0  0.21890960399E+01  0.40512232977E+02 -0.26707575544E+01  0.50528854557E+02  0.29999983912E+02 0.  0.
         12    1    1    2    0    0 -0.21890960399E+01 -0.40512232977E+02  0.26707575544E+01  0.40659145443E+02  0.00000000000E+00 0. -1.
         11    1    3    3    0    0 -0.14302001194E+01  0.16251595246E+02 -0.14592902659E+02  0.21888641545E+02  0.51100000000E-03 0. -1.
        -11    1    3    3    0    0  0.47645323596E+01  0.17581815155E+02  0.48605705492E+01  0.18853279266E+02  0.51100000000E-03 0.  1.
        -12    1    3    3    0    0 -0.11452362003E+01  0.66788225761E+01  0.70615745553E+01  0.97869337465E+01  0.00000000000E+00 0.  1.
</event>
<event>
 7    1  0.2450552E-011  0.5052886E+02  0.7816164E-02  0.1300439E+00
        -11   -1    0    0    0    0  0.00000000000E+00  0.00000000000E+00  0.45593999997E+02  0.45594000000E+02  0.51100000000E-03 0.  1.
         11   -1    0    0    0    0 -0.00000000000E+00 -0.00000000000E+00 -0.45593999997E+02  0.45594000000E+02  0.51100000000E-03 0. -1.
    9900012    2    1    2    0    0  0.38589903067E+01 -0.35976127101E+02  0.18547030146E+02  0.50528857675E+02  0.29999993389E+02 0.  0.
         12    1    1    2    0    0 -0.38589903067E+01  0.35976127101E+02 -0.18547030146E+02  0.40659142325E+02  0.00000000000E+00 0. -1.
         11    1    3    3    0    0  0.63254074385E+01 -0.12057381786E+02 -0.24314305245E+01  0.13831236006E+02  0.51100000000E-03 0. -1.
        -11    1    3    3    0    0  0.29284311746E+01 -0.24244761224E+02  0.15100313298E+02  0.28712429676E+02  0.51100000000E-03 0.  1.
        -12    1    3    3    0    0 -0.53948483064E+01  0.32601590938E+00  0.58781473731E+01  0.79851919928E+01  0.00000000000E+00 0.  1.
</event>
<event>
 7    1  0.2450552E-011  0.5052886E+02  0.7816164E-02  0.1300439E+00
        -11   -1    0    0    0    0  0.00000000000E+00  0.00000000000E+00  0.45593999997E+02  0.45594000000E+02  0.51100000000E-03 0. -1.
         11   -1    0    0    0    0 -0.00000000000E+00 -0.00000000000E+00 -0.45593999997E+02  0.45594000000E+02  0.51100000000E-03 0.  1.
    9900012    2    1    2    0    0 -0.27905706318E+02  0.13076658937E+02 -0.26522407128E+02  0.50528861619E+02  0.30000005376E+02 0.  0.
         12    1    1    2    0    0  0.27905706318E+02 -0.13076658937E+02  0.26522407128E+02  0.40659138381E+02  0.00000000000E+00 0. -1.
         11    1    3    3    0    0 -0.16740066892E+02 -0.39304965496E+01 -0.15696712217E+02  0.23282298370E+02  0.51100000000E-03 0.  1.
        -11    1    3    3    0    0 -0.11207420121E+02  0.62458859731E+01 -0.10333127704E+02  0.16473945665E+02  0.51100000000E-03 0. -1.
         12    1    3    3    0    0  0.41780695858E-01  0.10761269513E+02 -0.49256720727E+00  0.10772617584E+02  0.00000000000E+00 0. -1.
</event>
<event>
 7    1  0.2450552E-011  0.5052891E+02  0.7816164E-02  0.1300439E+00
        -11   -1    0    0    0    0  0.00000000000E+00  0.00000000000E+00  0.45593999997E+02  0.45594000000E+02  0.51100000000E-03 0. -1.
         11   -1    0    0    0    0 -0.00000000000E+00 -0.00000000000E+00 -0.45593999997E+02  0.45594000000E+02  0.51100000000E-03 0.  1.
    9900012    2    1    2    0    0  0.19749506766E+02 -0.10008988580E+02 -0.34101892927E+02  0.50528905431E+02  0.30000138549E+02 0.  0.
         12    1    1    2    0    0 -0.19749506766E+02  0.10008988580E+02  0.34101892927E+02  0.40659094569E+02  0.00000000000E+00 0. -1.
         11    1    3    3    0    0 -0.11477918483E+01  0.57439068384E+01 -0.45728329997E+00  0.58752872417E+01  0.51100000000E-03 0. -1.
        -11    1    3    3    0    0  0.43783320807E+01 -0.44385639696E+01 -0.93764273167E+00  0.63047455202E+01  0.51100000000E-03 0.  1.
        -12    1    3    3    0    0  0.16518966534E+02 -0.11314331449E+02 -0.32706966896E+02  0.38348872669E+02  0.00000000000E+00 0.  1.
</event>
<event>
 7    1  0.2450552E-011  0.5052886E+02  0.7816164E-02  0.1300439E+00
        -11   -1    0    0    0    0  0.00000000000E+00  0.00000000000E+00  0.45593999997E+02  0.45594000000E+02  0.51100000000E-03 0.  1.
         11   -1    0    0    0    0 -0.00000000000E+00 -0.00000000000E+00 -0.45593999997E+02  0.45594000000E+02  0.51100000000E-03 0. -1.
    9900012    2    1    2    0    0 -0.75847005623E+01  0.69468196376E+01  0.39336751172E+02  0.50528856152E+02  0.29999988758E+02 0.  0.
         12    1    1    2    0    0  0.75847005623E+01 -0.69468196376E+01 -0.39336751172E+02  0.40659143848E+02  0.00000000000E+00 0. -1.
         11    1    3    3    0    0 -0.66448236286E+01  0.16557984428E+01 -0.87916367751E+00  0.69042217934E+01  0.51100000000E-03 0. -1.
        -11    1    3    3    0    0  0.42284795982E+01  0.62013068122E+01  0.79447954584E+01  0.10929593818E+02  0.51100000000E-03 0.  1.
         12    1    3    3    0    0 -0.51683565319E+01 -0.91028561741E+00  0.32271119391E+02  0.32695040540E+02  0.00000000000E+00 0. -1.
</event>
<event>
 7    1  0.2450552E-011  0.5052885E+02  0.7816164E-02  0.1300439E+00
        -11   -1    0    0    0    0  0.00000000000E+00  0.00000000000E+00  0.45593999997E+02  0.45594000000E+02  0.51100000000E-03 0.  1.
         11   -1    0    0    0    0 -0.00000000000E+00 -0.00000000000E+00 -0.45593999997E+02  0.45594000000E+02  0.51100000000E-03 0. -1.
    9900012    2    1    2    0    0 -0.21932995933E+02 -0.29535535398E+02  0.17313654052E+02  0.50528846314E+02  0.29999958856E+02 0.  0.
         12    1    1    2    0    0  0.21932995933E+02  0.29535535398E+02 -0.17313654052E+02  0.40659153686E+02  0.00000000000E+00 0. -1.
         11    1    3    3    0    0 -0.21343808476E+01 -0.10905860882E+02  0.15259722467E+02  0.18877301535E+02  0.51100000000E-03 0. -1.
        -11    1    3    3    0    0 -0.12736101131E+02 -0.48593062398E+01  0.71051648951E+01  0.15372198854E+02  0.51100000000E-03 0.  1.
         12    1    3    3    0    0 -0.70625139542E+01 -0.13770368276E+02 -0.50512333106E+01  0.16279345925E+02  0.00000000000E+00 0. -1.
</event>
<event>
 7    1  0.2450552E-011  0.5052888E+02  0.7816164E-02  0.1300439E+00
        -11   -1    0    0    0    0  0.00000000000E+00  0.00000000000E+00  0.45593999997E+02  0.45594000000E+02  0.51100000000E-03 0. -1.
         11   -1    0    0    0    0 -0.00000000000E+00 -0.00000000000E+00 -0.45593999997E+02  0.45594000000E+02  0.51100000000E-03 0.  1.
    9900012    2    1    2    0    0 -0.34943101561E+02  0.19675352609E+02 -0.67099835915E+01  0.50528883841E+02  0.30000072923E+02 0.  0.
         12    1    1    2    0    0  0.34943101561E+02 -0.19675352609E+02  0.67099835915E+01  0.40659116159E+02  0.00000000000E+00 0. -1.
         11    1    3    3    0    0  0.26841876446E+00  0.94985586728E+00 -0.26494428637E+01  0.28273348848E+01  0.51100000000E-03 0. -1.
        -11    1    3    3    0    0 -0.13048489977E+02  0.11050307349E+02  0.10528162393E+02  0.20080203855E+02  0.51100000000E-03 0.  1.
         12    1    3    3    0    0 -0.22163030349E+02  0.76751893927E+01 -0.14588703121E+02  0.27621345101E+02  0.00000000000E+00 0. -1.
</event>
<event>
 7    1  0.2450552E-011  0.5052889E+02  0.7816164E-02  0.1300439E+00
        -11   -1    0    0    0    0  0.00000000000E+00  0.00000000000E+00  0.45593999997E+02  0.45594000000E+02  0.51100000000E-03 0. -1.
         11   -1    0    0    0    0 -0.00000000000E+00 -0.00000000000E+00 -0.45593999997E+02  0.45594000000E+02  0.51100000000E-03 0.  1.
    9900012    2    1    2    0    0  0.22141784658E+02  0.21246076788E+02 -0.26674116038E+02  0.50528894339E+02  0.30000104833E+02 0.  0.
         12    1    1    2    0    0 -0.22141784658E+02 -0.21246076788E+02  0.26674116038E+02  0.40659105661E+02  0.00000000000E+00 0. -1.
         11    1    3    3    0    0  0.77990473450E+01  0.18238429358E+02 -0.18751177172E+02  0.27296008692E+02  0.51100000000E-03 0. -1.
        -11    1    3    3    0    0  0.11693157000E+02  0.46906150155E+01 -0.12457563240E+02  0.17717863077E+02  0.51100000000E-03 0.  1.
         12    1    3    3    0    0  0.26495803130E+01 -0.16829675854E+01  0.45346243745E+01  0.55150225698E+01  0.00000000000E+00 0. -1.
</event>
<event>
 7    1  0.2450552E-011  0.5052886E+02  0.7816164E-02  0.1300439E+00
        -11   -1    0    0    0    0  0.00000000000E+00  0.00000000000E+00  0.45593999997E+02  0.45594000000E+02  0.51100000000E-03 0.  1.
         11   -1    0    0    0    0 -0.00000000000E+00 -0.00000000000E+00 -0.45593999997E+02  0.45594000000E+02  0.51100000000E-03 0. -1.
    9900012    2    1    2    0    0  0.10173267773E+02 -0.26405147843E+02 -0.29196543387E+02  0.50528863812E+02  0.30000012044E+02 0.  0.
         12    1    1    2    0    0 -0.10173267773E+02  0.26405147843E+02  0.29196543387E+02  0.40659136188E+02  0.00000000000E+00 0. -1.
         11    1    3    3    0    0  0.79310998025E+01 -0.15849552313E+02 -0.30224587527E+02  0.35037641816E+02  0.51100000000E-03 0. -1.
        -11    1    3    3    0    0  0.36605950436E+01 -0.10173676925E+02 -0.29859123173E+01  0.11216921631E+02  0.51100000000E-03 0.  1.
        -12    1    3    3    0    0 -0.14184270726E+01 -0.38191860526E+00  0.40139564567E+01  0.42743003659E+01  0.00000000000E+00 0.  1.
</event>
<event>
 7    1  0.2450552E-011  0.5052897E+02  0.7816164E-02  0.1300438E+00
        -11   -1    0    0    0    0  0.00000000000E+00  0.00000000000E+00  0.45593999997E+02  0.45594000000E+02  0.51100000000E-03 0.  1.
         11   -1    0    0    0    0 -0.00000000000E+00 -0.00000000000E+00 -0.45593999997E+02  0.45594000000E+02  0.51100000000E-03 0. -1.
    9900012    2    1    2    0    0 -0.18532141961E+02  0.31358540960E+02  0.18065394086E+02  0.50528968527E+02  0.30000330333E+02 0.  0.
         12    1    1    2    0    0  0.18532141961E+02 -0.31358540960E+02 -0.18065394086E+02  0.40659031473E+02  0.00000000000E+00 0. -1.
         11    1    3    3    0    0 -0.96339065981E+01  0.22122519986E+02  0.14130040872E+02  0.27962047532E+02  0.51100000000E-03 0. -1.
        -11    1    3    3    0    0 -0.14405019042E+02  0.51247482949E+01  0.34745028873E+01  0.15679278978E+02  0.51100000000E-03 0.  1.
         12    1    3    3    0    0  0.55067836790E+01  0.41112726791E+01  0.46085032614E+00  0.68876420169E+01  0.00000000000E+00 0. -1.
</event>
<event>
 7    1  0.2450552E-011  0.5052886E+02  0.7816164E-02  0.1300439E+00
        -11   -1    0    0    0    0  0.00000000000E+00  0.00000000000E+00  0.45593999997E+02  0.45594000000E+02  0.51100000000E-03 0. -1.
         11   -1    0    0    0    0 -0.00000000000E+00 -0.00000000000E+00 -0.45593999997E+02  0.45594000000E+02  0.51100000000E-03 0.  1.
    9900012    2    1    2    0    0  0.10179431809E+02 -0.26081725377E+02 -0.29483697493E+02  0.50528860210E+02  0.30000001095E+02 0.  0.
         12    1    1    2    0    0 -0.10179431809E+02  0.26081725377E+02  0.29483697493E+02  0.40659139790E+02  0.00000000000E+00 0. -1.
         11    1    3    3    0    0 -0.25409529647E+01 -0.10689523711E+02 -0.31631618608E+01  0.11433632509E+02  0.51100000000E-03 0. -1.
        -11    1    3    3    0    0 -0.49576465209E+01 -0.74038430042E+01 -0.47971546303E+01  0.10119676036E+02  0.51100000000E-03 0.  1.
        -12    1    3    3    0    0  0.17678031295E+02 -0.79883586618E+01 -0.21523381002E+02  0.28975551666E+02  0.00000000000E+00 0.  1.
</event>
<event>
 7    1  0.2450552E-011  0.5052886E+02  0.7816164E-02  0.1300439E+00
        -11   -1    0    0    0    0  0.00000000000E+00  0.00000000000E+00  0.45593999997E+02  0.45594000000E+02  0.51100000000E-03 0.  1.
         11   -1    0    0    0    0 -0.00000000000E+00 -0.00000000000E+00 -0.45593999997E+02  0.45594000000E+02  0.51100000000E-03 0. -1.
    9900012    2    1    2    0    0  0.24563246373E+02  0.23965870046E+02  0.21804810423E+02  0.50528858875E+02  0.29999997036E+02 0.  0.
         12    1    1    2    0    0 -0.24563246373E+02 -0.23965870046E+02 -0.21804810423E+02  0.40659141125E+02  0.00000000000E+00 0. -1.
         11    1    3    3    0    0  0.42417720018E+01 -0.52695293718E+01  0.65786525099E+01  0.94360605457E+01  0.51100000000E-03 0. -1.
        -11    1    3    3    0    0  0.14706990110E+02  0.18830183046E+02  0.16739078359E+02  0.29173071422E+02  0.51100000000E-03 0.  1.
         12    1    3    3    0    0  0.56144842609E+01  0.10405216372E+02 -0.15129204456E+01  0.11919726907E+02  0.00000000000E+00 0. -1.
</event>
<event>
 7    1  0.2450552E-011  0.5052886E+02  0.7816164E-02  0.1300439E+00
        -11   -1    0    0    0    0  0.00000000000E+00  0.00000000000E+00  0.45593999997E+02  0.45594000000E+02  0.51100000000E-03 0.  1.
         11   -1    0    0    0    0 -0.00000000000E+00 -0.00000000000E+00 -0.45593999997E+02  0.45594000000E+02  0.51100000000E-03 0. -1.
    9900012    2    1    2    0    0 -0.31008052951E+02 -0.12948567727E+02  0.22891067785E+02  0.50528859105E+02  0.29999997735E+02 0.  0.
         12    1    1    2    0    0  0.31008052951E+02  0.12948567727E+02 -0.22891067785E+02  0.40659140895E+02  0.00000000000E+00 0. -1.
         11    1    3    3    0    0 -0.20386143623E+02 -0.83053118478E+01  0.20623598039E+02  0.30164645747E+02  0.51100000000E-03 0. -1.
        -11    1    3    3    0    0 -0.65012281079E+01 -0.96422678401E+01  0.57890779728E+01  0.12990485751E+02  0.51100000000E-03 0.  1.
         12    1    3    3    0    0 -0.41206812207E+01  0.49990119613E+01 -0.35216082275E+01  0.73737276068E+01  0.00000000000E+00 0. -1.
</event>
<event>
 7    1  0.2450552E-011  0.5052885E+02  0.7816164E-02  0.1300439E+00
        -11   -1    0    0    0    0  0.00000000000E+00  0.00000000000E+00  0.45593999997E+02  0.45594000000E+02  0.51100000000E-03 0.  1.
         11   -1    0    0    0    0 -0.00000000000E+00 -0.00000000000E+00 -0.45593999997E+02  0.45594000000E+02  0.51100000000E-03 0. -1.
    9900012    2    1    2    0    0  0.35289315638E+02  0.18717874178E+02  0.75809999358E+01  0.50528853772E+02  0.29999981526E+02 0.  0.
         12    1    1    2    0    0 -0.35289315638E+02 -0.18717874178E+02 -0.75809999358E+01  0.40659146228E+02  0.00000000000E+00 0. -1.
         11    1    3    3    0    0  0.12719218712E+02  0.12715278721E+02 -0.41651010264E+01  0.18460902048E+02  0.51100000000E-03 0. -1.
        -11    1    3    3    0    0  0.41394402156E+01  0.75580075583E+01  0.10423801342E+02  0.13524573125E+02  0.51100000000E-03 0.  1.
        -12    1    3    3    0    0  0.18430656711E+02 -0.15554121019E+01  0.13222996206E+01  0.18543378599E+02  0.00000000000E+00 0.  1.
</event>
<event>
 7    1  0.2450552E-011  0.5052886E+02  0.7816164E-02  0.1300439E+00
        -11   -1    0    0    0    0  0.00000000000E+00  0.00000000000E+00  0.45593999997E+02  0.45594000000E+02  0.51100000000E-03 0.  1.
         11   -1    0    0    0    0 -0.00000000000E+00 -0.00000000000E+00 -0.45593999997E+02  0.45594000000E+02  0.51100000000E-03 0. -1.
    9900012    2    1    2    0    0 -0.34152062413E+02  0.18338798621E+01  0.21987252499E+02  0.50528858902E+02  0.29999997118E+02 0.  0.
         12    1    1    2    0    0  0.34152062413E+02 -0.18338798621E+01 -0.21987252499E+02  0.40659141098E+02  0.00000000000E+00 0. -1.
         11    1    3    3    0    0  0.35953924610E+01  0.23218165030E+01 -0.10505155984E+00  0.42812048437E+01  0.51100000000E-03 0. -1.
        -11    1    3    3    0    0 -0.78929250236E+01  0.23630460430E+01  0.12095575376E+02  0.14635067337E+02  0.51100000000E-03 0.  1.
        -12    1    3    3    0    0 -0.29854529850E+02 -0.28509826839E+01  0.99967286825E+01  0.31612586721E+02  0.00000000000E+00 0.  1.
</event>
<event>
 7    1  0.2450552E-011  0.5052886E+02  0.7816164E-02  0.1300439E+00
        -11   -1    0    0    0    0  0.00000000000E+00  0.00000000000E+00  0.45593999997E+02  0.45594000000E+02  0.51100000000E-03 0.  1.
         11   -1    0    0    0    0 -0.00000000000E+00 -0.00000000000E+00 -0.45593999997E+02  0.45594000000E+02  0.51100000000E-03 0. -1.
    9900012    2    1    2    0    0 -0.31365920025E+02 -0.13584833529E+02 -0.22018103575E+02  0.50528861715E+02  0.30000005670E+02 0.  0.
         12    1    1    2    0    0  0.31365920025E+02  0.13584833529E+02  0.22018103575E+02  0.40659138285E+02  0.00000000000E+00 0. -1.
         11    1    3    3    0    0 -0.11718347061E+02 -0.67387267690E+01 -0.17539979362E+02  0.22144547243E+02  0.51100000000E-03 0. -1.
        -11    1    3    3    0    0  0.35772089190E+01  0.23968130060E+00  0.43205397222E+00  0.36111690174E+01  0.51100000000E-03 0.  1.
        -12    1    3    3    0    0 -0.23224781882E+02 -0.70857880606E+01 -0.49101781849E+01  0.24773145455E+02  0.00000000000E+00 0.  1.
</event>
<event>
 7    1  0.2450552E-011  0.5052887E+02  0.7816164E-02  0.1300439E+00
        -11   -1    0    0    0    0  0.00000000000E+00  0.00000000000E+00  0.45593999997E+02  0.45594000000E+02  0.51100000000E-03 0. -1.
         11   -1    0    0    0    0 -0.00000000000E+00 -0.00000000000E+00 -0.45593999997E+02  0.45594000000E+02  0.51100000000E-03 0.  1.
    9900012    2    1    2    0    0  0.89107265960E+01  0.20601920240E+01 -0.39617157795E+02  0.50528872717E+02  0.30000039112E+02 0.  0.
         12    1    1    2    0    0 -0.89107265960E+01 -0.20601920240E+01  0.39617157795E+02  0.40659127283E+02  0.00000000000E+00 0. -1.
         11    1    3    3    0    0  0.76544227052E+01  0.10286517693E+00 -0.29023285751E+02  0.30015860545E+02  0.51100000000E-03 0. -1.
        -11    1    3    3    0    0  0.50266995363E+01 -0.63625329695E+01 -0.69470802456E+01  0.10677614819E+02  0.51100000000E-03 0.  1.
         12    1    3    3    0    0 -0.37703956455E+01  0.83198598166E+01 -0.36467917982E+01  0.98353973540E+01  0.00000000000E+00 0. -1.
</event>
<event>
 7    1  0.2450552E-011  0.5052887E+02  0.7816164E-02  0.1300439E+00
        -11   -1    0    0    0    0  0.00000000000E+00  0.00000000000E+00  0.45593999997E+02  0.45594000000E+02  0.51100000000E-03 0.  1.
         11   -1    0    0    0    0 -0.00000000000E+00 -0.00000000000E+00 -0.45593999997E+02  0.45594000000E+02  0.51100000000E-03 0. -1.
    9900012    2    1    2    0    0  0.35666966309E+02 -0.17103404609E+02  0.94077784270E+01  0.50528865358E+02  0.30000016743E+02 0.  0.
         12    1    1    2    0    0 -0.35666966309E+02  0.17103404609E+02 -0.94077784270E+01  0.40659134642E+02  0.00000000000E+00 0. -1.
         11    1    3    3    0    0  0.12824766785E+02 -0.13534700953E+02  0.46424967173E+01  0.19214982409E+02  0.51100000000E-03 0. -1.
        -11    1    3    3    0    0  0.26110828041E+02 -0.33452818687E+01  0.10286404380E+01  0.26344341957E+02  0.51100000000E-03 0.  1.
         12    1    3    3    0    0 -0.32686285164E+01 -0.22342178733E+00  0.37366412718E+01  0.49695409916E+01  0.00000000000E+00 0. -1.
</event>
<event>
 7    1  0.2450552E-011  0.5052886E+02  0.7816164E-02  0.1300439E+00
        -11   -1    0    0    0    0  0.00000000000E+00  0.00000000000E+00  0.45593999997E+02  0.45594000000E+02  0.51100000000E-03 0.  1.
         11   -1    0    0    0    0 -0.00000000000E+00 -0.00000000000E+00 -0.45593999997E+02  0.45594000000E+02  0.51100000000E-03 0. -1.
    9900012    2    1    2    0    0  0.30325399646E+02 -0.17548123714E+02  0.20630049611E+02  0.50528862571E+02  0.30000008269E+02 0.  0.
         12    1    1    2    0    0 -0.30325399646E+02  0.17548123714E+02 -0.20630049611E+02  0.40659137429E+02  0.00000000000E+00 0. -1.
         11    1    3    3    0    0 -0.16997331994E+01 -0.28148681714E+00 -0.10611277255E+01  0.20234426328E+01  0.51100000000E-03 0. -1.
        -11    1    3    3    0    0  0.15600688142E+02 -0.12319891495E+02  0.24037644679E+02  0.31192459969E+02  0.51100000000E-03 0.  1.
         12    1    3    3    0    0  0.16424444703E+02 -0.49467454020E+01 -0.23464673428E+01  0.17312959969E+02  0.00000000000E+00 0. -1.
</event>
<event>
 7    1  0.2450552E-011  0.5052886E+02  0.7816164E-02  0.1300439E+00
        -11   -1    0    0    0    0  0.00000000000E+00  0.00000000000E+00  0.45593999997E+02  0.45594000000E+02  0.51100000000E-03 0. -1.
         11   -1    0    0    0    0 -0.00000000000E+00 -0.00000000000E+00 -0.45593999997E+02  0.45594000000E+02  0.51100000000E-03 0.  1.
    9900012    2    1    2    0    0 -0.13026622807E+02 -0.17882937408E+02 -0.34112654880E+02  0.50528861113E+02  0.30000003839E+02 0.  0.
         12    1    1    2    0    0  0.13026622807E+02  0.17882937408E+02  0.34112654880E+02  0.40659138887E+02  0.00000000000E+00 0. -1.
         11    1    3    3    0    0 -0.18803890483E+01 -0.67569659659E+01  0.16025663787E+01  0.71944889531E+01  0.51100000000E-03 0. -1.
        -11    1    3    3    0    0 -0.15500021027E+02 -0.10904520334E+02 -0.33390579527E+02  0.38393879942E+02  0.51100000000E-03 0.  1.
         12    1    3    3    0    0  0.43537872686E+01 -0.22145110719E+00 -0.23246417315E+01  0.49404922177E+01  0.00000000000E+00 0. -1.
</event>
<event>
 7    1  0.2450552E-011  0.5052886E+02  0.7816164E-02  0.1300439E+00
        -11   -1    0    0    0    0  0.00000000000E+00  0.00000000000E+00  0.45593999997E+02  0.45594000000E+02  0.51100000000E-03 0. -1.
         11   -1    0    0    0    0 -0.00000000000E+00 -0.00000000000E+00 -0.45593999997E+02  0.45594000000E+02  0.51100000000E-03 0.  1.
    9900012    2    1    2    0    0 -0.31291781447E+02 -0.25959025796E+02 -0.34464535029E+00  0.50528863428E+02  0.30000010875E+02 0.  0.
         12    1    1    2    0    0  0.31291781447E+02  0.25959025796E+02  0.34464535029E+00  0.40659136572E+02  0.00000000000E+00 0. -1.
         11    1    3    3    0    0 -0.10926342176E+02  0.69273863248E+00 -0.51368598571E+01  0.12093476324E+02  0.51100000000E-03 0. -1.
        -11    1    3    3    0    0 -0.60114639187E+01 -0.53280683967E+01  0.93531079133E+01  0.12329097257E+02  0.51100000000E-03 0.  1.
        -12    1    3    3    0    0 -0.14353975352E+02 -0.21323696032E+02 -0.45608934065E+01  0.26106289846E+02  0.00000000000E+00 0.  1.
</event>
<event>
 7    1  0.3217606E-011  0.5052885E+02  0.7816164E-02  0.1300439E+00
        -11   -1    0    0    0    0  0.00000000000E+00  0.00000000000E+00  0.45593999997E+02  0.45594000000E+02  0.51100000000E-03 0. -1.
         11   -1    0    0    0    0 -0.00000000000E+00 -0.00000000000E+00 -0.45593999997E+02  0.45594000000E+02  0.51100000000E-03 0.  1.
    9900012    2    1    2    0    0  0.36708408901E+01  0.33656166832E+02 -0.22515631810E+02  0.50528852020E+02  0.29999976201E+02 0.  0.
         12    1    1    2    0    0 -0.36708408901E+01 -0.33656166832E+02  0.22515631810E+02  0.40659147980E+02  0.00000000000E+00 0. -1.
         11    1    3    3    0    0  0.46478616163E+01  0.35957460715E+01  0.39108098716E+01  0.70587847061E+01  0.51100000000E-03 0. -1.
        -11    1    3    3    0    0  0.42408174222E+01  0.15890646632E+02 -0.48729508869E+01  0.17153507903E+02  0.51100000000E-03 0.  1.
         12    1    3    3    0    0 -0.52178381484E+01  0.14169774128E+02 -0.21553490795E+02  0.26316559411E+02  0.00000000000E+00 0. -1.
</event>
<event>
 7    1  0.2450552E-011  0.5052888E+02  0.7816164E-02  0.1300439E+00
        -11   -1    0    0    0    0  0.00000000000E+00  0.00000000000E+00  0.45593999997E+02  0.45594000000E+02  0.51100000000E-03 0.  1.
         11   -1    0    0    0    0 -0.00000000000E+00 -0.00000000000E+00 -0.45593999997E+02  0.45594000000E+02  0.51100000000E-03 0. -1.
    9900012    2    1    2    0    0 -0.30989333884E+02 -0.88164595277E+01  0.24801116313E+02  0.50528878716E+02  0.30000057346E+02 0.  0.
         12    1    1    2    0    0  0.30989333884E+02  0.88164595277E+01 -0.24801116313E+02  0.40659121284E+02  0.00000000000E+00 0. -1.
         11    1    3    3    0    0 -0.18467008934E+02 -0.99930680545E+01  0.11882562831E+02  0.24126481878E+02  0.51100000000E-03 0. -1.
        -11    1    3    3    0    0 -0.81906383500E+01  0.28538385947E+01  0.17715604870E+02  0.19724948859E+02  0.51100000000E-03 0.  1.
         12    1    3    3    0    0 -0.43316865999E+01 -0.16772300679E+01 -0.47970513877E+01  0.66774479794E+01  0.00000000000E+00 0. -1.
</event>
<event>
 7    1  0.2450552E-011  0.5052887E+02  0.7816164E-02  0.1300439E+00
        -11   -1    0    0    0    0  0.00000000000E+00  0.00000000000E+00  0.45593999997E+02  0.45594000000E+02  0.51100000000E-03 0. -1.
         11   -1    0    0    0    0 -0.00000000000E+00 -0.00000000000E+00 -0.45593999997E+02  0.45594000000E+02  0.51100000000E-03 0.  1.
    9900012    2    1    2    0    0  0.10692324775E+02  0.33639345566E+02 -0.20180026322E+02  0.50528870133E+02  0.30000031257E+02 0.  0.
         12    1    1    2    0    0 -0.10692324775E+02 -0.33639345566E+02  0.20180026322E+02  0.40659129867E+02  0.00000000000E+00 0. -1.
         11    1    3    3    0    0  0.43302087200E+01  0.14594925623E+02 -0.88219574249E+01  0.17595155429E+02  0.51100000000E-03 0.  1.
        -11    1    3    3    0    0  0.14498944002E+02  0.65015560833E+01 -0.47262565776E+01  0.16577910308E+02  0.51100000000E-03 0. -1.
        -12    1    3    3    0    0 -0.81368279470E+01  0.12542863859E+02 -0.66318123194E+01  0.16355804397E+02  0.00000000000E+00 0.  1.
</event>
<event>
 7    1  0.2450552E-011  0.5052884E+02  0.7816164E-02  0.1300439E+00
        -11   -1    0    0    0    0  0.00000000000E+00  0.00000000000E+00  0.45593999997E+02  0.45594000000E+02  0.51100000000E-03 0.  1.
         11   -1    0    0    0    0 -0.00000000000E+00 -0.00000000000E+00 -0.45593999997E+02  0.45594000000E+02  0.51100000000E-03 0. -1.
    9900012    2    1    2    0    0 -0.64540905117E+01  0.35372788404E+02  0.18980993196E+02  0.50528836869E+02  0.29999930147E+02 0.  0.
         12    1    1    2    0    0  0.64540905117E+01 -0.35372788404E+02 -0.18980993196E+02  0.40659163131E+02  0.00000000000E+00 0. -1.
         11    1    3    3    0    0 -0.72297838119E+01  0.54831609279E+01  0.47076806107E+01  0.10222381558E+02  0.51100000000E-03 0. -1.
        -11    1    3    3    0    0 -0.68052503700E+01  0.20973372962E+02  0.26340121105E+00  0.22051376067E+02  0.51100000000E-03 0.  1.
         12    1    3    3    0    0  0.75809436702E+01  0.89162545142E+01  0.14009911374E+02  0.18255079244E+02  0.00000000000E+00 0. -1.
</event>
<event>
 7    1  0.2450552E-011  0.5052886E+02  0.7816164E-02  0.1300439E+00
        -11   -1    0    0    0    0  0.00000000000E+00  0.00000000000E+00  0.45593999997E+02  0.45594000000E+02  0.51100000000E-03 0.  1.
         11   -1    0    0    0    0 -0.00000000000E+00 -0.00000000000E+00 -0.45593999997E+02  0.45594000000E+02  0.51100000000E-03 0. -1.
    9900012    2    1    2    0    0 -0.69277816183E+00  0.38757440862E+02 -0.12269747396E+02  0.50528857548E+02  0.29999993004E+02 0.  0.
         12    1    1    2    0    0  0.69277816183E+00 -0.38757440862E+02  0.12269747396E+02  0.40659142452E+02  0.00000000000E+00 0. -1.
         11    1    3    3    0    0  0.52452777031E+01  0.15014370904E+02  0.44223960231E+00  0.15910369196E+02  0.51100000000E-03 0.  1.
        -11    1    3    3    0    0 -0.83049025407E+01  0.33505836270E+01 -0.10756133475E+02  0.13996150344E+02  0.51100000000E-03 0. -1.
         12    1    3    3    0    0  0.23668466757E+01  0.20392486331E+02 -0.19558535232E+01  0.20622338009E+02  0.00000000000E+00 0. -1.
</event>
<event>
 7    1  0.2450552E-011  0.5052888E+02  0.7816164E-02  0.1300439E+00
        -11   -1    0    0    0    0  0.00000000000E+00  0.00000000000E+00  0.45593999997E+02  0.45594000000E+02  0.51100000000E-03 0. -1.
         11   -1    0    0    0    0 -0.00000000000E+00 -0.00000000000E+00 -0.45593999997E+02  0.45594000000E+02  0.51100000000E-03 0.  1.
    9900012    2    1    2    0    0  0.99400304148E+01 -0.38700210399E+02 -0.75268697674E+01  0.50528877308E+02  0.30000053067E+02 0.  0.
         12    1    1    2    0    0 -0.99400304148E+01  0.38700210399E+02  0.75268697674E+01  0.40659122692E+02  0.00000000000E+00 0. -1.
         11    1    3    3    0    0 -0.41954412773E+01 -0.48312226586E+00 -0.44882499848E+01  0.61627528607E+01  0.51100000000E-03 0. -1.
        -11    1    3    3    0    0  0.72776623570E+01 -0.10186628004E+02 -0.83170957578E+01  0.15030164390E+02  0.51100000000E-03 0.  1.
        -12    1    3    3    0    0  0.68578093352E+01 -0.28030460128E+02  0.52784759752E+01  0.29335960058E+02  0.00000000000E+00 0.  1.
</event>
<event>
 7    1  0.2450552E-011  0.5052885E+02  0.7816164E-02  0.1300439E+00
        -11   -1    0    0    0    0  0.00000000000E+00  0.00000000000E+00  0.45593999997E+02  0.45594000000E+02  0.51100000000E-03 0.  1.
         11   -1    0    0    0    0 -0.00000000000E+00 -0.00000000000E+00 -0.45593999997E+02  0.45594000000E+02  0.51100000000E-03 0. -1.
    9900012    2    1    2    0    0  0.14006106851E+02  0.20383062368E+02  0.32272682659E+02  0.50528852116E+02  0.29999976491E+02 0.  0.
         12    1    1    2    0    0 -0.14006106851E+02 -0.20383062368E+02 -0.32272682659E+02  0.40659147884E+02  0.00000000000E+00 0. -1.
         11    1    3    3    0    0  0.90479535770E+01  0.14415939367E+02  0.29400087786E+02  0.33971310453E+02  0.51100000000E-03 0. -1.
        -11    1    3    3    0    0  0.73631916295E+01  0.75668437379E+01  0.61262346393E+01  0.12206738559E+02  0.51100000000E-03 0.  1.
         12    1    3    3    0    0 -0.24050383553E+01 -0.15997207365E+01 -0.32536397662E+01  0.43508031045E+01  0.00000000000E+00 0. -1.
</event>
<event>
 7    1  0.2450552E-011  0.5052892E+02  0.7816164E-02  0.1300439E+00
        -11   -1    0    0    0    0  0.00000000000E+00  0.00000000000E+00  0.45593999997E+02  0.45594000000E+02  0.51100000000E-03 0. -1.
         11   -1    0    0    0    0 -0.00000000000E+00 -0.00000000000E+00 -0.45593999997E+02  0.45594000000E+02  0.51100000000E-03 0.  1.
    9900012    2    1    2    0    0 -0.63737661626E+01 -0.39421695605E+02 -0.76462803818E+01  0.50528922500E+02  0.30000190429E+02 0.  0.
         12    1    1    2    0    0  0.63737661626E+01  0.39421695605E+02  0.76462803818E+01  0.40659077500E+02  0.00000000000E+00 0. -1.
         11    1    3    3    0    0  0.63690077764E+01 -0.42600061246E+01 -0.42115883445E+01  0.87435341186E+01  0.51100000000E-03 0. -1.
        -11    1    3    3    0    0 -0.12489250059E+02 -0.90824740224E+01 -0.28184921316E+01  0.15697662232E+02  0.51100000000E-03 0.  1.
         12    1    3    3    0    0 -0.25352387997E+00 -0.26079215458E+02 -0.61619990564E+00  0.26087726149E+02  0.00000000000E+00 0. -1.
</event>
<event>
 7    1  0.2450552E-011  0.5052886E+02  0.7816164E-02  0.1300439E+00
        -11   -1    0    0    0    0  0.00000000000E+00  0.00000000000E+00  0.45593999997E+02  0.45594000000E+02  0.51100000000E-03 0.  1.
         11   -1    0    0    0    0 -0.00000000000E+00 -0.00000000000E+00 -0.45593999997E+02  0.45594000000E+02  0.51100000000E-03 0. -1.
    9900012    2    1    2    0    0  0.25996546734E+02 -0.14430599457E+01  0.31229194806E+02  0.50528862375E+02  0.30000007676E+02 0.  0.
         12    1    1    2    0    0 -0.25996546734E+02  0.14430599457E+01 -0.31229194806E+02  0.40659137625E+02  0.00000000000E+00 0. -1.
         11    1    3    3    0    0  0.19460145920E+02  0.11526693896E+02  0.21072818644E+02  0.30913195197E+02  0.51100000000E-03 0.  1.
        -11    1    3    3    0    0 -0.43685804239E+00 -0.10771271535E+01 -0.12613474659E+01  0.17152392092E+01  0.51100000000E-03 0. -1.
        -12    1    3    3    0    0  0.69732588563E+01 -0.11892626688E+02  0.11417723628E+02  0.17900427969E+02  0.00000000000E+00 0.  1.
</event>
<event>
 7    1  0.2450552E-011  0.5052887E+02  0.7816164E-02  0.1300439E+00
        -11   -1    0    0    0    0  0.00000000000E+00  0.00000000000E+00  0.45593999997E+02  0.45594000000E+02  0.51100000000E-03 0.  1.
         11   -1    0    0    0    0 -0.00000000000E+00 -0.00000000000E+00 -0.45593999997E+02  0.45594000000E+02  0.51100000000E-03 0. -1.
    9900012    2    1    2    0    0  0.34324031131E+02 -0.39969348980E+01  0.21425463638E+02  0.50528867032E+02  0.30000021829E+02 0.  0.
         12    1    1    2    0    0 -0.34324031131E+02  0.39969348980E+01 -0.21425463638E+02  0.40659132968E+02  0.00000000000E+00 0. -1.
         11    1    3    3    0    0  0.89434414198E+01  0.90687779755E+01  0.16010753160E+02  0.20459034567E+02  0.51100000000E-03 0. -1.
        -11    1    3    3    0    0  0.45260731436E+01 -0.42886565880E+01  0.39820000588E+01  0.73982591304E+01  0.51100000000E-03 0.  1.
        -12    1    3    3    0    0  0.20854516567E+02 -0.87770562855E+01  0.14327104188E+01  0.22671573334E+02  0.00000000000E+00 0.  1.
</event>
<event>
 7    1  0.2450552E-011  0.5052886E+02  0.7816164E-02  0.1300439E+00
        -11   -1    0    0    0    0  0.00000000000E+00  0.00000000000E+00  0.45593999997E+02  0.45594000000E+02  0.51100000000E-03 0.  1.
         11   -1    0    0    0    0 -0.00000000000E+00 -0.00000000000E+00 -0.45593999997E+02  0.45594000000E+02  0.51100000000E-03 0. -1.
    9900012    2    1    2    0    0 -0.17731869391E+02  0.34994551681E+02  0.10683059485E+02  0.50528860813E+02  0.30000002927E+02 0.  0.
         12    1    1    2    0    0  0.17731869391E+02 -0.34994551681E+02 -0.10683059485E+02  0.40659139187E+02  0.00000000000E+00 0. -1.
         11    1    3    3    0    0 -0.95820517030E+01  0.13224494519E+01  0.26450607366E+01  0.10028007477E+02  0.51100000000E-03 0. -1.
        -11    1    3    3    0    0 -0.19647461641E+01 -0.22351331512E+01 -0.64383288847E+00  0.30447608678E+01  0.51100000000E-03 0.  1.
        -12    1    3    3    0    0 -0.61850715237E+01  0.35907235381E+02  0.86818316372E+01  0.37456092468E+02  0.00000000000E+00 0.  1.
</event>
<event>
 7    1  0.2450552E-011  0.5052883E+02  0.7816164E-02  0.1300439E+00
        -11   -1    0    0    0    0  0.00000000000E+00  0.00000000000E+00  0.45593999997E+02  0.45594000000E+02  0.51100000000E-03 0. -1.
         11   -1    0    0    0    0 -0.00000000000E+00 -0.00000000000E+00 -0.45593999997E+02  0.45594000000E+02  0.51100000000E-03 0.  1.
    9900012    2    1    2    0    0 -0.26180632716E+01  0.40572990760E+02 -0.38272809075E+00  0.50528827415E+02  0.29999901410E+02 0.  0.
         12    1    1    2    0    0  0.26180632716E+01 -0.40572990760E+02  0.38272809075E+00  0.40659172585E+02  0.00000000000E+00 0. -1.
         11    1    3    3    0    0  0.67289801634E+01  0.19363594456E+02 -0.15296895734E+01  0.20556456766E+02  0.51100000000E-03 0.  1.
        -11    1    3    3    0    0 -0.67344440391E-01 -0.34825899030E+01 -0.60798187882E+00  0.35359029868E+01  0.51100000000E-03 0. -1.
        -12    1    3    3    0    0 -0.92796989947E+01  0.24691986207E+02  0.17549433615E+01  0.26436467662E+02  0.00000000000E+00 0.  1.
</event>
<event>
 7    1  0.2450552E-011  0.5052885E+02  0.7816164E-02  0.1300439E+00
        -11   -1    0    0    0    0  0.00000000000E+00  0.00000000000E+00  0.45593999997E+02  0.45594000000E+02  0.51100000000E-03 0.  1.
         11   -1    0    0    0    0 -0.00000000000E+00 -0.00000000000E+00 -0.45593999997E+02  0.45594000000E+02  0.51100000000E-03 0. -1.
    9900012    2    1    2    0    0 -0.13700177031E+02 -0.22123873176E+02  0.31241095335E+02  0.50528847861E+02  0.29999963557E+02 0.  0.
         12    1    1    2    0    0  0.13700177031E+02  0.22123873176E+02 -0.31241095335E+02  0.40659152139E+02  0.00000000000E+00 0. -1.
         11    1    3    3    0    0 -0.19548068466E+02 -0.15443871420E+02  0.13874854896E+02  0.28515815679E+02  0.51100000000E-03 0. -1.
        -11    1    3    3    0    0  0.26590333166E+01  0.25634313532E+01  0.39016845293E+01  0.53725953606E+01  0.51100000000E-03 0.  1.
        -12    1    3    3    0    0  0.31888581193E+01 -0.92434331092E+01  0.13464555909E+02  0.16640436821E+02  0.00000000000E+00 0.  1.
</event>
<event>
 7    1  0.2450552E-011  0.5052887E+02  0.7816164E-02  0.1300439E+00
        -11   -1    0    0    0    0  0.00000000000E+00  0.00000000000E+00  0.45593999997E+02  0.45594000000E+02  0.51100000000E-03 0.  1.
         11   -1    0    0    0    0 -0.00000000000E+00 -0.00000000000E+00 -0.45593999997E+02  0.45594000000E+02  0.51100000000E-03 0. -1.
    9900012    2    1    2    0    0  0.32835063307E+02 -0.91217186527E+01  0.22176960721E+02  0.50528871623E+02  0.30000035785E+02 0.  0.
         12    1    1    2    0    0 -0.32835063307E+02  0.91217186527E+01 -0.22176960721E+02  0.40659128377E+02  0.00000000000E+00 0. -1.
         11    1    3    3    0    0 -0.74610062125E+00  0.30409833162E+01  0.19204612991E+01  0.36732026256E+01  0.51100000000E-03 0. -1.
        -11    1    3    3    0    0  0.24194154860E+02 -0.90092984663E+01  0.24944781988E+02  0.35899397445E+02  0.51100000000E-03 0.  1.
         12    1    3    3    0    0  0.93870090684E+01 -0.31534035026E+01 -0.46882825662E+01  0.10956271552E+02  0.00000000000E+00 0. -1.
</event>
<event>
 7    1  0.2450552E-011  0.5052886E+02  0.7816164E-02  0.1300439E+00
        -11   -1    0    0    0    0  0.00000000000E+00  0.00000000000E+00  0.45593999997E+02  0.45594000000E+02  0.51100000000E-03 0. -1.
         11   -1    0    0    0    0 -0.00000000000E+00 -0.00000000000E+00 -0.45593999997E+02  0.45594000000E+02  0.51100000000E-03 0.  1.
    9900012    2    1    2    0    0  0.36160347030E+02  0.15978680704E+02 -0.95013986231E+01  0.50528861911E+02  0.30000006264E+02 0.  0.
         12    1    1    2    0    0 -0.36160347030E+02 -0.15978680704E+02  0.95013986231E+01  0.40659138089E+02  0.00000000000E+00 0. -1.
         11    1    3    3    0    0  0.12853575358E+02  0.62973102003E+01 -0.37152069411E+00  0.14318119399E+02  0.51100000000E-03 0. -1.
        -11    1    3    3    0    0  0.11779539994E+02 -0.26395821077E+01  0.60605636876E+01  0.13507604845E+02  0.51100000000E-03 0.  1.
        -12    1    3    3    0    0  0.11527231678E+02  0.12320952612E+02 -0.15190441617E+02  0.22703137667E+02  0.00000000000E+00 0.  1.
</event>
<event>
 7    1  0.2450552E-011  0.5052885E+02  0.7816164E-02  0.1300439E+00
        -11   -1    0    0    0    0  0.00000000000E+00  0.00000000000E+00  0.45593999997E+02  0.45594000000E+02  0.51100000000E-03 0. -1.
         11   -1    0    0    0    0 -0.00000000000E+00 -0.00000000000E+00 -0.45593999997E+02  0.45594000000E+02  0.51100000000E-03 0.  1.
    9900012    2    1    2    0    0 -0.29347303225E+02  0.32159558942E+01 -0.27956392524E+02  0.50528850207E+02  0.29999970690E+02 0.  0.
         12    1    1    2    0    0  0.29347303225E+02 -0.32159558942E+01  0.27956392524E+02  0.40659149793E+02  0.00000000000E+00 0. -1.
         11    1    3    3    0    0  0.52129310831E+00 -0.21212972187E+01 -0.32619928847E+01  0.39258433789E+01  0.51100000000E-03 0. -1.
        -11    1    3    3    0    0 -0.13249257483E+02  0.13773625030E+02 -0.55884665485E+01  0.19911969489E+02  0.51100000000E-03 0.  1.
        -12    1    3    3    0    0 -0.16619338851E+02 -0.84363719175E+01 -0.19105933091E+02  0.26691037339E+02  0.00000000000E+00 0.  1.
</event>
<event>
 7    1  0.2450552E-011  0.5052886E+02  0.7816164E-02  0.1300439E+00
        -11   -1    0    0    0    0  0.00000000000E+00  0.00000000000E+00  0.45593999997E+02  0.45594000000E+02  0.51100000000E-03 0.  1.
         11   -1    0    0    0    0 -0.00000000000E+00 -0.00000000000E+00 -0.45593999997E+02  0.45594000000E+02  0.51100000000E-03 0. -1.
    9900012    2    1    2    0    0 -0.22008492660E+02 -0.83316150762E+01  0.33156845549E+02  0.50528856308E+02  0.29999989235E+02 0.  0.
         12    1    1    2    0    0  0.22008492660E+02  0.83316150762E+01 -0.33156845549E+02  0.40659143692E+02  0.00000000000E+00 0. -1.
         11    1    3    3    0    0  0.42623035345E+01 -0.44154731277E+01 -0.29877928176E+00  0.61443391575E+01  0.51100000000E-03 0. -1.
        -11    1    3    3    0    0 -0.11897146232E+02 -0.37602014196E+01  0.24372684403E+02  0.27380813510E+02  0.51100000000E-03 0.  1.
        -12    1    3    3    0    0 -0.14373649963E+02 -0.15594052896E+00  0.90829404278E+01  0.17003703641E+02  0.00000000000E+00 0.  1.
</event>
<event>
 7    1  0.2450552E-011  0.5052886E+02  0.7816164E-02  0.1300439E+00
        -11   -1    0    0    0    0  0.00000000000E+00  0.00000000000E+00  0.45593999997E+02  0.45594000000E+02  0.51100000000E-03 0. -1.
         11   -1    0    0    0    0 -0.00000000000E+00 -0.00000000000E+00 -0.45593999997E+02  0.45594000000E+02  0.51100000000E-03 0.  1.
    9900012    2    1    2    0    0 -0.15865153933E+02  0.17871828271E+02 -0.32894679725E+02  0.50528864381E+02  0.30000013773E+02 0.  0.
         12    1    1    2    0    0  0.15865153933E+02 -0.17871828271E+02  0.32894679725E+02  0.40659135619E+02  0.00000000000E+00 0. -1.
         11    1    3    3    0    0  0.18924449684E+01  0.26119727348E+01  0.14572875291E-01  0.32255173470E+01  0.51100000000E-03 0. -1.
        -11    1    3    3    0    0 -0.13168004336E+02  0.97344340532E+01 -0.31323591321E+01  0.16672348921E+02  0.51100000000E-03 0.  1.
        -12    1    3    3    0    0 -0.45895945652E+01  0.55254214827E+01 -0.29776893468E+02  0.30630998114E+02  0.00000000000E+00 0.  1.
</event>
<event>
 7    1  0.2450552E-011  0.5052886E+02  0.7816164E-02  0.1300439E+00
        -11   -1    0    0    0    0  0.00000000000E+00  0.00000000000E+00  0.45593999997E+02  0.45594000000E+02  0.51100000000E-03 0. -1.
         11   -1    0    0    0    0 -0.00000000000E+00 -0.00000000000E+00 -0.45593999997E+02  0.45594000000E+02  0.51100000000E-03 0.  1.
    9900012    2    1    2    0    0 -0.13508330580E+02 -0.28845685740E+02 -0.25270874144E+02  0.50528860057E+02  0.30000000630E+02 0.  0.
         12    1    1    2    0    0  0.13508330580E+02  0.28845685740E+02  0.25270874144E+02  0.40659139943E+02  0.00000000000E+00 0. -1.
         11    1    3    3    0    0 -0.49669210132E+01 -0.42902111004E+01  0.21118055323E-01  0.65632813341E+01  0.51100000000E-03 0. -1.
        -11    1    3    3    0    0 -0.81510924025E+01 -0.12207764711E+00 -0.15745234176E+02  0.17730414823E+02  0.51100000000E-03 0.  1.
         12    1    3    3    0    0 -0.39031716455E+00 -0.24433396992E+02 -0.95467580241E+01  0.26235163900E+02  0.00000000000E+00 0. -1.
</event>
<event>
 7    1  0.2450552E-011  0.5052886E+02  0.7816164E-02  0.1300439E+00
        -11   -1    0    0    0    0  0.00000000000E+00  0.00000000000E+00  0.45593999997E+02  0.45594000000E+02  0.51100000000E-03 0.  1.
         11   -1    0    0    0    0 -0.00000000000E+00 -0.00000000000E+00 -0.45593999997E+02  0.45594000000E+02  0.51100000000E-03 0. -1.
    9900012    2    1    2    0    0  0.21444751801E+02  0.13452336719E+02  0.31817018093E+02  0.50528863471E+02  0.30000011006E+02 0.  0.
         12    1    1    2    0    0 -0.21444751801E+02 -0.13452336719E+02 -0.31817018093E+02  0.40659136529E+02  0.00000000000E+00 0. -1.
         11    1    3    3    0    0 -0.26556523159E+00  0.40643107272E+01  0.56406701554E-01  0.40733682078E+01  0.51100000000E-03 0. -1.
        -11    1    3    3    0    0  0.32453375480E+01 -0.72165915438E+01  0.30118802838E+01  0.84665714676E+01  0.51100000000E-03 0.  1.
        -12    1    3    3    0    0  0.18464979484E+02  0.16604617536E+02  0.28748731107E+02  0.37988923795E+02  0.00000000000E+00 0.  1.
</event>
<event>
 7    1  0.2450552E-011  0.5052886E+02  0.7816164E-02  0.1300439E+00
        -11   -1    0    0    0    0  0.00000000000E+00  0.00000000000E+00  0.45593999997E+02  0.45594000000E+02  0.51100000000E-03 0. -1.
         11   -1    0    0    0    0 -0.00000000000E+00 -0.00000000000E+00 -0.45593999997E+02  0.45594000000E+02  0.51100000000E-03 0.  1.
    9900012    2    1    2    0    0 -0.17852217935E+02 -0.33577050898E+02  0.14389079634E+02  0.50528860254E+02  0.30000001227E+02 0.  0.
         12    1    1    2    0    0  0.17852217935E+02  0.33577050898E+02 -0.14389079634E+02  0.40659139746E+02  0.00000000000E+00 0. -1.
         11    1    3    3    0    0 -0.11138138786E+02 -0.20657496469E+02  0.15714530799E+02  0.28244234358E+02  0.51100000000E-03 0.  1.
        -11    1    3    3    0    0 -0.74610818633E+01 -0.16745624623E+02 -0.78877065428E+00  0.18349546207E+02  0.51100000000E-03 0. -1.
         12    1    3    3    0    0  0.74700271409E+00  0.38260701942E+01 -0.53668051075E+00  0.39350796887E+01  0.00000000000E+00 0. -1.
</event>
<event>
 7    1  0.2450552E-011  0.5052887E+02  0.7816164E-02  0.1300439E+00
        -11   -1    0    0    0    0  0.00000000000E+00  0.00000000000E+00  0.45593999997E+02  0.45594000000E+02  0.51100000000E-03 0.  1.
         11   -1    0    0    0    0 -0.00000000000E+00 -0.00000000000E+00 -0.45593999997E+02  0.45594000000E+02  0.51100000000E-03 0. -1.
    9900012    2    1    2    0    0  0.45865829997E+01  0.21516625104E+02  0.34193027940E+02  0.50528867457E+02  0.30000023122E+02 0.  0.
         12    1    1    2    0    0 -0.45865829997E+01 -0.21516625104E+02 -0.34193027940E+02  0.40659132543E+02  0.00000000000E+00 0. -1.
         11    1    3    3    0    0 -0.20069695339E+00  0.37802230654E+01  0.87289490392E+01  0.95144583283E+01  0.51100000000E-03 0. -1.
        -11    1    3    3    0    0 -0.38309757544E+01 -0.43706574487E+01 -0.50983644365E+00  0.58342913215E+01  0.51100000000E-03 0.  1.
         12    1    3    3    0    0  0.86182557074E+01  0.22107059487E+02  0.25973915344E+02  0.35180117807E+02  0.00000000000E+00 0. -1.
</event>
<event>
 7    1  0.2450552E-011  0.5052886E+02  0.7816164E-02  0.1300439E+00
        -11   -1    0    0    0    0  0.00000000000E+00  0.00000000000E+00  0.45593999997E+02  0.45594000000E+02  0.51100000000E-03 0.  1.
         11   -1    0    0    0    0 -0.00000000000E+00 -0.00000000000E+00 -0.45593999997E+02  0.45594000000E+02  0.51100000000E-03 0. -1.
    9900012    2    1    2    0    0  0.21611298849E+01 -0.54153643373E+01  0.40238899994E+02  0.50528859256E+02  0.29999998195E+02 0.  0.
         12    1    1    2    0    0 -0.21611298849E+01  0.54153643373E+01 -0.40238899994E+02  0.40659140744E+02  0.00000000000E+00 0. -1.
         11    1    3    3    0    0  0.42506686264E+01 -0.74661001462E+01  0.15299478633E+02  0.17546648736E+02  0.51100000000E-03 0. -1.
        -11    1    3    3    0    0 -0.93065833043E+01 -0.37117844398E+01  0.54276494927E+01  0.11395140008E+02  0.51100000000E-03 0.  1.
         12    1    3    3    0    0  0.72170445628E+01  0.57625202488E+01  0.19511771869E+02  0.21587070512E+02  0.00000000000E+00 0. -1.
</event>
<event>
 7    1  0.2450552E-011  0.5052886E+02  0.7816164E-02  0.1300439E+00
        -11   -1    0    0    0    0  0.00000000000E+00  0.00000000000E+00  0.45593999997E+02  0.45594000000E+02  0.51100000000E-03 0.  1.
         11   -1    0    0    0    0 -0.00000000000E+00 -0.00000000000E+00 -0.45593999997E+02  0.45594000000E+02  0.51100000000E-03 0. -1.
    9900012    2    1    2    0    0 -0.17952132492E+02  0.31755784462E+02  0.17957073030E+02  0.50528863516E+02  0.30000011144E+02 0.  0.
         12    1    1    2    0    0  0.17952132492E+02 -0.31755784462E+02 -0.17957073030E+02  0.40659136484E+02  0.00000000000E+00 0. -1.
         11    1    3    3    0    0 -0.80855679470E+01 -0.21020892298E+01  0.76980296929E+01  0.11360231053E+02  0.51100000000E-03 0. -1.
        -11    1    3    3    0    0  0.30024927884E+01  0.25435642232E+01  0.13543257095E+01  0.41615958826E+01  0.51100000000E-03 0.  1.
        -12    1    3    3    0    0 -0.12869057333E+02  0.31314309469E+02  0.89047176274E+01  0.35007036581E+02  0.00000000000E+00 0.  1.
</event>
<event>
 7    1  0.2450552E-011  0.5052887E+02  0.7816164E-02  0.1300439E+00
        -11   -1    0    0    0    0  0.00000000000E+00  0.00000000000E+00  0.45593999997E+02  0.45594000000E+02  0.51100000000E-03 0. -1.
         11   -1    0    0    0    0 -0.00000000000E+00 -0.00000000000E+00 -0.45593999997E+02  0.45594000000E+02  0.51100000000E-03 0.  1.
    9900012    2    1    2    0    0 -0.33579655839E+02 -0.10084695978E+02  0.20588110465E+02  0.50528872221E+02  0.30000037602E+02 0.  0.
         12    1    1    2    0    0  0.33579655839E+02  0.10084695978E+02 -0.20588110465E+02  0.40659127779E+02  0.00000000000E+00 0. -1.
         11    1    3    3    0    0 -0.28660366883E+02 -0.27656980137E+01  0.12130139973E+02  0.31244295662E+02  0.51100000000E-03 0. -1.
        -11    1    3    3    0    0 -0.23184395017E+01 -0.20510654138E+01  0.12021278601E+02  0.12413427025E+02  0.51100000000E-03 0.  1.
        -12    1    3    3    0    0 -0.26008494544E+01 -0.52679325505E+01 -0.35633081087E+01  0.68711495340E+01  0.00000000000E+00 0.  1.
</event>
<event>
 7    1  0.2887281E-011  0.5052886E+02  0.7816164E-02  0.1300439E+00
        -11   -1    0    0    0    0  0.00000000000E+00  0.00000000000E+00  0.45593999997E+02  0.45594000000E+02  0.51100000000E-03 0.  1.
         11   -1    0    0    0    0 -0.00000000000E+00 -0.00000000000E+00 -0.45593999997E+02  0.45594000000E+02  0.51100000000E-03 0. -1.
    9900012    2    1    2    0    0 -0.12874210830E+02  0.30915760353E+02  0.23057230395E+02  0.50528863067E+02  0.30000009777E+02 0.  0.
         12    1    1    2    0    0  0.12874210830E+02 -0.30915760353E+02 -0.23057230395E+02  0.40659136933E+02  0.00000000000E+00 0. -1.
         11    1    3    3    0    0  0.97131653139E+00 -0.16932193918E+01  0.44890863142E+01  0.48951347183E+01  0.51100000000E-03 0. -1.
        -11    1    3    3    0    0 -0.29326982571E+01  0.37328727625E+01 -0.49257517410E+01  0.68409128487E+01  0.51100000000E-03 0.  1.
        -12    1    3    3    0    0 -0.10912829104E+02  0.28876106982E+02  0.23493895822E+02  0.38792815500E+02  0.00000000000E+00 0.  1.
</event>
<event>
 7    1  0.2450552E-011  0.5052886E+02  0.7816164E-02  0.1300439E+00
        -11   -1    0    0    0    0  0.00000000000E+00  0.00000000000E+00  0.45593999997E+02  0.45594000000E+02  0.51100000000E-03 0.  1.
         11   -1    0    0    0    0 -0.00000000000E+00 -0.00000000000E+00 -0.45593999997E+02  0.45594000000E+02  0.51100000000E-03 0. -1.
    9900012    2    1    2    0    0 -0.14769357437E+02  0.15020582046E+02  0.34776628257E+02  0.50528859859E+02  0.30000000027E+02 0.  0.
         12    1    1    2    0    0  0.14769357437E+02 -0.15020582046E+02 -0.34776628257E+02  0.40659140141E+02  0.00000000000E+00 0. -1.
         11    1    3    3    0    0 -0.72990446811E+01  0.79206707148E+00  0.11583183219E+02  0.13713991295E+02  0.51100000000E-03 0. -1.
        -11    1    3    3    0    0 -0.48095686015E+01  0.12612137359E+02  0.28002547794E+02  0.31086020043E+02  0.51100000000E-03 0.  1.
         12    1    3    3    0    0 -0.26607441547E+01  0.16163776157E+01 -0.48091027561E+01  0.57288485206E+01  0.00000000000E+00 0. -1.
</event>
<event>
 7    1  0.2450552E-011  0.5052885E+02  0.7816164E-02  0.1300439E+00
        -11   -1    0    0    0    0  0.00000000000E+00  0.00000000000E+00  0.45593999997E+02  0.45594000000E+02  0.51100000000E-03 0. -1.
         11   -1    0    0    0    0 -0.00000000000E+00 -0.00000000000E+00 -0.45593999997E+02  0.45594000000E+02  0.51100000000E-03 0.  1.
    9900012    2    1    2    0    0 -0.15737241086E+02 -0.35787576681E+02 -0.11169364736E+02  0.50528854530E+02  0.29999983831E+02 0.  0.
         12    1    1    2    0    0  0.15737241086E+02  0.35787576681E+02  0.11169364736E+02  0.40659145470E+02  0.00000000000E+00 0. -1.
         11    1    3    3    0    0  0.41719719201E+00 -0.26705796127E+02 -0.58802314835E+01  0.27348687772E+02  0.51100000000E-03 0. -1.
        -11    1    3    3    0    0 -0.94058083090E+01 -0.10919023795E+02 -0.63299440679E-03  0.14411603354E+02  0.51100000000E-03 0.  1.
         12    1    3    3    0    0 -0.67486299694E+01  0.18372432414E+01 -0.52885002582E+01  0.87685634042E+01  0.00000000000E+00 0. -1.
</event>
<event>
 7    1  0.2450552E-011  0.5052886E+02  0.7816164E-02  0.1300439E+00
        -11   -1    0    0    0    0  0.00000000000E+00  0.00000000000E+00  0.45593999997E+02  0.45594000000E+02  0.51100000000E-03 0.  1.
         11   -1    0    0    0    0 -0.00000000000E+00 -0.00000000000E+00 -0.45593999997E+02  0.45594000000E+02  0.51100000000E-03 0. -1.
    9900012    2    1    2    0    0  0.16994200315E+02 -0.21067105403E+02  0.30340403471E+02  0.50528857643E+02  0.29999993291E+02 0.  0.
         12    1    1    2    0    0 -0.16994200315E+02  0.21067105403E+02 -0.30340403471E+02  0.40659142357E+02  0.00000000000E+00 0. -1.
         11    1    3    3    0    0  0.15331488169E+02 -0.80780056006E+01  0.36480602974E+01  0.17709236238E+02  0.51100000000E-03 0. -1.
        -11    1    3    3    0    0  0.42287050291E+01  0.13332398558E+01  0.78182735922E+01  0.89880407743E+01  0.51100000000E-03 0.  1.
        -12    1    3    3    0    0 -0.25659928821E+01 -0.14322339658E+02  0.18874069582E+02  0.23831580630E+02  0.00000000000E+00 0.  1.
</event>
<event>
 7    1  0.2450552E-011  0.5052887E+02  0.7816164E-02  0.1300439E+00
        -11   -1    0    0    0    0  0.00000000000E+00  0.00000000000E+00  0.45593999997E+02  0.45594000000E+02  0.51100000000E-03 0. -1.
         11   -1    0    0    0    0 -0.00000000000E+00 -0.00000000000E+00 -0.45593999997E+02  0.45594000000E+02  0.51100000000E-03 0.  1.
    9900012    2    1    2    0    0  0.23082893049E+02  0.30518418274E+02 -0.13746688219E+02  0.50528865203E+02  0.30000016270E+02 0.  0.
         12    1    1    2    0    0 -0.23082893049E+02 -0.30518418274E+02  0.13746688219E+02  0.40659134797E+02  0.00000000000E+00 0. -1.
         11    1    3    3    0    0  0.61952573398E+01  0.16165516061E+02 -0.65292609325E+01  0.18502334220E+02  0.51100000000E-03 0. -1.
        -11    1    3    3    0    0  0.17749383764E+02  0.67297089407E+01 -0.12485283034E+02  0.22720297074E+02  0.51100000000E-03 0.  1.
         12    1    3    3    0    0 -0.86174805448E+00  0.76231932728E+01  0.52678557474E+01  0.93062339085E+01  0.00000000000E+00 0. -1.
</event>
<event>
 7    1  0.2450552E-011  0.5052886E+02  0.7816164E-02  0.1300439E+00
        -11   -1    0    0    0    0  0.00000000000E+00  0.00000000000E+00  0.45593999997E+02  0.45594000000E+02  0.51100000000E-03 0.  1.
         11   -1    0    0    0    0 -0.00000000000E+00 -0.00000000000E+00 -0.45593999997E+02  0.45594000000E+02  0.51100000000E-03 0. -1.
    9900012    2    1    2    0    0  0.33272039602E+02  0.16735946078E+02  0.16310892023E+02  0.50528859466E+02  0.29999998832E+02 0.  0.
         12    1    1    2    0    0 -0.33272039602E+02 -0.16735946078E+02 -0.16310892023E+02  0.40659140534E+02  0.00000000000E+00 0. -1.
         11    1    3    3    0    0  0.29356570239E+01 -0.94926585474E+00 -0.49792752291E+01  0.58576761513E+01  0.51100000000E-03 0. -1.
        -11    1    3    3    0    0  0.19059697521E+02  0.11517143883E+01  0.12435352374E+02  0.22786761608E+02  0.51100000000E-03 0.  1.
        -12    1    3    3    0    0  0.11276685057E+02  0.16533497545E+02  0.88548148772E+01  0.21884421707E+02  0.00000000000E+00 0.  1.
</event>
<event>
 7    1  0.2450552E-011  0.5052879E+02  0.7816164E-02  0.1300439E+00
        -11   -1    0    0    0    0  0.00000000000E+00  0.00000000000E+00  0.45593999997E+02  0.45594000000E+02  0.51100000000E-03 0.  1.
         11   -1    0    0    0    0 -0.00000000000E+00 -0.00000000000E+00 -0.45593999997E+02  0.45594000000E+02  0.51100000000E-03 0. -1.
    9900012    2    1    2    0    0 -0.30211622945E+02 -0.20598519903E+02  0.17780048033E+02  0.50528790818E+02  0.29999790171E+02 0.  0.
         12    1    1    2    0    0  0.30211622945E+02  0.20598519903E+02 -0.17780048033E+02  0.40659209182E+02  0.00000000000E+00 0. -1.
         11    1    3    3    0    0 -0.16635370864E+02 -0.39709658060E+01  0.12554832017E+02  0.21216218807E+02  0.51100000000E-03 0. -1.
        -11    1    3    3    0    0 -0.48070606816E+01 -0.15425667717E+02  0.10250260286E+02  0.19134442587E+02  0.51100000000E-03 0.  1.
         12    1    3    3    0    0 -0.87691913999E+01 -0.12018863806E+01 -0.50250442697E+01  0.10178129425E+02  0.00000000000E+00 0. -1.
</event>
<event>
 7    1  0.2450552E-011  0.5052886E+02  0.7816164E-02  0.1300439E+00
        -11   -1    0    0    0    0  0.00000000000E+00  0.00000000000E+00  0.45593999997E+02  0.45594000000E+02  0.51100000000E-03 0.  1.
         11   -1    0    0    0    0 -0.00000000000E+00 -0.00000000000E+00 -0.45593999997E+02  0.45594000000E+02  0.51100000000E-03 0. -1.
    9900012    2    1    2    0    0  0.24702545515E+01  0.38910956472E+02 -0.11532600952E+02  0.50528861103E+02  0.30000003810E+02 0.  0.
         12    1    1    2    0    0 -0.24702545515E+01 -0.38910956472E+02  0.11532600952E+02  0.40659138897E+02  0.00000000000E+00 0. -1.
         11    1    3    3    0    0  0.17251198592E+01  0.22334906162E+02 -0.10004084929E+02  0.24533768307E+02  0.51100000000E-03 0. -1.
        -11    1    3    3    0    0  0.25715155867E+01  0.19249566056E+02  0.37723999665E+01  0.19783566097E+02  0.51100000000E-03 0.  1.
        -12    1    3    3    0    0 -0.18263808945E+01 -0.26735157459E+01 -0.53009159892E+01  0.62115266996E+01  0.00000000000E+00 0.  1.
</event>
<event>
 7    1  0.2450552E-011  0.5052887E+02  0.7816164E-02  0.1300439E+00
        -11   -1    0    0    0    0  0.00000000000E+00  0.00000000000E+00  0.45593999997E+02  0.45594000000E+02  0.51100000000E-03 0. -1.
         11   -1    0    0    0    0 -0.00000000000E+00 -0.00000000000E+00 -0.45593999997E+02  0.45594000000E+02  0.51100000000E-03 0.  1.
    9900012    2    1    2    0    0 -0.27352381229E+02 -0.29802791272E+02 -0.40994430439E+01  0.50528873598E+02  0.30000041788E+02 0.  0.
         12    1    1    2    0    0  0.27352381229E+02  0.29802791272E+02  0.40994430439E+01  0.40659126402E+02  0.00000000000E+00 0. -1.
         11    1    3    3    0    0 -0.12113194884E+02 -0.10329318325E+02  0.10762134755E+01  0.15955642985E+02  0.51100000000E-03 0. -1.
        -11    1    3    3    0    0 -0.16658540212E+02 -0.13528492437E+02 -0.12655602857E+02  0.24913678041E+02  0.51100000000E-03 0.  1.
        -12    1    3    3    0    0  0.14193538671E+01 -0.59449805103E+01  0.74799463376E+01  0.96595525715E+01  0.00000000000E+00 0.  1.
</event>
<event>
 7    1  0.2450552E-011  0.5052885E+02  0.7816164E-02  0.1300439E+00
        -11   -1    0    0    0    0  0.00000000000E+00  0.00000000000E+00  0.45593999997E+02  0.45594000000E+02  0.51100000000E-03 0. -1.
         11   -1    0    0    0    0 -0.00000000000E+00 -0.00000000000E+00 -0.45593999997E+02  0.45594000000E+02  0.51100000000E-03 0.  1.
    9900012    2    1    2    0    0  0.18709208129E+02  0.34124928405E+02 -0.11773751207E+02  0.50528850661E+02  0.29999972068E+02 0.  0.
         12    1    1    2    0    0 -0.18709208129E+02 -0.34124928405E+02  0.11773751207E+02  0.40659149339E+02  0.00000000000E+00 0. -1.
         11    1    3    3    0    0  0.13556523528E+02  0.22445533904E+02  0.47907085328E+00  0.26226147860E+02  0.51100000000E-03 0. -1.
        -11    1    3    3    0    0 -0.40305529921E+01  0.42552009041E+01  0.16234951872E+01  0.60817620013E+01  0.51100000000E-03 0.  1.
        -12    1    3    3    0    0  0.91832375934E+01  0.74241935970E+01 -0.13876317248E+02  0.18220940800E+02  0.00000000000E+00 0.  1.
</event>
<event>
 7    1  0.2450552E-011  0.5052884E+02  0.7816164E-02  0.1300439E+00
        -11   -1    0    0    0    0  0.00000000000E+00  0.00000000000E+00  0.45593999997E+02  0.45594000000E+02  0.51100000000E-03 0. -1.
         11   -1    0    0    0    0 -0.00000000000E+00 -0.00000000000E+00 -0.45593999997E+02  0.45594000000E+02  0.51100000000E-03 0.  1.
    9900012    2    1    2    0    0  0.42667648704E+01  0.33568991038E+02  0.22540739020E+02  0.50528839195E+02  0.29999937219E+02 0.  0.
         12    1    1    2    0    0 -0.42667648704E+01 -0.33568991038E+02 -0.22540739020E+02  0.40659160805E+02  0.00000000000E+00 0. -1.
         11    1    3    3    0    0  0.92878373167E+01  0.88493671769E+01  0.17037487201E+02  0.21327240606E+02  0.51100000000E-03 0. -1.
        -11    1    3    3    0    0  0.45814832301E+00  0.24343101911E+01 -0.37193926151E+01  0.44687411739E+01  0.51100000000E-03 0.  1.
         12    1    3    3    0    0 -0.54792207693E+01  0.22285313670E+02  0.92226444336E+01  0.24732857416E+02  0.00000000000E+00 0. -1.
</event>
<event>
 7    1  0.2450552E-011  0.5052888E+02  0.7816164E-02  0.1300439E+00
        -11   -1    0    0    0    0  0.00000000000E+00  0.00000000000E+00  0.45593999997E+02  0.45594000000E+02  0.51100000000E-03 0.  1.
         11   -1    0    0    0    0 -0.00000000000E+00 -0.00000000000E+00 -0.45593999997E+02  0.45594000000E+02  0.51100000000E-03 0. -1.
    9900012    2    1    2    0    0 -0.40401951405E+02 -0.26394601256E+00  0.45581890292E+01  0.50528875169E+02  0.30000046563E+02 0.  0.
         12    1    1    2    0    0  0.40401951405E+02  0.26394601256E+00 -0.45581890292E+01  0.40659124831E+02  0.00000000000E+00 0. -1.
         11    1    3    3    0    0 -0.12114337082E+01  0.24561064059E+01 -0.26433784350E+01  0.38062422569E+01  0.51100000000E-03 0. -1.
        -11    1    3    3    0    0 -0.19168102981E+02 -0.13213647758E+02  0.62103007464E+01  0.24095321010E+02  0.51100000000E-03 0.  1.
         12    1    3    3    0    0 -0.20022414716E+02  0.10493595339E+02  0.99126671779E+00  0.22627311902E+02  0.00000000000E+00 0. -1.
</event>
<event>
 7    1  0.2450552E-011  0.5052886E+02  0.7816164E-02  0.1300439E+00
        -11   -1    0    0    0    0  0.00000000000E+00  0.00000000000E+00  0.45593999997E+02  0.45594000000E+02  0.51100000000E-03 0. -1.
         11   -1    0    0    0    0 -0.00000000000E+00 -0.00000000000E+00 -0.45593999997E+02  0.45594000000E+02  0.51100000000E-03 0.  1.
    9900012    2    1    2    0    0 -0.56619770883E+01  0.40031031825E+02  0.43156028539E+01  0.50528856852E+02  0.29999990888E+02 0.  0.
         12    1    1    2    0    0  0.56619770883E+01 -0.40031031825E+02 -0.43156028539E+01  0.40659143148E+02  0.00000000000E+00 0. -1.
         11    1    3    3    0    0 -0.91851279316E+01  0.14310607471E+01  0.32688732346E+01  0.98539353796E+01  0.51100000000E-03 0. -1.
        -11    1    3    3    0    0 -0.35014646363E+01  0.23147871127E+02  0.29429699459E+01  0.23595450084E+02  0.51100000000E-03 0.  1.
        -12    1    3    3    0    0  0.70246154796E+01  0.15452099951E+02 -0.18962403266E+01  0.17079471389E+02  0.00000000000E+00 0.  1.
</event>
<event>
 7    1  0.2450552E-011  0.5052887E+02  0.7816164E-02  0.1300439E+00
        -11   -1    0    0    0    0  0.00000000000E+00  0.00000000000E+00  0.45593999997E+02  0.45594000000E+02  0.51100000000E-03 0.  1.
         11   -1    0    0    0    0 -0.00000000000E+00 -0.00000000000E+00 -0.45593999997E+02  0.45594000000E+02  0.51100000000E-03 0. -1.
    9900012    2    1    2    0    0  0.31050614612E+02 -0.22002009517E+02  0.14315577840E+02  0.50528869913E+02  0.30000030587E+02 0.  0.
         12    1    1    2    0    0 -0.31050614612E+02  0.22002009517E+02 -0.14315577840E+02  0.40659130087E+02  0.00000000000E+00 0. -1.
         11    1    3    3    0    0  0.33490914302E+01 -0.61555260763E+00  0.10122861333E+02  0.10680245327E+02  0.51100000000E-03 0. -1.
        -11    1    3    3    0    0  0.21449363991E+02 -0.51478156932E+01  0.41635078961E+01  0.22447940224E+02  0.51100000000E-03 0.  1.
         12    1    3    3    0    0  0.62521591905E+01 -0.16238641216E+02  0.29208610242E-01  0.17400684361E+02  0.00000000000E+00 0. -1.
</event>
<event>
 7    1  0.2450552E-011  0.5052886E+02  0.7816164E-02  0.1300439E+00
        -11   -1    0    0    0    0  0.00000000000E+00  0.00000000000E+00  0.45593999997E+02  0.45594000000E+02  0.51100000000E-03 0.  1.
         11   -1    0    0    0    0 -0.00000000000E+00 -0.00000000000E+00 -0.45593999997E+02  0.45594000000E+02  0.51100000000E-03 0. -1.
    9900012    2    1    2    0    0  0.30833363157E+02 -0.12984468066E+02  0.23105691193E+02  0.50528860068E+02  0.30000000662E+02 0.  0.
         12    1    1    2    0    0 -0.30833363157E+02  0.12984468066E+02 -0.23105691193E+02  0.40659139932E+02  0.00000000000E+00 0. -1.
         11    1    3    3    0    0  0.48871295897E+01  0.63371111319E+01  0.17240386115E+00  0.80045447389E+01  0.51100000000E-03 0. -1.
        -11    1    3    3    0    0  0.61324596220E+01  0.60274066991E+00  0.96356336235E+01  0.11437473188E+02  0.51100000000E-03 0.  1.
         12    1    3    3    0    0  0.19813773945E+02 -0.19924319868E+02  0.13297653709E+02  0.31086842141E+02  0.00000000000E+00 0. -1.
</event>
<event>
 7    1  0.2450552E-011  0.5052885E+02  0.7816164E-02  0.1300439E+00
        -11   -1    0    0    0    0  0.00000000000E+00  0.00000000000E+00  0.45593999997E+02  0.45594000000E+02  0.51100000000E-03 0.  1.
         11   -1    0    0    0    0 -0.00000000000E+00 -0.00000000000E+00 -0.45593999997E+02  0.45594000000E+02  0.51100000000E-03 0. -1.
    9900012    2    1    2    0    0 -0.31461179545E+02 -0.41356052882E+01  0.25421588743E+02  0.50528853136E+02  0.29999979594E+02 0.  0.
         12    1    1    2    0    0  0.31461179545E+02  0.41356052882E+01 -0.25421588743E+02  0.40659146864E+02  0.00000000000E+00 0. -1.
         11    1    3    3    0    0 -0.52246843792E+01  0.14288066687E+01  0.19696020099E+02  0.20427237291E+02  0.51100000000E-03 0. -1.
        -11    1    3    3    0    0 -0.67804769971E+01 -0.60592575707E+01  0.55210960719E+01  0.10638231653E+02  0.51100000000E-03 0.  1.
         12    1    3    3    0    0 -0.19456018168E+02  0.49484561382E+00  0.20447257214E+00  0.19463384191E+02  0.00000000000E+00 0. -1.
</event>
<event>
 7    1  0.2450552E-011  0.5052886E+02  0.7816164E-02  0.1300439E+00
        -11   -1    0    0    0    0  0.00000000000E+00  0.00000000000E+00  0.45593999997E+02  0.45594000000E+02  0.51100000000E-03 0.  1.
         11   -1    0    0    0    0 -0.00000000000E+00 -0.00000000000E+00 -0.45593999997E+02  0.45594000000E+02  0.51100000000E-03 0. -1.
    9900012    2    1    2    0    0  0.24545329086E+01  0.36720006803E+01  0.40418526577E+02  0.50528860665E+02  0.30000002478E+02 0.  0.
         12    1    1    2    0    0 -0.24545329086E+01 -0.36720006803E+01 -0.40418526577E+02  0.40659139335E+02  0.00000000000E+00 0. -1.
         11    1    3    3    0    0  0.47501420858E+01 -0.58525997365E+01  0.74748021856E+00  0.75746617383E+01  0.51100000000E-03 0. -1.
        -11    1    3    3    0    0 -0.54361390502E+01 -0.93077022012E+00  0.11964034507E+02  0.13174067820E+02  0.51100000000E-03 0.  1.
        -12    1    3    3    0    0  0.31405298729E+01  0.10455370637E+02  0.27707011852E+02  0.29780131107E+02  0.00000000000E+00 0.  1.
</event>
<event>
 7    1  0.2450552E-011  0.5052886E+02  0.7816164E-02  0.1300439E+00
        -11   -1    0    0    0    0  0.00000000000E+00  0.00000000000E+00  0.45593999997E+02  0.45594000000E+02  0.51100000000E-03 0.  1.
         11   -1    0    0    0    0 -0.00000000000E+00 -0.00000000000E+00 -0.45593999997E+02  0.45594000000E+02  0.51100000000E-03 0. -1.
    9900012    2    1    2    0    0 -0.10856935317E+01  0.16810448007E+02 -0.37005349207E+02  0.50528858807E+02  0.29999996830E+02 0.  0.
         12    1    1    2    0    0  0.10856935317E+01 -0.16810448007E+02  0.37005349207E+02  0.40659141193E+02  0.00000000000E+00 0. -1.
         11    1    3    3    0    0  0.88920266130E+00  0.13122573925E+01 -0.26391474198E+02  0.26439035751E+02  0.51100000000E-03 0. -1.
        -11    1    3    3    0    0 -0.81902543047E+01  0.95595814006E+01 -0.86447209509E+01  0.15270791162E+02  0.51100000000E-03 0.  1.
         12    1    3    3    0    0  0.62153581117E+01  0.59386092134E+01 -0.19691540578E+01  0.88190318941E+01  0.00000000000E+00 0. -1.
</event>
<event>
 7    1  0.2450552E-011  0.5052886E+02  0.7816164E-02  0.1300439E+00
        -11   -1    0    0    0    0  0.00000000000E+00  0.00000000000E+00  0.45593999997E+02  0.45594000000E+02  0.51100000000E-03 0.  1.
         11   -1    0    0    0    0 -0.00000000000E+00 -0.00000000000E+00 -0.45593999997E+02  0.45594000000E+02  0.51100000000E-03 0. -1.
    9900012    2    1    2    0    0 -0.25667461483E+02 -0.18055093011E+02  0.25852675587E+02  0.50528858376E+02  0.29999995520E+02 0.  0.
         12    1    1    2    0    0  0.25667461483E+02  0.18055093011E+02 -0.25852675587E+02  0.40659141624E+02  0.00000000000E+00 0. -1.
         11    1    3    3    0    0 -0.47538627414E+01 -0.10802619670E+02  0.22872144665E+02  0.25737731145E+02  0.51100000000E-03 0. -1.
        -11    1    3    3    0    0 -0.32635396100E+01  0.93540337740E-01  0.45599299280E+01  0.56082440915E+01  0.51100000000E-03 0.  1.
         12    1    3    3    0    0 -0.17650059131E+02 -0.73460136791E+01 -0.15793990061E+01  0.19182883139E+02  0.00000000000E+00 0. -1.
</event>
<event>
 7    1  0.2450552E-011  0.5052887E+02  0.7816164E-02  0.1300439E+00
        -11   -1    0    0    0    0  0.00000000000E+00  0.00000000000E+00  0.45593999997E+02  0.45594000000E+02  0.51100000000E-03 0. -1.
         11   -1    0    0    0    0 -0.00000000000E+00 -0.00000000000E+00 -0.45593999997E+02  0.45594000000E+02  0.51100000000E-03 0.  1.
    9900012    2    1    2    0    0  0.23609766027E+02 -0.89547840583E+01 -0.31867789755E+02  0.50528865316E+02  0.30000016613E+02 0.  0.
         12    1    1    2    0    0 -0.23609766027E+02  0.89547840583E+01  0.31867789755E+02  0.40659134684E+02  0.00000000000E+00 0. -1.
         11    1    3    3    0    0 -0.20997061299E+01  0.14628328955E+01 -0.77311133628E+01  0.81436330959E+01  0.51100000000E-03 0. -1.
        -11    1    3    3    0    0  0.18680375164E+02  0.30427306466E+01 -0.90473394433E+01  0.20977821082E+02  0.51100000000E-03 0.  1.
         12    1    3    3    0    0  0.70290969925E+01 -0.13460347600E+02 -0.15089336949E+02  0.21407411138E+02  0.00000000000E+00 0. -1.
</event>
<event>
 7    1  0.2450552E-011  0.5052886E+02  0.7816164E-02  0.1300439E+00
        -11   -1    0    0    0    0  0.00000000000E+00  0.00000000000E+00  0.45593999997E+02  0.45594000000E+02  0.51100000000E-03 0.  1.
         11   -1    0    0    0    0 -0.00000000000E+00 -0.00000000000E+00 -0.45593999997E+02  0.45594000000E+02  0.51100000000E-03 0. -1.
    9900012    2    1    2    0    0  0.13117248548E+01 -0.35783351635E+02  0.19261284854E+02  0.50528856249E+02  0.29999989054E+02 0.  0.
         12    1    1    2    0    0 -0.13117248548E+01  0.35783351635E+02 -0.19261284854E+02  0.40659143751E+02  0.00000000000E+00 0. -1.
         11    1    3    3    0    0 -0.22308764277E+01 -0.15080399592E+02  0.15420662142E+02  0.21683912992E+02  0.51100000000E-03 0. -1.
        -11    1    3    3    0    0  0.89436114120E+00 -0.15493655649E+02  0.11424302023E+02  0.19270908754E+02  0.51100000000E-03 0.  1.
         12    1    3    3    0    0  0.26482401413E+01 -0.52092963946E+01 -0.75836793110E+01  0.95740345030E+01  0.00000000000E+00 0. -1.
</event>
<event>
 7    1  0.2450552E-011  0.5052889E+02  0.7816164E-02  0.1300439E+00
        -11   -1    0    0    0    0  0.00000000000E+00  0.00000000000E+00  0.45593999997E+02  0.45594000000E+02  0.51100000000E-03 0. -1.
         11   -1    0    0    0    0 -0.00000000000E+00 -0.00000000000E+00 -0.45593999997E+02  0.45594000000E+02  0.51100000000E-03 0.  1.
    9900012    2    1    2    0    0  0.11603859152E+02 -0.36306849437E+02  0.14153660270E+02  0.50528893243E+02  0.30000101501E+02 0.  0.
         12    1    1    2    0    0 -0.11603859152E+02  0.36306849437E+02 -0.14153660270E+02  0.40659106757E+02  0.00000000000E+00 0. -1.
         11    1    3    3    0    0 -0.41242735775E+01 -0.23022430738E+01  0.24803199581E+01  0.53349735771E+01  0.51100000000E-03 0. -1.
        -11    1    3    3    0    0  0.57137844468E+01 -0.33093865862E+02  0.83880606364E+01  0.34615182391E+02  0.51100000000E-03 0.  1.
         12    1    3    3    0    0  0.10014348283E+02 -0.91074050056E+00  0.32852796750E+01  0.10578737275E+02  0.00000000000E+00 0. -1.
</event>
<event>
 7    1  0.2450552E-011  0.5052886E+02  0.7816164E-02  0.1300439E+00
        -11   -1    0    0    0    0  0.00000000000E+00  0.00000000000E+00  0.45593999997E+02  0.45594000000E+02  0.51100000000E-03 0. -1.
         11   -1    0    0    0    0 -0.00000000000E+00 -0.00000000000E+00 -0.45593999997E+02  0.45594000000E+02  0.51100000000E-03 0.  1.
    9900012    2    1    2    0    0 -0.30932898871E+02 -0.10564525959E+02 -0.24180821580E+02  0.50528861131E+02  0.30000003893E+02 0.  0.
         12    1    1    2    0    0  0.30932898871E+02  0.10564525959E+02  0.24180821580E+02  0.40659138869E+02  0.00000000000E+00 0. -1.
         11    1    3    3    0    0 -0.10172767955E+02 -0.14631301845E+02 -0.15425826504E+01  0.17886860066E+02  0.51100000000E-03 0. -1.
        -11    1    3    3    0    0 -0.99320106763E+01 -0.31695542371E+01 -0.11297007561E+02  0.15372484843E+02  0.51100000000E-03 0.  1.
        -12    1    3    3    0    0 -0.10828120240E+02  0.72363301229E+01 -0.11341231369E+02  0.17269516222E+02  0.00000000000E+00 0.  1.
</event>
<event>
 7    1  0.2450552E-011  0.5052886E+02  0.7816164E-02  0.1300439E+00
        -11   -1    0    0    0    0  0.00000000000E+00  0.00000000000E+00  0.45593999997E+02  0.45594000000E+02  0.51100000000E-03 0.  1.
         11   -1    0    0    0    0 -0.00000000000E+00 -0.00000000000E+00 -0.45593999997E+02  0.45594000000E+02  0.51100000000E-03 0. -1.
    9900012    2    1    2    0    0  0.32724011742E+02  0.22049122972E+02  0.98051423705E+01  0.50528860988E+02  0.30000003458E+02 0.  0.
         12    1    1    2    0    0 -0.32724011742E+02 -0.22049122972E+02 -0.98051423705E+01  0.40659139012E+02  0.00000000000E+00 0. -1.
         11    1    3    3    0    0  0.11263407533E+02  0.11315145303E+02  0.31980890380E+01  0.16282648318E+02  0.51100000000E-03 0. -1.
        -11    1    3    3    0    0  0.16597051084E+02  0.30451750095E+01 -0.66755230487E+01  0.18146564516E+02  0.51100000000E-03 0.  1.
         12    1    3    3    0    0  0.48635531252E+01  0.76888026595E+01  0.13282576381E+02  0.16099648153E+02  0.00000000000E+00 0. -1.
</event>
<event>
 7    1  0.2450552E-011  0.5052886E+02  0.7816164E-02  0.1300439E+00
        -11   -1    0    0    0    0  0.00000000000E+00  0.00000000000E+00  0.45593999997E+02  0.45594000000E+02  0.51100000000E-03 0. -1.
         11   -1    0    0    0    0 -0.00000000000E+00 -0.00000000000E+00 -0.45593999997E+02  0.45594000000E+02  0.51100000000E-03 0.  1.
    9900012    2    1    2    0    0  0.21983093012E+02  0.33373526644E+02  0.74911517588E+01  0.50528855719E+02  0.29999987443E+02 0.  0.
         12    1    1    2    0    0 -0.21983093012E+02 -0.33373526644E+02 -0.74911517588E+01  0.40659144281E+02  0.00000000000E+00 0. -1.
         11    1    3    3    0    0  0.13064072619E+02  0.23653914779E+02 -0.37139856269E+01  0.27275838525E+02  0.51100000000E-03 0.  1.
        -11    1    3    3    0    0  0.61101024793E+01  0.91449515667E+00 -0.25479476460E+01  0.66829403085E+01  0.51100000000E-03 0. -1.
        -12    1    3    3    0    0  0.28089179137E+01  0.88051167081E+01  0.13753085032E+02  0.16570076885E+02  0.00000000000E+00 0.  1.
</event>
<event>
 7    1  0.2617728E-011  0.5052886E+02  0.7816164E-02  0.1300439E+00
        -11   -1    0    0    0    0  0.00000000000E+00  0.00000000000E+00  0.45593999997E+02  0.45594000000E+02  0.51100000000E-03 0.  1.
         11   -1    0    0    0    0 -0.00000000000E+00 -0.00000000000E+00 -0.45593999997E+02  0.45594000000E+02  0.51100000000E-03 0. -1.
    9900012    2    1    2    0    0 -0.83091027696E+01  0.19296623717E+02  0.34810411992E+02  0.50528860084E+02  0.30000000710E+02 0.  0.
         12    1    1    2    0    0  0.83091027696E+01 -0.19296623717E+02 -0.34810411992E+02  0.40659139916E+02  0.00000000000E+00 0. -1.
         11    1    3    3    0    0  0.66386743566E+01  0.98444923751E+00  0.37452258339E+01  0.76855614188E+01  0.51100000000E-03 0. -1.
        -11    1    3    3    0    0 -0.28442199704E+01  0.67480835070E+01 -0.25804784656E+00  0.73275375952E+01  0.51100000000E-03 0.  1.
        -12    1    3    3    0    0 -0.12103557156E+02  0.11564090972E+02  0.31323234005E+02  0.35515761069E+02  0.00000000000E+00 0.  1.
</event>
<event>
 7    1  0.2450552E-011  0.5052887E+02  0.7816164E-02  0.1300439E+00
        -11   -1    0    0    0    0  0.00000000000E+00  0.00000000000E+00  0.45593999997E+02  0.45594000000E+02  0.51100000000E-03 0. -1.
         11   -1    0    0    0    0 -0.00000000000E+00 -0.00000000000E+00 -0.45593999997E+02  0.45594000000E+02  0.51100000000E-03 0.  1.
    9900012    2    1    2    0    0 -0.21851514563E+02  0.19331608182E+02 -0.28318995038E+02  0.50528865190E+02  0.30000016230E+02 0.  0.
         12    1    1    2    0    0  0.21851514563E+02 -0.19331608182E+02  0.28318995038E+02  0.40659134810E+02  0.00000000000E+00 0. -1.
         11    1    3    3    0    0  0.23106413288E+01  0.71984735232E+00 -0.37937186821E-01  0.24204716591E+01  0.51100000000E-03 0. -1.
        -11    1    3    3    0    0 -0.89825025967E+01  0.20468402026E+02 -0.22621151700E+02  0.31801844897E+02  0.51100000000E-03 0.  1.
        -12    1    3    3    0    0 -0.15179653295E+02 -0.18566411962E+01 -0.56599061512E+01  0.16306548633E+02  0.00000000000E+00 0.  1.
</event>
<event>
 7    1  0.2450552E-011  0.5052886E+02  0.7816164E-02  0.1300439E+00
        -11   -1    0    0    0    0  0.00000000000E+00  0.00000000000E+00  0.45593999997E+02  0.45594000000E+02  0.51100000000E-03 0.  1.
         11   -1    0    0    0    0 -0.00000000000E+00 -0.00000000000E+00 -0.45593999997E+02  0.45594000000E+02  0.51100000000E-03 0. -1.
    9900012    2    1    2    0    0 -0.99372808000E+01 -0.92019916097E+01  0.38337178835E+02  0.50528862278E+02  0.30000007379E+02 0.  0.
         12    1    1    2    0    0  0.99372808000E+01  0.92019916097E+01 -0.38337178835E+02  0.40659137722E+02  0.00000000000E+00 0. -1.
         11    1    3    3    0    0 -0.71492601892E+01 -0.75293106946E+01  0.20263679144E+02  0.22768819326E+02  0.51100000000E-03 0. -1.
        -11    1    3    3    0    0 -0.11605613366E+02 -0.33799120102E+01  0.10207839063E+02  0.15821316172E+02  0.51100000000E-03 0.  1.
         12    1    3    3    0    0  0.88175927555E+01  0.17072310951E+01  0.78656606280E+01  0.11938726780E+02  0.00000000000E+00 0. -1.
</event>
<event>
 7    1  0.2450552E-011  0.5052886E+02  0.7816164E-02  0.1300439E+00
        -11   -1    0    0    0    0  0.00000000000E+00  0.00000000000E+00  0.45593999997E+02  0.45594000000E+02  0.51100000000E-03 0. -1.
         11   -1    0    0    0    0 -0.00000000000E+00 -0.00000000000E+00 -0.45593999997E+02  0.45594000000E+02  0.51100000000E-03 0.  1.
    9900012    2    1    2    0    0 -0.23597219301E+02 -0.47833157201E+01 -0.32763650421E+02  0.50528860106E+02  0.30000000778E+02 0.  0.
         12    1    1    2    0    0  0.23597219301E+02  0.47833157201E+01  0.32763650421E+02  0.40659139894E+02  0.00000000000E+00 0. -1.
         11    1    3    3    0    0 -0.50291479668E+00 -0.41940007822E+01 -0.97103551120E+01  0.10589313600E+02  0.51100000000E-03 0. -1.
        -11    1    3    3    0    0 -0.13444510770E+02 -0.94890814307E+01 -0.42300038099E+01  0.16990893700E+02  0.51100000000E-03 0.  1.
         12    1    3    3    0    0 -0.96497937348E+01  0.88997664928E+01 -0.18823291499E+02  0.22948652806E+02  0.00000000000E+00 0. -1.
</event>
<event>
 7    1  0.4747804E-011  0.5052886E+02  0.7816164E-02  0.1300439E+00
        -11   -1    0    0    0    0  0.00000000000E+00  0.00000000000E+00  0.45593999997E+02  0.45594000000E+02  0.51100000000E-03 0. -1.
         11   -1    0    0    0    0 -0.00000000000E+00 -0.00000000000E+00 -0.45593999997E+02  0.45594000000E+02  0.51100000000E-03 0.  1.
    9900012    2    1    2    0    0  0.27131663084E+01  0.98545471557E+01 -0.39353423879E+02  0.50528863978E+02  0.30000012547E+02 0.  0.
         12    1    1    2    0    0 -0.27131663084E+01 -0.98545471557E+01  0.39353423879E+02  0.40659136022E+02  0.00000000000E+00 0. -1.
         11    1    3    3    0    0  0.11451846526E+01  0.65076868740E+01  0.11081935223E+00  0.66086093491E+01  0.51100000000E-03 0. -1.
        -11    1    3    3    0    0  0.35067753940E+01 -0.51971061492E+01 -0.41100158550E+01  0.74966403528E+01  0.51100000000E-03 0.  1.
        -12    1    3    3    0    0 -0.19387937382E+01  0.85439664309E+01 -0.35354227376E+02  0.36423614276E+02  0.00000000000E+00 0.  1.
</event>
<event>
 7    1  0.2450552E-011  0.5052885E+02  0.7816164E-02  0.1300439E+00
        -11   -1    0    0    0    0  0.00000000000E+00  0.00000000000E+00  0.45593999997E+02  0.45594000000E+02  0.51100000000E-03 0. -1.
         11   -1    0    0    0    0 -0.00000000000E+00 -0.00000000000E+00 -0.45593999997E+02  0.45594000000E+02  0.51100000000E-03 0.  1.
    9900012    2    1    2    0    0 -0.10526256252E+02 -0.18130992490E+02 -0.34837210951E+02  0.50528853105E+02  0.29999979498E+02 0.  0.
         12    1    1    2    0    0  0.10526256252E+02  0.18130992490E+02  0.34837210951E+02  0.40659146895E+02  0.00000000000E+00 0. -1.
         11    1    3    3    0    0  0.32961570907E+01  0.23120092630E+01 -0.50982322919E+01  0.64963075021E+01  0.51100000000E-03 0. -1.
        -11    1    3    3    0    0 -0.84411806673E+01 -0.11168519880E+02 -0.18102143637E+01  0.14116169582E+02  0.51100000000E-03 0.  1.
        -12    1    3    3    0    0 -0.53812326757E+01 -0.92744818734E+01 -0.27928764296E+02  0.29916376021E+02  0.00000000000E+00 0.  1.
</event>
<event>
 7    1  0.2450552E-011  0.5052888E+02  0.7816164E-02  0.1300439E+00
        -11   -1    0    0    0    0  0.00000000000E+00  0.00000000000E+00  0.45593999997E+02  0.45594000000E+02  0.51100000000E-03 0.  1.
         11   -1    0    0    0    0 -0.00000000000E+00 -0.00000000000E+00 -0.45593999997E+02  0.45594000000E+02  0.51100000000E-03 0. -1.
    9900012    2    1    2    0    0 -0.20917327622E+02 -0.32942468889E+02  0.11420299955E+02  0.50528879222E+02  0.30000058884E+02 0.  0.
         12    1    1    2    0    0  0.20917327622E+02  0.32942468889E+02 -0.11420299955E+02  0.40659120778E+02  0.00000000000E+00 0. -1.
         11    1    3    3    0    0 -0.19146752370E+02 -0.64838469974E+01  0.27391646926E+01  0.20399544644E+02  0.51100000000E-03 0.  1.
        -11    1    3    3    0    0 -0.61783955322E+01 -0.10218621529E+02  0.24833777964E+01  0.12196719348E+02  0.51100000000E-03 0. -1.
        -12    1    3    3    0    0  0.44078202803E+01 -0.16240000362E+02  0.61977574664E+01  0.17932615230E+02  0.00000000000E+00 0.  1.
</event>
<event>
 7    1  0.2450552E-011  0.5052885E+02  0.7816164E-02  0.1300439E+00
        -11   -1    0    0    0    0  0.00000000000E+00  0.00000000000E+00  0.45593999997E+02  0.45594000000E+02  0.51100000000E-03 0.  1.
         11   -1    0    0    0    0 -0.00000000000E+00 -0.00000000000E+00 -0.45593999997E+02  0.45594000000E+02  0.51100000000E-03 0. -1.
    9900012    2    1    2    0    0  0.10281269425E+02  0.43784830489E+01  0.39093360118E+02  0.50528850721E+02  0.29999972251E+02 0.  0.
         12    1    1    2    0    0 -0.10281269425E+02 -0.43784830489E+01 -0.39093360118E+02  0.40659149279E+02  0.00000000000E+00 0. -1.
         11    1    3    3    0    0  0.10784058553E+02  0.13517033279E+01  0.77720602261E+01  0.13361434847E+02  0.51100000000E-03 0.  1.
        -11    1    3    3    0    0  0.63000746794E+01  0.77152309991E+01  0.24520532126E+02  0.26466435845E+02  0.51100000000E-03 0. -1.
         12    1    3    3    0    0 -0.68028638074E+01 -0.46884512781E+01  0.68007677663E+01  0.10700980029E+02  0.00000000000E+00 0. -1.
</event>
<event>
 7    1  0.2450552E-011  0.5052885E+02  0.7816164E-02  0.1300439E+00
        -11   -1    0    0    0    0  0.00000000000E+00  0.00000000000E+00  0.45593999997E+02  0.45594000000E+02  0.51100000000E-03 0.  1.
         11   -1    0    0    0    0 -0.00000000000E+00 -0.00000000000E+00 -0.45593999997E+02  0.45594000000E+02  0.51100000000E-03 0. -1.
    9900012    2    1    2    0    0 -0.38463667589E+02  0.92453017260E+01  0.93934514942E+01  0.50528852698E+02  0.29999978260E+02 0.  0.
         12    1    1    2    0    0  0.38463667589E+02 -0.92453017260E+01 -0.93934514942E+01  0.40659147302E+02  0.00000000000E+00 0. -1.
         11    1    3    3    0    0 -0.16622018817E+02  0.93239030179E+00  0.17190214387E+02  0.23930406017E+02  0.51100000000E-03 0. -1.
        -11    1    3    3    0    0 -0.10763601958E+02  0.23310322357E+01  0.12663344561E+01  0.11085686340E+02  0.51100000000E-03 0.  1.
         12    1    3    3    0    0 -0.11078046814E+02  0.59818791885E+01 -0.90630973493E+01  0.15512760341E+02  0.00000000000E+00 0. -1.
</event>
<event>
 7    1  0.2450552E-011  0.5052886E+02  0.7816164E-02  0.1300439E+00
        -11   -1    0    0    0    0  0.00000000000E+00  0.00000000000E+00  0.45593999997E+02  0.45594000000E+02  0.51100000000E-03 0.  1.
         11   -1    0    0    0    0 -0.00000000000E+00 -0.00000000000E+00 -0.45593999997E+02  0.45594000000E+02  0.51100000000E-03 0. -1.
    9900012    2    1    2    0    0  0.15741153706E+02 -0.18023179239E+02  0.32871671442E+02  0.50528859659E+02  0.29999999419E+02 0.  0.
         12    1    1    2    0    0 -0.15741153706E+02  0.18023179239E+02 -0.32871671442E+02  0.40659140341E+02  0.00000000000E+00 0. -1.
         11    1    3    3    0    0 -0.27898979652E+01 -0.10261283730E+01 -0.21690545767E+01  0.36798462077E+01  0.51100000000E-03 0. -1.
        -11    1    3    3    0    0  0.70874693830E+01  0.34203698882E+00  0.19942332186E+02  0.21167092971E+02  0.51100000000E-03 0.  1.
        -12    1    3    3    0    0  0.11443582288E+02 -0.17339087855E+02  0.15098393833E+02  0.25681920480E+02  0.00000000000E+00 0.  1.
</event>
<event>
 7    1  0.2450552E-011  0.5052886E+02  0.7816164E-02  0.1300439E+00
        -11   -1    0    0    0    0  0.00000000000E+00  0.00000000000E+00  0.45593999997E+02  0.45594000000E+02  0.51100000000E-03 0.  1.
         11   -1    0    0    0    0 -0.00000000000E+00 -0.00000000000E+00 -0.45593999997E+02  0.45594000000E+02  0.51100000000E-03 0. -1.
    9900012    2    1    2    0    0  0.10091053989E+01 -0.15580920878E+01  0.40616744510E+02  0.50528857372E+02  0.29999992468E+02 0.  0.
         12    1    1    2    0    0 -0.10091053989E+01  0.15580920878E+01 -0.40616744510E+02  0.40659142628E+02  0.00000000000E+00 0. -1.
         11    1    3    3    0    0 -0.15247402828E+01 -0.15032011164E+01  0.17949073448E+02  0.18076329396E+02  0.51100000000E-03 0. -1.
        -11    1    3    3    0    0  0.12052377662E+02  0.27210562434E+01  0.17051130241E+02  0.21057183979E+02  0.51100000000E-03 0.  1.
         12    1    3    3    0    0 -0.95185319807E+01 -0.27759472149E+01  0.56165408214E+01  0.11395343997E+02  0.00000000000E+00 0. -1.
</event>
<event>
 7    1  0.2450552E-011  0.5052887E+02  0.7816164E-02  0.1300439E+00
        -11   -1    0    0    0    0  0.00000000000E+00  0.00000000000E+00  0.45593999997E+02  0.45594000000E+02  0.51100000000E-03 0. -1.
         11   -1    0    0    0    0 -0.00000000000E+00 -0.00000000000E+00 -0.45593999997E+02  0.45594000000E+02  0.51100000000E-03 0.  1.
    9900012    2    1    2    0    0  0.30532526123E+02 -0.26255230259E+02 -0.56207418978E+01  0.50528868100E+02  0.30000025076E+02 0.  0.
         12    1    1    2    0    0 -0.30532526123E+02  0.26255230259E+02  0.56207418978E+01  0.40659131900E+02  0.00000000000E+00 0. -1.
         11    1    3    3    0    0  0.82995069734E+00  0.39150576404E+01 -0.18727264165E-01  0.40021051285E+01  0.51100000000E-03 0. -1.
        -11    1    3    3    0    0  0.11047856179E+02 -0.16900691960E+02 -0.11018245031E+02  0.23001961628E+02  0.51100000000E-03 0.  1.
        -12    1    3    3    0    0  0.18654719246E+02 -0.13269595940E+02  0.54162303974E+01  0.23524801344E+02  0.00000000000E+00 0.  1.
</event>
<event>
 7    1  0.2450552E-011  0.5052883E+02  0.7816164E-02  0.1300439E+00
        -11   -1    0    0    0    0  0.00000000000E+00  0.00000000000E+00  0.45593999997E+02  0.45594000000E+02  0.51100000000E-03 0. -1.
         11   -1    0    0    0    0 -0.00000000000E+00 -0.00000000000E+00 -0.45593999997E+02  0.45594000000E+02  0.51100000000E-03 0.  1.
    9900012    2    1    2    0    0 -0.26751701150E+02  0.27253414768E+02 -0.13955851353E+02  0.50528832301E+02  0.29999916263E+02 0.  0.
         12    1    1    2    0    0  0.26751701150E+02 -0.27253414768E+02  0.13955851353E+02  0.40659167699E+02  0.00000000000E+00 0. -1.
         11    1    3    3    0    0  0.13228297487E+01  0.27902638374E+00 -0.33460106487E+01  0.36088116865E+01  0.51100000000E-03 0. -1.
        -11    1    3    3    0    0 -0.17923465545E+02  0.81522531803E+01 -0.15409259050E+02  0.25003102084E+02  0.51100000000E-03 0.  1.
         12    1    3    3    0    0 -0.10151065353E+02  0.18822135204E+02  0.47994183451E+01  0.21916918531E+02  0.00000000000E+00 0. -1.
</event>
<event>
 7    1  0.2450552E-011  0.5052886E+02  0.7816164E-02  0.1300439E+00
        -11   -1    0    0    0    0  0.00000000000E+00  0.00000000000E+00  0.45593999997E+02  0.45594000000E+02  0.51100000000E-03 0. -1.
         11   -1    0    0    0    0 -0.00000000000E+00 -0.00000000000E+00 -0.45593999997E+02  0.45594000000E+02  0.51100000000E-03 0.  1.
    9900012    2    1    2    0    0  0.39593656305E+02  0.42978862118E+01 -0.81875485601E+01  0.50528863304E+02  0.30000010498E+02 0.  0.
         12    1    1    2    0    0 -0.39593656305E+02 -0.42978862118E+01  0.81875485601E+01  0.40659136696E+02  0.00000000000E+00 0. -1.
         11    1    3    3    0    0  0.20818638452E+02  0.37261942818E+01  0.22513529882E+01  0.21268963805E+02  0.51100000000E-03 0. -1.
        -11    1    3    3    0    0  0.27195192549E+01 -0.17181792685E+01  0.55951139615E+01  0.64539310099E+01  0.51100000000E-03 0.  1.
        -12    1    3    3    0    0  0.16055498598E+02  0.22898711985E+01 -0.16034015510E+02  0.22805968489E+02  0.00000000000E+00 0.  1.
</event>
<event>
 7    1  0.2450552E-011  0.5052887E+02  0.7816164E-02  0.1300439E+00
        -11   -1    0    0    0    0  0.00000000000E+00  0.00000000000E+00  0.45593999997E+02  0.45594000000E+02  0.51100000000E-03 0.  1.
         11   -1    0    0    0    0 -0.00000000000E+00 -0.00000000000E+00 -0.45593999997E+02  0.45594000000E+02  0.51100000000E-03 0. -1.
    9900012    2    1    2    0    0 -0.28308602167E+02 -0.28984345115E+02 -0.34198931911E+01  0.50528869564E+02  0.30000029526E+02 0.  0.
         12    1    1    2    0    0  0.28308602167E+02  0.28984345115E+02  0.34198931911E+01  0.40659130436E+02  0.00000000000E+00 0. -1.
         11    1    3    3    0    0 -0.51639118597E+01 -0.16148760127E+02  0.45330163769E+01  0.17549834104E+02  0.51100000000E-03 0. -1.
        -11    1    3    3    0    0 -0.82800904454E+01 -0.14648492676E+02 -0.60620861445E+01  0.17885388566E+02  0.51100000000E-03 0.  1.
        -12    1    3    3    0    0 -0.14864599862E+02  0.18129076883E+01 -0.18908234235E+01  0.15093646894E+02  0.00000000000E+00 0.  1.
</event>
<event>
 7    1  0.2450552E-011  0.5052886E+02  0.7816164E-02  0.1300439E+00
        -11   -1    0    0    0    0  0.00000000000E+00  0.00000000000E+00  0.45593999997E+02  0.45594000000E+02  0.51100000000E-03 0.  1.
         11   -1    0    0    0    0 -0.00000000000E+00 -0.00000000000E+00 -0.45593999997E+02  0.45594000000E+02  0.51100000000E-03 0. -1.
    9900012    2    1    2    0    0  0.33581580280E+02 -0.18496976432E+02 -0.13539015881E+02  0.50528860532E+02  0.30000002073E+02 0.  0.
         12    1    1    2    0    0 -0.33581580280E+02  0.18496976432E+02  0.13539015881E+02  0.40659139468E+02  0.00000000000E+00 0. -1.
         11    1    3    3    0    0  0.22875135747E+01 -0.47910749804E+01 -0.11185426295E+02  0.12381473236E+02  0.51100000000E-03 0. -1.
        -11    1    3    3    0    0  0.15750314186E+02 -0.15198146105E+02 -0.46169130657E+01  0.22368994803E+02  0.51100000000E-03 0.  1.
        -12    1    3    3    0    0  0.15543752520E+02  0.14922446533E+01  0.22633234797E+01  0.15778392493E+02  0.00000000000E+00 0.  1.
</event>
<event>
 7    1  0.2450552E-011  0.5052885E+02  0.7816164E-02  0.1300439E+00
        -11   -1    0    0    0    0  0.00000000000E+00  0.00000000000E+00  0.45593999997E+02  0.45594000000E+02  0.51100000000E-03 0. -1.
         11   -1    0    0    0    0 -0.00000000000E+00 -0.00000000000E+00 -0.45593999997E+02  0.45594000000E+02  0.51100000000E-03 0.  1.
    9900012    2    1    2    0    0 -0.12898456492E+02 -0.31547752000E+02 -0.22170607549E+02  0.50528847584E+02  0.29999962716E+02 0.  0.
         12    1    1    2    0    0  0.12898456492E+02  0.31547752000E+02  0.22170607549E+02  0.40659152416E+02  0.00000000000E+00 0. -1.
         11    1    3    3    0    0 -0.24863743088E+01 -0.44397352694E+00  0.38708696229E+01  0.46219910855E+01  0.51100000000E-03 0. -1.
        -11    1    3    3    0    0 -0.22402917209E+01 -0.18517773268E+02 -0.24542042465E+02  0.30825941711E+02  0.51100000000E-03 0.  1.
         12    1    3    3    0    0 -0.81717904620E+01 -0.12586005205E+02 -0.14994347070E+01  0.15080914787E+02  0.00000000000E+00 0. -1.
</event>
<event>
 7    1  0.2450552E-011  0.5052886E+02  0.7816164E-02  0.1300439E+00
        -11   -1    0    0    0    0  0.00000000000E+00  0.00000000000E+00  0.45593999997E+02  0.45594000000E+02  0.51100000000E-03 0.  1.
         11   -1    0    0    0    0 -0.00000000000E+00 -0.00000000000E+00 -0.45593999997E+02  0.45594000000E+02  0.51100000000E-03 0. -1.
    9900012    2    1    2    0    0  0.36302890371E+02  0.18164967936E+02 -0.23020691172E+01  0.50528862877E+02  0.30000009200E+02 0.  0.
         12    1    1    2    0    0 -0.36302890371E+02 -0.18164967936E+02  0.23020691172E+01  0.40659137123E+02  0.00000000000E+00 0. -1.
         11    1    3    3    0    0 -0.13239196127E+00 -0.31446371771E+01  0.13504073766E+01  0.34248899181E+01  0.51100000000E-03 0. -1.
        -11    1    3    3    0    0  0.22424378793E+02  0.23828014510E+02 -0.21911360311E+01  0.32793720696E+02  0.51100000000E-03 0.  1.
         12    1    3    3    0    0  0.14010903539E+02 -0.25184093968E+01 -0.14613404626E+01  0.14310252262E+02  0.00000000000E+00 0. -1.
</event>
<event>
 7    1  0.2450552E-011  0.5052886E+02  0.7816164E-02  0.1300439E+00
        -11   -1    0    0    0    0  0.00000000000E+00  0.00000000000E+00  0.45593999997E+02  0.45594000000E+02  0.51100000000E-03 0.  1.
         11   -1    0    0    0    0 -0.00000000000E+00 -0.00000000000E+00 -0.45593999997E+02  0.45594000000E+02  0.51100000000E-03 0. -1.
    9900012    2    1    2    0    0  0.14730432062E+02 -0.37896766975E+02  0.12407935593E+00  0.50528856237E+02  0.29999989017E+02 0.  0.
         12    1    1    2    0    0 -0.14730432062E+02  0.37896766975E+02 -0.12407935593E+00  0.40659143763E+02  0.00000000000E+00 0. -1.
         11    1    3    3    0    0  0.11285835305E+02 -0.29390737216E+01  0.34790773521E+01  0.12170136086E+02  0.51100000000E-03 0. -1.
        -11    1    3    3    0    0 -0.49904008092E+01 -0.14830967247E+02  0.22973477396E+01  0.15815798956E+02  0.51100000000E-03 0.  1.
        -12    1    3    3    0    0  0.84349975658E+01 -0.20126726006E+02 -0.56523457358E+01  0.22542921195E+02  0.00000000000E+00 0.  1.
</event>
<event>
 7    1  0.2450552E-011  0.5052886E+02  0.7816164E-02  0.1300439E+00
        -11   -1    0    0    0    0  0.00000000000E+00  0.00000000000E+00  0.45593999997E+02  0.45594000000E+02  0.51100000000E-03 0.  1.
         11   -1    0    0    0    0 -0.00000000000E+00 -0.00000000000E+00 -0.45593999997E+02  0.45594000000E+02  0.51100000000E-03 0. -1.
    9900012    2    1    2    0    0 -0.30268658659E+02  0.15394403671E+02  0.22360378261E+02  0.50528857395E+02  0.29999992538E+02 0.  0.
         12    1    1    2    0    0  0.30268658659E+02 -0.15394403671E+02 -0.22360378261E+02  0.40659142605E+02  0.00000000000E+00 0. -1.
         11    1    3    3    0    0 -0.21661173009E+02 -0.19893014335E+01  0.10344769827E+02  0.24086884385E+02  0.51100000000E-03 0. -1.
        -11    1    3    3    0    0 -0.10764814513E+02  0.10436229552E+02  0.11940382539E+02  0.19166868660E+02  0.51100000000E-03 0.  1.
        -12    1    3    3    0    0  0.21573288635E+01  0.69474755523E+01  0.75225894833E-01  0.72751043505E+01  0.00000000000E+00 0.  1.
</event>
<event>
 7    1  0.2450552E-011  0.5052886E+02  0.7816164E-02  0.1300439E+00
        -11   -1    0    0    0    0  0.00000000000E+00  0.00000000000E+00  0.45593999997E+02  0.45594000000E+02  0.51100000000E-03 0. -1.
         11   -1    0    0    0    0 -0.00000000000E+00 -0.00000000000E+00 -0.45593999997E+02  0.45594000000E+02  0.51100000000E-03 0.  1.
    9900012    2    1    2    0    0  0.80250315090E+01  0.39621883943E+02  0.43440759008E+01  0.50528858182E+02  0.29999994930E+02 0.  0.
         12    1    1    2    0    0 -0.80250315090E+01 -0.39621883943E+02 -0.43440759008E+01  0.40659141818E+02  0.00000000000E+00 0. -1.
         11    1    3    3    0    0  0.43620826405E+01  0.25944783250E+02  0.57253449780E+01  0.26924693466E+02  0.51100000000E-03 0. -1.
        -11    1    3    3    0    0 -0.39844590353E+01  0.23594579196E+01 -0.73586487646E+01  0.86944043718E+01  0.51100000000E-03 0.  1.
         12    1    3    3    0    0  0.76474079037E+01  0.11317642774E+02  0.59773796874E+01  0.14909760344E+02  0.00000000000E+00 0. -1.
</event>
<event>
 7    1  0.2450552E-011  0.5052882E+02  0.7816164E-02  0.1300439E+00
        -11   -1    0    0    0    0  0.00000000000E+00  0.00000000000E+00  0.45593999997E+02  0.45594000000E+02  0.51100000000E-03 0. -1.
         11   -1    0    0    0    0 -0.00000000000E+00 -0.00000000000E+00 -0.45593999997E+02  0.45594000000E+02  0.51100000000E-03 0.  1.
    9900012    2    1    2    0    0  0.29992819237E+02 -0.72238225040E+01 -0.26484258279E+02  0.50528822021E+02  0.29999885015E+02 0.  0.
         12    1    1    2    0    0 -0.29992819237E+02  0.72238225040E+01  0.26484258279E+02  0.40659177979E+02  0.00000000000E+00 0. -1.
         11    1    3    3    0    0  0.16275634411E+02 -0.84743338635E+01 -0.40814260899E+01  0.18798102274E+02  0.51100000000E-03 0. -1.
        -11    1    3    3    0    0  0.11432493558E+02 -0.19477456686E+01 -0.30621306071E+01  0.11994676580E+02  0.51100000000E-03 0.  1.
        -12    1    3    3    0    0  0.22846912677E+01  0.31982570281E+01 -0.19340701582E+02  0.19736043167E+02  0.00000000000E+00 0.  1.
</event>
<event>
 7    1  0.2450552E-011  0.5052887E+02  0.7816164E-02  0.1300439E+00
        -11   -1    0    0    0    0  0.00000000000E+00  0.00000000000E+00  0.45593999997E+02  0.45594000000E+02  0.51100000000E-03 0.  1.
         11   -1    0    0    0    0 -0.00000000000E+00 -0.00000000000E+00 -0.45593999997E+02  0.45594000000E+02  0.51100000000E-03 0. -1.
    9900012    2    1    2    0    0  0.39337199329E+01 -0.57048806469E+01  0.40064259124E+02  0.50528872183E+02  0.30000037486E+02 0.  0.
         12    1    1    2    0    0 -0.39337199329E+01  0.57048806469E+01 -0.40064259124E+02  0.40659127817E+02  0.00000000000E+00 0. -1.
         11    1    3    3    0    0  0.32760843026E+01 -0.60761962069E-01  0.16073610823E+02  0.16404188048E+02  0.51100000000E-03 0. -1.
        -11    1    3    3    0    0  0.30056496210E+01  0.60791529821E+01  0.20614092263E+02  0.21700940779E+02  0.51100000000E-03 0.  1.
         12    1    3    3    0    0 -0.23480139906E+01 -0.11723271667E+02  0.33765560385E+01  0.12423743355E+02  0.00000000000E+00 0. -1.
</event>
<event>
 7    1  0.2450552E-011  0.5052887E+02  0.7816164E-02  0.1300439E+00
        -11   -1    0    0    0    0  0.00000000000E+00  0.00000000000E+00  0.45593999997E+02  0.45594000000E+02  0.51100000000E-03 0. -1.
         11   -1    0    0    0    0 -0.00000000000E+00 -0.00000000000E+00 -0.45593999997E+02  0.45594000000E+02  0.51100000000E-03 0.  1.
    9900012    2    1    2    0    0  0.30041754960E+02 -0.27357218787E+02  0.14968276502E+01  0.50528868752E+02  0.30000027058E+02 0.  0.
         12    1    1    2    0    0 -0.30041754960E+02  0.27357218787E+02 -0.14968276502E+01  0.40659131248E+02  0.00000000000E+00 0. -1.
         11    1    3    3    0    0  0.10947047952E+02 -0.12296363602E+02  0.21429138123E+00  0.16464639011E+02  0.51100000000E-03 0. -1.
        -11    1    3    3    0    0  0.13182268960E+02 -0.55073057898E+00 -0.84043298945E+01  0.15643154425E+02  0.51100000000E-03 0.  1.
         12    1    3    3    0    0  0.59124380472E+01 -0.14510124606E+02  0.96868661635E+01  0.18421075316E+02  0.00000000000E+00 0. -1.
</event>
<event>
 7    1  0.2450552E-011  0.5052887E+02  0.7816164E-02  0.1300439E+00
        -11   -1    0    0    0    0  0.00000000000E+00  0.00000000000E+00  0.45593999997E+02  0.45594000000E+02  0.51100000000E-03 0. -1.
         11   -1    0    0    0    0 -0.00000000000E+00 -0.00000000000E+00 -0.45593999997E+02  0.45594000000E+02  0.51100000000E-03 0.  1.
    9900012    2    1    2    0    0 -0.22428979060E+02  0.30360695193E+02  0.15110728920E+02  0.50528867658E+02  0.30000023734E+02 0.  0.
         12    1    1    2    0    0  0.22428979060E+02 -0.30360695193E+02 -0.15110728920E+02  0.40659132342E+02  0.00000000000E+00 0. -1.
         11    1    3    3    0    0 -0.29356763716E+01  0.15063410825E+02  0.13858408476E+01  0.15409253602E+02  0.51100000000E-03 0.  1.
        -11    1    3    3    0    0 -0.15746525454E+01  0.10500405678E+02  0.12683016895E+02  0.16540766846E+02  0.51100000000E-03 0. -1.
        -12    1    3    3    0    0 -0.17918650143E+02  0.47968786903E+01  0.10418711779E+01  0.18578847210E+02  0.00000000000E+00 0.  1.
</event>
<event>
 7    1  0.2450552E-011  0.5052886E+02  0.7816164E-02  0.1300439E+00
        -11   -1    0    0    0    0  0.00000000000E+00  0.00000000000E+00  0.45593999997E+02  0.45594000000E+02  0.51100000000E-03 0.  1.
         11   -1    0    0    0    0 -0.00000000000E+00 -0.00000000000E+00 -0.45593999997E+02  0.45594000000E+02  0.51100000000E-03 0. -1.
    9900012    2    1    2    0    0 -0.54444024716E+00 -0.31086147973E+02  0.26201545182E+02  0.50528856122E+02  0.29999988667E+02 0.  0.
         12    1    1    2    0    0  0.54444024716E+00  0.31086147973E+02 -0.26201545182E+02  0.40659143878E+02  0.00000000000E+00 0. -1.
         11    1    3    3    0    0 -0.51024322075E+01 -0.14560228727E+02  0.13464371859E+01  0.15487025808E+02  0.51100000000E-03 0. -1.
        -11    1    3    3    0    0  0.93650293256E+01 -0.27202988717E+01  0.72110026204E+01  0.12128576144E+02  0.51100000000E-03 0.  1.
        -12    1    3    3    0    0 -0.48070373653E+01 -0.13805620374E+02  0.17644105376E+02  0.22913254170E+02  0.00000000000E+00 0.  1.
</event>
<event>
 7    1  0.2450552E-011  0.5052886E+02  0.7816164E-02  0.1300439E+00
        -11   -1    0    0    0    0  0.00000000000E+00  0.00000000000E+00  0.45593999997E+02  0.45594000000E+02  0.51100000000E-03 0. -1.
         11   -1    0    0    0    0 -0.00000000000E+00 -0.00000000000E+00 -0.45593999997E+02  0.45594000000E+02  0.51100000000E-03 0.  1.
    9900012    2    1    2    0    0 -0.30623801147E+01  0.17051152078E+02 -0.36783770153E+02  0.50528859505E+02  0.29999998950E+02 0.  0.
         12    1    1    2    0    0  0.30623801147E+01 -0.17051152078E+02  0.36783770153E+02  0.40659140495E+02  0.00000000000E+00 0. -1.
         11    1    3    3    0    0  0.27343513432E+01  0.10736300994E+02  0.36051697792E+00  0.11084891026E+02  0.51100000000E-03 0. -1.
        -11    1    3    3    0    0 -0.42141792521E+01  0.36144665197E+01 -0.61233787891E+01  0.82655576367E+01  0.51100000000E-03 0.  1.
        -12    1    3    3    0    0 -0.15825522059E+01  0.27003845641E+01 -0.31020908342E+02  0.31178410842E+02  0.00000000000E+00 0.  1.
</event>
<event>
 7    1  0.2450552E-011  0.5052883E+02  0.7816164E-02  0.1300439E+00
        -11   -1    0    0    0    0  0.00000000000E+00  0.00000000000E+00  0.45593999997E+02  0.45594000000E+02  0.51100000000E-03 0.  1.
         11   -1    0    0    0    0 -0.00000000000E+00 -0.00000000000E+00 -0.45593999997E+02  0.45594000000E+02  0.51100000000E-03 0. -1.
    9900012    2    1    2    0    0 -0.15856722642E+02  0.37066740135E+02  0.52715557779E+01  0.50528829110E+02  0.29999906563E+02 0.  0.
         12    1    1    2    0    0  0.15856722642E+02 -0.37066740135E+02 -0.52715557779E+01  0.40659170890E+02  0.00000000000E+00 0. -1.
         11    1    3    3    0    0 -0.63167909066E+01  0.29694841529E+02 -0.43152688884E+01  0.30664425751E+02  0.51100000000E-03 0. -1.
        -11    1    3    3    0    0 -0.97493271789E+01  0.10369822548E+02  0.68334351349E+01  0.15788553959E+02  0.51100000000E-03 0.  1.
        -12    1    3    3    0    0  0.20939544378E+00 -0.29979239427E+01  0.27533895313E+01  0.40758493998E+01  0.00000000000E+00 0.  1.
</event>
<event>
 7    1  0.2450552E-011  0.5052887E+02  0.7816164E-02  0.1300439E+00
        -11   -1    0    0    0    0  0.00000000000E+00  0.00000000000E+00  0.45593999997E+02  0.45594000000E+02  0.51100000000E-03 0.  1.
         11   -1    0    0    0    0 -0.00000000000E+00 -0.00000000000E+00 -0.45593999997E+02  0.45594000000E+02  0.51100000000E-03 0. -1.
    9900012    2    1    2    0    0  0.32983794226E+02  0.22440158712E+02 -0.78532475329E+01  0.50528869397E+02  0.30000029019E+02 0.  0.
         12    1    1    2    0    0 -0.32983794226E+02 -0.22440158712E+02  0.78532475329E+01  0.40659130603E+02  0.00000000000E+00 0. -1.
         11    1    3    3    0    0  0.25643073670E+02  0.10255459918E+02 -0.13702543450E+01  0.27651750082E+02  0.51100000000E-03 0. -1.
        -11    1    3    3    0    0  0.51850189164E+01  0.32054206685E+01  0.51810449776E+01  0.80001481328E+01  0.51100000000E-03 0.  1.
         12    1    3    3    0    0  0.21557016396E+01  0.89792781255E+01 -0.11664038166E+02  0.14876971182E+02  0.00000000000E+00 0. -1.
</event>
<event>
 7    1  0.2450552E-011  0.5052886E+02  0.7816164E-02  0.1300439E+00
        -11   -1    0    0    0    0  0.00000000000E+00  0.00000000000E+00  0.45593999997E+02  0.45594000000E+02  0.51100000000E-03 0.  1.
         11   -1    0    0    0    0 -0.00000000000E+00 -0.00000000000E+00 -0.45593999997E+02  0.45594000000E+02  0.51100000000E-03 0. -1.
    9900012    2    1    2    0    0  0.21667376255E+02  0.13533845429E+02  0.31631085342E+02  0.50528859259E+02  0.29999998203E+02 0.  0.
         12    1    1    2    0    0 -0.21667376255E+02 -0.13533845429E+02 -0.31631085342E+02  0.40659140741E+02  0.00000000000E+00 0. -1.
         11    1    3    3    0    0  0.56472220724E+01  0.82431906340E+01 -0.95853640111E+00  0.10037933117E+02  0.51100000000E-03 0. -1.
        -11    1    3    3    0    0  0.12124718083E+02  0.97099113472E+01  0.13726815456E+02  0.20729607564E+02  0.51100000000E-03 0.  1.
         12    1    3    3    0    0  0.38954361004E+01 -0.44192565527E+01  0.18862806288E+02  0.19761318578E+02  0.00000000000E+00 0. -1.
</event>
<event>
 7    1  0.2450552E-011  0.5052888E+02  0.7816164E-02  0.1300439E+00
        -11   -1    0    0    0    0  0.00000000000E+00  0.00000000000E+00  0.45593999997E+02  0.45594000000E+02  0.51100000000E-03 0.  1.
         11   -1    0    0    0    0 -0.00000000000E+00 -0.00000000000E+00 -0.45593999997E+02  0.45594000000E+02  0.51100000000E-03 0. -1.
    9900012    2    1    2    0    0 -0.20582272096E+02 -0.22000222117E+02  0.27304298984E+02  0.50528875061E+02  0.30000046234E+02 0.  0.
         12    1    1    2    0    0  0.20582272096E+02  0.22000222117E+02 -0.27304298984E+02  0.40659124939E+02  0.00000000000E+00 0. -1.
         11    1    3    3    0    0 -0.69481904111E+01 -0.14842470675E+02  0.30271879542E+02  0.34423291200E+02  0.51100000000E-03 0.  1.
        -11    1    3    3    0    0 -0.46719305199E+00 -0.11717025929E+00 -0.91508108367E+00  0.10341043798E+01  0.51100000000E-03 0. -1.
        -12    1    3    3    0    0 -0.13166888633E+02 -0.70405811820E+01 -0.20524994745E+01  0.15071479481E+02  0.00000000000E+00 0.  1.
</event>
<event>
 7    1  0.2450552E-011  0.5052887E+02  0.7816164E-02  0.1300439E+00
        -11   -1    0    0    0    0  0.00000000000E+00  0.00000000000E+00  0.45593999997E+02  0.45594000000E+02  0.51100000000E-03 0. -1.
         11   -1    0    0    0    0 -0.00000000000E+00 -0.00000000000E+00 -0.45593999997E+02  0.45594000000E+02  0.51100000000E-03 0.  1.
    9900012    2    1    2    0    0  0.32523955320E+02 -0.18131891328E+02 -0.16327625534E+02  0.50528874231E+02  0.30000043712E+02 0.  0.
         12    1    1    2    0    0 -0.32523955320E+02  0.18131891328E+02  0.16327625534E+02  0.40659125769E+02  0.00000000000E+00 0. -1.
         11    1    3    3    0    0  0.31176029402E+02 -0.17398302266E+02 -0.83419628997E+01  0.36663797898E+02  0.51100000000E-03 0. -1.
        -11    1    3    3    0    0  0.13847068959E+01 -0.57980261390E+01 -0.26979268065E+01  0.65431895595E+01  0.51100000000E-03 0.  1.
         12    1    3    3    0    0 -0.36780978657E-01  0.50644370768E+01 -0.52877358273E+01  0.73218867735E+01  0.00000000000E+00 0. -1.
</event>
<event>
 7    1  0.2450552E-011  0.5052887E+02  0.7816164E-02  0.1300439E+00
        -11   -1    0    0    0    0  0.00000000000E+00  0.00000000000E+00  0.45593999997E+02  0.45594000000E+02  0.51100000000E-03 0. -1.
         11   -1    0    0    0    0 -0.00000000000E+00 -0.00000000000E+00 -0.45593999997E+02  0.45594000000E+02  0.51100000000E-03 0.  1.
    9900012    2    1    2    0    0 -0.39690461203E+02  0.34356419532E+00 -0.88155638188E+01  0.50528869263E+02  0.30000028612E+02 0.  0.
         12    1    1    2    0    0  0.39690461203E+02 -0.34356419532E+00  0.88155638188E+01  0.40659130737E+02  0.00000000000E+00 0. -1.
         11    1    3    3    0    0 -0.53997503373E+00  0.73532299292E+00 -0.64589966645E+01  0.65231059407E+01  0.51100000000E-03 0. -1.
        -11    1    3    3    0    0 -0.89444279515E+01 -0.82151612274E+01 -0.39263891958E+01  0.12763549575E+02  0.51100000000E-03 0.  1.
        -12    1    3    3    0    0 -0.30206058217E+02  0.78234024298E+01  0.15698220414E+01  0.31242213748E+02  0.00000000000E+00 0.  1.
</event>
<event>
 7    1  0.2450552E-011  0.5052885E+02  0.7816164E-02  0.1300439E+00
        -11   -1    0    0    0    0  0.00000000000E+00  0.00000000000E+00  0.45593999997E+02  0.45594000000E+02  0.51100000000E-03 0.  1.
         11   -1    0    0    0    0 -0.00000000000E+00 -0.00000000000E+00 -0.45593999997E+02  0.45594000000E+02  0.51100000000E-03 0. -1.
    9900012    2    1    2    0    0 -0.13936469168E+02  0.34416140859E+02  0.16567158840E+02  0.50528847568E+02  0.29999962667E+02 0.  0.
         12    1    1    2    0    0  0.13936469168E+02 -0.34416140859E+02 -0.16567158840E+02  0.40659152432E+02  0.00000000000E+00 0. -1.
         11    1    3    3    0    0 -0.12434021716E+02  0.14974486114E+02  0.61529041404E+00  0.19473538788E+02  0.51100000000E-03 0. -1.
        -11    1    3    3    0    0 -0.83713857001E+01  0.72990000728E+01  0.12425264352E+02  0.16665614152E+02  0.51100000000E-03 0.  1.
         12    1    3    3    0    0  0.68689382482E+01  0.12142654673E+02  0.35266040740E+01  0.14389694627E+02  0.00000000000E+00 0. -1.
</event>
<event>
 7    1  0.2450552E-011  0.5052886E+02  0.7816164E-02  0.1300439E+00
        -11   -1    0    0    0    0  0.00000000000E+00  0.00000000000E+00  0.45593999997E+02  0.45594000000E+02  0.51100000000E-03 0.  1.
         11   -1    0    0    0    0 -0.00000000000E+00 -0.00000000000E+00 -0.45593999997E+02  0.45594000000E+02  0.51100000000E-03 0. -1.
    9900012    2    1    2    0    0  0.18916420803E+02  0.17997757977E+02  0.31167541011E+02  0.50528857353E+02  0.29999992409E+02 0.  0.
         12    1    1    2    0    0 -0.18916420803E+02 -0.17997757977E+02 -0.31167541011E+02  0.40659142647E+02  0.00000000000E+00 0. -1.
         11    1    3    3    0    0  0.63322089905E+01 -0.20902351613E+01 -0.17054257139E+01  0.68829086044E+01  0.51100000000E-03 0. -1.
        -11    1    3    3    0    0  0.38798000878E+01  0.36327684227E+01  0.20776009025E+02  0.21445102155E+02  0.51100000000E-03 0.  1.
        -12    1    3    3    0    0  0.87044117245E+01  0.16455224715E+02  0.12096957699E+02  0.22200846594E+02  0.00000000000E+00 0.  1.
</event>
<event>
 7    1  0.2450552E-011  0.5052886E+02  0.7816164E-02  0.1300439E+00
        -11   -1    0    0    0    0  0.00000000000E+00  0.00000000000E+00  0.45593999997E+02  0.45594000000E+02  0.51100000000E-03 0. -1.
         11   -1    0    0    0    0 -0.00000000000E+00 -0.00000000000E+00 -0.45593999997E+02  0.45594000000E+02  0.51100000000E-03 0.  1.
    9900012    2    1    2    0    0  0.26727492627E+02 -0.12518074184E+02 -0.27966140495E+02  0.50528855179E+02  0.29999985801E+02 0.  0.
         12    1    1    2    0    0 -0.26727492627E+02  0.12518074184E+02  0.27966140495E+02  0.40659144821E+02  0.00000000000E+00 0. -1.
         11    1    3    3    0    0  0.15149273553E+02 -0.52818103054E+01 -0.94245396468E+01  0.18606986782E+02  0.51100000000E-03 0. -1.
        -11    1    3    3    0    0  0.91425003475E+01  0.41385793582E+01 -0.27444872518E-02  0.10035594626E+02  0.51100000000E-03 0.  1.
        -12    1    3    3    0    0  0.24357187261E+01 -0.11374843236E+02 -0.18538856361E+02  0.21886273770E+02  0.00000000000E+00 0.  1.
</event>
<event>
 7    1  0.2450552E-011  0.5052884E+02  0.7816164E-02  0.1300439E+00
        -11   -1    0    0    0    0  0.00000000000E+00  0.00000000000E+00  0.45593999997E+02  0.45594000000E+02  0.51100000000E-03 0. -1.
         11   -1    0    0    0    0 -0.00000000000E+00 -0.00000000000E+00 -0.45593999997E+02  0.45594000000E+02  0.51100000000E-03 0.  1.
    9900012    2    1    2    0    0 -0.11434878723E+02  0.38644551841E+02 -0.53860634447E+01  0.50528837222E+02  0.29999931220E+02 0.  0.
         12    1    1    2    0    0  0.11434878723E+02 -0.38644551841E+02  0.53860634447E+01  0.40659162778E+02  0.00000000000E+00 0. -1.
         11    1    3    3    0    0  0.88692501106E+00  0.15424249109E+02 -0.42335831261E+01  0.16019279725E+02  0.51100000000E-03 0. -1.
        -11    1    3    3    0    0 -0.15616606393E+02  0.10856374589E+02 -0.72260008069E+01  0.20345868190E+02  0.51100000000E-03 0.  1.
         12    1    3    3    0    0  0.32948026594E+01  0.12363928142E+02  0.60735204883E+01  0.14163689307E+02  0.00000000000E+00 0. -1.
</event>
<event>
 7    1  0.2450552E-011  0.5052886E+02  0.7816164E-02  0.1300439E+00
        -11   -1    0    0    0    0  0.00000000000E+00  0.00000000000E+00  0.45593999997E+02  0.45594000000E+02  0.51100000000E-03 0.  1.
         11   -1    0    0    0    0 -0.00000000000E+00 -0.00000000000E+00 -0.45593999997E+02  0.45594000000E+02  0.51100000000E-03 0. -1.
    9900012    2    1    2    0    0  0.29366082181E+02 -0.25416247236E+02  0.12033853250E+02  0.50528855515E+02  0.29999986825E+02 0.  0.
         12    1    1    2    0    0 -0.29366082181E+02  0.25416247236E+02 -0.12033853250E+02  0.40659144485E+02  0.00000000000E+00 0. -1.
         11    1    3    3    0    0  0.20043790119E+02 -0.92722454653E+01  0.11727002365E+02  0.25005012358E+02  0.51100000000E-03 0. -1.
        -11    1    3    3    0    0  0.13794449692E+02 -0.80276589797E+01 -0.16733413541E+01  0.16047748208E+02  0.51100000000E-03 0.  1.
        -12    1    3    3    0    0 -0.44721576311E+01 -0.81163427908E+01  0.19801922383E+01  0.94760949486E+01  0.00000000000E+00 0.  1.
</event>
<event>
 7    1  0.2450552E-011  0.5052886E+02  0.7816164E-02  0.1300439E+00
        -11   -1    0    0    0    0  0.00000000000E+00  0.00000000000E+00  0.45593999997E+02  0.45594000000E+02  0.51100000000E-03 0.  1.
         11   -1    0    0    0    0 -0.00000000000E+00 -0.00000000000E+00 -0.45593999997E+02  0.45594000000E+02  0.51100000000E-03 0. -1.
    9900012    2    1    2    0    0  0.18403647960E+02  0.33818424001E+02  0.13068500301E+02  0.50528858835E+02  0.29999996915E+02 0.  0.
         12    1    1    2    0    0 -0.18403647960E+02 -0.33818424001E+02 -0.13068500301E+02  0.40659141165E+02  0.00000000000E+00 0. -1.
         11    1    3    3    0    0  0.29841998524E+01 -0.23861741782E+01 -0.35724206225E+01  0.52308188014E+01  0.51100000000E-03 0. -1.
        -11    1    3    3    0    0 -0.21023741614E+01  0.10790153015E+02  0.21695804608E+01  0.11205108604E+02  0.51100000000E-03 0.  1.
        -12    1    3    3    0    0  0.17521822269E+02  0.25414445164E+02  0.14471340463E+02  0.34092931429E+02  0.00000000000E+00 0.  1.
</event>
<event>
 7    1  0.2450552E-011  0.5052886E+02  0.7816164E-02  0.1300439E+00
        -11   -1    0    0    0    0  0.00000000000E+00  0.00000000000E+00  0.45593999997E+02  0.45594000000E+02  0.51100000000E-03 0.  1.
         11   -1    0    0    0    0 -0.00000000000E+00 -0.00000000000E+00 -0.45593999997E+02  0.45594000000E+02  0.51100000000E-03 0. -1.
    9900012    2    1    2    0    0 -0.29439990333E+01  0.37489163983E+02  0.15461596794E+02  0.50528861766E+02  0.30000005825E+02 0.  0.
         12    1    1    2    0    0  0.29439990333E+01 -0.37489163983E+02 -0.15461596794E+02  0.40659138234E+02  0.00000000000E+00 0. -1.
         11    1    3    3    0    0 -0.51682834193E+01 -0.74370778374E+00  0.50136765605E+01  0.72388678454E+01  0.51100000000E-03 0.  1.
        -11    1    3    3    0    0  0.83457945550E+00  0.33510610432E+01 -0.41952098064E+01  0.54337757189E+01  0.51100000000E-03 0. -1.
        -12    1    3    3    0    0  0.13897049304E+01  0.34881810724E+02  0.14643130040E+02  0.37856218202E+02  0.00000000000E+00 0.  1.
</event>
<event>
 7    1  0.2450552E-011  0.5052886E+02  0.7816164E-02  0.1300439E+00
        -11   -1    0    0    0    0  0.00000000000E+00  0.00000000000E+00  0.45593999997E+02  0.45594000000E+02  0.51100000000E-03 0.  1.
         11   -1    0    0    0    0 -0.00000000000E+00 -0.00000000000E+00 -0.45593999997E+02  0.45594000000E+02  0.51100000000E-03 0. -1.
    9900012    2    1    2    0    0 -0.17760971086E+01 -0.32884888191E+01  0.40487001901E+02  0.50528855856E+02  0.29999987859E+02 0.  0.
         12    1    1    2    0    0  0.17760971086E+01  0.32884888191E+01 -0.40487001901E+02  0.40659144144E+02  0.00000000000E+00 0. -1.
         11    1    3    3    0    0  0.62026189822E+01 -0.48630148505E+01  0.77447388152E+00  0.79196720720E+01  0.51100000000E-03 0. -1.
        -11    1    3    3    0    0 -0.32221193223E+01 -0.56145611737E+01  0.21614509292E+02  0.22563075196E+02  0.51100000000E-03 0.  1.
        -12    1    3    3    0    0 -0.47565967685E+01  0.71890872051E+01  0.18098018727E+02  0.20046108588E+02  0.00000000000E+00 0.  1.
</event>
<event>
 7    1  0.2450552E-011  0.5052886E+02  0.7816164E-02  0.1300439E+00
        -11   -1    0    0    0    0  0.00000000000E+00  0.00000000000E+00  0.45593999997E+02  0.45594000000E+02  0.51100000000E-03 0. -1.
         11   -1    0    0    0    0 -0.00000000000E+00 -0.00000000000E+00 -0.45593999997E+02  0.45594000000E+02  0.51100000000E-03 0.  1.
    9900012    2    1    2    0    0 -0.23729568537E+02 -0.23933113837E+02  0.22743774981E+02  0.50528860053E+02  0.30000000617E+02 0.  0.
         12    1    1    2    0    0  0.23729568537E+02  0.23933113837E+02 -0.22743774981E+02  0.40659139947E+02  0.00000000000E+00 0. -1.
         11    1    3    3    0    0 -0.87959278573E+01 -0.85952686450E+01  0.16926250892E+02  0.20922355495E+02  0.51100000000E-03 0. -1.
        -11    1    3    3    0    0 -0.15956906113E+02 -0.30985221654E+01  0.59893497845E+01  0.17323279234E+02  0.51100000000E-03 0.  1.
        -12    1    3    3    0    0  0.10232654340E+01 -0.12239323026E+02 -0.17182569503E+00  0.12283225324E+02  0.00000000000E+00 0.  1.
</event>
<event>
 7    1  0.2450552E-011  0.5052886E+02  0.7816164E-02  0.1300439E+00
        -11   -1    0    0    0    0  0.00000000000E+00  0.00000000000E+00  0.45593999997E+02  0.45594000000E+02  0.51100000000E-03 0. -1.
         11   -1    0    0    0    0 -0.00000000000E+00 -0.00000000000E+00 -0.45593999997E+02  0.45594000000E+02  0.51100000000E-03 0.  1.
    9900012    2    1    2    0    0  0.24325616104E+02 -0.10732723014E+02 -0.30760992944E+02  0.50528860449E+02  0.30000001820E+02 0.  0.
         12    1    1    2    0    0 -0.24325616104E+02  0.10732723014E+02  0.30760992944E+02  0.40659139551E+02  0.00000000000E+00 0. -1.
         11    1    3    3    0    0 -0.44590709196E+00 -0.99326432981E+01 -0.55800753137E+01  0.11401468186E+02  0.51100000000E-03 0. -1.
        -11    1    3    3    0    0  0.21658289048E+02 -0.62925972926E+01 -0.14796402218E+02  0.26974280047E+02  0.51100000000E-03 0.  1.
         12    1    3    3    0    0  0.31132341478E+01  0.54925175771E+01 -0.10384515412E+02  0.12153112216E+02  0.00000000000E+00 0. -1.
</event>
<event>
 7    1  0.2450552E-011  0.5052887E+02  0.7816164E-02  0.1300439E+00
        -11   -1    0    0    0    0  0.00000000000E+00  0.00000000000E+00  0.45593999997E+02  0.45594000000E+02  0.51100000000E-03 0.  1.
         11   -1    0    0    0    0 -0.00000000000E+00 -0.00000000000E+00 -0.45593999997E+02  0.45594000000E+02  0.51100000000E-03 0. -1.
    9900012    2    1    2    0    0 -0.16274152049E+02 -0.16984571204E+02  0.33163850560E+02  0.50528872269E+02  0.30000037750E+02 0.  0.
         12    1    1    2    0    0  0.16274152049E+02  0.16984571204E+02 -0.33163850560E+02  0.40659127731E+02  0.00000000000E+00 0. -1.
         11    1    3    3    0    0 -0.29586605903E+01 -0.82500714825E+01  0.19124949696E+01  0.89707853182E+01  0.51100000000E-03 0. -1.
        -11    1    3    3    0    0 -0.16783193190E+02 -0.10397192340E+02  0.14829459261E+02  0.24691902406E+02  0.51100000000E-03 0.  1.
        -12    1    3    3    0    0  0.34677017321E+01  0.16626926183E+01  0.16421896329E+02  0.16866184545E+02  0.00000000000E+00 0.  1.
</event>
<event>
 7    1  0.2450552E-011  0.5052888E+02  0.7816164E-02  0.1300439E+00
        -11   -1    0    0    0    0  0.00000000000E+00  0.00000000000E+00  0.45593999997E+02  0.45594000000E+02  0.51100000000E-03 0.  1.
         11   -1    0    0    0    0 -0.00000000000E+00 -0.00000000000E+00 -0.45593999997E+02  0.45594000000E+02  0.51100000000E-03 0. -1.
    9900012    2    1    2    0    0 -0.28836655984E+02  0.61645423616E+01  0.27993023222E+02  0.50528884663E+02  0.30000075422E+02 0.  0.
         12    1    1    2    0    0  0.28836655984E+02 -0.61645423616E+01 -0.27993023222E+02  0.40659115337E+02  0.00000000000E+00 0. -1.
         11    1    3    3    0    0 -0.35370815931E+01 -0.50513366606E+01  0.37337750159E+01  0.72088851000E+01  0.51100000000E-03 0. -1.
        -11    1    3    3    0    0  0.89007816373E+00  0.56363912301E+01 -0.17718837258E+01  0.59750077352E+01  0.51100000000E-03 0.  1.
        -12    1    3    3    0    0 -0.26189652554E+02  0.55794877921E+01  0.26031131932E+02  0.37344991828E+02  0.00000000000E+00 0.  1.
</event>
<event>
 7    1  0.2450552E-011  0.5052886E+02  0.7816164E-02  0.1300439E+00
        -11   -1    0    0    0    0  0.00000000000E+00  0.00000000000E+00  0.45593999997E+02  0.45594000000E+02  0.51100000000E-03 0.  1.
         11   -1    0    0    0    0 -0.00000000000E+00 -0.00000000000E+00 -0.45593999997E+02  0.45594000000E+02  0.51100000000E-03 0. -1.
    9900012    2    1    2    0    0  0.33304639307E+02  0.16809453942E+02  0.16168143827E+02  0.50528860609E+02  0.30000002307E+02 0.  0.
         12    1    1    2    0    0 -0.33304639307E+02 -0.16809453942E+02 -0.16168143827E+02  0.40659139391E+02  0.00000000000E+00 0. -1.
         11    1    3    3    0    0 -0.13353340591E+01  0.52464435725E+01 -0.11327323704E+01  0.55309465820E+01  0.51100000000E-03 0. -1.
        -11    1    3    3    0    0  0.68612435423E+01 -0.56215366294E+01  0.34241667415E+01  0.95080626395E+01  0.51100000000E-03 0.  1.
        -12    1    3    3    0    0  0.27778729824E+02  0.17184546999E+02  0.13876709456E+02  0.35489851388E+02  0.00000000000E+00 0.  1.
</event>
<event>
 7    1  0.2450552E-011  0.5052886E+02  0.7816164E-02  0.1300439E+00
        -11   -1    0    0    0    0  0.00000000000E+00  0.00000000000E+00  0.45593999997E+02  0.45594000000E+02  0.51100000000E-03 0.  1.
         11   -1    0    0    0    0 -0.00000000000E+00 -0.00000000000E+00 -0.45593999997E+02  0.45594000000E+02  0.51100000000E-03 0. -1.
    9900012    2    1    2    0    0  0.21347043348E+01  0.32401997460E+02  0.24468741827E+02  0.50528859225E+02  0.29999998100E+02 0.  0.
         12    1    1    2    0    0 -0.21347043348E+01 -0.32401997460E+02 -0.24468741827E+02  0.40659140775E+02  0.00000000000E+00 0. -1.
         11    1    3    3    0    0  0.35595037634E+01 -0.47994584954E+01  0.31191221418E+00  0.59834904848E+01  0.51100000000E-03 0. -1.
        -11    1    3    3    0    0  0.12249113571E+01  0.68275559100E+01  0.45760212064E+01  0.83099878387E+01  0.51100000000E-03 0.  1.
         12    1    3    3    0    0 -0.26497107857E+01  0.30373900045E+02  0.19580808406E+02  0.36235380901E+02  0.00000000000E+00 0. -1.
</event>
<event>
 7    1  0.2450552E-011  0.5052890E+02  0.7816164E-02  0.1300439E+00
        -11   -1    0    0    0    0  0.00000000000E+00  0.00000000000E+00  0.45593999997E+02  0.45594000000E+02  0.51100000000E-03 0. -1.
         11   -1    0    0    0    0 -0.00000000000E+00 -0.00000000000E+00 -0.45593999997E+02  0.45594000000E+02  0.51100000000E-03 0.  1.
    9900012    2    1    2    0    0 -0.27084552901E+02 -0.30284231812E+02  0.15668514618E+01  0.50528896151E+02  0.30000110341E+02 0.  0.
         12    1    1    2    0    0  0.27084552901E+02  0.30284231812E+02 -0.15668514618E+01  0.40659103849E+02  0.00000000000E+00 0. -1.
         11    1    3    3    0    0 -0.19229521420E+01  0.22901308093E+01 -0.21051107709E+01  0.36570391963E+01  0.51100000000E-03 0. -1.
        -11    1    3    3    0    0 -0.23634611606E+02 -0.14231218389E+02  0.62446036812E+01  0.28286348616E+02  0.51100000000E-03 0.  1.
         12    1    3    3    0    0 -0.15269891524E+01 -0.18343144233E+02 -0.25726414486E+01  0.18585508339E+02  0.00000000000E+00 0. -1.
</event>
<event>
 7    1  0.2450552E-011  0.5052884E+02  0.7816164E-02  0.1300439E+00
        -11   -1    0    0    0    0  0.00000000000E+00  0.00000000000E+00  0.45593999997E+02  0.45594000000E+02  0.51100000000E-03 0. -1.
         11   -1    0    0    0    0 -0.00000000000E+00 -0.00000000000E+00 -0.45593999997E+02  0.45594000000E+02  0.51100000000E-03 0.  1.
    9900012    2    1    2    0    0 -0.93023472595E+01 -0.33830589199E+02 -0.20545684467E+02  0.50528836454E+02  0.29999928884E+02 0.  0.
         12    1    1    2    0    0  0.93023472595E+01  0.33830589199E+02  0.20545684467E+02  0.40659163546E+02  0.00000000000E+00 0. -1.
         11    1    3    3    0    0  0.37659538586E+01 -0.17173750245E+01  0.12253237233E+01  0.43166195024E+01  0.51100000000E-03 0. -1.
        -11    1    3    3    0    0 -0.12314245878E+02 -0.33385483805E+02 -0.13898649183E+02  0.38202141691E+02  0.51100000000E-03 0.  1.
         12    1    3    3    0    0 -0.75405523974E+00  0.12722696306E+01 -0.78723590080E+01  0.80100752598E+01  0.00000000000E+00 0. -1.
</event>
<event>
 7    1  0.2484744E-011  0.5052887E+02  0.7816164E-02  0.1300439E+00
        -11   -1    0    0    0    0  0.00000000000E+00  0.00000000000E+00  0.45593999997E+02  0.45594000000E+02  0.51100000000E-03 0.  1.
         11   -1    0    0    0    0 -0.00000000000E+00 -0.00000000000E+00 -0.45593999997E+02  0.45594000000E+02  0.51100000000E-03 0. -1.
    9900012    2    1    2    0    0 -0.28314403827E+02 -0.29121135684E+02  0.18490959682E+01  0.50528866173E+02  0.30000019220E+02 0.  0.
         12    1    1    2    0    0  0.28314403827E+02  0.29121135684E+02 -0.18490959682E+01  0.40659133827E+02  0.00000000000E+00 0. -1.
         11    1    3    3    0    0 -0.12640986332E+01  0.16313493049E+01 -0.67525547856E+01  0.70608952905E+01  0.51100000000E-03 0. -1.
        -11    1    3    3    0    0 -0.83660450970E+01 -0.72997145640E+01  0.76201016695E+01  0.13466346683E+02  0.51100000000E-03 0.  1.
        -12    1    3    3    0    0 -0.18684260097E+02 -0.23452770425E+02  0.98154908432E+00  0.30001624199E+02  0.00000000000E+00 0.  1.
</event>
<event>
 7    1  0.2450552E-011  0.5052889E+02  0.7816164E-02  0.1300439E+00
        -11   -1    0    0    0    0  0.00000000000E+00  0.00000000000E+00  0.45593999997E+02  0.45594000000E+02  0.51100000000E-03 0. -1.
         11   -1    0    0    0    0 -0.00000000000E+00 -0.00000000000E+00 -0.45593999997E+02  0.45594000000E+02  0.51100000000E-03 0.  1.
    9900012    2    1    2    0    0  0.27893930129E+01 -0.39567646087E+02  0.89321895006E+01  0.50528888604E+02  0.30000087402E+02 0.  0.
         12    1    1    2    0    0 -0.27893930129E+01  0.39567646087E+02 -0.89321895006E+01  0.40659111396E+02  0.00000000000E+00 0. -1.
         11    1    3    3    0    0 -0.97329638188E+01 -0.12109713627E+02  0.64292205336E+00  0.15549569057E+02  0.51100000000E-03 0. -1.
        -11    1    3    3    0    0  0.70162317501E+01 -0.11921016306E+01  0.11491326649E+01  0.72089611188E+01  0.51100000000E-03 0.  1.
        -12    1    3    3    0    0  0.55061250816E+01 -0.26265830829E+02  0.71401347823E+01  0.27770358429E+02  0.00000000000E+00 0.  1.
</event>
<event>
 7    1  0.2450552E-011  0.5052886E+02  0.7816164E-02  0.1300439E+00
        -11   -1    0    0    0    0  0.00000000000E+00  0.00000000000E+00  0.45593999997E+02  0.45594000000E+02  0.51100000000E-03 0.  1.
         11   -1    0    0    0    0 -0.00000000000E+00 -0.00000000000E+00 -0.45593999997E+02  0.45594000000E+02  0.51100000000E-03 0. -1.
    9900012    2    1    2    0    0 -0.60701678547E+01 -0.16443082470E+02  0.36687106667E+02  0.50528859644E+02  0.29999999375E+02 0.  0.
         12    1    1    2    0    0  0.60701678547E+01  0.16443082470E+02 -0.36687106667E+02  0.40659140356E+02  0.00000000000E+00 0. -1.
         11    1    3    3    0    0  0.12539502367E+01  0.39539875519E+01  0.65572454486E+01  0.77591157287E+01  0.51100000000E-03 0. -1.
        -11    1    3    3    0    0 -0.97631988945E+01 -0.26710294756E+01  0.19464942574E+02  0.21939426628E+02  0.51100000000E-03 0.  1.
         12    1    3    3    0    0  0.24390808031E+01 -0.17726040546E+02  0.10664918644E+02  0.20830317287E+02  0.00000000000E+00 0. -1.
</event>
<event>
 7    1  0.2450552E-011  0.5052879E+02  0.7816164E-02  0.1300439E+00
        -11   -1    0    0    0    0  0.00000000000E+00  0.00000000000E+00  0.45593999997E+02  0.45594000000E+02  0.51100000000E-03 0. -1.
         11   -1    0    0    0    0 -0.00000000000E+00 -0.00000000000E+00 -0.45593999997E+02  0.45594000000E+02  0.51100000000E-03 0.  1.
    9900012    2    1    2    0    0  0.34734195876E+02  0.20789777895E+02 -0.38068828599E+01  0.50528787204E+02  0.29999779185E+02 0.  0.
         12    1    1    2    0    0 -0.34734195876E+02 -0.20789777895E+02  0.38068828599E+01  0.40659212796E+02  0.00000000000E+00 0. -1.
         11    1    3    3    0    0  0.11616555998E+01 -0.30034057516E+01  0.37408743740E+00  0.32418870297E+01  0.51100000000E-03 0. -1.
        -11    1    3    3    0    0  0.28152775914E+02  0.84584674916E+01 -0.82296736925E+01  0.30526250888E+02  0.51100000000E-03 0.  1.
         12    1    3    3    0    0  0.54197643622E+01  0.15334716155E+02  0.40487033952E+01  0.16760649286E+02  0.00000000000E+00 0. -1.
</event>
<event>
 7    1  0.2450552E-011  0.5052886E+02  0.7816164E-02  0.1300439E+00
        -11   -1    0    0    0    0  0.00000000000E+00  0.00000000000E+00  0.45593999997E+02  0.45594000000E+02  0.51100000000E-03 0. -1.
         11   -1    0    0    0    0 -0.00000000000E+00 -0.00000000000E+00 -0.45593999997E+02  0.45594000000E+02  0.51100000000E-03 0.  1.
    9900012    2    1    2    0    0  0.19674134769E+02  0.32361753885E+02 -0.14792266115E+02  0.50528857975E+02  0.29999994300E+02 0.  0.
         12    1    1    2    0    0 -0.19674134769E+02 -0.32361753885E+02  0.14792266115E+02  0.40659142025E+02  0.00000000000E+00 0. -1.
         11    1    3    3    0    0  0.43664899665E+01  0.21910618900E+01 -0.32221629763E+00  0.48959994319E+01  0.51100000000E-03 0. -1.
        -11    1    3    3    0    0  0.18553768292E+02  0.21491519876E+02  0.68368615624E-01  0.28392471166E+02  0.51100000000E-03 0.  1.
         12    1    3    3    0    0 -0.32461234892E+01  0.86791721191E+01 -0.14538418433E+02  0.17240387377E+02  0.00000000000E+00 0. -1.
</event>
<event>
 7    1  0.2450552E-011  0.5052887E+02  0.7816164E-02  0.1300439E+00
        -11   -1    0    0    0    0  0.00000000000E+00  0.00000000000E+00  0.45593999997E+02  0.45594000000E+02  0.51100000000E-03 0.  1.
         11   -1    0    0    0    0 -0.00000000000E+00 -0.00000000000E+00 -0.45593999997E+02  0.45594000000E+02  0.51100000000E-03 0. -1.
    9900012    2    1    2    0    0 -0.26694993423E+02  0.13040684238E+01  0.30640523666E+02  0.50528868691E+02  0.30000026873E+02 0.  0.
         12    1    1    2    0    0  0.26694993423E+02 -0.13040684238E+01 -0.30640523666E+02  0.40659131309E+02  0.00000000000E+00 0. -1.
         11    1    3    3    0    0 -0.44418196927E+01 -0.21175317038E+01 -0.35433631047E+01  0.60637550290E+01  0.51100000000E-03 0. -1.
        -11    1    3    3    0    0 -0.12821431068E+02 -0.65022989588E+01  0.21067922460E+02  0.25505417923E+02  0.51100000000E-03 0.  1.
        -12    1    3    3    0    0 -0.94317426618E+01  0.99238990864E+01  0.13115964310E+02  0.18959695739E+02  0.00000000000E+00 0.  1.
</event>
<event>
 7    1  0.2450552E-011  0.5052887E+02  0.7816164E-02  0.1300439E+00
        -11   -1    0    0    0    0  0.00000000000E+00  0.00000000000E+00  0.45593999997E+02  0.45594000000E+02  0.51100000000E-03 0. -1.
         11   -1    0    0    0    0 -0.00000000000E+00 -0.00000000000E+00 -0.45593999997E+02  0.45594000000E+02  0.51100000000E-03 0.  1.
    9900012    2    1    2    0    0 -0.16294605796E+02 -0.32432352372E+02 -0.18324664758E+02  0.50528868223E+02  0.30000025449E+02 0.  0.
         12    1    1    2    0    0  0.16294605796E+02  0.32432352372E+02  0.18324664758E+02  0.40659131777E+02  0.00000000000E+00 0. -1.
         11    1    3    3    0    0 -0.38962329236E+01 -0.22600317637E+02 -0.72479813626E+01  0.24051782104E+02  0.51100000000E-03 0. -1.
        -11    1    3    3    0    0  0.24072045764E+01 -0.33586360736E+01 -0.93546872928E+01  0.10226692757E+02  0.51100000000E-03 0.  1.
        -12    1    3    3    0    0 -0.14805577448E+02 -0.64733986612E+01 -0.17219961025E+01  0.16250393361E+02  0.00000000000E+00 0.  1.
</event>
<event>
 7    1  0.2450552E-011  0.5052886E+02  0.7816164E-02  0.1300439E+00
        -11   -1    0    0    0    0  0.00000000000E+00  0.00000000000E+00  0.45593999997E+02  0.45594000000E+02  0.51100000000E-03 0.  1.
         11   -1    0    0    0    0 -0.00000000000E+00 -0.00000000000E+00 -0.45593999997E+02  0.45594000000E+02  0.51100000000E-03 0. -1.
    9900012    2    1    2    0    0  0.54940861691E+01  0.26149997595E+02  0.30645687512E+02  0.50528861788E+02  0.30000005890E+02 0.  0.
         12    1    1    2    0    0 -0.54940861691E+01 -0.26149997595E+02 -0.30645687512E+02  0.40659138212E+02  0.00000000000E+00 0. -1.
         11    1    3    3    0    0 -0.23092444849E+01 -0.58465916354E+00  0.16296090860E+02  0.16469274847E+02  0.51100000000E-03 0. -1.
        -11    1    3    3    0    0  0.55803048916E+01  0.27643605261E+01  0.40807469581E+00  0.62408346413E+01  0.51100000000E-03 0.  1.
        -12    1    3    3    0    0  0.22230257624E+01  0.23970296232E+02  0.13941521957E+02  0.27818752299E+02  0.00000000000E+00 0.  1.
</event>
<event>
 7    1  0.2450552E-011  0.5052886E+02  0.7816164E-02  0.1300439E+00
        -11   -1    0    0    0    0  0.00000000000E+00  0.00000000000E+00  0.45593999997E+02  0.45594000000E+02  0.51100000000E-03 0.  1.
         11   -1    0    0    0    0 -0.00000000000E+00 -0.00000000000E+00 -0.45593999997E+02  0.45594000000E+02  0.51100000000E-03 0. -1.
    9900012    2    1    2    0    0 -0.22597329785E+01  0.40357061116E+02 -0.44008068532E+01  0.50528857411E+02  0.29999992588E+02 0.  0.
         12    1    1    2    0    0  0.22597329785E+01 -0.40357061116E+02  0.44008068532E+01  0.40659142589E+02  0.00000000000E+00 0. -1.
         11    1    3    3    0    0  0.78890139481E+01  0.10189111187E+02 -0.14567956668E+01  0.12968299107E+02  0.51100000000E-03 0. -1.
        -11    1    3    3    0    0 -0.59323504507E+00 -0.28210193010E+01 -0.13377763198E+01  0.31780062081E+01  0.51100000000E-03 0.  1.
        -12    1    3    3    0    0 -0.95555118815E+01  0.32988969231E+02 -0.16062348666E+01  0.34382552097E+02  0.00000000000E+00 0.  1.
</event>
<event>
 7    1  0.2450552E-011  0.5052884E+02  0.7816164E-02  0.1300439E+00
        -11   -1    0    0    0    0  0.00000000000E+00  0.00000000000E+00  0.45593999997E+02  0.45594000000E+02  0.51100000000E-03 0.  1.
         11   -1    0    0    0    0 -0.00000000000E+00 -0.00000000000E+00 -0.45593999997E+02  0.45594000000E+02  0.51100000000E-03 0. -1.
    9900012    2    1    2    0    0 -0.35646791637E+02 -0.76155383934E+01  0.18013259103E+02  0.50528835196E+02  0.29999925062E+02 0.  0.
         12    1    1    2    0    0  0.35646791637E+02  0.76155383934E+01 -0.18013259103E+02  0.40659164804E+02  0.00000000000E+00 0. -1.
         11    1    3    3    0    0 -0.39047431784E+01  0.60639630464E+01  0.91926817520E+01  0.11684351294E+02  0.51100000000E-03 0. -1.
        -11    1    3    3    0    0 -0.21999656212E+02 -0.36884063310E+01 -0.54087701618E-01  0.22306773421E+02  0.51100000000E-03 0.  1.
        -12    1    3    3    0    0 -0.97423922466E+01 -0.99910951088E+01  0.88746650527E+01  0.16537710481E+02  0.00000000000E+00 0.  1.
</event>
<event>
 7    1  0.2450552E-011  0.5052886E+02  0.7816164E-02  0.1300439E+00
        -11   -1    0    0    0    0  0.00000000000E+00  0.00000000000E+00  0.45593999997E+02  0.45594000000E+02  0.51100000000E-03 0.  1.
         11   -1    0    0    0    0 -0.00000000000E+00 -0.00000000000E+00 -0.45593999997E+02  0.45594000000E+02  0.51100000000E-03 0. -1.
    9900012    2    1    2    0    0  0.40331780056E+02  0.26218592595E+01 -0.44315856443E+01  0.50528861054E+02  0.30000003661E+02 0.  0.
         12    1    1    2    0    0 -0.40331780056E+02 -0.26218592595E+01  0.44315856443E+01  0.40659138946E+02  0.00000000000E+00 0. -1.
         11    1    3    3    0    0  0.23821496068E+02  0.10091126624E+02 -0.97382551571E+00  0.25889048801E+02  0.51100000000E-03 0. -1.
        -11    1    3    3    0    0  0.78986517340E-01  0.97968755012E-01  0.47663837633E+01  0.47680447970E+01  0.51100000000E-03 0.  1.
         12    1    3    3    0    0  0.16431297471E+02 -0.75672361193E+01 -0.82241438919E+01  0.19871767456E+02  0.00000000000E+00 0. -1.
</event>
<event>
 7    1  0.2450552E-011  0.5052887E+02  0.7816164E-02  0.1300439E+00
        -11   -1    0    0    0    0  0.00000000000E+00  0.00000000000E+00  0.45593999997E+02  0.45594000000E+02  0.51100000000E-03 0. -1.
         11   -1    0    0    0    0 -0.00000000000E+00 -0.00000000000E+00 -0.45593999997E+02  0.45594000000E+02  0.51100000000E-03 0.  1.
    9900012    2    1    2    0    0  0.17496295929E+02  0.61049771048E+01 -0.36190801313E+02  0.50528865524E+02  0.30000017246E+02 0.  0.
         12    1    1    2    0    0 -0.17496295929E+02 -0.61049771048E+01  0.36190801313E+02  0.40659134476E+02  0.00000000000E+00 0. -1.
         11    1    3    3    0    0 -0.37531184657E+01 -0.66363491287E+01 -0.10890611430E+02  0.13294075581E+02  0.51100000000E-03 0. -1.
        -11    1    3    3    0    0  0.80082829541E+01  0.80811912857E+01 -0.18301550543E+02  0.21549593987E+02  0.51100000000E-03 0.  1.
        -12    1    3    3    0    0  0.13241131441E+02  0.46601349479E+01 -0.69986393406E+01  0.15685195956E+02  0.00000000000E+00 0.  1.
</event>
<event>
 7    1  0.2450552E-011  0.5052887E+02  0.7816164E-02  0.1300439E+00
        -11   -1    0    0    0    0  0.00000000000E+00  0.00000000000E+00  0.45593999997E+02  0.45594000000E+02  0.51100000000E-03 0.  1.
         11   -1    0    0    0    0 -0.00000000000E+00 -0.00000000000E+00 -0.45593999997E+02  0.45594000000E+02  0.51100000000E-03 0. -1.
    9900012    2    1    2    0    0  0.21733315088E+02 -0.29612967597E+02  0.17432738593E+02  0.50528865608E+02  0.30000017502E+02 0.  0.
         12    1    1    2    0    0 -0.21733315088E+02  0.29612967597E+02 -0.17432738593E+02  0.40659134392E+02  0.00000000000E+00 0. -1.
         11    1    3    3    0    0 -0.39607754889E+01 -0.58418120758E+01  0.34936235755E+01  0.78752724874E+01  0.51100000000E-03 0.  1.
        -11    1    3    3    0    0  0.11778218726E+02 -0.16345383862E+02 -0.19794288619E+01  0.20243916341E+02  0.51100000000E-03 0. -1.
        -12    1    3    3    0    0  0.13915871851E+02 -0.74257716597E+01  0.15918543880E+02  0.22409676779E+02  0.00000000000E+00 0.  1.
</event>
<event>
 7    1  0.3076322E-011  0.5052886E+02  0.7816164E-02  0.1300439E+00
        -11   -1    0    0    0    0  0.00000000000E+00  0.00000000000E+00  0.45593999997E+02  0.45594000000E+02  0.51100000000E-03 0. -1.
         11   -1    0    0    0    0 -0.00000000000E+00 -0.00000000000E+00 -0.45593999997E+02  0.45594000000E+02  0.51100000000E-03 0.  1.
    9900012    2    1    2    0    0  0.13229730806E+02  0.93304009095E+01 -0.37297234305E+02  0.50528857791E+02  0.29999993742E+02 0.  0.
         12    1    1    2    0    0 -0.13229730806E+02 -0.93304009095E+01  0.37297234305E+02  0.40659142209E+02  0.00000000000E+00 0. -1.
         11    1    3    3    0    0  0.33531619517E+01  0.12774589900E+01  0.25912880539E+01  0.44261010590E+01  0.51100000000E-03 0. -1.
        -11    1    3    3    0    0  0.15714652175E+02  0.50904330279E+01 -0.27145913630E+02  0.31776774985E+02  0.51100000000E-03 0.  1.
         12    1    3    3    0    0 -0.58380833201E+01  0.29625088916E+01 -0.12742608729E+02  0.14325981747E+02  0.00000000000E+00 0. -1.
</event>
<event>
 7    1  0.2450552E-011  0.5052886E+02  0.7816164E-02  0.1300439E+00
        -11   -1    0    0    0    0  0.00000000000E+00  0.00000000000E+00  0.45593999997E+02  0.45594000000E+02  0.51100000000E-03 0.  1.
         11   -1    0    0    0    0 -0.00000000000E+00 -0.00000000000E+00 -0.45593999997E+02  0.45594000000E+02  0.51100000000E-03 0. -1.
    9900012    2    1    2    0    0 -0.39056723276E+02  0.55498887818E+01  0.98456503217E+01  0.50528859222E+02  0.29999998093E+02 0.  0.
         12    1    1    2    0    0  0.39056723276E+02 -0.55498887818E+01 -0.98456503217E+01  0.40659140778E+02  0.00000000000E+00 0. -1.
         11    1    3    3    0    0 -0.12815791557E+02 -0.20179840337E+01  0.72429032479E+01  0.14858547052E+02  0.51100000000E-03 0. -1.
        -11    1    3    3    0    0 -0.24794908342E+02  0.16410831480E+01 -0.55758139298E+01  0.25467044093E+02  0.51100000000E-03 0.  1.
         12    1    3    3    0    0 -0.14460233769E+01  0.59267896675E+01  0.81785610036E+01  0.10203268077E+02  0.00000000000E+00 0. -1.
</event>
<event>
 7    1  0.2450552E-011  0.5052887E+02  0.7816164E-02  0.1300439E+00
        -11   -1    0    0    0    0  0.00000000000E+00  0.00000000000E+00  0.45593999997E+02  0.45594000000E+02  0.51100000000E-03 0.  1.
         11   -1    0    0    0    0 -0.00000000000E+00 -0.00000000000E+00 -0.45593999997E+02  0.45594000000E+02  0.51100000000E-03 0. -1.
    9900012    2    1    2    0    0  0.22287759795E+02 -0.19173899927E+02  0.28085272485E+02  0.50528865656E+02  0.30000017647E+02 0.  0.
         12    1    1    2    0    0 -0.22287759795E+02  0.19173899927E+02 -0.28085272485E+02  0.40659134344E+02  0.00000000000E+00 0. -1.
         11    1    3    3    0    0  0.19645174834E+01 -0.61199439806E+01 -0.45081075456E+01  0.78508647404E+01  0.51100000000E-03 0. -1.
        -11    1    3    3    0    0  0.54035377657E+01  0.25245069292E+01  0.76852682396E+01  0.97280369960E+01  0.51100000000E-03 0.  1.
        -12    1    3    3    0    0  0.14919704546E+02 -0.15578462875E+02  0.24908111791E+02  0.32949963919E+02  0.00000000000E+00 0.  1.
</event>
<event>
 7    1  0.2450552E-011  0.5052883E+02  0.7816164E-02  0.1300439E+00
        -11   -1    0    0    0    0  0.00000000000E+00  0.00000000000E+00  0.45593999997E+02  0.45594000000E+02  0.51100000000E-03 0. -1.
         11   -1    0    0    0    0 -0.00000000000E+00 -0.00000000000E+00 -0.45593999997E+02  0.45594000000E+02  0.51100000000E-03 0.  1.
    9900012    2    1    2    0    0  0.11705937785E+02  0.22693454805E+02 -0.31640899836E+02  0.50528826216E+02  0.29999897765E+02 0.  0.
         12    1    1    2    0    0 -0.11705937785E+02 -0.22693454805E+02  0.31640899836E+02  0.40659173784E+02  0.00000000000E+00 0. -1.
         11    1    3    3    0    0  0.18075661744E+01 -0.30010560802E+01 -0.49274223374E+01  0.60459179802E+01  0.51100000000E-03 0. -1.
        -11    1    3    3    0    0  0.33582687330E+01  0.78272647829E+01 -0.23744719364E+02  0.25226092460E+02  0.51100000000E-03 0.  1.
        -12    1    3    3    0    0  0.65401028778E+01  0.17867246102E+02 -0.29687581342E+01  0.19256815775E+02  0.00000000000E+00 0.  1.
</event>
<event>
 7    1  0.2450552E-011  0.5052886E+02  0.7816164E-02  0.1300439E+00
        -11   -1    0    0    0    0  0.00000000000E+00  0.00000000000E+00  0.45593999997E+02  0.45594000000E+02  0.51100000000E-03 0. -1.
         11   -1    0    0    0    0 -0.00000000000E+00 -0.00000000000E+00 -0.45593999997E+02  0.45594000000E+02  0.51100000000E-03 0.  1.
    9900012    2    1    2    0    0 -0.31052762029E+02 -0.15396498770E+02 -0.21256520976E+02  0.50528857264E+02  0.29999992140E+02 0.  0.
         12    1    1    2    0    0  0.31052762029E+02  0.15396498770E+02  0.21256520976E+02  0.40659142736E+02  0.00000000000E+00 0. -1.
         11    1    3    3    0    0 -0.15002490572E+02 -0.63026716226E+01 -0.88857855151E+01  0.18540646629E+02  0.51100000000E-03 0. -1.
        -11    1    3    3    0    0 -0.38344505084E+01 -0.68234088412E+01 -0.17010767616E+02  0.18725066998E+02  0.51100000000E-03 0.  1.
         12    1    3    3    0    0 -0.12215820949E+02 -0.22704183063E+01  0.46400321552E+01  0.13263143637E+02  0.00000000000E+00 0. -1.
</event>
<event>
 7    1  0.2450552E-011  0.5052887E+02  0.7816164E-02  0.1300439E+00
        -11   -1    0    0    0    0  0.00000000000E+00  0.00000000000E+00  0.45593999997E+02  0.45594000000E+02  0.51100000000E-03 0. -1.
         11   -1    0    0    0    0 -0.00000000000E+00 -0.00000000000E+00 -0.45593999997E+02  0.45594000000E+02  0.51100000000E-03 0.  1.
    9900012    2    1    2    0    0  0.25212244123E+01  0.27144813692E+02 -0.30165660784E+02  0.50528873430E+02  0.30000041277E+02 0.  0.
         12    1    1    2    0    0 -0.25212244123E+01 -0.27144813692E+02  0.30165660784E+02  0.40659126570E+02  0.00000000000E+00 0. -1.
         11    1    3    3    0    0 -0.70022482369E+00  0.20031272791E+02 -0.13572085551E+02  0.24206274205E+02  0.51100000000E-03 0. -1.
        -11    1    3    3    0    0 -0.72329150122E+01  0.22080588910E+01 -0.22137540451E+01  0.78798027179E+01  0.51100000000E-03 0.  1.
        -12    1    3    3    0    0  0.10454364248E+02  0.49054820101E+01 -0.14379821189E+02  0.18442796507E+02  0.00000000000E+00 0.  1.
</event>
<event>
 7    1  0.2450552E-011  0.5052887E+02  0.7816164E-02  0.1300439E+00
        -11   -1    0    0    0    0  0.00000000000E+00  0.00000000000E+00  0.45593999997E+02  0.45594000000E+02  0.51100000000E-03 0.  1.
         11   -1    0    0    0    0 -0.00000000000E+00 -0.00000000000E+00 -0.45593999997E+02  0.45594000000E+02  0.51100000000E-03 0. -1.
    9900012    2    1    2    0    0 -0.23703601438E+02 -0.31812294464E+02  0.89040498735E+01  0.50528869360E+02  0.30000028908E+02 0.  0.
         12    1    1    2    0    0  0.23703601438E+02  0.31812294464E+02 -0.89040498735E+01  0.40659130640E+02  0.00000000000E+00 0. -1.
         11    1    3    3    0    0  0.30721694359E+00 -0.18710501512E+02  0.79793117283E+01  0.20343221598E+02  0.51100000000E-03 0.  1.
        -11    1    3    3    0    0 -0.11746222580E+02 -0.95631817010E+01 -0.52169179728E+01  0.16020125547E+02  0.51100000000E-03 0. -1.
        -12    1    3    3    0    0 -0.12264595801E+02 -0.35386112517E+01  0.61416561179E+01  0.14165522215E+02  0.00000000000E+00 0.  1.
</event>
<event>
 7    1  0.2450552E-011  0.5052885E+02  0.7816164E-02  0.1300439E+00
        -11   -1    0    0    0    0  0.00000000000E+00  0.00000000000E+00  0.45593999997E+02  0.45594000000E+02  0.51100000000E-03 0.  1.
         11   -1    0    0    0    0 -0.00000000000E+00 -0.00000000000E+00 -0.45593999997E+02  0.45594000000E+02  0.51100000000E-03 0. -1.
    9900012    2    1    2    0    0 -0.21565229726E+02 -0.79223579154E+00  0.34459830006E+02  0.50528847836E+02  0.29999963482E+02 0.  0.
         12    1    1    2    0    0  0.21565229726E+02  0.79223579154E+00 -0.34459830006E+02  0.40659152164E+02  0.00000000000E+00 0. -1.
         11    1    3    3    0    0 -0.66066356887E+01  0.86723022194E+01  0.73974552752E+01  0.13174930957E+02  0.51100000000E-03 0. -1.
        -11    1    3    3    0    0 -0.12347594391E+02  0.77436603696E+00  0.22838849013E+02  0.25974521256E+02  0.51100000000E-03 0.  1.
        -12    1    3    3    0    0 -0.26109996460E+01 -0.10238904048E+02  0.42235257178E+01  0.11379395623E+02  0.00000000000E+00 0.  1.
</event>
<event>
 7    1  0.2450552E-011  0.5052886E+02  0.7816164E-02  0.1300439E+00
        -11   -1    0    0    0    0  0.00000000000E+00  0.00000000000E+00  0.45593999997E+02  0.45594000000E+02  0.51100000000E-03 0.  1.
         11   -1    0    0    0    0 -0.00000000000E+00 -0.00000000000E+00 -0.45593999997E+02  0.45594000000E+02  0.51100000000E-03 0. -1.
    9900012    2    1    2    0    0 -0.13071148362E+02 -0.31995684203E+02  0.21414639151E+02  0.50528862071E+02  0.30000006752E+02 0.  0.
         12    1    1    2    0    0  0.13071148362E+02  0.31995684203E+02 -0.21414639151E+02  0.40659137929E+02  0.00000000000E+00 0. -1.
         11    1    3    3    0    0 -0.20293148098E+01 -0.13989453647E+02  0.21471530519E+01  0.14298013793E+02  0.51100000000E-03 0. -1.
        -11    1    3    3    0    0 -0.15731305450E+02 -0.19759010519E+02  0.13660683633E+02  0.28714225489E+02  0.51100000000E-03 0.  1.
        -12    1    3    3    0    0  0.46894718971E+01  0.17527799628E+01  0.56068024657E+01  0.75166227896E+01  0.00000000000E+00 0.  1.
</event>
<event>
 7    1  0.2450552E-011  0.5052885E+02  0.7816164E-02  0.1300439E+00
        -11   -1    0    0    0    0  0.00000000000E+00  0.00000000000E+00  0.45593999997E+02  0.45594000000E+02  0.51100000000E-03 0.  1.
         11   -1    0    0    0    0 -0.00000000000E+00 -0.00000000000E+00 -0.45593999997E+02  0.45594000000E+02  0.51100000000E-03 0. -1.
    9900012    2    1    2    0    0  0.33009577521E+00  0.62200464442E+01  0.40179205296E+02  0.50528849994E+02  0.29999970042E+02 0.  0.
         12    1    1    2    0    0 -0.33009577521E+00 -0.62200464442E+01 -0.40179205296E+02  0.40659150006E+02  0.00000000000E+00 0. -1.
         11    1    3    3    0    0  0.20875629447E+01 -0.75214442457E+00  0.23111024918E+02  0.23217302024E+02  0.51100000000E-03 0. -1.
        -11    1    3    3    0    0  0.64474803294E+01 -0.20519239534E+01  0.12638139605E+02  0.14335374688E+02  0.51100000000E-03 0.  1.
         12    1    3    3    0    0 -0.82049474988E+01  0.90241148221E+01  0.44300407728E+01  0.12976173281E+02  0.00000000000E+00 0. -1.
</event>
<event>
 7    1  0.2450552E-011  0.5052883E+02  0.7816164E-02  0.1300439E+00
        -11   -1    0    0    0    0  0.00000000000E+00  0.00000000000E+00  0.45593999997E+02  0.45594000000E+02  0.51100000000E-03 0. -1.
         11   -1    0    0    0    0 -0.00000000000E+00 -0.00000000000E+00 -0.45593999997E+02  0.45594000000E+02  0.51100000000E-03 0.  1.
    9900012    2    1    2    0    0 -0.38165656097E+02  0.29782979467E+01 -0.13699666809E+02  0.50528825947E+02  0.29999896949E+02 0.  0.
         12    1    1    2    0    0  0.38165656097E+02 -0.29782979467E+01  0.13699666809E+02  0.40659174053E+02  0.00000000000E+00 0. -1.
         11    1    3    3    0    0 -0.18610314188E+02  0.35174443497E+01 -0.95669729243E+00  0.18963952091E+02  0.51100000000E-03 0. -1.
        -11    1    3    3    0    0 -0.23094718795E+02  0.25835235552E+01 -0.13358908082E+02  0.26804869998E+02  0.51100000000E-03 0.  1.
         12    1    3    3    0    0  0.35393768868E+01 -0.31226699582E+01  0.61593856512E+00  0.47600038583E+01  0.00000000000E+00 0. -1.
</event>
<event>
 7    1  0.2450552E-011  0.5052886E+02  0.7816164E-02  0.1300439E+00
        -11   -1    0    0    0    0  0.00000000000E+00  0.00000000000E+00  0.45593999997E+02  0.45594000000E+02  0.51100000000E-03 0.  1.
         11   -1    0    0    0    0 -0.00000000000E+00 -0.00000000000E+00 -0.45593999997E+02  0.45594000000E+02  0.51100000000E-03 0. -1.
    9900012    2    1    2    0    0  0.16698683869E+02  0.21984016990E+02  0.29850003063E+02  0.50528859222E+02  0.29999998091E+02 0.  0.
         12    1    1    2    0    0 -0.16698683869E+02 -0.21984016990E+02 -0.29850003063E+02  0.40659140778E+02  0.00000000000E+00 0. -1.
         11    1    3    3    0    0  0.79733478563E+01 -0.87221163967E+00  0.18885224318E+02  0.20517961083E+02  0.51100000000E-03 0. -1.
        -11    1    3    3    0    0  0.96052877578E+00 -0.37395361735E-01 -0.22596241442E+01  0.24555886211E+01  0.51100000000E-03 0.  1.
        -12    1    3    3    0    0  0.77648072371E+01  0.22893623991E+02  0.13224402889E+02  0.27555309518E+02  0.00000000000E+00 0.  1.
</event>
<event>
 7    1  0.2450552E-011  0.5052887E+02  0.7816164E-02  0.1300439E+00
        -11   -1    0    0    0    0  0.00000000000E+00  0.00000000000E+00  0.45593999997E+02  0.45594000000E+02  0.51100000000E-03 0. -1.
         11   -1    0    0    0    0 -0.00000000000E+00 -0.00000000000E+00 -0.45593999997E+02  0.45594000000E+02  0.51100000000E-03 0.  1.
    9900012    2    1    2    0    0 -0.34997934984E+02 -0.19534740248E+02  0.68339567797E+01  0.50528874395E+02  0.30000044211E+02 0.  0.
         12    1    1    2    0    0  0.34997934984E+02  0.19534740248E+02 -0.68339567797E+01  0.40659125605E+02  0.00000000000E+00 0. -1.
         11    1    3    3    0    0  0.19164029047E+00  0.29945133095E+01 -0.18033865992E+01  0.35008626721E+01  0.51100000000E-03 0. -1.
        -11    1    3    3    0    0 -0.23967059641E+02 -0.14422411523E+02 -0.40327661146E+01  0.28261088174E+02  0.51100000000E-03 0.  1.
         12    1    3    3    0    0 -0.11222515633E+02 -0.81068420348E+01  0.12670109493E+02  0.18766923549E+02  0.00000000000E+00 0. -1.
</event>
<event>
 7    1  0.2450552E-011  0.5052886E+02  0.7816164E-02  0.1300439E+00
        -11   -1    0    0    0    0  0.00000000000E+00  0.00000000000E+00  0.45593999997E+02  0.45594000000E+02  0.51100000000E-03 0.  1.
         11   -1    0    0    0    0 -0.00000000000E+00 -0.00000000000E+00 -0.45593999997E+02  0.45594000000E+02  0.51100000000E-03 0. -1.
    9900012    2    1    2    0    0  0.40437186419E+02  0.33871454861E+01  0.25547884850E+01  0.50528859033E+02  0.29999997516E+02 0.  0.
         12    1    1    2    0    0 -0.40437186419E+02 -0.33871454861E+01 -0.25547884850E+01  0.40659140967E+02  0.00000000000E+00 0. -1.
         11    1    3    3    0    0  0.38857441934E+01 -0.61006722471E+00  0.67182406719E+01  0.77849822056E+01  0.51100000000E-03 0. -1.
        -11    1    3    3    0    0  0.29174020208E+02  0.45255294813E+01  0.60471283466E+01  0.30135886144E+02  0.51100000000E-03 0.  1.
         12    1    3    3    0    0  0.73774220169E+01 -0.52831677049E+00 -0.10210580533E+02  0.12607990683E+02  0.00000000000E+00 0. -1.
</event>
<event>
 7    1  0.2450552E-011  0.5052886E+02  0.7816164E-02  0.1300439E+00
        -11   -1    0    0    0    0  0.00000000000E+00  0.00000000000E+00  0.45593999997E+02  0.45594000000E+02  0.51100000000E-03 0.  1.
         11   -1    0    0    0    0 -0.00000000000E+00 -0.00000000000E+00 -0.45593999997E+02  0.45594000000E+02  0.51100000000E-03 0. -1.
    9900012    2    1    2    0    0 -0.33024793549E+02 -0.14716042411E+02  0.18600179141E+02  0.50528861332E+02  0.30000004503E+02 0.  0.
         12    1    1    2    0    0  0.33024793549E+02  0.14716042411E+02 -0.18600179141E+02  0.40659138668E+02  0.00000000000E+00 0. -1.
         11    1    3    3    0    0 -0.39283022684E+01 -0.10822875941E+01 -0.38467210125E+01  0.56035852771E+01  0.51100000000E-03 0. -1.
        -11    1    3    3    0    0 -0.21157125382E+02 -0.17360257841E+02  0.23524570754E+02  0.36088889373E+02  0.51100000000E-03 0.  1.
         12    1    3    3    0    0 -0.79393658987E+01  0.37265030248E+01 -0.10776706004E+01  0.88363866818E+01  0.00000000000E+00 0. -1.
</event>
<event>
 7    1  0.2450552E-011  0.5052887E+02  0.7816164E-02  0.1300439E+00
        -11   -1    0    0    0    0  0.00000000000E+00  0.00000000000E+00  0.45593999997E+02  0.45594000000E+02  0.51100000000E-03 0.  1.
         11   -1    0    0    0    0 -0.00000000000E+00 -0.00000000000E+00 -0.45593999997E+02  0.45594000000E+02  0.51100000000E-03 0. -1.
    9900012    2    1    2    0    0  0.29044932432E+02 -0.27956474598E+02  0.52907961311E+01  0.50528867008E+02  0.30000021758E+02 0.  0.
         12    1    1    2    0    0 -0.29044932432E+02  0.27956474598E+02 -0.52907961311E+01  0.40659132992E+02  0.00000000000E+00 0. -1.
         11    1    3    3    0    0  0.17500208760E+02 -0.13573232124E+02 -0.52753193361E+01  0.22766618794E+02  0.51100000000E-03 0. -1.
        -11    1    3    3    0    0  0.98653317895E+01  0.34083459402E+00  0.57224592926E+00  0.98877907139E+01  0.51100000000E-03 0.  1.
        -12    1    3    3    0    0  0.16793918827E+01 -0.14724077068E+02  0.99938695380E+01  0.17874457500E+02  0.00000000000E+00 0.  1.
</event>
<event>
 7    1  0.2450552E-011  0.5052885E+02  0.7816164E-02  0.1300439E+00
        -11   -1    0    0    0    0  0.00000000000E+00  0.00000000000E+00  0.45593999997E+02  0.45594000000E+02  0.51100000000E-03 0. -1.
         11   -1    0    0    0    0 -0.00000000000E+00 -0.00000000000E+00 -0.45593999997E+02  0.45594000000E+02  0.51100000000E-03 0.  1.
    9900012    2    1    2    0    0  0.16328383097E+01  0.29469866950E+02 -0.27964745201E+02  0.50528853511E+02  0.29999980734E+02 0.  0.
         12    1    1    2    0    0 -0.16328383097E+01 -0.29469866950E+02  0.27964745201E+02  0.40659146489E+02  0.00000000000E+00 0. -1.
         11    1    3    3    0    0  0.99429205310E+01  0.10727325839E+02 -0.85736584175E+01  0.16954197335E+02  0.51100000000E-03 0. -1.
        -11    1    3    3    0    0  0.87984270534E+00  0.14525431693E+02 -0.38826140983E+01  0.15061108245E+02  0.51100000000E-03 0.  1.
        -12    1    3    3    0    0 -0.91899249267E+01  0.42171094177E+01 -0.15508472685E+02  0.18513547932E+02  0.00000000000E+00 0.  1.
</event>
<event>
 7    1  0.2450552E-011  0.5052886E+02  0.7816164E-02  0.1300439E+00
        -11   -1    0    0    0    0  0.00000000000E+00  0.00000000000E+00  0.45593999997E+02  0.45594000000E+02  0.51100000000E-03 0.  1.
         11   -1    0    0    0    0 -0.00000000000E+00 -0.00000000000E+00 -0.45593999997E+02  0.45594000000E+02  0.51100000000E-03 0. -1.
    9900012    2    1    2    0    0  0.19518557778E+01  0.10665589759E+02  0.39186749016E+02  0.50528857801E+02  0.29999993772E+02 0.  0.
         12    1    1    2    0    0 -0.19518557778E+01 -0.10665589759E+02 -0.39186749016E+02  0.40659142199E+02  0.00000000000E+00 0. -1.
         11    1    3    3    0    0 -0.27943321356E+00  0.34282689776E+01  0.54575155863E+01  0.64510144737E+01  0.51100000000E-03 0. -1.
        -11    1    3    3    0    0  0.25209533750E+01 -0.84395716600E+01  0.24144141843E+02  0.25700606244E+02  0.51100000000E-03 0.  1.
         12    1    3    3    0    0 -0.28966438369E+00  0.15676892442E+02  0.95850915870E+01  0.18377237083E+02  0.00000000000E+00 0. -1.
</event>
<event>
 7    1  0.2450552E-011  0.5052886E+02  0.7816164E-02  0.1300439E+00
        -11   -1    0    0    0    0  0.00000000000E+00  0.00000000000E+00  0.45593999997E+02  0.45594000000E+02  0.51100000000E-03 0. -1.
         11   -1    0    0    0    0 -0.00000000000E+00 -0.00000000000E+00 -0.45593999997E+02  0.45594000000E+02  0.51100000000E-03 0.  1.
    9900012    2    1    2    0    0 -0.24678786194E+02  0.27160053176E+02  0.17505858218E+02  0.50528855290E+02  0.29999986141E+02 0.  0.
         12    1    1    2    0    0  0.24678786194E+02 -0.27160053176E+02 -0.17505858218E+02  0.40659144710E+02  0.00000000000E+00 0. -1.
         11    1    3    3    0    0  0.25951858254E+01  0.11980198548E+02 -0.14540898382E+01  0.12344007624E+02  0.51100000000E-03 0.  1.
        -11    1    3    3    0    0 -0.41432606228E+01  0.46654802705E+01  0.88735827220E+01  0.10847754852E+02  0.51100000000E-03 0. -1.
        -12    1    3    3    0    0 -0.23130711397E+02  0.10514374358E+02  0.10086365334E+02  0.27337092814E+02  0.00000000000E+00 0.  1.
</event>
<event>
 7    1  0.2450552E-011  0.5052886E+02  0.7816164E-02  0.1300439E+00
        -11   -1    0    0    0    0  0.00000000000E+00  0.00000000000E+00  0.45593999997E+02  0.45594000000E+02  0.51100000000E-03 0. -1.
         11   -1    0    0    0    0 -0.00000000000E+00 -0.00000000000E+00 -0.45593999997E+02  0.45594000000E+02  0.51100000000E-03 0.  1.
    9900012    2    1    2    0    0  0.39624443147E+02 -0.89335985803E+01 -0.18056415988E+01  0.50528855643E+02  0.29999987211E+02 0.  0.
         12    1    1    2    0    0 -0.39624443147E+02  0.89335985803E+01  0.18056415988E+01  0.40659144357E+02  0.00000000000E+00 0. -1.
         11    1    3    3    0    0 -0.96966828852E+00 -0.50268641223E+01 -0.44911249031E+01  0.68102733169E+01  0.51100000000E-03 0. -1.
        -11    1    3    3    0    0  0.13367072183E+02  0.55077862252E+01 -0.17774380195E+01  0.14566180488E+02  0.51100000000E-03 0.  1.
        -12    1    3    3    0    0  0.27227039253E+02 -0.94145206832E+01  0.44629213238E+01  0.29152401838E+02  0.00000000000E+00 0.  1.
</event>
<event>
 7    1  0.2450552E-011  0.5052886E+02  0.7816164E-02  0.1300439E+00
        -11   -1    0    0    0    0  0.00000000000E+00  0.00000000000E+00  0.45593999997E+02  0.45594000000E+02  0.51100000000E-03 0. -1.
         11   -1    0    0    0    0 -0.00000000000E+00 -0.00000000000E+00 -0.45593999997E+02  0.45594000000E+02  0.51100000000E-03 0.  1.
    9900012    2    1    2    0    0  0.94305289500E+01 -0.28479112270E+02 -0.27443960868E+02  0.50528859575E+02  0.29999999164E+02 0.  0.
         12    1    1    2    0    0 -0.94305289500E+01  0.28479112270E+02  0.27443960868E+02  0.40659140425E+02  0.00000000000E+00 0. -1.
         11    1    3    3    0    0  0.31042737118E+01 -0.19197128291E+02 -0.20591892974E+01  0.19555216969E+02  0.51100000000E-03 0. -1.
        -11    1    3    3    0    0  0.73228370637E+01 -0.46984484042E+01 -0.49555277385E+01  0.10012822554E+02  0.51100000000E-03 0.  1.
        -12    1    3    3    0    0 -0.99658182545E+00 -0.45835355752E+01 -0.20429243832E+02  0.20960820052E+02  0.00000000000E+00 0.  1.
</event>
<event>
 7    1  0.2450552E-011  0.5052884E+02  0.7816164E-02  0.1300439E+00
        -11   -1    0    0    0    0  0.00000000000E+00  0.00000000000E+00  0.45593999997E+02  0.45594000000E+02  0.51100000000E-03 0.  1.
         11   -1    0    0    0    0 -0.00000000000E+00 -0.00000000000E+00 -0.45593999997E+02  0.45594000000E+02  0.51100000000E-03 0. -1.
    9900012    2    1    2    0    0  0.83877736253E+01  0.36673351178E+01  0.39615187822E+02  0.50528841137E+02  0.29999943121E+02 0.  0.
         12    1    1    2    0    0 -0.83877736253E+01 -0.36673351178E+01 -0.39615187822E+02  0.40659158863E+02  0.00000000000E+00 0. -1.
         11    1    3    3    0    0  0.32235271376E+01 -0.56522663890E+01 -0.21906879497E+01  0.68657378695E+01  0.51100000000E-03 0. -1.
        -11    1    3    3    0    0  0.14175569271E+01  0.13322154399E+01  0.20648851325E+02  0.20740282710E+02  0.51100000000E-03 0.  1.
        -12    1    3    3    0    0  0.37466895605E+01  0.79873860669E+01  0.21157024447E+02  0.22922820557E+02  0.00000000000E+00 0.  1.
</event>
<event>
 7    1  0.2450552E-011  0.5052886E+02  0.7816164E-02  0.1300439E+00
        -11   -1    0    0    0    0  0.00000000000E+00  0.00000000000E+00  0.45593999997E+02  0.45594000000E+02  0.51100000000E-03 0.  1.
         11   -1    0    0    0    0 -0.00000000000E+00 -0.00000000000E+00 -0.45593999997E+02  0.45594000000E+02  0.51100000000E-03 0. -1.
    9900012    2    1    2    0    0  0.26792165385E+01  0.14766747899E+01  0.40543885845E+02  0.50528862662E+02  0.30000008547E+02 0.  0.
         12    1    1    2    0    0 -0.26792165385E+01 -0.14766747899E+01 -0.40543885845E+02  0.40659137338E+02  0.00000000000E+00 0. -1.
         11    1    3    3    0    0  0.11233291201E+02  0.23165805907E+01  0.93819197686E+01  0.14818022663E+02  0.51100000000E-03 0. -1.
        -11    1    3    3    0    0  0.54119649039E+00  0.40648177273E+01  0.20334024344E+02  0.20743388900E+02  0.51100000000E-03 0.  1.
        -12    1    3    3    0    0 -0.90952711527E+01 -0.49047235281E+01  0.10827941733E+02  0.14967451099E+02  0.00000000000E+00 0.  1.
</event>
<event>
 7    1  0.2450552E-011  0.5052887E+02  0.7816164E-02  0.1300439E+00
        -11   -1    0    0    0    0  0.00000000000E+00  0.00000000000E+00  0.45593999997E+02  0.45594000000E+02  0.51100000000E-03 0.  1.
         11   -1    0    0    0    0 -0.00000000000E+00 -0.00000000000E+00 -0.45593999997E+02  0.45594000000E+02  0.51100000000E-03 0. -1.
    9900012    2    1    2    0    0 -0.24916919017E+02 -0.20442782989E+02  0.24787190116E+02  0.50528867896E+02  0.30000024456E+02 0.  0.
         12    1    1    2    0    0  0.24916919017E+02  0.20442782989E+02 -0.24787190116E+02  0.40659132104E+02  0.00000000000E+00 0. -1.
         11    1    3    3    0    0  0.25973409349E+00 -0.44764330793E+01 -0.56232169349E+01  0.71921126152E+01  0.51100000000E-03 0. -1.
        -11    1    3    3    0    0 -0.12762925741E+02 -0.39503994422E+01  0.15956428326E+02  0.20811187722E+02  0.51100000000E-03 0.  1.
        -12    1    3    3    0    0 -0.12413727369E+02 -0.12015950467E+02  0.14453978725E+02  0.22525567558E+02  0.00000000000E+00 0.  1.
</event>
<event>
 7    1  0.2450552E-011  0.5052886E+02  0.7816164E-02  0.1300439E+00
        -11   -1    0    0    0    0  0.00000000000E+00  0.00000000000E+00  0.45593999997E+02  0.45594000000E+02  0.51100000000E-03 0. -1.
         11   -1    0    0    0    0 -0.00000000000E+00 -0.00000000000E+00 -0.45593999997E+02  0.45594000000E+02  0.51100000000E-03 0.  1.
    9900012    2    1    2    0    0  0.84530890197E+00 -0.39904887481E+01 -0.40454016168E+02  0.50528856235E+02  0.29999989013E+02 0.  0.
         12    1    1    2    0    0 -0.84530890197E+00  0.39904887481E+01  0.40454016168E+02  0.40659143765E+02  0.00000000000E+00 0. -1.
         11    1    3    3    0    0  0.48372591963E+01 -0.24704545624E+01 -0.14516731086E+02  0.15499603348E+02  0.51100000000E-03 0. -1.
        -11    1    3    3    0    0 -0.64608685905E+01  0.29917833059E+00 -0.29573472897E+02  0.30272473141E+02  0.51100000000E-03 0.  1.
         12    1    3    3    0    0  0.24689182962E+01 -0.18192125162E+01  0.36361878147E+01  0.47567797464E+01  0.00000000000E+00 0. -1.
</event>
<event>
 7    1  0.2450552E-011  0.5052887E+02  0.7816164E-02  0.1300439E+00
        -11   -1    0    0    0    0  0.00000000000E+00  0.00000000000E+00  0.45593999997E+02  0.45594000000E+02  0.51100000000E-03 0.  1.
         11   -1    0    0    0    0 -0.00000000000E+00 -0.00000000000E+00 -0.45593999997E+02  0.45594000000E+02  0.51100000000E-03 0. -1.
    9900012    2    1    2    0    0 -0.35304218956E+02  0.17111331888E+02  0.10676125733E+02  0.50528865531E+02  0.30000017269E+02 0.  0.
         12    1    1    2    0    0  0.35304218956E+02 -0.17111331888E+02 -0.10676125733E+02  0.40659134469E+02  0.00000000000E+00 0. -1.
         11    1    3    3    0    0 -0.45058718378E+01  0.16280148688E+01 -0.43714815017E+01  0.64856120924E+01  0.51100000000E-03 0. -1.
        -11    1    3    3    0    0 -0.23497116582E+02 -0.82298902188E+00  0.91401636379E+01  0.25225669272E+02  0.51100000000E-03 0.  1.
         12    1    3    3    0    0 -0.73012305358E+01  0.16306306041E+02  0.59074435973E+01  0.18817584167E+02  0.00000000000E+00 0. -1.
</event>
<event>
 7    1  0.2594470E-011  0.5052895E+02  0.7816164E-02  0.1300438E+00
        -11   -1    0    0    0    0  0.00000000000E+00  0.00000000000E+00  0.45593999997E+02  0.45594000000E+02  0.51100000000E-03 0. -1.
         11   -1    0    0    0    0 -0.00000000000E+00 -0.00000000000E+00 -0.45593999997E+02  0.45594000000E+02  0.51100000000E-03 0.  1.
    9900012    2    1    2    0    0 -0.13376765258E+01 -0.62367414469E+00 -0.40632250034E+02  0.50528953150E+02  0.30000283594E+02 0.  0.
         12    1    1    2    0    0  0.13376765258E+01  0.62367414469E+00  0.40632250034E+02  0.40659046850E+02  0.00000000000E+00 0. -1.
         11    1    3    3    0    0  0.28684805032E+01  0.51418829384E+01 -0.15437111343E+01  0.60868863039E+01  0.51100000000E-03 0. -1.
        -11    1    3    3    0    0 -0.79897399440E+01  0.35537276234E+01 -0.83154688208E+01  0.12066977516E+02  0.51100000000E-03 0.  1.
        -12    1    3    3    0    0  0.37835829150E+01 -0.93192847065E+01 -0.30773070079E+02  0.32375089331E+02  0.00000000000E+00 0.  1.
</event>
<event>
 7    1  0.3087908E-011  0.5052886E+02  0.7816164E-02  0.1300439E+00
        -11   -1    0    0    0    0  0.00000000000E+00  0.00000000000E+00  0.45593999997E+02  0.45594000000E+02  0.51100000000E-03 0. -1.
         11   -1    0    0    0    0 -0.00000000000E+00 -0.00000000000E+00 -0.45593999997E+02  0.45594000000E+02  0.51100000000E-03 0.  1.
    9900012    2    1    2    0    0 -0.16550073075E+02  0.21417539636E+02 -0.30340560302E+02  0.50528861761E+02  0.30000005810E+02 0.  0.
         12    1    1    2    0    0  0.16550073075E+02 -0.21417539636E+02  0.30340560302E+02  0.40659138239E+02  0.00000000000E+00 0. -1.
         11    1    3    3    0    0 -0.35803496813E+01  0.61115762414E+01  0.37687008618E+01  0.80233019663E+01  0.51100000000E-03 0. -1.
        -11    1    3    3    0    0 -0.10337975566E+02  0.10563324486E+02 -0.10125173960E+02  0.17915822922E+02  0.51100000000E-03 0.  1.
        -12    1    3    3    0    0 -0.26317478276E+01  0.47426389086E+01 -0.23984087204E+02  0.24589736873E+02  0.00000000000E+00 0.  1.
</event>
<event>
 7    1  0.2450552E-011  0.5052886E+02  0.7816164E-02  0.1300439E+00
        -11   -1    0    0    0    0  0.00000000000E+00  0.00000000000E+00  0.45593999997E+02  0.45594000000E+02  0.51100000000E-03 0. -1.
         11   -1    0    0    0    0 -0.00000000000E+00 -0.00000000000E+00 -0.45593999997E+02  0.45594000000E+02  0.51100000000E-03 0.  1.
    9900012    2    1    2    0    0  0.55805935443E-01  0.40245340305E+02 -0.57857771654E+01  0.50528858987E+02  0.29999997375E+02 0.  0.
         12    1    1    2    0    0 -0.55805935443E-01 -0.40245340305E+02  0.57857771654E+01  0.40659141013E+02  0.00000000000E+00 0. -1.
         11    1    3    3    0    0 -0.19453368902E+01  0.74532100858E+01  0.73465097459E+01  0.10644523564E+02  0.51100000000E-03 0. -1.
        -11    1    3    3    0    0  0.74485126688E+01  0.12871668366E+02  0.92824467644E+00  0.14900396838E+02  0.51100000000E-03 0.  1.
         12    1    3    3    0    0 -0.54473698432E+01  0.19920461853E+02 -0.14060531588E+02  0.24983938584E+02  0.00000000000E+00 0. -1.
</event>
<event>
 7    1  0.2703595E-011  0.5052887E+02  0.7816164E-02  0.1300439E+00
        -11   -1    0    0    0    0  0.00000000000E+00  0.00000000000E+00  0.45593999997E+02  0.45594000000E+02  0.51100000000E-03 0. -1.
         11   -1    0    0    0    0 -0.00000000000E+00 -0.00000000000E+00 -0.45593999997E+02  0.45594000000E+02  0.51100000000E-03 0.  1.
    9900012    2    1    2    0    0  0.15208234053E+02 -0.10435238981E+02 -0.36235070548E+02  0.50528869006E+02  0.30000027830E+02 0.  0.
         12    1    1    2    0    0 -0.15208234053E+02  0.10435238981E+02  0.36235070548E+02  0.40659130994E+02  0.00000000000E+00 0. -1.
         11    1    3    3    0    0  0.89307398359E+01 -0.88115449281E+01 -0.67913534618E+01  0.14266180994E+02  0.51100000000E-03 0. -1.
        -11    1    3    3    0    0  0.57452826970E+01 -0.84269474936E+01 -0.27247763526E+02  0.29094025758E+02  0.51100000000E-03 0.  1.
         12    1    3    3    0    0  0.53221152031E+00  0.68032534412E+01 -0.21959535596E+01  0.71686622548E+01  0.00000000000E+00 0. -1.
</event>
<event>
 7    1  0.2450552E-011  0.5052886E+02  0.7816164E-02  0.1300439E+00
        -11   -1    0    0    0    0  0.00000000000E+00  0.00000000000E+00  0.45593999997E+02  0.45594000000E+02  0.51100000000E-03 0.  1.
         11   -1    0    0    0    0 -0.00000000000E+00 -0.00000000000E+00 -0.45593999997E+02  0.45594000000E+02  0.51100000000E-03 0. -1.
    9900012    2    1    2    0    0  0.40370958892E+02  0.17081965693E+01  0.45203500692E+01  0.50528858075E+02  0.29999994604E+02 0.  0.
         12    1    1    2    0    0 -0.40370958892E+02 -0.17081965693E+01 -0.45203500692E+01  0.40659141925E+02  0.00000000000E+00 0. -1.
         11    1    3    3    0    0 -0.34563525358E+01 -0.70975640316E+00  0.22892326720E+01  0.42060329874E+01  0.51100000000E-03 0. -1.
        -11    1    3    3    0    0  0.14921248736E+02  0.41200389050E+00  0.77614589168E+01  0.16824198519E+02  0.51100000000E-03 0.  1.
        -12    1    3    3    0    0  0.28906062692E+02  0.20059490819E+01 -0.55303415196E+01  0.29498626568E+02  0.00000000000E+00 0.  1.
</event>
<event>
 7    1  0.2450552E-011  0.5052888E+02  0.7816164E-02  0.1300439E+00
        -11   -1    0    0    0    0  0.00000000000E+00  0.00000000000E+00  0.45593999997E+02  0.45594000000E+02  0.51100000000E-03 0.  1.
         11   -1    0    0    0    0 -0.00000000000E+00 -0.00000000000E+00 -0.45593999997E+02  0.45594000000E+02  0.51100000000E-03 0. -1.
    9900012    2    1    2    0    0 -0.12748981266E+02 -0.31321845124E+02  0.22573652414E+02  0.50528876933E+02  0.30000051924E+02 0.  0.
         12    1    1    2    0    0  0.12748981266E+02  0.31321845124E+02 -0.22573652414E+02  0.40659123067E+02  0.00000000000E+00 0. -1.
         11    1    3    3    0    0 -0.60600528045E+01  0.30852822837E+00 -0.11816556372E+01  0.61818880584E+01  0.51100000000E-03 0. -1.
        -11    1    3    3    0    0 -0.12570218110E+02 -0.13797362993E+02  0.12210021560E+02  0.22303861452E+02  0.51100000000E-03 0.  1.
        -12    1    3    3    0    0  0.58812896482E+01 -0.17833010359E+02  0.11545286491E+02  0.22043127422E+02  0.00000000000E+00 0.  1.
</event>
<event>
 7    1  0.2450552E-011  0.5052885E+02  0.7816164E-02  0.1300439E+00
        -11   -1    0    0    0    0  0.00000000000E+00  0.00000000000E+00  0.45593999997E+02  0.45594000000E+02  0.51100000000E-03 0.  1.
         11   -1    0    0    0    0 -0.00000000000E+00 -0.00000000000E+00 -0.45593999997E+02  0.45594000000E+02  0.51100000000E-03 0. -1.
    9900012    2    1    2    0    0 -0.25263882073E+02  0.31479698101E+02 -0.48919710059E+01  0.50528849613E+02  0.29999968882E+02 0.  0.
         12    1    1    2    0    0  0.25263882073E+02 -0.31479698101E+02  0.48919710059E+01  0.40659150387E+02  0.00000000000E+00 0. -1.
         11    1    3    3    0    0 -0.15354353128E+02  0.17482206100E+02  0.44903774557E+01  0.23696986729E+02  0.51100000000E-03 0. -1.
        -11    1    3    3    0    0  0.33429712805E+01  0.67138561594E+01  0.21635173702E+01  0.78059034829E+01  0.51100000000E-03 0.  1.
         12    1    3    3    0    0 -0.13252500226E+02  0.72836358416E+01 -0.11545865832E+02  0.19025959401E+02  0.00000000000E+00 0. -1.
</event>
<event>
 7    1  0.2450552E-011  0.5052886E+02  0.7816164E-02  0.1300439E+00
        -11   -1    0    0    0    0  0.00000000000E+00  0.00000000000E+00  0.45593999997E+02  0.45594000000E+02  0.51100000000E-03 0.  1.
         11   -1    0    0    0    0 -0.00000000000E+00 -0.00000000000E+00 -0.45593999997E+02  0.45594000000E+02  0.51100000000E-03 0. -1.
    9900012    2    1    2    0    0 -0.86229543387E+01 -0.39512645396E+02  0.41906405328E+01  0.50528856430E+02  0.29999989606E+02 0.  0.
         12    1    1    2    0    0  0.86229543387E+01  0.39512645396E+02 -0.41906405328E+01  0.40659143570E+02  0.00000000000E+00 0. -1.
         11    1    3    3    0    0 -0.17150276137E+02 -0.26687883237E+02 -0.69923714846E+00  0.31731120625E+02  0.51100000000E-03 0. -1.
        -11    1    3    3    0    0  0.14002065582E+01 -0.80174051958E+01 -0.12489651282E+01  0.82340317362E+01  0.51100000000E-03 0.  1.
        -12    1    3    3    0    0  0.71271152405E+01 -0.48073569632E+01  0.61388428095E+01  0.10563704069E+02  0.00000000000E+00 0.  1.
</event>
<event>
 7    1  0.2450552E-011  0.5052886E+02  0.7816164E-02  0.1300439E+00
        -11   -1    0    0    0    0  0.00000000000E+00  0.00000000000E+00  0.45593999997E+02  0.45594000000E+02  0.51100000000E-03 0.  1.
         11   -1    0    0    0    0 -0.00000000000E+00 -0.00000000000E+00 -0.45593999997E+02  0.45594000000E+02  0.51100000000E-03 0. -1.
    9900012    2    1    2    0    0  0.38665059497E+02 -0.60961423339E+01  0.11000740226E+02  0.50528855115E+02  0.29999985607E+02 0.  0.
         12    1    1    2    0    0 -0.38665059497E+02  0.60961423339E+01 -0.11000740226E+02  0.40659144885E+02  0.00000000000E+00 0. -1.
         11    1    3    3    0    0 -0.36987248590E+00 -0.27319551956E+01  0.11131101415E+01  0.29731127283E+01  0.51100000000E-03 0. -1.
        -11    1    3    3    0    0  0.10448973182E+02 -0.10268540128E+02  0.10692031783E+02  0.18136799630E+02  0.51100000000E-03 0.  1.
        -12    1    3    3    0    0  0.28585958802E+02  0.69043529896E+01 -0.80440169867E+00  0.29418942756E+02  0.00000000000E+00 0.  1.
</event>
<event>
 7    1  0.2450552E-011  0.5052887E+02  0.7816164E-02  0.1300439E+00
        -11   -1    0    0    0    0  0.00000000000E+00  0.00000000000E+00  0.45593999997E+02  0.45594000000E+02  0.51100000000E-03 0.  1.
         11   -1    0    0    0    0 -0.00000000000E+00 -0.00000000000E+00 -0.45593999997E+02  0.45594000000E+02  0.51100000000E-03 0. -1.
    9900012    2    1    2    0    0 -0.25027480194E+02 -0.22130104031E+02  0.23174313593E+02  0.50528867204E+02  0.30000022352E+02 0.  0.
         12    1    1    2    0    0  0.25027480194E+02  0.22130104031E+02 -0.23174313593E+02  0.40659132796E+02  0.00000000000E+00 0. -1.
         11    1    3    3    0    0 -0.52755289189E+01 -0.23075178140E+01 -0.34258449371E+01  0.67001684778E+01  0.51100000000E-03 0. -1.
        -11    1    3    3    0    0  0.10043590165E+01 -0.11625917549E+02  0.47570120863E+01  0.12601581652E+02  0.51100000000E-03 0.  1.
         12    1    3    3    0    0 -0.20756310291E+02 -0.81966686679E+01  0.21843146444E+02  0.31227117073E+02  0.00000000000E+00 0. -1.
</event>
<event>
 7    1  0.2450552E-011  0.5052894E+02  0.7816164E-02  0.1300439E+00
        -11   -1    0    0    0    0  0.00000000000E+00  0.00000000000E+00  0.45593999997E+02  0.45594000000E+02  0.51100000000E-03 0. -1.
         11   -1    0    0    0    0 -0.00000000000E+00 -0.00000000000E+00 -0.45593999997E+02  0.45594000000E+02  0.51100000000E-03 0.  1.
    9900012    2    1    2    0    0 -0.77346925045E+01  0.31382466378E+02 -0.24667274699E+02  0.50528940675E+02  0.30000245674E+02 0.  0.
         12    1    1    2    0    0  0.77346925045E+01 -0.31382466378E+02  0.24667274699E+02  0.40659059325E+02  0.00000000000E+00 0. -1.
         11    1    3    3    0    0 -0.65600619091E+01  0.13589900965E+01 -0.32137280934E+01  0.74302970905E+01  0.51100000000E-03 0.  1.
        -11    1    3    3    0    0  0.50756248012E+01  0.20476697279E+01  0.22349714147E+01  0.59118538482E+01  0.51100000000E-03 0. -1.
        -12    1    3    3    0    0 -0.62502553966E+01  0.27975806554E+02 -0.23688518020E+02  0.37186789736E+02  0.00000000000E+00 0.  1.
</event>
<event>
 7    1  0.2450552E-011  0.5052888E+02  0.7816164E-02  0.1300439E+00
        -11   -1    0    0    0    0  0.00000000000E+00  0.00000000000E+00  0.45593999997E+02  0.45594000000E+02  0.51100000000E-03 0.  1.
         11   -1    0    0    0    0 -0.00000000000E+00 -0.00000000000E+00 -0.45593999997E+02  0.45594000000E+02  0.51100000000E-03 0. -1.
    9900012    2    1    2    0    0 -0.14129530375E+02 -0.25653543789E+02  0.28203117749E+02  0.50528883085E+02  0.30000070626E+02 0.  0.
         12    1    1    2    0    0  0.14129530375E+02  0.25653543789E+02 -0.28203117749E+02  0.40659116915E+02  0.00000000000E+00 0. -1.
         11    1    3    3    0    0 -0.11017855151E+00 -0.81824599864E+01 -0.32231328832E+00  0.81895468042E+01  0.51100000000E-03 0. -1.
        -11    1    3    3    0    0 -0.13113514830E+02 -0.22085759508E+02  0.27291078228E+02  0.37477299734E+02  0.51100000000E-03 0.  1.
         12    1    3    3    0    0 -0.90583699335E+00  0.46146757059E+01  0.12343528091E+01  0.48620365472E+01  0.00000000000E+00 0. -1.
</event>
<event>
 7    1  0.2450552E-011  0.5052886E+02  0.7816164E-02  0.1300439E+00
        -11   -1    0    0    0    0  0.00000000000E+00  0.00000000000E+00  0.45593999997E+02  0.45594000000E+02  0.51100000000E-03 0.  1.
         11   -1    0    0    0    0 -0.00000000000E+00 -0.00000000000E+00 -0.45593999997E+02  0.45594000000E+02  0.51100000000E-03 0. -1.
    9900012    2    1    2    0    0  0.16100896109E+02 -0.36289395928E+02  0.87753508476E+01  0.50528857181E+02  0.29999991886E+02 0.  0.
         12    1    1    2    0    0 -0.16100896109E+02  0.36289395928E+02 -0.87753508476E+01  0.40659142819E+02  0.00000000000E+00 0. -1.
         11    1    3    3    0    0 -0.57041721545E+01 -0.14914254512E+02 -0.13377756715E+01  0.16023801410E+02  0.51100000000E-03 0. -1.
        -11    1    3    3    0    0  0.29694503304E+01 -0.94801933796E+01  0.66640866326E+01  0.11962514480E+02  0.51100000000E-03 0.  1.
        -12    1    3    3    0    0  0.18835617933E+02 -0.11894948036E+02  0.34490398865E+01  0.22542541291E+02  0.00000000000E+00 0.  1.
</event>
<event>
 7    1  0.2450552E-011  0.5052887E+02  0.7816164E-02  0.1300439E+00
        -11   -1    0    0    0    0  0.00000000000E+00  0.00000000000E+00  0.45593999997E+02  0.45594000000E+02  0.51100000000E-03 0.  1.
         11   -1    0    0    0    0 -0.00000000000E+00 -0.00000000000E+00 -0.45593999997E+02  0.45594000000E+02  0.51100000000E-03 0. -1.
    9900012    2    1    2    0    0 -0.97326524551E+01  0.45120851264E+01  0.39218385235E+02  0.50528866014E+02  0.30000018737E+02 0.  0.
         12    1    1    2    0    0  0.97326524551E+01 -0.45120851264E+01 -0.39218385235E+02  0.40659133986E+02  0.00000000000E+00 0. -1.
         11    1    3    3    0    0 -0.27143728746E+01  0.53462938005E+01  0.32703037952E+02  0.33248148356E+02  0.51100000000E-03 0. -1.
        -11    1    3    3    0    0 -0.77331351056E+01  0.17455725826E+01  0.10079246830E+02  0.12823401231E+02  0.51100000000E-03 0.  1.
         12    1    3    3    0    0  0.71485552502E+00 -0.25797812567E+01 -0.35638995471E+01  0.44573164276E+01  0.00000000000E+00 0. -1.
</event>
<event>
 7    1  0.2450552E-011  0.5052889E+02  0.7816164E-02  0.1300439E+00
        -11   -1    0    0    0    0  0.00000000000E+00  0.00000000000E+00  0.45593999997E+02  0.45594000000E+02  0.51100000000E-03 0.  1.
         11   -1    0    0    0    0 -0.00000000000E+00 -0.00000000000E+00 -0.45593999997E+02  0.45594000000E+02  0.51100000000E-03 0. -1.
    9900012    2    1    2    0    0  0.14849489554E+02  0.66658792390E+00  0.37844567820E+02  0.50528892866E+02  0.30000100354E+02 0.  0.
         12    1    1    2    0    0 -0.14849489554E+02 -0.66658792390E+00 -0.37844567820E+02  0.40659107134E+02  0.00000000000E+00 0. -1.
         11    1    3    3    0    0  0.49464320394E+01  0.12112083620E+00 -0.15481896933E+01  0.51844721780E+01  0.51100000000E-03 0. -1.
        -11    1    3    3    0    0 -0.39918911740E+00  0.84566862406E+01  0.93474084567E+01  0.12611460631E+02  0.51100000000E-03 0.  1.
        -12    1    3    3    0    0  0.10302246632E+02 -0.79112191529E+01  0.30045349057E+02  0.32732960057E+02  0.00000000000E+00 0.  1.
</event>
<event>
 7    1  0.2450552E-011  0.5052890E+02  0.7816164E-02  0.1300439E+00
        -11   -1    0    0    0    0  0.00000000000E+00  0.00000000000E+00  0.45593999997E+02  0.45594000000E+02  0.51100000000E-03 0. -1.
         11   -1    0    0    0    0 -0.00000000000E+00 -0.00000000000E+00 -0.45593999997E+02  0.45594000000E+02  0.51100000000E-03 0.  1.
    9900012    2    1    2    0    0 -0.32257593777E+02  0.18304288284E+02 -0.16660217500E+02  0.50528902949E+02  0.30000131004E+02 0.  0.
         12    1    1    2    0    0  0.32257593777E+02 -0.18304288284E+02  0.16660217500E+02  0.40659097051E+02  0.00000000000E+00 0. -1.
         11    1    3    3    0    0  0.19104544082E+01  0.62665934642E+00 -0.19045882377E+01  0.27694755097E+01  0.51100000000E-03 0. -1.
        -11    1    3    3    0    0 -0.14775959824E+02 -0.58348227903E+00 -0.15080143732E+02  0.21120610207E+02  0.51100000000E-03 0.  1.
        -12    1    3    3    0    0 -0.19392088361E+02  0.18261111217E+02  0.32451447002E+00  0.26638817232E+02  0.00000000000E+00 0.  1.
</event>
<event>
 7    1  0.2450552E-011  0.5052886E+02  0.7816164E-02  0.1300439E+00
        -11   -1    0    0    0    0  0.00000000000E+00  0.00000000000E+00  0.45593999997E+02  0.45594000000E+02  0.51100000000E-03 0. -1.
         11   -1    0    0    0    0 -0.00000000000E+00 -0.00000000000E+00 -0.45593999997E+02  0.45594000000E+02  0.51100000000E-03 0.  1.
    9900012    2    1    2    0    0 -0.10384507310E+02  0.20153388178E+02 -0.33751569570E+02  0.50528862090E+02  0.30000006810E+02 0.  0.
         12    1    1    2    0    0  0.10384507310E+02 -0.20153388178E+02  0.33751569570E+02  0.40659137910E+02  0.00000000000E+00 0. -1.
         11    1    3    3    0    0 -0.94007349645E+00  0.96076706636E+01 -0.36554069036E+01  0.10322454827E+02  0.51100000000E-03 0. -1.
        -11    1    3    3    0    0  0.44583068878E+01 -0.39399494035E+01 -0.35706973584E+01  0.69389899477E+01  0.51100000000E-03 0.  1.
        -12    1    3    3    0    0 -0.13902740702E+02  0.14485666918E+02 -0.26525465308E+02  0.33267417316E+02  0.00000000000E+00 0.  1.
</event>
<event>
 7    1  0.2450552E-011  0.5052886E+02  0.7816164E-02  0.1300439E+00
        -11   -1    0    0    0    0  0.00000000000E+00  0.00000000000E+00  0.45593999997E+02  0.45594000000E+02  0.51100000000E-03 0.  1.
         11   -1    0    0    0    0 -0.00000000000E+00 -0.00000000000E+00 -0.45593999997E+02  0.45594000000E+02  0.51100000000E-03 0. -1.
    9900012    2    1    2    0    0 -0.28771177199E+02  0.24673228578E+02 -0.14717920038E+02  0.50528855689E+02  0.29999987352E+02 0.  0.
         12    1    1    2    0    0  0.28771177199E+02 -0.24673228578E+02  0.14717920038E+02  0.40659144311E+02  0.00000000000E+00 0. -1.
         11    1    3    3    0    0  0.97139138669E+00 -0.25196758563E+01 -0.30201097541E+01  0.40513492610E+01  0.51100000000E-03 0.  1.
        -11    1    3    3    0    0 -0.18855145424E+01  0.13065437818E+02 -0.22563415613E+00  0.13202717201E+02  0.51100000000E-03 0. -1.
        -12    1    3    3    0    0 -0.27857054043E+02  0.14127466616E+02 -0.11472176128E+02  0.33274789226E+02  0.00000000000E+00 0.  1.
</event>
<event>
 7    1  0.2450552E-011  0.5052886E+02  0.7816164E-02  0.1300439E+00
        -11   -1    0    0    0    0  0.00000000000E+00  0.00000000000E+00  0.45593999997E+02  0.45594000000E+02  0.51100000000E-03 0.  1.
         11   -1    0    0    0    0 -0.00000000000E+00 -0.00000000000E+00 -0.45593999997E+02  0.45594000000E+02  0.51100000000E-03 0. -1.
    9900012    2    1    2    0    0  0.31946451884E+01  0.26202048722E+02  0.30925918826E+02  0.50528861171E+02  0.30000004014E+02 0.  0.
         12    1    1    2    0    0 -0.31946451884E+01 -0.26202048722E+02 -0.30925918826E+02  0.40659138829E+02  0.00000000000E+00 0. -1.
         11    1    3    3    0    0  0.41780175338E+01  0.29765119010E+02  0.21273094884E+02  0.36823398897E+02  0.51100000000E-03 0.  1.
        -11    1    3    3    0    0  0.27001742294E+00 -0.25721058626E+01 -0.11174396428E+01  0.28173231256E+01  0.51100000000E-03 0. -1.
        -12    1    3    3    0    0 -0.12533897683E+01 -0.99096442491E+00  0.10770263585E+02  0.10888139148E+02  0.00000000000E+00 0.  1.
</event>
<event>
 7    1  0.2450552E-011  0.5052888E+02  0.7816164E-02  0.1300439E+00
        -11   -1    0    0    0    0  0.00000000000E+00  0.00000000000E+00  0.45593999997E+02  0.45594000000E+02  0.51100000000E-03 0.  1.
         11   -1    0    0    0    0 -0.00000000000E+00 -0.00000000000E+00 -0.45593999997E+02  0.45594000000E+02  0.51100000000E-03 0. -1.
    9900012    2    1    2    0    0  0.13473385796E+02  0.16693365087E+02  0.34539302090E+02  0.50528881077E+02  0.30000064522E+02 0.  0.
         12    1    1    2    0    0 -0.13473385796E+02 -0.16693365087E+02 -0.34539302090E+02  0.40659118923E+02  0.00000000000E+00 0. -1.
         11    1    3    3    0    0  0.27420423347E+01 -0.30985006993E+01  0.16432888928E+02  0.16945776510E+02  0.51100000000E-03 0. -1.
        -11    1    3    3    0    0 -0.21494804875E+01  0.47124159503E+01 -0.18004371662E+01  0.54834938411E+01  0.51100000000E-03 0.  1.
        -12    1    3    3    0    0  0.12880823948E+02  0.15079449836E+02  0.19906850328E+02  0.28099610726E+02  0.00000000000E+00 0.  1.
</event>
<event>
 7    1  0.2450552E-011  0.5052886E+02  0.7816164E-02  0.1300439E+00
        -11   -1    0    0    0    0  0.00000000000E+00  0.00000000000E+00  0.45593999997E+02  0.45594000000E+02  0.51100000000E-03 0.  1.
         11   -1    0    0    0    0 -0.00000000000E+00 -0.00000000000E+00 -0.45593999997E+02  0.45594000000E+02  0.51100000000E-03 0. -1.
    9900012    2    1    2    0    0 -0.24031464046E+02 -0.11743011730E+02  0.30622809005E+02  0.50528855640E+02  0.29999987204E+02 0.  0.
         12    1    1    2    0    0  0.24031464046E+02  0.11743011730E+02 -0.30622809005E+02  0.40659144360E+02  0.00000000000E+00 0. -1.
         11    1    3    3    0    0 -0.46708042202E+01 -0.14062044321E+02  0.17600244357E+02  0.23007088130E+02  0.51100000000E-03 0. -1.
        -11    1    3    3    0    0 -0.11169622025E+02  0.41040317267E-02  0.15078708281E+02  0.18765071721E+02  0.51100000000E-03 0.  1.
        -12    1    3    3    0    0 -0.81910378013E+01  0.23149285593E+01 -0.20561436326E+01  0.87566957887E+01  0.00000000000E+00 0.  1.
</event>
<event>
 7    1  0.2450552E-011  0.5052886E+02  0.7816164E-02  0.1300439E+00
        -11   -1    0    0    0    0  0.00000000000E+00  0.00000000000E+00  0.45593999997E+02  0.45594000000E+02  0.51100000000E-03 0.  1.
         11   -1    0    0    0    0 -0.00000000000E+00 -0.00000000000E+00 -0.45593999997E+02  0.45594000000E+02  0.51100000000E-03 0. -1.
    9900012    2    1    2    0    0  0.28415705897E+02 -0.28801757472E+02  0.40214232701E+01  0.50528863017E+02  0.30000009625E+02 0.  0.
         12    1    1    2    0    0 -0.28415705897E+02  0.28801757472E+02 -0.40214232701E+01  0.40659136983E+02  0.00000000000E+00 0. -1.
         11    1    3    3    0    0  0.16696490588E+01 -0.16866357406E+02  0.12476754469E+01  0.16994658997E+02  0.51100000000E-03 0.  1.
        -11    1    3    3    0    0  0.34881608606E+01  0.79334614514E+00 -0.47758859974E+01  0.59670555232E+01  0.51100000000E-03 0. -1.
        -12    1    3    3    0    0  0.23257895978E+02 -0.12728746211E+02  0.75496338206E+01  0.27567148497E+02  0.00000000000E+00 0.  1.
</event>
<event>
 7    1  0.2450552E-011  0.5052888E+02  0.7816164E-02  0.1300439E+00
        -11   -1    0    0    0    0  0.00000000000E+00  0.00000000000E+00  0.45593999997E+02  0.45594000000E+02  0.51100000000E-03 0.  1.
         11   -1    0    0    0    0 -0.00000000000E+00 -0.00000000000E+00 -0.45593999997E+02  0.45594000000E+02  0.51100000000E-03 0. -1.
    9900012    2    1    2    0    0 -0.53700823703E+01  0.32282958127E+02  0.24127516026E+02  0.50528878026E+02  0.30000055247E+02 0.  0.
         12    1    1    2    0    0  0.53700823703E+01 -0.32282958127E+02 -0.24127516026E+02  0.40659121974E+02  0.00000000000E+00 0. -1.
         11    1    3    3    0    0  0.49103714441E+01  0.61318573822E+01  0.16951393207E+02  0.18683178386E+02  0.51100000000E-03 0. -1.
        -11    1    3    3    0    0  0.27918763925E+01  0.44349790970E+01 -0.73691711885E+00  0.52921319411E+01  0.51100000000E-03 0.  1.
         12    1    3    3    0    0 -0.13072330207E+02  0.21716121648E+02  0.79130399378E+01  0.26553567699E+02  0.00000000000E+00 0. -1.
</event>
<event>
 7    1  0.2450552E-011  0.5052876E+02  0.7816164E-02  0.1300439E+00
        -11   -1    0    0    0    0  0.00000000000E+00  0.00000000000E+00  0.45593999997E+02  0.45594000000E+02  0.51100000000E-03 0.  1.
         11   -1    0    0    0    0 -0.00000000000E+00 -0.00000000000E+00 -0.45593999997E+02  0.45594000000E+02  0.51100000000E-03 0. -1.
    9900012    2    1    2    0    0  0.15540622011E+02  0.55173969938E+01  0.37164780191E+02  0.50528763796E+02  0.29999708033E+02 0.  0.
         12    1    1    2    0    0 -0.15540622011E+02 -0.55173969938E+01 -0.37164780191E+02  0.40659236204E+02  0.00000000000E+00 0. -1.
         11    1    3    3    0    0  0.68063984990E+01  0.38860848777E+01  0.85143856152E+01  0.11572531221E+02  0.51100000000E-03 0.  1.
        -11    1    3    3    0    0  0.51608542694E+01 -0.49026038901E+01  0.30469600414E+02  0.31290038212E+02  0.51100000000E-03 0. -1.
         12    1    3    3    0    0  0.35733692423E+01  0.65339160062E+01 -0.18192058382E+01  0.76661943623E+01  0.00000000000E+00 0. -1.
</event>
<event>
 7    1  0.2450552E-011  0.5052889E+02  0.7816164E-02  0.1300439E+00
        -11   -1    0    0    0    0  0.00000000000E+00  0.00000000000E+00  0.45593999997E+02  0.45594000000E+02  0.51100000000E-03 0.  1.
         11   -1    0    0    0    0 -0.00000000000E+00 -0.00000000000E+00 -0.45593999997E+02  0.45594000000E+02  0.51100000000E-03 0. -1.
    9900012    2    1    2    0    0  0.40411297481E+01 -0.38120194678E+02  0.13552989522E+02  0.50528886668E+02  0.30000081517E+02 0.  0.
         12    1    1    2    0    0 -0.40411297481E+01  0.38120194678E+02 -0.13552989522E+02  0.40659113332E+02  0.00000000000E+00 0. -1.
         11    1    3    3    0    0  0.73726224468E+00 -0.16670727118E+01 -0.65706798275E+01  0.68188357291E+01  0.51100000000E-03 0. -1.
        -11    1    3    3    0    0  0.32053921511E+01 -0.13711389059E+02  0.14647408082E+02  0.20318053365E+02  0.51100000000E-03 0.  1.
        -12    1    3    3    0    0  0.98475352273E-01 -0.22741732908E+02  0.54762612676E+01  0.23391997574E+02  0.00000000000E+00 0.  1.
</event>
<event>
 7    1  0.2450552E-011  0.5052887E+02  0.7816164E-02  0.1300439E+00
        -11   -1    0    0    0    0  0.00000000000E+00  0.00000000000E+00  0.45593999997E+02  0.45594000000E+02  0.51100000000E-03 0.  1.
         11   -1    0    0    0    0 -0.00000000000E+00 -0.00000000000E+00 -0.45593999997E+02  0.45594000000E+02  0.51100000000E-03 0. -1.
    9900012    2    1    2    0    0  0.12018130736E+02 -0.24194195170E+02  0.30387005933E+02  0.50528872170E+02  0.30000037449E+02 0.  0.
         12    1    1    2    0    0 -0.12018130736E+02  0.24194195170E+02 -0.30387005933E+02  0.40659127830E+02  0.00000000000E+00 0. -1.
         11    1    3    3    0    0  0.77074736906E+01 -0.17894060789E+02  0.99802907196E+01  0.21890837474E+02  0.51100000000E-03 0. -1.
        -11    1    3    3    0    0  0.79023327363E+01  0.26556148935E+01  0.15975916571E+02  0.18020240389E+02  0.51100000000E-03 0.  1.
         12    1    3    3    0    0 -0.35916756913E+01 -0.89557492738E+01  0.44307986430E+01  0.10617794307E+02  0.00000000000E+00 0. -1.
</event>
<event>
 7    1  0.2450552E-011  0.5052886E+02  0.7816164E-02  0.1300439E+00
        -11   -1    0    0    0    0  0.00000000000E+00  0.00000000000E+00  0.45593999997E+02  0.45594000000E+02  0.51100000000E-03 0.  1.
         11   -1    0    0    0    0 -0.00000000000E+00 -0.00000000000E+00 -0.45593999997E+02  0.45594000000E+02  0.51100000000E-03 0. -1.
    9900012    2    1    2    0    0  0.34135590103E+02  0.34668963047E+01  0.21815318209E+02  0.50528856007E+02  0.29999988320E+02 0.  0.
         12    1    1    2    0    0 -0.34135590103E+02 -0.34668963047E+01 -0.21815318209E+02  0.40659143993E+02  0.00000000000E+00 0. -1.
         11    1    3    3    0    0  0.50272962835E+00 -0.31598510148E+01  0.54061245623E+01  0.62820043425E+01  0.51100000000E-03 0. -1.
        -11    1    3    3    0    0  0.35326138523E+02  0.11345699971E+01  0.14117781285E+02  0.38059625073E+02  0.51100000000E-03 0.  1.
         12    1    3    3    0    0 -0.16932780485E+01  0.54921773224E+01  0.22914123610E+01  0.61872265919E+01  0.00000000000E+00 0. -1.
</event>
<event>
 7    1  0.2450552E-011  0.5052886E+02  0.7816164E-02  0.1300439E+00
        -11   -1    0    0    0    0  0.00000000000E+00  0.00000000000E+00  0.45593999997E+02  0.45594000000E+02  0.51100000000E-03 0. -1.
         11   -1    0    0    0    0 -0.00000000000E+00 -0.00000000000E+00 -0.45593999997E+02  0.45594000000E+02  0.51100000000E-03 0.  1.
    9900012    2    1    2    0    0 -0.39158718215E+02  0.77553851242E+01  0.77210474235E+01  0.50528858544E+02  0.29999996029E+02 0.  0.
         12    1    1    2    0    0  0.39158718215E+02 -0.77553851242E+01 -0.77210474235E+01  0.40659141456E+02  0.00000000000E+00 0. -1.
         11    1    3    3    0    0  0.22469055759E+01  0.10504682725E+01  0.65345668498E+00  0.25649705961E+01  0.51100000000E-03 0. -1.
        -11    1    3    3    0    0 -0.36324215727E+02  0.13671299301E+02  0.60725185721E+01  0.39283947801E+02  0.51100000000E-03 0.  1.
         12    1    3    3    0    0 -0.50814080636E+01 -0.69663824489E+01  0.99507216640E+00  0.86799401466E+01  0.00000000000E+00 0. -1.
</event>
<event>
 7    1  0.2450552E-011  0.5052886E+02  0.7816164E-02  0.1300439E+00
        -11   -1    0    0    0    0  0.00000000000E+00  0.00000000000E+00  0.45593999997E+02  0.45594000000E+02  0.51100000000E-03 0. -1.
         11   -1    0    0    0    0 -0.00000000000E+00 -0.00000000000E+00 -0.45593999997E+02  0.45594000000E+02  0.51100000000E-03 0.  1.
    9900012    2    1    2    0    0  0.13807003012E+02  0.36410143826E+02 -0.11697594856E+02  0.50528860425E+02  0.30000001747E+02 0.  0.
         12    1    1    2    0    0 -0.13807003012E+02 -0.36410143826E+02  0.11697594856E+02  0.40659139575E+02  0.00000000000E+00 0. -1.
         11    1    3    3    0    0  0.60699607635E+00 -0.68625324933E+00  0.53417912847E+00  0.10605354126E+01  0.51100000000E-03 0. -1.
        -11    1    3    3    0    0  0.27389422526E+01  0.24577178925E+02 -0.19611952418E+02  0.31562132477E+02  0.51100000000E-03 0.  1.
        -12    1    3    3    0    0  0.10461064683E+02  0.12519218150E+02  0.73801784335E+01  0.17906192535E+02  0.00000000000E+00 0.  1.
</event>
<event>
 7    1  0.2450552E-011  0.5052886E+02  0.7816164E-02  0.1300439E+00
        -11   -1    0    0    0    0  0.00000000000E+00  0.00000000000E+00  0.45593999997E+02  0.45594000000E+02  0.51100000000E-03 0.  1.
         11   -1    0    0    0    0 -0.00000000000E+00 -0.00000000000E+00 -0.45593999997E+02  0.45594000000E+02  0.51100000000E-03 0. -1.
    9900012    2    1    2    0    0  0.18611456921E+02  0.76890574679E+01  0.35322194292E+02  0.50528863965E+02  0.30000012509E+02 0.  0.
         12    1    1    2    0    0 -0.18611456921E+02 -0.76890574679E+01 -0.35322194292E+02  0.40659136035E+02  0.00000000000E+00 0. -1.
         11    1    3    3    0    0  0.11707453024E+02  0.57381729757E+01  0.48929610543E+01  0.13925952518E+02  0.51100000000E-03 0. -1.
        -11    1    3    3    0    0  0.76346143914E+01 -0.34015879473E+01  0.30046412609E+02  0.31187257789E+02  0.51100000000E-03 0.  1.
         12    1    3    3    0    0 -0.73061049382E+00  0.53524724395E+01  0.38282062866E+00  0.54156536580E+01  0.00000000000E+00 0. -1.
</event>
<event>
 7    1  0.2450552E-011  0.5052887E+02  0.7816164E-02  0.1300439E+00
        -11   -1    0    0    0    0  0.00000000000E+00  0.00000000000E+00  0.45593999997E+02  0.45594000000E+02  0.51100000000E-03 0. -1.
         11   -1    0    0    0    0 -0.00000000000E+00 -0.00000000000E+00 -0.45593999997E+02  0.45594000000E+02  0.51100000000E-03 0.  1.
    9900012    2    1    2    0    0  0.28369869924E+02  0.43669095622E+01 -0.28796625264E+02  0.50528867628E+02  0.30000023644E+02 0.  0.
         12    1    1    2    0    0 -0.28369869924E+02 -0.43669095622E+01  0.28796625264E+02  0.40659132372E+02  0.00000000000E+00 0. -1.
         11    1    3    3    0    0  0.80358724243E+01  0.55334750150E+01  0.10899314323E+01  0.98174610847E+01  0.51100000000E-03 0. -1.
        -11    1    3    3    0    0 -0.28811716602E+01  0.26262143119E+01 -0.26035750713E+01  0.46879371967E+01  0.51100000000E-03 0.  1.
        -12    1    3    3    0    0  0.23215169160E+02 -0.37927797647E+01 -0.27282981625E+02  0.36023469347E+02  0.00000000000E+00 0.  1.
</event>
<event>
 7    1  0.2450552E-011  0.5052886E+02  0.7816164E-02  0.1300439E+00
        -11   -1    0    0    0    0  0.00000000000E+00  0.00000000000E+00  0.45593999997E+02  0.45594000000E+02  0.51100000000E-03 0.  1.
         11   -1    0    0    0    0 -0.00000000000E+00 -0.00000000000E+00 -0.45593999997E+02  0.45594000000E+02  0.51100000000E-03 0. -1.
    9900012    2    1    2    0    0  0.31831891320E+02 -0.23192964544E+02  0.10098642977E+02  0.50528862044E+02  0.30000006670E+02 0.  0.
         12    1    1    2    0    0 -0.31831891320E+02  0.23192964544E+02 -0.10098642977E+02  0.40659137956E+02  0.00000000000E+00 0. -1.
         11    1    3    3    0    0  0.19779433970E+02 -0.46682303649E+01 -0.14608449592E+01  0.20375290211E+02  0.51100000000E-03 0.  1.
        -11    1    3    3    0    0  0.16504467824E+00  0.30354330357E+01  0.24425030218E+01  0.38996044328E+01  0.51100000000E-03 0. -1.
         12    1    3    3    0    0  0.11887412671E+02 -0.21560167215E+02  0.91169849150E+01  0.26253967401E+02  0.00000000000E+00 0. -1.
</event>
<event>
 7    1  0.2450552E-011  0.5052886E+02  0.7816164E-02  0.1300439E+00
        -11   -1    0    0    0    0  0.00000000000E+00  0.00000000000E+00  0.45593999997E+02  0.45594000000E+02  0.51100000000E-03 0.  1.
         11   -1    0    0    0    0 -0.00000000000E+00 -0.00000000000E+00 -0.45593999997E+02  0.45594000000E+02  0.51100000000E-03 0. -1.
    9900012    2    1    2    0    0 -0.36888463604E+02  0.13587936288E+02  0.10381458111E+02  0.50528862870E+02  0.30000009180E+02 0.  0.
         12    1    1    2    0    0  0.36888463604E+02 -0.13587936288E+02 -0.10381458111E+02  0.40659137130E+02  0.00000000000E+00 0. -1.
         11    1    3    3    0    0 -0.68111592453E+01  0.42348116729E+01 -0.58189789441E+01  0.99088867379E+01  0.51100000000E-03 0. -1.
        -11    1    3    3    0    0 -0.20210473299E+01  0.88585082404E+01  0.52829656864E+01  0.10510353337E+02  0.51100000000E-03 0.  1.
        -12    1    3    3    0    0 -0.28056257029E+02  0.49461637435E+00  0.10917471369E+02  0.30109622796E+02  0.00000000000E+00 0.  1.
</event>
<event>
 7    1  0.2450552E-011  0.5052886E+02  0.7816164E-02  0.1300439E+00
        -11   -1    0    0    0    0  0.00000000000E+00  0.00000000000E+00  0.45593999997E+02  0.45594000000E+02  0.51100000000E-03 0.  1.
         11   -1    0    0    0    0 -0.00000000000E+00 -0.00000000000E+00 -0.45593999997E+02  0.45594000000E+02  0.51100000000E-03 0. -1.
    9900012    2    1    2    0    0  0.39506103919E+02  0.20158963134E+01  0.94005109853E+01  0.50528859680E+02  0.29999999483E+02 0.  0.
         12    1    1    2    0    0 -0.39506103919E+02 -0.20158963134E+01 -0.94005109853E+01  0.40659140320E+02  0.00000000000E+00 0. -1.
         11    1    3    3    0    0  0.14692159063E+02 -0.13710323426E+01 -0.49956676096E+01  0.15578702216E+02  0.51100000000E-03 0. -1.
        -11    1    3    3    0    0  0.23313691969E+02 -0.15035511134E+01  0.44735962144E+01  0.23786592075E+02  0.51100000000E-03 0.  1.
        -12    1    3    3    0    0  0.15002528872E+01  0.48904797695E+01  0.99225823806E+01  0.11163565389E+02  0.00000000000E+00 0.  1.
</event>
<event>
 7    1  0.2450552E-011  0.5052886E+02  0.7816164E-02  0.1300439E+00
        -11   -1    0    0    0    0  0.00000000000E+00  0.00000000000E+00  0.45593999997E+02  0.45594000000E+02  0.51100000000E-03 0.  1.
         11   -1    0    0    0    0 -0.00000000000E+00 -0.00000000000E+00 -0.45593999997E+02  0.45594000000E+02  0.51100000000E-03 0. -1.
    9900012    2    1    2    0    0  0.34127282177E+02  0.21624274821E+02 -0.45699952106E+01  0.50528861955E+02  0.30000006398E+02 0.  0.
         12    1    1    2    0    0 -0.34127282177E+02 -0.21624274821E+02  0.45699952106E+01  0.40659138045E+02  0.00000000000E+00 0. -1.
         11    1    3    3    0    0  0.30155252948E+01 -0.67966740713E+00 -0.94658081802E+01  0.99577540316E+01  0.51100000000E-03 0. -1.
        -11    1    3    3    0    0  0.14927158078E+02  0.11592277018E+02 -0.38424652510E+01  0.19286406462E+02  0.51100000000E-03 0.  1.
        -12    1    3    3    0    0  0.16184598804E+02  0.10711665210E+02  0.87382782206E+01  0.21284701461E+02  0.00000000000E+00 0.  1.
</event>
<event>
 7    1  0.2450552E-011  0.5052887E+02  0.7816164E-02  0.1300439E+00
        -11   -1    0    0    0    0  0.00000000000E+00  0.00000000000E+00  0.45593999997E+02  0.45594000000E+02  0.51100000000E-03 0. -1.
         11   -1    0    0    0    0 -0.00000000000E+00 -0.00000000000E+00 -0.45593999997E+02  0.45594000000E+02  0.51100000000E-03 0.  1.
    9900012    2    1    2    0    0  0.94913060571E+01 -0.98780410289E+01 -0.38281906370E+02  0.50528868915E+02  0.30000027555E+02 0.  0.
         12    1    1    2    0    0 -0.94913060571E+01  0.98780410289E+01  0.38281906370E+02  0.40659131085E+02  0.00000000000E+00 0. -1.
         11    1    3    3    0    0  0.73152842221E+01 -0.82733180582E+01 -0.92120402689E+01  0.14381337251E+02  0.51100000000E-03 0.  1.
        -11    1    3    3    0    0  0.51734762133E+00 -0.11097174278E+02 -0.10808444484E+02  0.15499593477E+02  0.51100000000E-03 0. -1.
        -12    1    3    3    0    0  0.16586742137E+01  0.94924513068E+01 -0.18261421617E+02  0.20647938188E+02  0.00000000000E+00 0.  1.
</event>
<event>
 7    1  0.2450552E-011  0.5052886E+02  0.7816164E-02  0.1300439E+00
        -11   -1    0    0    0    0  0.00000000000E+00  0.00000000000E+00  0.45593999997E+02  0.45594000000E+02  0.51100000000E-03 0. -1.
         11   -1    0    0    0    0 -0.00000000000E+00 -0.00000000000E+00 -0.45593999997E+02  0.45594000000E+02  0.51100000000E-03 0.  1.
    9900012    2    1    2    0    0  0.35590268970E+02  0.35665083994E+01 -0.19333352875E+02  0.50528858827E+02  0.29999996890E+02 0.  0.
         12    1    1    2    0    0 -0.35590268970E+02 -0.35665083994E+01  0.19333352875E+02  0.40659141173E+02  0.00000000000E+00 0. -1.
         11    1    3    3    0    0  0.11863128393E+02  0.34574679006E+01 -0.42592820681E+01  0.13070171519E+02  0.51100000000E-03 0. -1.
        -11    1    3    3    0    0  0.27530416311E+02  0.51148387990E+01 -0.12517003882E+02  0.30671823953E+02  0.51100000000E-03 0.  1.
         12    1    3    3    0    0 -0.38032757332E+01 -0.50057983003E+01 -0.25570669256E+01  0.67868633541E+01  0.00000000000E+00 0. -1.
</event>
<event>
 7    1  0.2450552E-011  0.5052886E+02  0.7816164E-02  0.1300439E+00
        -11   -1    0    0    0    0  0.00000000000E+00  0.00000000000E+00  0.45593999997E+02  0.45594000000E+02  0.51100000000E-03 0.  1.
         11   -1    0    0    0    0 -0.00000000000E+00 -0.00000000000E+00 -0.45593999997E+02  0.45594000000E+02  0.51100000000E-03 0. -1.
    9900012    2    1    2    0    0 -0.36497147954E+02  0.12047870249E+02 -0.13265483716E+02  0.50528855340E+02  0.29999986291E+02 0.  0.
         12    1    1    2    0    0  0.36497147954E+02 -0.12047870249E+02  0.13265483716E+02  0.40659144660E+02  0.00000000000E+00 0. -1.
         11    1    3    3    0    0 -0.19018813426E+01  0.11469510516E+02 -0.28719993721E+01  0.11975608743E+02  0.51100000000E-03 0. -1.
        -11    1    3    3    0    0 -0.34046077980E+00  0.27367671287E+01 -0.12846215498E+01  0.30423774661E+01  0.51100000000E-03 0.  1.
         12    1    3    3    0    0 -0.34254805831E+02 -0.21584073957E+01 -0.91088627937E+01  0.35510869131E+02  0.00000000000E+00 0. -1.
</event>
<event>
 7    1  0.2450552E-011  0.5052884E+02  0.7816164E-02  0.1300439E+00
        -11   -1    0    0    0    0  0.00000000000E+00  0.00000000000E+00  0.45593999997E+02  0.45594000000E+02  0.51100000000E-03 0.  1.
         11   -1    0    0    0    0 -0.00000000000E+00 -0.00000000000E+00 -0.45593999997E+02  0.45594000000E+02  0.51100000000E-03 0. -1.
    9900012    2    1    2    0    0  0.20486188630E+02 -0.10873654354E+01  0.35104146079E+02  0.50528839161E+02  0.29999937115E+02 0.  0.
         12    1    1    2    0    0 -0.20486188630E+02  0.10873654354E+01 -0.35104146079E+02  0.40659160839E+02  0.00000000000E+00 0. -1.
         11    1    3    3    0    0  0.80014670551E+01 -0.10156688616E+02  0.11806642778E+02  0.17509386415E+02  0.51100000000E-03 0. -1.
        -11    1    3    3    0    0  0.43469690458E+01 -0.62297348722E-02  0.19894198647E+02  0.20363578241E+02  0.51100000000E-03 0.  1.
         12    1    3    3    0    0  0.81377525290E+01  0.90755529154E+01  0.34033046541E+01  0.12655874506E+02  0.00000000000E+00 0. -1.
</event>
<event>
 7    1  0.2450552E-011  0.5052886E+02  0.7816164E-02  0.1300439E+00
        -11   -1    0    0    0    0  0.00000000000E+00  0.00000000000E+00  0.45593999997E+02  0.45594000000E+02  0.51100000000E-03 0. -1.
         11   -1    0    0    0    0 -0.00000000000E+00 -0.00000000000E+00 -0.45593999997E+02  0.45594000000E+02  0.51100000000E-03 0.  1.
    9900012    2    1    2    0    0  0.25939812087E+02 -0.16759501929E+02 -0.26446383821E+02  0.50528856216E+02  0.29999988954E+02 0.  0.
         12    1    1    2    0    0 -0.25939812087E+02  0.16759501929E+02  0.26446383821E+02  0.40659143784E+02  0.00000000000E+00 0. -1.
         11    1    3    3    0    0  0.10564642510E+02  0.20540779061E+01 -0.15088274368E+00  0.10763534422E+02  0.51100000000E-03 0. -1.
        -11    1    3    3    0    0  0.11122007740E+02 -0.12740771230E+02 -0.56535004852E+01  0.17832228568E+02  0.51100000000E-03 0.  1.
        -12    1    3    3    0    0  0.42531618373E+01 -0.60728086051E+01 -0.20642000592E+02  0.21933093225E+02  0.00000000000E+00 0.  1.
</event>
<event>
 7    1  0.2450552E-011  0.5052886E+02  0.7816164E-02  0.1300439E+00
        -11   -1    0    0    0    0  0.00000000000E+00  0.00000000000E+00  0.45593999997E+02  0.45594000000E+02  0.51100000000E-03 0. -1.
         11   -1    0    0    0    0 -0.00000000000E+00 -0.00000000000E+00 -0.45593999997E+02  0.45594000000E+02  0.51100000000E-03 0.  1.
    9900012    2    1    2    0    0 -0.22431265463E+02  0.33323891061E+02 -0.62866833659E+01  0.50528858673E+02  0.29999996422E+02 0.  0.
         12    1    1    2    0    0  0.22431265463E+02 -0.33323891061E+02  0.62866833659E+01  0.40659141327E+02  0.00000000000E+00 0. -1.
         11    1    3    3    0    0 -0.59449708297E+01  0.45572710770E+01  0.59739626942E+01  0.95812122598E+01  0.51100000000E-03 0. -1.
        -11    1    3    3    0    0 -0.20623422238E+02  0.24140747160E+02 -0.63541311536E+01  0.32380182230E+02  0.51100000000E-03 0.  1.
        -12    1    3    3    0    0  0.41371276039E+01  0.46258728234E+01 -0.59065149065E+01  0.85674641831E+01  0.00000000000E+00 0.  1.
</event>
<event>
 7    1  0.2450552E-011  0.5052886E+02  0.7816164E-02  0.1300439E+00
        -11   -1    0    0    0    0  0.00000000000E+00  0.00000000000E+00  0.45593999997E+02  0.45594000000E+02  0.51100000000E-03 0.  1.
         11   -1    0    0    0    0 -0.00000000000E+00 -0.00000000000E+00 -0.45593999997E+02  0.45594000000E+02  0.51100000000E-03 0. -1.
    9900012    2    1    2    0    0 -0.64438219969E+01  0.93090347153E+01  0.39051055574E+02  0.50528856985E+02  0.29999991293E+02 0.  0.
         12    1    1    2    0    0  0.64438219969E+01 -0.93090347153E+01 -0.39051055574E+02  0.40659143015E+02  0.00000000000E+00 0. -1.
         11    1    3    3    0    0 -0.12222408060E+02  0.69412886515E+01  0.25482255604E+02  0.29101788568E+02  0.51100000000E-03 0. -1.
        -11    1    3    3    0    0 -0.40531099825E+01  0.35132578067E+01  0.10461671491E+01  0.54649013634E+01  0.51100000000E-03 0.  1.
        -12    1    3    3    0    0  0.98316960458E+01 -0.11455117429E+01  0.12522632820E+02  0.15962167054E+02  0.00000000000E+00 0.  1.
</event>
<event>
 7    1  0.2450552E-011  0.5052886E+02  0.7816164E-02  0.1300439E+00
        -11   -1    0    0    0    0  0.00000000000E+00  0.00000000000E+00  0.45593999997E+02  0.45594000000E+02  0.51100000000E-03 0.  1.
         11   -1    0    0    0    0 -0.00000000000E+00 -0.00000000000E+00 -0.45593999997E+02  0.45594000000E+02  0.51100000000E-03 0. -1.
    9900012    2    1    2    0    0 -0.25195452759E+01  0.28675848689E+02  0.28714339631E+02  0.50528859492E+02  0.29999998911E+02 0.  0.
         12    1    1    2    0    0  0.25195452759E+01 -0.28675848689E+02 -0.28714339631E+02  0.40659140508E+02  0.00000000000E+00 0. -1.
         11    1    3    3    0    0 -0.50386645223E+01  0.45936441005E+01 -0.17818310397E+01  0.70473135595E+01  0.51100000000E-03 0. -1.
        -11    1    3    3    0    0 -0.39413244338E+01  0.18515814518E+02  0.10283170754E+02  0.21543282632E+02  0.51100000000E-03 0.  1.
        -12    1    3    3    0    0  0.64604436802E+01  0.55663900705E+01  0.20212999917E+02  0.21938263300E+02  0.00000000000E+00 0.  1.
</event>
<event>
 7    1  0.2450552E-011  0.5052886E+02  0.7816164E-02  0.1300439E+00
        -11   -1    0    0    0    0  0.00000000000E+00  0.00000000000E+00  0.45593999997E+02  0.45594000000E+02  0.51100000000E-03 0.  1.
         11   -1    0    0    0    0 -0.00000000000E+00 -0.00000000000E+00 -0.45593999997E+02  0.45594000000E+02  0.51100000000E-03 0. -1.
    9900012    2    1    2    0    0  0.35475971001E+02 -0.10181641283E+02  0.17057405862E+02  0.50528862867E+02  0.30000009169E+02 0.  0.
         12    1    1    2    0    0 -0.35475971001E+02  0.10181641283E+02 -0.17057405862E+02  0.40659137133E+02  0.00000000000E+00 0. -1.
         11    1    3    3    0    0  0.23652877507E+02 -0.62101851808E+01  0.62751986015E+01  0.25246844003E+02  0.51100000000E-03 0. -1.
        -11    1    3    3    0    0  0.74707253251E+01 -0.79764878895E+01 -0.20801741138E+01  0.11124891934E+02  0.51100000000E-03 0.  1.
        -12    1    3    3    0    0  0.43523681688E+01  0.40050317872E+01  0.12862381375E+02  0.14157126930E+02  0.00000000000E+00 0.  1.
</event>
<event>
 7    1  0.2450552E-011  0.5052885E+02  0.7816164E-02  0.1300439E+00
        -11   -1    0    0    0    0  0.00000000000E+00  0.00000000000E+00  0.45593999997E+02  0.45594000000E+02  0.51100000000E-03 0. -1.
         11   -1    0    0    0    0 -0.00000000000E+00 -0.00000000000E+00 -0.45593999997E+02  0.45594000000E+02  0.51100000000E-03 0.  1.
    9900012    2    1    2    0    0  0.31633967733E+02 -0.78228979302E+01 -0.24315852982E+02  0.50528851548E+02  0.29999974766E+02 0.  0.
         12    1    1    2    0    0 -0.31633967733E+02  0.78228979302E+01  0.24315852982E+02  0.40659148452E+02  0.00000000000E+00 0. -1.
         11    1    3    3    0    0  0.12077785433E+02 -0.86988049297E+00 -0.35423319274E+01  0.12616564857E+02  0.51100000000E-03 0. -1.
        -11    1    3    3    0    0  0.17002707115E+02 -0.14937681479E+02 -0.11414922773E+02  0.25348113133E+02  0.51100000000E-03 0.  1.
         12    1    3    3    0    0  0.25534751841E+01  0.79846640422E+01 -0.93585982826E+01  0.12564173558E+02  0.00000000000E+00 0. -1.
</event>
<event>
 7    1  0.2450552E-011  0.5052887E+02  0.7816164E-02  0.1300439E+00
        -11   -1    0    0    0    0  0.00000000000E+00  0.00000000000E+00  0.45593999997E+02  0.45594000000E+02  0.51100000000E-03 0.  1.
         11   -1    0    0    0    0 -0.00000000000E+00 -0.00000000000E+00 -0.45593999997E+02  0.45594000000E+02  0.51100000000E-03 0. -1.
    9900012    2    1    2    0    0  0.27436932814E+02 -0.18554467463E+02  0.23582011391E+02  0.50528870566E+02  0.30000032574E+02 0.  0.
         12    1    1    2    0    0 -0.27436932814E+02  0.18554467463E+02 -0.23582011391E+02  0.40659129434E+02  0.00000000000E+00 0. -1.
         11    1    3    3    0    0 -0.26748423084E+01  0.38187799127E+00  0.57254402744E+01  0.63309777105E+01  0.51100000000E-03 0. -1.
        -11    1    3    3    0    0  0.93067367642E+01 -0.13688530480E+02  0.43375652673E+00  0.16558362265E+02  0.51100000000E-03 0.  1.
        -12    1    3    3    0    0  0.20805038358E+02 -0.52478149743E+01  0.17422814589E+02  0.27639530591E+02  0.00000000000E+00 0.  1.
</event>
<event>
 7    1  0.2597942E-011  0.5052886E+02  0.7816164E-02  0.1300439E+00
        -11   -1    0    0    0    0  0.00000000000E+00  0.00000000000E+00  0.45593999997E+02  0.45594000000E+02  0.51100000000E-03 0. -1.
         11   -1    0    0    0    0 -0.00000000000E+00 -0.00000000000E+00 -0.45593999997E+02  0.45594000000E+02  0.51100000000E-03 0.  1.
    9900012    2    1    2    0    0  0.44410516781E+01  0.34588633415E+02 -0.20906190197E+02  0.50528864617E+02  0.30000014490E+02 0.  0.
         12    1    1    2    0    0 -0.44410516781E+01 -0.34588633415E+02  0.20906190197E+02  0.40659135383E+02  0.00000000000E+00 0. -1.
         11    1    3    3    0    0 -0.46476185778E+01  0.25546260327E+01  0.66517363441E+00  0.53449910044E+01  0.51100000000E-03 0. -1.
        -11    1    3    3    0    0  0.59962990334E+01  0.16557773984E+02  0.10042765142E+01  0.17638708937E+02  0.51100000000E-03 0.  1.
        -12    1    3    3    0    0  0.30923712225E+01  0.15476233398E+02 -0.22575640346E+02  0.27545164675E+02  0.00000000000E+00 0.  1.
</event>
<event>
 7    1  0.2450552E-011  0.5052885E+02  0.7816164E-02  0.1300439E+00
        -11   -1    0    0    0    0  0.00000000000E+00  0.00000000000E+00  0.45593999997E+02  0.45594000000E+02  0.51100000000E-03 0.  1.
         11   -1    0    0    0    0 -0.00000000000E+00 -0.00000000000E+00 -0.45593999997E+02  0.45594000000E+02  0.51100000000E-03 0. -1.
    9900012    2    1    2    0    0 -0.25371222718E+02  0.27953771310E+02  0.15101457439E+02  0.50528852328E+02  0.29999977135E+02 0.  0.
         12    1    1    2    0    0  0.25371222718E+02 -0.27953771310E+02 -0.15101457439E+02  0.40659147672E+02  0.00000000000E+00 0. -1.
         11    1    3    3    0    0 -0.83914836104E+01  0.21138555811E+02  0.31888742447E+01  0.22965723550E+02  0.51100000000E-03 0. -1.
        -11    1    3    3    0    0 -0.15256116011E+02  0.11949241982E+02  0.84918531483E+01  0.21157623445E+02  0.51100000000E-03 0.  1.
        -12    1    3    3    0    0 -0.17236230965E+01 -0.51340264836E+01  0.34207300460E+01  0.64055053322E+01  0.00000000000E+00 0.  1.
</event>
<event>
 7    1  0.2450552E-011  0.5052886E+02  0.7816164E-02  0.1300439E+00
        -11   -1    0    0    0    0  0.00000000000E+00  0.00000000000E+00  0.45593999997E+02  0.45594000000E+02  0.51100000000E-03 0.  1.
         11   -1    0    0    0    0 -0.00000000000E+00 -0.00000000000E+00 -0.45593999997E+02  0.45594000000E+02  0.51100000000E-03 0. -1.
    9900012    2    1    2    0    0  0.98442005453E+01 -0.36984085709E+02  0.13727145106E+02  0.50528863353E+02  0.30000010649E+02 0.  0.
         12    1    1    2    0    0 -0.98442005453E+01  0.36984085709E+02 -0.13727145106E+02  0.40659136647E+02  0.00000000000E+00 0. -1.
         11    1    3    3    0    0 -0.21411095140E+01  0.69618372814E+00 -0.15993438627E+01  0.27616883941E+01  0.51100000000E-03 0. -1.
        -11    1    3    3    0    0  0.15173654347E+02 -0.15356909045E+02  0.22640680410E+01  0.21707151955E+02  0.51100000000E-03 0.  1.
         12    1    3    3    0    0 -0.31883442873E+01 -0.22323360392E+02  0.13062420927E+02  0.26060023004E+02  0.00000000000E+00 0. -1.
</event>
<event>
 7    1  0.4116900E-011  0.5052886E+02  0.7816164E-02  0.1300439E+00
        -11   -1    0    0    0    0  0.00000000000E+00  0.00000000000E+00  0.45593999997E+02  0.45594000000E+02  0.51100000000E-03 0. -1.
         11   -1    0    0    0    0 -0.00000000000E+00 -0.00000000000E+00 -0.45593999997E+02  0.45594000000E+02  0.51100000000E-03 0.  1.
    9900012    2    1    2    0    0  0.35249954618E+02 -0.28738423472E+01 -0.20058597287E+02  0.50528860861E+02  0.30000003074E+02 0.  0.
         12    1    1    2    0    0 -0.35249954618E+02  0.28738423472E+01  0.20058597287E+02  0.40659139139E+02  0.00000000000E+00 0. -1.
         11    1    3    3    0    0 -0.31615878602E+01  0.27101571875E+00  0.25554085206E+01  0.40742116152E+01  0.51100000000E-03 0. -1.
        -11    1    3    3    0    0  0.20497440892E+02 -0.37007904141E+01 -0.52064257395E+01  0.21469694969E+02  0.51100000000E-03 0.  1.
        -12    1    3    3    0    0  0.17914101586E+02  0.55593234815E+00 -0.17407580068E+02  0.24984954277E+02  0.00000000000E+00 0.  1.
</event>
<event>
 7    1  0.2450552E-011  0.5052888E+02  0.7816164E-02  0.1300439E+00
        -11   -1    0    0    0    0  0.00000000000E+00  0.00000000000E+00  0.45593999997E+02  0.45594000000E+02  0.51100000000E-03 0. -1.
         11   -1    0    0    0    0 -0.00000000000E+00 -0.00000000000E+00 -0.45593999997E+02  0.45594000000E+02  0.51100000000E-03 0.  1.
    9900012    2    1    2    0    0  0.14528483103E+02  0.35479562685E+02 -0.13538386537E+02  0.50528879256E+02  0.30000058987E+02 0.  0.
         12    1    1    2    0    0 -0.14528483103E+02 -0.35479562685E+02  0.13538386537E+02  0.40659120744E+02  0.00000000000E+00 0. -1.
         11    1    3    3    0    0  0.16669465325E+02  0.32970153683E+02 -0.18040761315E+02  0.41114123817E+02  0.51100000000E-03 0.  1.
        -11    1    3    3    0    0  0.27606049845E+01  0.14074604214E+01  0.88041893357E+00  0.32213386158E+01  0.51100000000E-03 0. -1.
        -12    1    3    3    0    0 -0.49015872061E+01  0.11019485806E+01  0.36219558442E+01  0.61934168236E+01  0.00000000000E+00 0.  1.
</event>
<event>
 7    1  0.2450552E-011  0.5052886E+02  0.7816164E-02  0.1300439E+00
        -11   -1    0    0    0    0  0.00000000000E+00  0.00000000000E+00  0.45593999997E+02  0.45594000000E+02  0.51100000000E-03 0.  1.
         11   -1    0    0    0    0 -0.00000000000E+00 -0.00000000000E+00 -0.45593999997E+02  0.45594000000E+02  0.51100000000E-03 0. -1.
    9900012    2    1    2    0    0  0.53620434064E+01 -0.40283441936E+02 -0.12877451777E+01  0.50528862142E+02  0.30000006968E+02 0.  0.
         12    1    1    2    0    0 -0.53620434064E+01  0.40283441936E+02  0.12877451777E+01  0.40659137858E+02  0.00000000000E+00 0. -1.
         11    1    3    3    0    0 -0.16965957959E+01 -0.14417838276E+01 -0.49248479996E+01  0.54047484660E+01  0.51100000000E-03 0. -1.
        -11    1    3    3    0    0 -0.56207075925E+01 -0.20553267130E+02  0.73961150764E+01  0.22555080626E+02  0.51100000000E-03 0.  1.
        -12    1    3    3    0    0  0.12679346795E+02 -0.18288390978E+02 -0.37590122545E+01  0.22569033051E+02  0.00000000000E+00 0.  1.
</event>
<event>
 7    1  0.2450552E-011  0.5052886E+02  0.7816164E-02  0.1300439E+00
        -11   -1    0    0    0    0  0.00000000000E+00  0.00000000000E+00  0.45593999997E+02  0.45594000000E+02  0.51100000000E-03 0. -1.
         11   -1    0    0    0    0 -0.00000000000E+00 -0.00000000000E+00 -0.45593999997E+02  0.45594000000E+02  0.51100000000E-03 0.  1.
    9900012    2    1    2    0    0 -0.48056687804E+01 -0.20311840437E+02 -0.34892698420E+02  0.50528859362E+02  0.29999998516E+02 0.  0.
         12    1    1    2    0    0  0.48056687804E+01  0.20311840437E+02  0.34892698420E+02  0.40659140638E+02  0.00000000000E+00 0. -1.
         11    1    3    3    0    0  0.38075142108E+01 -0.10904523651E+02 -0.47533416307E+01  0.12489998296E+02  0.51100000000E-03 0. -1.
        -11    1    3    3    0    0 -0.41192226262E+01 -0.15000825649E+02 -0.16826859406E+02  0.22915845238E+02  0.51100000000E-03 0.  1.
         12    1    3    3    0    0 -0.44939603650E+01  0.55935088629E+01 -0.13312497383E+02  0.15123015828E+02  0.00000000000E+00 0. -1.
</event>
<event>
 7    1  0.2450552E-011  0.5052886E+02  0.7816164E-02  0.1300439E+00
        -11   -1    0    0    0    0  0.00000000000E+00  0.00000000000E+00  0.45593999997E+02  0.45594000000E+02  0.51100000000E-03 0.  1.
         11   -1    0    0    0    0 -0.00000000000E+00 -0.00000000000E+00 -0.45593999997E+02  0.45594000000E+02  0.51100000000E-03 0. -1.
    9900012    2    1    2    0    0 -0.80665896492E+01 -0.33625170910E+02  0.21387931833E+02  0.50528860616E+02  0.30000002330E+02 0.  0.
         12    1    1    2    0    0  0.80665896492E+01  0.33625170910E+02 -0.21387931833E+02  0.40659139384E+02  0.00000000000E+00 0. -1.
         11    1    3    3    0    0  0.74779442374E+00 -0.67297790584E+01 -0.20810866504E+01  0.70837874462E+01  0.51100000000E-03 0. -1.
        -11    1    3    3    0    0 -0.87047561135E+01 -0.31111980510E+02  0.20125568140E+02  0.38062666794E+02  0.51100000000E-03 0.  1.
         12    1    3    3    0    0 -0.10962795940E+00  0.42165886580E+01  0.33434503433E+01  0.53824063762E+01  0.00000000000E+00 0. -1.
</event>
<event>
 7    1  0.2450552E-011  0.5052885E+02  0.7816164E-02  0.1300439E+00
        -11   -1    0    0    0    0  0.00000000000E+00  0.00000000000E+00  0.45593999997E+02  0.45594000000E+02  0.51100000000E-03 0.  1.
         11   -1    0    0    0    0 -0.00000000000E+00 -0.00000000000E+00 -0.45593999997E+02  0.45594000000E+02  0.51100000000E-03 0. -1.
    9900012    2    1    2    0    0 -0.21776272759E+02 -0.13020127169E+02  0.31771633784E+02  0.50528849983E+02  0.29999970009E+02 0.  0.
         12    1    1    2    0    0  0.21776272759E+02  0.13020127169E+02 -0.31771633784E+02  0.40659150017E+02  0.00000000000E+00 0. -1.
         11    1    3    3    0    0  0.41090418028E+01 -0.67856905025E+01  0.13742693305E+02  0.15867937474E+02  0.51100000000E-03 0. -1.
        -11    1    3    3    0    0 -0.12016655601E+02  0.11583604550E+01  0.20440496629E+01  0.12244180253E+02  0.51100000000E-03 0.  1.
         12    1    3    3    0    0 -0.13868658961E+02 -0.73927971218E+01  0.15984890816E+02  0.22416732256E+02  0.00000000000E+00 0. -1.
</event>
<event>
 7    1  0.2450552E-011  0.5052886E+02  0.7816164E-02  0.1300439E+00
        -11   -1    0    0    0    0  0.00000000000E+00  0.00000000000E+00  0.45593999997E+02  0.45594000000E+02  0.51100000000E-03 0.  1.
         11   -1    0    0    0    0 -0.00000000000E+00 -0.00000000000E+00 -0.45593999997E+02  0.45594000000E+02  0.51100000000E-03 0. -1.
    9900012    2    1    2    0    0 -0.32002404959E+02 -0.17552234307E+02  0.17914549304E+02  0.50528856759E+02  0.29999990605E+02 0.  0.
         12    1    1    2    0    0  0.32002404959E+02  0.17552234307E+02 -0.17914549304E+02  0.40659143241E+02  0.00000000000E+00 0. -1.
         11    1    3    3    0    0  0.16077472056E+01 -0.73315432433E+00 -0.42503209143E+01  0.46029984223E+01  0.51100000000E-03 0. -1.
        -11    1    3    3    0    0 -0.97639953029E+01 -0.80808536137E+01  0.73446727583E+00  0.12695481158E+02  0.51100000000E-03 0.  1.
        -12    1    3    3    0    0 -0.23846156862E+02 -0.87382263686E+01  0.21430402942E+02  0.33230377178E+02  0.00000000000E+00 0.  1.
</event>
<event>
 7    1  0.2450552E-011  0.5052889E+02  0.7816164E-02  0.1300439E+00
        -11   -1    0    0    0    0  0.00000000000E+00  0.00000000000E+00  0.45593999997E+02  0.45594000000E+02  0.51100000000E-03 0.  1.
         11   -1    0    0    0    0 -0.00000000000E+00 -0.00000000000E+00 -0.45593999997E+02  0.45594000000E+02  0.51100000000E-03 0. -1.
    9900012    2    1    2    0    0 -0.31080105877E+02  0.24890160356E+02  0.82262080038E+01  0.50528885868E+02  0.30000079084E+02 0.  0.
         12    1    1    2    0    0  0.31080105877E+02 -0.24890160356E+02 -0.82262080038E+01  0.40659114132E+02  0.00000000000E+00 0. -1.
         11    1    3    3    0    0 -0.11686438887E+02  0.19420709651E+02 -0.16522934628E+01  0.22725907928E+02  0.51100000000E-03 0. -1.
        -11    1    3    3    0    0 -0.25871131273E+01  0.75150769700E+01 -0.46720267668E+00  0.79616464881E+01  0.51100000000E-03 0.  1.
         12    1    3    3    0    0 -0.16806553863E+02 -0.20456262648E+01  0.10345704143E+02  0.19841331452E+02  0.00000000000E+00 0. -1.
</event>
<event>
 7    1  0.2450552E-011  0.5052887E+02  0.7816164E-02  0.1300439E+00
        -11   -1    0    0    0    0  0.00000000000E+00  0.00000000000E+00  0.45593999997E+02  0.45594000000E+02  0.51100000000E-03 0. -1.
         11   -1    0    0    0    0 -0.00000000000E+00 -0.00000000000E+00 -0.45593999997E+02  0.45594000000E+02  0.51100000000E-03 0.  1.
    9900012    2    1    2    0    0  0.23771178963E+02  0.27859316770E+02 -0.17662224622E+02  0.50528872381E+02  0.30000038088E+02 0.  0.
         12    1    1    2    0    0 -0.23771178963E+02 -0.27859316770E+02  0.17662224622E+02  0.40659127619E+02  0.00000000000E+00 0. -1.
         11    1    3    3    0    0  0.17273347865E+02  0.52477769388E+01 -0.59896523180E+01  0.19020611042E+02  0.51100000000E-03 0.  1.
        -11    1    3    3    0    0  0.22949590220E+01  0.71056681966E+01  0.44953043904E+01  0.87157971096E+01  0.51100000000E-03 0. -1.
         12    1    3    3    0    0  0.42028720762E+01  0.15505871634E+02 -0.16167876694E+02  0.22792464229E+02  0.00000000000E+00 0. -1.
</event>
<event>
 7    1  0.2450552E-011  0.5052886E+02  0.7816164E-02  0.1300439E+00
        -11   -1    0    0    0    0  0.00000000000E+00  0.00000000000E+00  0.45593999997E+02  0.45594000000E+02  0.51100000000E-03 0.  1.
         11   -1    0    0    0    0 -0.00000000000E+00 -0.00000000000E+00 -0.45593999997E+02  0.45594000000E+02  0.51100000000E-03 0. -1.
    9900012    2    1    2    0    0  0.21766209475E+02 -0.26338937473E+02  0.22037653527E+02  0.50528859883E+02  0.30000000099E+02 0.  0.
         12    1    1    2    0    0 -0.21766209475E+02  0.26338937473E+02 -0.22037653527E+02  0.40659140117E+02  0.00000000000E+00 0. -1.
         11    1    3    3    0    0  0.57420565747E+01 -0.20044980834E+02  0.24873243685E+01  0.20999029814E+02  0.51100000000E-03 0. -1.
        -11    1    3    3    0    0  0.11124326880E+02 -0.76616178821E+01  0.54953009077E+01  0.14582502166E+02  0.51100000000E-03 0.  1.
         12    1    3    3    0    0  0.48998260198E+01  0.13676612426E+01  0.14055028251E+02  0.14947327903E+02  0.00000000000E+00 0. -1.
</event>
<event>
 7    1  0.2450552E-011  0.5052885E+02  0.7816164E-02  0.1300439E+00
        -11   -1    0    0    0    0  0.00000000000E+00  0.00000000000E+00  0.45593999997E+02  0.45594000000E+02  0.51100000000E-03 0.  1.
         11   -1    0    0    0    0 -0.00000000000E+00 -0.00000000000E+00 -0.45593999997E+02  0.45594000000E+02  0.51100000000E-03 0. -1.
    9900012    2    1    2    0    0  0.25288412627E+02 -0.11718529366E+02  0.29603023176E+02  0.50528846973E+02  0.29999960861E+02 0.  0.
         12    1    1    2    0    0 -0.25288412627E+02  0.11718529366E+02 -0.29603023176E+02  0.40659153027E+02  0.00000000000E+00 0. -1.
         11    1    3    3    0    0  0.11725293141E+02 -0.16045514850E+02  0.62507213420E+01  0.20832968190E+02  0.51100000000E-03 0. -1.
        -11    1    3    3    0    0  0.59146985951E+01 -0.37784145893E+01  0.11106083253E+02  0.13137928367E+02  0.51100000000E-03 0.  1.
         12    1    3    3    0    0  0.76484208902E+01  0.81054000736E+01  0.12246218581E+02  0.16557950416E+02  0.00000000000E+00 0. -1.
</event>
<event>
 7    1  0.2450552E-011  0.5052886E+02  0.7816164E-02  0.1300439E+00
        -11   -1    0    0    0    0  0.00000000000E+00  0.00000000000E+00  0.45593999997E+02  0.45594000000E+02  0.51100000000E-03 0.  1.
         11   -1    0    0    0    0 -0.00000000000E+00 -0.00000000000E+00 -0.45593999997E+02  0.45594000000E+02  0.51100000000E-03 0. -1.
    9900012    2    1    2    0    0  0.24886004269E+01  0.51317211768E+01  0.40257146889E+02  0.50528861175E+02  0.30000004029E+02 0.  0.
         12    1    1    2    0    0 -0.24886004269E+01 -0.51317211768E+01 -0.40257146889E+02  0.40659138825E+02  0.00000000000E+00 0. -1.
         11    1    3    3    0    0  0.47887899866E+01  0.10992243328E+01 -0.95164467059E+00  0.50046409971E+01  0.51100000000E-03 0. -1.
        -11    1    3    3    0    0 -0.65725717582E+01 -0.36414472915E+01  0.72257378416E+01  0.10424496415E+02  0.51100000000E-03 0.  1.
        -12    1    3    3    0    0  0.42723821984E+01  0.76739441355E+01  0.33983053718E+02  0.35099723763E+02  0.00000000000E+00 0.  1.
</event>
<event>
 7    1  0.2450552E-011  0.5052886E+02  0.7816164E-02  0.1300439E+00
        -11   -1    0    0    0    0  0.00000000000E+00  0.00000000000E+00  0.45593999997E+02  0.45594000000E+02  0.51100000000E-03 0.  1.
         11   -1    0    0    0    0 -0.00000000000E+00 -0.00000000000E+00 -0.45593999997E+02  0.45594000000E+02  0.51100000000E-03 0. -1.
    9900012    2    1    2    0    0 -0.83100437811E+01  0.26673697891E+02 -0.29540184653E+02  0.50528862083E+02  0.30000006787E+02 0.  0.
         12    1    1    2    0    0  0.83100437811E+01 -0.26673697891E+02  0.29540184653E+02  0.40659137917E+02  0.00000000000E+00 0. -1.
         11    1    3    3    0    0 -0.25997223845E+01 -0.14182016604E+01 -0.84618592581E+01  0.89650942433E+01  0.51100000000E-03 0. -1.
        -11    1    3    3    0    0  0.34846637544E+01  0.21088647773E+02 -0.21058389009E+02  0.30005494402E+02  0.51100000000E-03 0.  1.
        -12    1    3    3    0    0 -0.91949851509E+01  0.70032517786E+01 -0.19936386023E-01  0.11558273438E+02  0.00000000000E+00 0.  1.
</event>
<event>
 7    1  0.2450552E-011  0.5052888E+02  0.7816164E-02  0.1300439E+00
        -11   -1    0    0    0    0  0.00000000000E+00  0.00000000000E+00  0.45593999997E+02  0.45594000000E+02  0.51100000000E-03 0.  1.
         11   -1    0    0    0    0 -0.00000000000E+00 -0.00000000000E+00 -0.45593999997E+02  0.45594000000E+02  0.51100000000E-03 0. -1.
    9900012    2    1    2    0    0  0.23915579589E+01 -0.30128267520E+02  0.27198019887E+02  0.50528876314E+02  0.30000050043E+02 0.  0.
         12    1    1    2    0    0 -0.23915579589E+01  0.30128267520E+02 -0.27198019887E+02  0.40659123686E+02  0.00000000000E+00 0. -1.
         11    1    3    3    0    0  0.10343767348E+02 -0.20508892424E+02  0.11498606735E+02  0.25687081355E+02  0.51100000000E-03 0. -1.
        -11    1    3    3    0    0  0.33171201290E+01  0.10858105299E+01  0.44455149589E+01  0.56519796503E+01  0.51100000000E-03 0.  1.
         12    1    3    3    0    0 -0.11269329518E+02 -0.10705185625E+02  0.11253898193E+02  0.19189815308E+02  0.00000000000E+00 0. -1.
</event>
<event>
 7    1  0.2450552E-011  0.5052887E+02  0.7816164E-02  0.1300439E+00
        -11   -1    0    0    0    0  0.00000000000E+00  0.00000000000E+00  0.45593999997E+02  0.45594000000E+02  0.51100000000E-03 0.  1.
         11   -1    0    0    0    0 -0.00000000000E+00 -0.00000000000E+00 -0.45593999997E+02  0.45594000000E+02  0.51100000000E-03 0. -1.
    9900012    2    1    2    0    0  0.52751067725E+01 -0.11968884702E+02  0.38497847282E+02  0.50528865752E+02  0.30000017940E+02 0.  0.
         12    1    1    2    0    0 -0.52751067725E+01  0.11968884702E+02 -0.38497847282E+02  0.40659134248E+02  0.00000000000E+00 0. -1.
         11    1    3    3    0    0 -0.41459398283E+01 -0.13126565761E+02  0.14196404995E+02  0.19774566007E+02  0.51100000000E-03 0. -1.
        -11    1    3    3    0    0 -0.34938802864E+01  0.21858286918E+01  0.12739881523E+02  0.13389907692E+02  0.51100000000E-03 0.  1.
        -12    1    3    3    0    0  0.12914926887E+02 -0.10281476328E+01  0.11561560764E+02  0.17364392053E+02  0.00000000000E+00 0.  1.
</event>
<event>
 7    1  0.2450552E-011  0.5052888E+02  0.7816164E-02  0.1300439E+00
        -11   -1    0    0    0    0  0.00000000000E+00  0.00000000000E+00  0.45593999997E+02  0.45594000000E+02  0.51100000000E-03 0.  1.
         11   -1    0    0    0    0 -0.00000000000E+00 -0.00000000000E+00 -0.45593999997E+02  0.45594000000E+02  0.51100000000E-03 0. -1.
    9900012    2    1    2    0    0  0.77783723411E+01  0.19338175298E+02  0.34909828894E+02  0.50528877364E+02  0.30000053237E+02 0.  0.
         12    1    1    2    0    0 -0.77783723411E+01 -0.19338175298E+02 -0.34909828894E+02  0.40659122636E+02  0.00000000000E+00 0. -1.
         11    1    3    3    0    0 -0.39366175220E+01  0.31706435446E+01  0.75481221292E+01  0.90842768529E+01  0.51100000000E-03 0.  1.
        -11    1    3    3    0    0  0.91614620607E+01 -0.14975573392E+01  0.20165917543E+02  0.22199984137E+02  0.51100000000E-03 0. -1.
         12    1    3    3    0    0  0.25535278024E+01  0.17665089092E+02  0.71957892215E+01  0.19244616375E+02  0.00000000000E+00 0. -1.
</event>
<event>
 7    1  0.2450552E-011  0.5052884E+02  0.7816164E-02  0.1300439E+00
        -11   -1    0    0    0    0  0.00000000000E+00  0.00000000000E+00  0.45593999997E+02  0.45594000000E+02  0.51100000000E-03 0.  1.
         11   -1    0    0    0    0 -0.00000000000E+00 -0.00000000000E+00 -0.45593999997E+02  0.45594000000E+02  0.51100000000E-03 0. -1.
    9900012    2    1    2    0    0 -0.33534663234E+02 -0.21339131772E+02  0.85577459512E+01  0.50528841145E+02  0.29999943145E+02 0.  0.
         12    1    1    2    0    0  0.33534663234E+02  0.21339131772E+02 -0.85577459512E+01  0.40659158855E+02  0.00000000000E+00 0. -1.
         11    1    3    3    0    0 -0.20586224207E+02 -0.13065787607E+02  0.40694704671E+01  0.24719790109E+02  0.51100000000E-03 0. -1.
        -11    1    3    3    0    0 -0.91963388453E+01 -0.46032071641E+01  0.12527571265E+02  0.16208090770E+02  0.51100000000E-03 0.  1.
         12    1    3    3    0    0 -0.37521001816E+01 -0.36701370010E+01 -0.80392957806E+01  0.96009602659E+01  0.00000000000E+00 0. -1.
</event>
<event>
 7    1  0.2450552E-011  0.5052886E+02  0.7816164E-02  0.1300439E+00
        -11   -1    0    0    0    0  0.00000000000E+00  0.00000000000E+00  0.45593999997E+02  0.45594000000E+02  0.51100000000E-03 0.  1.
         11   -1    0    0    0    0 -0.00000000000E+00 -0.00000000000E+00 -0.45593999997E+02  0.45594000000E+02  0.51100000000E-03 0. -1.
    9900012    2    1    2    0    0 -0.18384860586E+02  0.20612465418E+02 -0.29837702581E+02  0.50528864192E+02  0.30000013197E+02 0.  0.
         12    1    1    2    0    0  0.18384860586E+02 -0.20612465418E+02  0.29837702581E+02  0.40659135808E+02  0.00000000000E+00 0. -1.
         11    1    3    3    0    0 -0.10559780798E+01  0.18499360589E+02 -0.14151581845E+02  0.23315417665E+02  0.51100000000E-03 0.  1.
        -11    1    3    3    0    0 -0.63078775926E+01  0.54406006570E+00 -0.14738746425E+02  0.16041071271E+02  0.51100000000E-03 0. -1.
        -12    1    3    3    0    0 -0.11021004913E+02  0.15690447625E+01 -0.94737431122E+00  0.11172375256E+02  0.00000000000E+00 0.  1.
</event>
<event>
 7    1  0.2450552E-011  0.5052887E+02  0.7816164E-02  0.1300439E+00
        -11   -1    0    0    0    0  0.00000000000E+00  0.00000000000E+00  0.45593999997E+02  0.45594000000E+02  0.51100000000E-03 0. -1.
         11   -1    0    0    0    0 -0.00000000000E+00 -0.00000000000E+00 -0.45593999997E+02  0.45594000000E+02  0.51100000000E-03 0.  1.
    9900012    2    1    2    0    0  0.20074312233E+02 -0.32186768610E+02 -0.14635532028E+02  0.50528869624E+02  0.30000029709E+02 0.  0.
         12    1    1    2    0    0 -0.20074312233E+02  0.32186768610E+02  0.14635532028E+02  0.40659130376E+02  0.00000000000E+00 0. -1.
         11    1    3    3    0    0  0.54093889945E+01 -0.61327188925E+01 -0.72916254791E+01  0.10956255414E+02  0.51100000000E-03 0. -1.
        -11    1    3    3    0    0  0.13972494743E+02 -0.30545395088E+02 -0.89353186077E+01  0.34757613401E+02  0.51100000000E-03 0.  1.
         12    1    3    3    0    0  0.69242849492E+00  0.44913453701E+01  0.15914120588E+01  0.48150008094E+01  0.00000000000E+00 0. -1.
</event>
<event>
 7    1  0.2450552E-011  0.5052873E+02  0.7816164E-02  0.1300439E+00
        -11   -1    0    0    0    0  0.00000000000E+00  0.00000000000E+00  0.45593999997E+02  0.45594000000E+02  0.51100000000E-03 0.  1.
         11   -1    0    0    0    0 -0.00000000000E+00 -0.00000000000E+00 -0.45593999997E+02  0.45594000000E+02  0.51100000000E-03 0. -1.
    9900012    2    1    2    0    0  0.14916108083E+02 -0.26723584740E+02  0.26768190864E+02  0.50528729178E+02  0.29999602806E+02 0.  0.
         12    1    1    2    0    0 -0.14916108083E+02  0.26723584740E+02 -0.26768190864E+02  0.40659270822E+02  0.00000000000E+00 0. -1.
         11    1    3    3    0    0  0.13742073581E+02 -0.73563562734E+01 -0.11193898947E+01  0.15627334959E+02  0.51100000000E-03 0. -1.
        -11    1    3    3    0    0 -0.15970926924E+01 -0.53331281762E+01  0.33468602509E+01  0.64957243639E+01  0.51100000000E-03 0.  1.
        -12    1    3    3    0    0  0.27711271952E+01 -0.14034100290E+02  0.24540720507E+02  0.28405669855E+02  0.00000000000E+00 0.  1.
</event>
<event>
 7    1  0.2450552E-011  0.5052887E+02  0.7816164E-02  0.1300439E+00
        -11   -1    0    0    0    0  0.00000000000E+00  0.00000000000E+00  0.45593999997E+02  0.45594000000E+02  0.51100000000E-03 0. -1.
         11   -1    0    0    0    0 -0.00000000000E+00 -0.00000000000E+00 -0.45593999997E+02  0.45594000000E+02  0.51100000000E-03 0.  1.
    9900012    2    1    2    0    0  0.40188831708E+01  0.19771006726E+02 -0.35300440092E+02  0.50528865730E+02  0.30000017874E+02 0.  0.
         12    1    1    2    0    0 -0.40188831708E+01 -0.19771006726E+02  0.35300440092E+02  0.40659134270E+02  0.00000000000E+00 0. -1.
         11    1    3    3    0    0 -0.79829941459E+01  0.13903878152E+01 -0.40667839819E+01  0.90664274125E+01  0.51100000000E-03 0. -1.
        -11    1    3    3    0    0 -0.19786646632E+01  0.40503873542E+01 -0.15075616401E+02  0.15735150514E+02  0.51100000000E-03 0.  1.
         12    1    3    3    0    0  0.13980541980E+02  0.14330231557E+02 -0.16158039708E+02  0.25727287804E+02  0.00000000000E+00 0. -1.
</event>
<event>
 7    1  0.2450552E-011  0.5052886E+02  0.7816164E-02  0.1300439E+00
        -11   -1    0    0    0    0  0.00000000000E+00  0.00000000000E+00  0.45593999997E+02  0.45594000000E+02  0.51100000000E-03 0.  1.
         11   -1    0    0    0    0 -0.00000000000E+00 -0.00000000000E+00 -0.45593999997E+02  0.45594000000E+02  0.51100000000E-03 0. -1.
    9900012    2    1    2    0    0 -0.23806257893E+02  0.10321590922E+02  0.31303230673E+02  0.50528863209E+02  0.30000010210E+02 0.  0.
         12    1    1    2    0    0  0.23806257893E+02 -0.10321590922E+02 -0.31303230673E+02  0.40659136791E+02  0.00000000000E+00 0. -1.
         11    1    3    3    0    0  0.41200058499E+01  0.68564067414E+00 -0.20003595705E+01  0.46309815385E+01  0.51100000000E-03 0. -1.
        -11    1    3    3    0    0 -0.17244290706E+02  0.21888284848E+01  0.12713802548E+02  0.21535953836E+02  0.51100000000E-03 0.  1.
        -12    1    3    3    0    0 -0.10681973037E+02  0.74471217629E+01  0.20589787695E+02  0.24361927835E+02  0.00000000000E+00 0.  1.
</event>
<event>
 7    1  0.2450552E-011  0.5052887E+02  0.7816164E-02  0.1300439E+00
        -11   -1    0    0    0    0  0.00000000000E+00  0.00000000000E+00  0.45593999997E+02  0.45594000000E+02  0.51100000000E-03 0.  1.
         11   -1    0    0    0    0 -0.00000000000E+00 -0.00000000000E+00 -0.45593999997E+02  0.45594000000E+02  0.51100000000E-03 0. -1.
    9900012    2    1    2    0    0  0.37446664714E+02 -0.74607617136E+01 -0.13973156279E+02  0.50528871136E+02  0.30000034305E+02 0.  0.
         12    1    1    2    0    0 -0.37446664714E+02  0.74607617136E+01  0.13973156279E+02  0.40659128864E+02  0.00000000000E+00 0. -1.
         11    1    3    3    0    0  0.66348046061E+01  0.27810157557E+01  0.54518405457E+01  0.90264747488E+01  0.51100000000E-03 0. -1.
        -11    1    3    3    0    0  0.28172560461E+02 -0.24166825392E+01 -0.13466581949E+02  0.31319041286E+02  0.51100000000E-03 0.  1.
        -12    1    3    3    0    0  0.26392996477E+01 -0.78250949301E+01 -0.59584148757E+01  0.10183355102E+02  0.00000000000E+00 0.  1.
</event>
<event>
 7    1  0.2450552E-011  0.5052887E+02  0.7816164E-02  0.1300439E+00
        -11   -1    0    0    0    0  0.00000000000E+00  0.00000000000E+00  0.45593999997E+02  0.45594000000E+02  0.51100000000E-03 0.  1.
         11   -1    0    0    0    0 -0.00000000000E+00 -0.00000000000E+00 -0.45593999997E+02  0.45594000000E+02  0.51100000000E-03 0. -1.
    9900012    2    1    2    0    0  0.37100457890E+02  0.68705697509E+01  0.15149781722E+02  0.50528873219E+02  0.30000040636E+02 0.  0.
         12    1    1    2    0    0 -0.37100457890E+02 -0.68705697509E+01 -0.15149781722E+02  0.40659126781E+02  0.00000000000E+00 0. -1.
         11    1    3    3    0    0 -0.18991830789E+01 -0.13383899809E+01  0.75516637262E+00  0.24430433110E+01  0.51100000000E-03 0. -1.
        -11    1    3    3    0    0  0.14109574619E+02  0.79118911386E-01  0.16626680522E+02  0.21806715965E+02  0.51100000000E-03 0.  1.
        -12    1    3    3    0    0  0.24890066351E+02  0.81298408204E+01 -0.22320651730E+01  0.26279113943E+02  0.00000000000E+00 0.  1.
</event>
<event>
 7    1  0.3584983E-011  0.5052885E+02  0.7816164E-02  0.1300439E+00
        -11   -1    0    0    0    0  0.00000000000E+00  0.00000000000E+00  0.45593999997E+02  0.45594000000E+02  0.51100000000E-03 0. -1.
         11   -1    0    0    0    0 -0.00000000000E+00 -0.00000000000E+00 -0.45593999997E+02  0.45594000000E+02  0.51100000000E-03 0.  1.
    9900012    2    1    2    0    0 -0.27953739804E+02 -0.28216548916E+02  0.86937501924E+01  0.50528849810E+02  0.29999969484E+02 0.  0.
         12    1    1    2    0    0  0.27953739804E+02  0.28216548916E+02 -0.86937501924E+01  0.40659150190E+02  0.00000000000E+00 0. -1.
         11    1    3    3    0    0 -0.35429328580E+01  0.32734520763E+01  0.57808188404E+01  0.75289925261E+01  0.51100000000E-03 0. -1.
        -11    1    3    3    0    0 -0.14271817880E+02 -0.79477635437E+01  0.55006679013E+01  0.17236852340E+02  0.51100000000E-03 0.  1.
        -12    1    3    3    0    0 -0.10138989065E+02 -0.23542237448E+02 -0.25877365493E+01  0.25763004945E+02  0.00000000000E+00 0.  1.
</event>
<event>
 7    1  0.2450552E-011  0.5052887E+02  0.7816164E-02  0.1300439E+00
        -11   -1    0    0    0    0  0.00000000000E+00  0.00000000000E+00  0.45593999997E+02  0.45594000000E+02  0.51100000000E-03 0.  1.
         11   -1    0    0    0    0 -0.00000000000E+00 -0.00000000000E+00 -0.45593999997E+02  0.45594000000E+02  0.51100000000E-03 0. -1.
    9900012    2    1    2    0    0  0.36544110877E+02  0.10787086280E+02  0.14189129980E+02  0.50528872122E+02  0.30000037301E+02 0.  0.
         12    1    1    2    0    0 -0.36544110877E+02 -0.10787086280E+02 -0.14189129980E+02  0.40659127878E+02  0.00000000000E+00 0. -1.
         11    1    3    3    0    0 -0.98573441592E+00  0.14631191790E+00 -0.35769505155E+01  0.37131731400E+01  0.51100000000E-03 0.  1.
        -11    1    3    3    0    0  0.15354692374E+02 -0.50168566128E+01  0.60472890592E+01  0.17248337120E+02  0.51100000000E-03 0. -1.
        -12    1    3    3    0    0  0.22175152919E+02  0.15657630975E+02  0.11718791437E+02  0.29567361862E+02  0.00000000000E+00 0.  1.
</event>
<event>
 7    1  0.2450552E-011  0.5052886E+02  0.7816164E-02  0.1300439E+00
        -11   -1    0    0    0    0  0.00000000000E+00  0.00000000000E+00  0.45593999997E+02  0.45594000000E+02  0.51100000000E-03 0. -1.
         11   -1    0    0    0    0 -0.00000000000E+00 -0.00000000000E+00 -0.45593999997E+02  0.45594000000E+02  0.51100000000E-03 0.  1.
    9900012    2    1    2    0    0  0.73352952546E+01  0.34943268754E+02 -0.19450630616E+02  0.50528860572E+02  0.30000002193E+02 0.  0.
         12    1    1    2    0    0 -0.73352952546E+01 -0.34943268754E+02  0.19450630616E+02  0.40659139428E+02  0.00000000000E+00 0. -1.
         11    1    3    3    0    0  0.90558352751E+01  0.58648978931E+01 -0.65911220471E+01  0.12643103651E+02  0.51100000000E-03 0. -1.
        -11    1    3    3    0    0  0.70446947423E+01  0.23169522806E+02 -0.12629757912E+02  0.27312365263E+02  0.51100000000E-03 0.  1.
        -12    1    3    3    0    0 -0.87652347628E+01  0.59088480552E+01 -0.22975065676E+00  0.10573391658E+02  0.00000000000E+00 0.  1.
</event>
<event>
 7    1  0.2450552E-011  0.5052881E+02  0.7816164E-02  0.1300439E+00
        -11   -1    0    0    0    0  0.00000000000E+00  0.00000000000E+00  0.45593999997E+02  0.45594000000E+02  0.51100000000E-03 0.  1.
         11   -1    0    0    0    0 -0.00000000000E+00 -0.00000000000E+00 -0.45593999997E+02  0.45594000000E+02  0.51100000000E-03 0. -1.
    9900012    2    1    2    0    0 -0.16459935683E+02  0.82350432352E+01  0.36254984823E+02  0.50528814761E+02  0.29999862948E+02 0.  0.
         12    1    1    2    0    0  0.16459935683E+02 -0.82350432352E+01 -0.36254984823E+02  0.40659185239E+02  0.00000000000E+00 0. -1.
         11    1    3    3    0    0 -0.21488795702E+01 -0.26231111831E+01  0.10307516638E+02  0.10850958261E+02  0.51100000000E-03 0. -1.
        -11    1    3    3    0    0 -0.20283871623E+02  0.12496147783E+02  0.20653035489E+02  0.31529938671E+02  0.51100000000E-03 0.  1.
         12    1    3    3    0    0  0.59728155098E+01 -0.16379933648E+01  0.52944326963E+01  0.81479178293E+01  0.00000000000E+00 0. -1.
</event>
<event>
 7    1  0.2450552E-011  0.5052886E+02  0.7816164E-02  0.1300439E+00
        -11   -1    0    0    0    0  0.00000000000E+00  0.00000000000E+00  0.45593999997E+02  0.45594000000E+02  0.51100000000E-03 0. -1.
         11   -1    0    0    0    0 -0.00000000000E+00 -0.00000000000E+00 -0.45593999997E+02  0.45594000000E+02  0.51100000000E-03 0.  1.
    9900012    2    1    2    0    0 -0.39904331561E+02  0.70077503552E+01  0.34207294404E+01  0.50528860409E+02  0.30000001699E+02 0.  0.
         12    1    1    2    0    0  0.39904331561E+02 -0.70077503552E+01 -0.34207294404E+01  0.40659139591E+02  0.00000000000E+00 0. -1.
         11    1    3    3    0    0 -0.17906579933E+02 -0.43266271771E+01  0.32523983295E+01  0.18706774249E+02  0.51100000000E-03 0. -1.
        -11    1    3    3    0    0  0.85539738157E+00  0.20169175138E+01 -0.59965127818E+01  0.63841856757E+01  0.51100000000E-03 0.  1.
         12    1    3    3    0    0 -0.22853149009E+02  0.93174600184E+01  0.61648438927E+01  0.25437900484E+02  0.00000000000E+00 0. -1.
</event>
<event>
 7    1  0.2450552E-011  0.5052887E+02  0.7816164E-02  0.1300439E+00
        -11   -1    0    0    0    0  0.00000000000E+00  0.00000000000E+00  0.45593999997E+02  0.45594000000E+02  0.51100000000E-03 0.  1.
         11   -1    0    0    0    0 -0.00000000000E+00 -0.00000000000E+00 -0.45593999997E+02  0.45594000000E+02  0.51100000000E-03 0. -1.
    9900012    2    1    2    0    0 -0.24156106188E+02 -0.31830708670E+02  0.75135422621E+01  0.50528870669E+02  0.30000032886E+02 0.  0.
         12    1    1    2    0    0  0.24156106188E+02  0.31830708670E+02 -0.75135422621E+01  0.40659129331E+02  0.00000000000E+00 0. -1.
         11    1    3    3    0    0 -0.13281830794E+02 -0.15087713646E+02 -0.92186542323E+01  0.22114016334E+02  0.51100000000E-03 0. -1.
        -11    1    3    3    0    0 -0.96582063254E+01 -0.46302958389E+01  0.66405977348E+01  0.12602306436E+02  0.51100000000E-03 0.  1.
        -12    1    3    3    0    0 -0.12160690687E+01 -0.12112699186E+02  0.10091598760E+02  0.15812547899E+02  0.00000000000E+00 0.  1.
</event>
<event>
 7    1  0.2450552E-011  0.5052887E+02  0.7816164E-02  0.1300439E+00
        -11   -1    0    0    0    0  0.00000000000E+00  0.00000000000E+00  0.45593999997E+02  0.45594000000E+02  0.51100000000E-03 0.  1.
         11   -1    0    0    0    0 -0.00000000000E+00 -0.00000000000E+00 -0.45593999997E+02  0.45594000000E+02  0.51100000000E-03 0. -1.
    9900012    2    1    2    0    0  0.10182057774E+02 -0.64357442626E+01  0.38833897632E+02  0.50528871750E+02  0.30000036172E+02 0.  0.
         12    1    1    2    0    0 -0.10182057774E+02  0.64357442626E+01 -0.38833897632E+02  0.40659128250E+02  0.00000000000E+00 0. -1.
         11    1    3    3    0    0  0.39894577840E+01  0.40318363029E+01  0.10347020192E+02  0.11799673915E+02  0.51100000000E-03 0. -1.
        -11    1    3    3    0    0  0.57985066097E+01 -0.10004476117E+02  0.32590323416E+02  0.34580939864E+02  0.51100000000E-03 0.  1.
        -12    1    3    3    0    0  0.39409338000E+00 -0.46310444853E+00 -0.41034459755E+01  0.41482579713E+01  0.00000000000E+00 0.  1.
</event>
<event>
 7    1  0.2450552E-011  0.5052891E+02  0.7816164E-02  0.1300439E+00
        -11   -1    0    0    0    0  0.00000000000E+00  0.00000000000E+00  0.45593999997E+02  0.45594000000E+02  0.51100000000E-03 0.  1.
         11   -1    0    0    0    0 -0.00000000000E+00 -0.00000000000E+00 -0.45593999997E+02  0.45594000000E+02  0.51100000000E-03 0. -1.
    9900012    2    1    2    0    0 -0.64978500920E+01 -0.26847178603E+02  0.29835692555E+02  0.50528909934E+02  0.30000152235E+02 0.  0.
         12    1    1    2    0    0  0.64978500920E+01  0.26847178603E+02 -0.29835692555E+02  0.40659090066E+02  0.00000000000E+00 0. -1.
         11    1    3    3    0    0 -0.44232420038E+01 -0.42450980052E+01  0.18393706625E+02  0.19388511304E+02  0.51100000000E-03 0. -1.
        -11    1    3    3    0    0 -0.99688765192E+01 -0.10214216898E+02  0.56740441535E+01  0.15359150471E+02  0.51100000000E-03 0.  1.
        -12    1    3    3    0    0  0.78942684310E+01 -0.12387863700E+02  0.57679417762E+01  0.15781248159E+02  0.00000000000E+00 0.  1.
</event>
<event>
 7    1  0.2450552E-011  0.5052886E+02  0.7816164E-02  0.1300439E+00
        -11   -1    0    0    0    0  0.00000000000E+00  0.00000000000E+00  0.45593999997E+02  0.45594000000E+02  0.51100000000E-03 0.  1.
         11   -1    0    0    0    0 -0.00000000000E+00 -0.00000000000E+00 -0.45593999997E+02  0.45594000000E+02  0.51100000000E-03 0. -1.
    9900012    2    1    2    0    0 -0.31183701734E+02  0.45110743058E+01 -0.25698102892E+02  0.50528861575E+02  0.30000005244E+02 0.  0.
         12    1    1    2    0    0  0.31183701734E+02 -0.45110743058E+01  0.25698102892E+02  0.40659138425E+02  0.00000000000E+00 0. -1.
         11    1    3    3    0    0 -0.14601046921E+02 -0.60550653377E+01 -0.11797255917E+02  0.19723834183E+02  0.51100000000E-03 0. -1.
        -11    1    3    3    0    0 -0.15099576917E+02  0.32561738531E+01 -0.48403240835E+00  0.15454260865E+02  0.51100000000E-03 0.  1.
         12    1    3    3    0    0 -0.14830778958E+01  0.73099657904E+01 -0.13416814566E+02  0.15350766528E+02  0.00000000000E+00 0. -1.
</event>
<event>
 7    1  0.2450552E-011  0.5052886E+02  0.7816164E-02  0.1300439E+00
        -11   -1    0    0    0    0  0.00000000000E+00  0.00000000000E+00  0.45593999997E+02  0.45594000000E+02  0.51100000000E-03 0. -1.
         11   -1    0    0    0    0 -0.00000000000E+00 -0.00000000000E+00 -0.45593999997E+02  0.45594000000E+02  0.51100000000E-03 0.  1.
    9900012    2    1    2    0    0 -0.99262067941E+01  0.18124881372E+02 -0.35016062062E+02  0.50528861933E+02  0.30000006331E+02 0.  0.
         12    1    1    2    0    0  0.99262067941E+01 -0.18124881372E+02  0.35016062062E+02  0.40659138067E+02  0.00000000000E+00 0. -1.
         11    1    3    3    0    0 -0.11931344880E+02  0.37477838053E+01 -0.22656610358E+02  0.25879043013E+02  0.51100000000E-03 0.  1.
        -11    1    3    3    0    0 -0.61116650398E+01  0.32759342276E+01 -0.14218443203E+01  0.70785476021E+01  0.51100000000E-03 0. -1.
        -12    1    3    3    0    0  0.81168031254E+01  0.11101163339E+02 -0.10937607383E+02  0.17571271318E+02  0.00000000000E+00 0.  1.
</event>
<event>
 7    1  0.2450552E-011  0.5052886E+02  0.7816164E-02  0.1300439E+00
        -11   -1    0    0    0    0  0.00000000000E+00  0.00000000000E+00  0.45593999997E+02  0.45594000000E+02  0.51100000000E-03 0.  1.
         11   -1    0    0    0    0 -0.00000000000E+00 -0.00000000000E+00 -0.45593999997E+02  0.45594000000E+02  0.51100000000E-03 0. -1.
    9900012    2    1    2    0    0 -0.18305620723E+02  0.76936404495E+01  0.35480667338E+02  0.50528860705E+02  0.30000002599E+02 0.  0.
         12    1    1    2    0    0  0.18305620723E+02 -0.76936404495E+01 -0.35480667338E+02  0.40659139295E+02  0.00000000000E+00 0. -1.
         11    1    3    3    0    0 -0.18060073221E+02  0.20163480791E+01  0.17555324223E+02  0.25267000479E+02  0.51100000000E-03 0. -1.
        -11    1    3    3    0    0 -0.63996095763E+01  0.80050921702E+01  0.14737225736E+02  0.17950552248E+02  0.51100000000E-03 0.  1.
         12    1    3    3    0    0  0.61540620745E+01 -0.23277997998E+01  0.31881173796E+01  0.73113079781E+01  0.00000000000E+00 0. -1.
</event>
<event>
 7    1  0.2450552E-011  0.5052887E+02  0.7816164E-02  0.1300439E+00
        -11   -1    0    0    0    0  0.00000000000E+00  0.00000000000E+00  0.45593999997E+02  0.45594000000E+02  0.51100000000E-03 0.  1.
         11   -1    0    0    0    0 -0.00000000000E+00 -0.00000000000E+00 -0.45593999997E+02  0.45594000000E+02  0.51100000000E-03 0. -1.
    9900012    2    1    2    0    0 -0.15566078521E+02  0.52432508205E+01  0.37193691023E+02  0.50528866566E+02  0.30000020413E+02 0.  0.
         12    1    1    2    0    0  0.15566078521E+02 -0.52432508205E+01 -0.37193691023E+02  0.40659133434E+02  0.00000000000E+00 0. -1.
         11    1    3    3    0    0  0.31002884550E+01 -0.21368107024E+01  0.32122218119E+00  0.37790120975E+01  0.51100000000E-03 0. -1.
        -11    1    3    3    0    0 -0.19836280683E+02  0.26905901107E+01  0.16890656523E+02  0.26191822856E+02  0.51100000000E-03 0.  1.
         12    1    3    3    0    0  0.11699137071E+01  0.46894714122E+01  0.19981812319E+02  0.20558031612E+02  0.00000000000E+00 0. -1.
</event>
<event>
 7    1  0.2450552E-011  0.5052883E+02  0.7816164E-02  0.1300439E+00
        -11   -1    0    0    0    0  0.00000000000E+00  0.00000000000E+00  0.45593999997E+02  0.45594000000E+02  0.51100000000E-03 0. -1.
         11   -1    0    0    0    0 -0.00000000000E+00 -0.00000000000E+00 -0.45593999997E+02  0.45594000000E+02  0.51100000000E-03 0.  1.
    9900012    2    1    2    0    0  0.13022854808E+02  0.11294628438E+02 -0.36823965187E+02  0.50528833862E+02  0.29999921007E+02 0.  0.
         12    1    1    2    0    0 -0.13022854808E+02 -0.11294628438E+02  0.36823965187E+02  0.40659166138E+02  0.00000000000E+00 0. -1.
         11    1    3    3    0    0  0.19355513120E+01  0.53409534934E+01 -0.15898538739E+02  0.16882999657E+02  0.51100000000E-03 0.  1.
        -11    1    3    3    0    0 -0.62457062202E+01  0.64024750823E+01 -0.60268055245E+01  0.10785310309E+02  0.51100000000E-03 0. -1.
         12    1    3    3    0    0  0.17333009717E+02 -0.44880013774E+00 -0.14898620924E+02  0.22860523897E+02  0.00000000000E+00 0. -1.
</event>
<event>
 7    1  0.2450552E-011  0.5052887E+02  0.7816164E-02  0.1300439E+00
        -11   -1    0    0    0    0  0.00000000000E+00  0.00000000000E+00  0.45593999997E+02  0.45594000000E+02  0.51100000000E-03 0.  1.
         11   -1    0    0    0    0 -0.00000000000E+00 -0.00000000000E+00 -0.45593999997E+02  0.45594000000E+02  0.51100000000E-03 0. -1.
    9900012    2    1    2    0    0 -0.48301691695E+01 -0.35213408285E+02  0.19744625720E+02  0.50528869388E+02  0.30000028993E+02 0.  0.
         12    1    1    2    0    0  0.48301691695E+01  0.35213408285E+02 -0.19744625720E+02  0.40659130612E+02  0.00000000000E+00 0. -1.
         11    1    3    3    0    0  0.40085995894E+01 -0.11168481181E+02  0.90654145515E+01  0.14932701826E+02  0.51100000000E-03 0. -1.
        -11    1    3    3    0    0 -0.10929514285E+02 -0.24818638112E+02  0.26321908890E+01  0.27246054932E+02  0.51100000000E-03 0.  1.
         12    1    3    3    0    0  0.20907455259E+01  0.77371100737E+00  0.80470202790E+01  0.83501126308E+01  0.00000000000E+00 0. -1.
</event>
<event>
 7    1  0.2450552E-011  0.5052886E+02  0.7816164E-02  0.1300439E+00
        -11   -1    0    0    0    0  0.00000000000E+00  0.00000000000E+00  0.45593999997E+02  0.45594000000E+02  0.51100000000E-03 0. -1.
         11   -1    0    0    0    0 -0.00000000000E+00 -0.00000000000E+00 -0.45593999997E+02  0.45594000000E+02  0.51100000000E-03 0.  1.
    9900012    2    1    2    0    0  0.10000319492E+02  0.25245598191E+02 -0.30262501871E+02  0.50528860345E+02  0.30000001505E+02 0.  0.
         12    1    1    2    0    0 -0.10000319492E+02 -0.25245598191E+02  0.30262501871E+02  0.40659139655E+02  0.00000000000E+00 0. -1.
         11    1    3    3    0    0 -0.34615294627E+01  0.12529093153E+02 -0.54963697066E+01  0.14112775832E+02  0.51100000000E-03 0. -1.
        -11    1    3    3    0    0  0.83758505939E+01  0.16779166729E+02 -0.22989872969E+02  0.29668663075E+02  0.51100000000E-03 0.  1.
        -12    1    3    3    0    0  0.50859983604E+01 -0.40626616909E+01 -0.17762591957E+01  0.67474214384E+01  0.00000000000E+00 0.  1.
</event>
<event>
 7    1  0.2450552E-011  0.5052886E+02  0.7816164E-02  0.1300439E+00
        -11   -1    0    0    0    0  0.00000000000E+00  0.00000000000E+00  0.45593999997E+02  0.45594000000E+02  0.51100000000E-03 0.  1.
         11   -1    0    0    0    0 -0.00000000000E+00 -0.00000000000E+00 -0.45593999997E+02  0.45594000000E+02  0.51100000000E-03 0. -1.
    9900012    2    1    2    0    0 -0.20857259113E+02 -0.13237999883E+02  0.32293894078E+02  0.50528862118E+02  0.30000006894E+02 0.  0.
         12    1    1    2    0    0  0.20857259113E+02  0.13237999883E+02 -0.32293894078E+02  0.40659137882E+02  0.00000000000E+00 0. -1.
         11    1    3    3    0    0  0.60059103380E+01 -0.59317750678E+01  0.11125986096E+02  0.13965832639E+02  0.51100000000E-03 0. -1.
        -11    1    3    3    0    0 -0.52286867515E+01 -0.35425029948E+01  0.10249167758E+02  0.12038850967E+02  0.51100000000E-03 0.  1.
        -12    1    3    3    0    0 -0.21634482699E+02 -0.37637218201E+01  0.10918740225E+02  0.24524178512E+02  0.00000000000E+00 0.  1.
</event>
<event>
 7    1  0.2450552E-011  0.5052885E+02  0.7816164E-02  0.1300439E+00
        -11   -1    0    0    0    0  0.00000000000E+00  0.00000000000E+00  0.45593999997E+02  0.45594000000E+02  0.51100000000E-03 0.  1.
         11   -1    0    0    0    0 -0.00000000000E+00 -0.00000000000E+00 -0.45593999997E+02  0.45594000000E+02  0.51100000000E-03 0. -1.
    9900012    2    1    2    0    0  0.15706905823E+02  0.37495440419E+02 -0.74259685009E+00  0.50528851056E+02  0.29999973269E+02 0.  0.
         12    1    1    2    0    0 -0.15706905823E+02 -0.37495440419E+02  0.74259685009E+00  0.40659148944E+02  0.00000000000E+00 0. -1.
         11    1    3    3    0    0  0.12801395231E+01 -0.16728977586E+01 -0.93598027198E+00  0.23050820896E+01  0.51100000000E-03 0. -1.
        -11    1    3    3    0    0  0.15997108080E+02  0.13801852719E+02  0.63726996740E+01  0.22068300949E+02  0.51100000000E-03 0.  1.
        -12    1    3    3    0    0 -0.15703417794E+01  0.25366485459E+02 -0.61793162521E+01  0.26155468017E+02  0.00000000000E+00 0.  1.
</event>
<event>
 7    1  0.3015984E-011  0.5052886E+02  0.7816164E-02  0.1300439E+00
        -11   -1    0    0    0    0  0.00000000000E+00  0.00000000000E+00  0.45593999997E+02  0.45594000000E+02  0.51100000000E-03 0. -1.
         11   -1    0    0    0    0 -0.00000000000E+00 -0.00000000000E+00 -0.45593999997E+02  0.45594000000E+02  0.51100000000E-03 0.  1.
    9900012    2    1    2    0    0  0.16358140738E+01  0.20479026869E+02 -0.35087026611E+02  0.50528857540E+02  0.29999992979E+02 0.  0.
         12    1    1    2    0    0 -0.16358140738E+01 -0.20479026869E+02  0.35087026611E+02  0.40659142460E+02  0.00000000000E+00 0. -1.
         11    1    3    3    0    0 -0.33924790421E+01  0.74000919490E+00  0.10321045402E+01  0.36223980597E+01  0.51100000000E-03 0. -1.
        -11    1    3    3    0    0 -0.35755235865E+01  0.18541880594E+02 -0.15151410631E+02  0.24210554501E+02  0.51100000000E-03 0.  1.
        -12    1    3    3    0    0  0.86038167024E+01  0.11971370804E+01 -0.20967720520E+02  0.22695904980E+02  0.00000000000E+00 0.  1.
</event>
<event>
 7    1  0.2450552E-011  0.5052886E+02  0.7816164E-02  0.1300439E+00
        -11   -1    0    0    0    0  0.00000000000E+00  0.00000000000E+00  0.45593999997E+02  0.45594000000E+02  0.51100000000E-03 0.  1.
         11   -1    0    0    0    0 -0.00000000000E+00 -0.00000000000E+00 -0.45593999997E+02  0.45594000000E+02  0.51100000000E-03 0. -1.
    9900012    2    1    2    0    0  0.12256288005E+01 -0.39298699800E+02  0.10357417418E+02  0.50528855056E+02  0.29999985429E+02 0.  0.
         12    1    1    2    0    0 -0.12256288005E+01  0.39298699800E+02 -0.10357417418E+02  0.40659144944E+02  0.00000000000E+00 0. -1.
         11    1    3    3    0    0 -0.23245933809E+01 -0.59070747269E+01 -0.24431522481E+01  0.68019305630E+01  0.51100000000E-03 0. -1.
        -11    1    3    3    0    0 -0.45131601126E+01 -0.33195105758E+02  0.12146968247E+02  0.35634709180E+02  0.51100000000E-03 0.  1.
         12    1    3    3    0    0  0.80633822940E+01 -0.19651931524E+00  0.65360142005E+00  0.80922153133E+01  0.00000000000E+00 0. -1.
</event>
<event>
 7    1  0.2450552E-011  0.5052887E+02  0.7816164E-02  0.1300439E+00
        -11   -1    0    0    0    0  0.00000000000E+00  0.00000000000E+00  0.45593999997E+02  0.45594000000E+02  0.51100000000E-03 0. -1.
         11   -1    0    0    0    0 -0.00000000000E+00 -0.00000000000E+00 -0.45593999997E+02  0.45594000000E+02  0.51100000000E-03 0.  1.
    9900012    2    1    2    0    0 -0.61719771837E+01 -0.55763458444E+01 -0.39799198990E+02  0.50528866025E+02  0.30000018770E+02 0.  0.
         12    1    1    2    0    0  0.61719771837E+01  0.55763458444E+01  0.39799198990E+02  0.40659133975E+02  0.00000000000E+00 0. -1.
         11    1    3    3    0    0 -0.17290611519E+01 -0.14891944422E+02 -0.88400955379E+01  0.17404222204E+02  0.51100000000E-03 0. -1.
        -11    1    3    3    0    0 -0.33262167211E+01  0.19004873420E+01 -0.15156302033E+02  0.15632947943E+02  0.51100000000E-03 0.  1.
        -12    1    3    3    0    0 -0.11166993107E+01  0.74151112360E+01 -0.15802801420E+02  0.17491695878E+02  0.00000000000E+00 0.  1.
</event>
<event>
 7    1  0.2450552E-011  0.5052886E+02  0.7816164E-02  0.1300439E+00
        -11   -1    0    0    0    0  0.00000000000E+00  0.00000000000E+00  0.45593999997E+02  0.45594000000E+02  0.51100000000E-03 0.  1.
         11   -1    0    0    0    0 -0.00000000000E+00 -0.00000000000E+00 -0.45593999997E+02  0.45594000000E+02  0.51100000000E-03 0. -1.
    9900012    2    1    2    0    0 -0.26678815951E+02  0.28501510375E+02  0.11360896154E+02  0.50528864795E+02  0.30000015031E+02 0.  0.
         12    1    1    2    0    0  0.26678815951E+02 -0.28501510375E+02 -0.11360896154E+02  0.40659135205E+02  0.00000000000E+00 0. -1.
         11    1    3    3    0    0 -0.14475574495E+02  0.13560964591E+02  0.14825470755E+01  0.19890700433E+02  0.51100000000E-03 0.  1.
        -11    1    3    3    0    0 -0.96002011153E+01  0.94888301535E+01 -0.51450958882E+01  0.14445545026E+02  0.51100000000E-03 0. -1.
        -12    1    3    3    0    0 -0.26030403407E+01  0.54517156301E+01  0.15023444966E+02  0.16192619337E+02  0.00000000000E+00 0.  1.
</event>
<event>
 7    1  0.2450552E-011  0.5052885E+02  0.7816164E-02  0.1300439E+00
        -11   -1    0    0    0    0  0.00000000000E+00  0.00000000000E+00  0.45593999997E+02  0.45594000000E+02  0.51100000000E-03 0. -1.
         11   -1    0    0    0    0 -0.00000000000E+00 -0.00000000000E+00 -0.45593999997E+02  0.45594000000E+02  0.51100000000E-03 0.  1.
    9900012    2    1    2    0    0  0.23846123733E+02  0.20564745210E+02 -0.25721980248E+02  0.50528848134E+02  0.29999964387E+02 0.  0.
         12    1    1    2    0    0 -0.23846123733E+02 -0.20564745210E+02  0.25721980248E+02  0.40659151866E+02  0.00000000000E+00 0. -1.
         11    1    3    3    0    0 -0.16941741983E+01  0.10251727276E+01 -0.79963391973E+01  0.82378787412E+01  0.51100000000E-03 0. -1.
        -11    1    3    3    0    0  0.15399103787E+02  0.14395941065E+02 -0.21692378952E+02  0.30247889537E+02  0.51100000000E-03 0.  1.
         12    1    3    3    0    0  0.10141194144E+02  0.51436314176E+01  0.39667379015E+01  0.12043079856E+02  0.00000000000E+00 0. -1.
</event>
<event>
 7    1  0.2450552E-011  0.5052884E+02  0.7816164E-02  0.1300439E+00
        -11   -1    0    0    0    0  0.00000000000E+00  0.00000000000E+00  0.45593999997E+02  0.45594000000E+02  0.51100000000E-03 0.  1.
         11   -1    0    0    0    0 -0.00000000000E+00 -0.00000000000E+00 -0.45593999997E+02  0.45594000000E+02  0.51100000000E-03 0. -1.
    9900012    2    1    2    0    0  0.21109347076E+02  0.34738908220E+02  0.87807691018E+00  0.50528839933E+02  0.29999939459E+02 0.  0.
         12    1    1    2    0    0 -0.21109347076E+02 -0.34738908220E+02 -0.87807691018E+00  0.40659160067E+02  0.00000000000E+00 0. -1.
         11    1    3    3    0    0  0.19602181534E+02  0.17783589299E+02  0.31799404492E+01  0.26657336528E+02  0.51100000000E-03 0. -1.
        -11    1    3    3    0    0  0.11873485915E+01  0.75118703497E+01  0.71989530563E+01  0.10472006407E+02  0.51100000000E-03 0.  1.
         12    1    3    3    0    0  0.31981695102E+00  0.94434485716E+01 -0.95008165953E+01  0.13399496997E+02  0.00000000000E+00 0. -1.
</event>
<event>
 7    1  0.2450552E-011  0.5052887E+02  0.7816164E-02  0.1300439E+00
        -11   -1    0    0    0    0  0.00000000000E+00  0.00000000000E+00  0.45593999997E+02  0.45594000000E+02  0.51100000000E-03 0.  1.
         11   -1    0    0    0    0 -0.00000000000E+00 -0.00000000000E+00 -0.45593999997E+02  0.45594000000E+02  0.51100000000E-03 0. -1.
    9900012    2    1    2    0    0  0.21032921972E+02 -0.92292412584E+01  0.33549992554E+02  0.50528871858E+02  0.30000036500E+02 0.  0.
         12    1    1    2    0    0 -0.21032921972E+02  0.92292412584E+01 -0.33549992554E+02  0.40659128142E+02  0.00000000000E+00 0. -1.
         11    1    3    3    0    0  0.39603819965E-01  0.23685622916E+01  0.52173250375E+01  0.57299333853E+01  0.51100000000E-03 0. -1.
        -11    1    3    3    0    0  0.11457892196E+02 -0.13901784408E+02  0.29857430583E+02  0.34871321521E+02  0.51100000000E-03 0.  1.
         12    1    3    3    0    0  0.95354259553E+01  0.23039808576E+01 -0.15247630668E+01  0.99276169523E+01  0.00000000000E+00 0. -1.
</event>
<event>
 7    1  0.2450552E-011  0.5052887E+02  0.7816164E-02  0.1300439E+00
        -11   -1    0    0    0    0  0.00000000000E+00  0.00000000000E+00  0.45593999997E+02  0.45594000000E+02  0.51100000000E-03 0.  1.
         11   -1    0    0    0    0 -0.00000000000E+00 -0.00000000000E+00 -0.45593999997E+02  0.45594000000E+02  0.51100000000E-03 0. -1.
    9900012    2    1    2    0    0  0.36420372557E+02 -0.10704149680E+02  0.14565102350E+02  0.50528873546E+02  0.30000041630E+02 0.  0.
         12    1    1    2    0    0 -0.36420372557E+02  0.10704149680E+02 -0.14565102350E+02  0.40659126454E+02  0.00000000000E+00 0. -1.
         11    1    3    3    0    0  0.19773952583E+02  0.31468031006E+01 -0.21773077140E+01  0.20140810302E+02  0.51100000000E-03 0. -1.
        -11    1    3    3    0    0  0.16062591172E+02 -0.82417708911E+01  0.74756727390E+01  0.19540197178E+02  0.51100000000E-03 0.  1.
        -12    1    3    3    0    0  0.58382880225E+00 -0.56091818898E+01  0.92667373246E+01  0.10847866066E+02  0.00000000000E+00 0.  1.
</event>
<event>
 7    1  0.2450552E-011  0.5052886E+02  0.7816164E-02  0.1300439E+00
        -11   -1    0    0    0    0  0.00000000000E+00  0.00000000000E+00  0.45593999997E+02  0.45594000000E+02  0.51100000000E-03 0.  1.
         11   -1    0    0    0    0 -0.00000000000E+00 -0.00000000000E+00 -0.45593999997E+02  0.45594000000E+02  0.51100000000E-03 0. -1.
    9900012    2    1    2    0    0 -0.38021458716E+02 -0.54856100865E+01  0.13320758976E+02  0.50528857601E+02  0.29999993165E+02 0.  0.
         12    1    1    2    0    0  0.38021458716E+02  0.54856100865E+01 -0.13320758976E+02  0.40659142399E+02  0.00000000000E+00 0. -1.
         11    1    3    3    0    0 -0.66048754720E+01 -0.18691065720E+01 -0.51025131265E+01  0.85529866038E+01  0.51100000000E-03 0. -1.
        -11    1    3    3    0    0 -0.26502361769E+02 -0.17046465942E+01  0.43034118097E+01  0.26903537924E+02  0.51100000000E-03 0.  1.
        -12    1    3    3    0    0 -0.49142214749E+01 -0.19118569202E+01  0.14119860293E+02  0.15072333074E+02  0.00000000000E+00 0.  1.
</event>
<event>
 7    1  0.2450552E-011  0.5052882E+02  0.7816164E-02  0.1300439E+00
        -11   -1    0    0    0    0  0.00000000000E+00  0.00000000000E+00  0.45593999997E+02  0.45594000000E+02  0.51100000000E-03 0. -1.
         11   -1    0    0    0    0 -0.00000000000E+00 -0.00000000000E+00 -0.45593999997E+02  0.45594000000E+02  0.51100000000E-03 0.  1.
    9900012    2    1    2    0    0 -0.21146864757E+02  0.17953901859E+02 -0.29726026413E+02  0.50528817430E+02  0.29999871059E+02 0.  0.
         12    1    1    2    0    0  0.21146864757E+02 -0.17953901859E+02  0.29726026413E+02  0.40659182570E+02  0.00000000000E+00 0. -1.
         11    1    3    3    0    0 -0.46962137132E+01 -0.42927268287E+01 -0.33846520832E+01  0.72067882480E+01  0.51100000000E-03 0. -1.
        -11    1    3    3    0    0 -0.16629172724E+02  0.13432498174E+02 -0.27050753801E+02  0.34477596699E+02  0.51100000000E-03 0.  1.
         12    1    3    3    0    0  0.17852168002E+00  0.88141305139E+01  0.70937947177E+00  0.88444324827E+01  0.00000000000E+00 0. -1.
</event>
<event>
 7    1  0.2450552E-011  0.5052885E+02  0.7816164E-02  0.1300439E+00
        -11   -1    0    0    0    0  0.00000000000E+00  0.00000000000E+00  0.45593999997E+02  0.45594000000E+02  0.51100000000E-03 0.  1.
         11   -1    0    0    0    0 -0.00000000000E+00 -0.00000000000E+00 -0.45593999997E+02  0.45594000000E+02  0.51100000000E-03 0. -1.
    9900012    2    1    2    0    0 -0.21901912372E+02  0.29155799610E+01  0.34131683313E+02  0.50528853700E+02  0.29999981307E+02 0.  0.
         12    1    1    2    0    0  0.21901912372E+02 -0.29155799610E+01 -0.34131683313E+02  0.40659146300E+02  0.00000000000E+00 0. -1.
         11    1    3    3    0    0 -0.71610309823E+01 -0.18230316802E+01  0.30511552579E+01  0.79945830351E+01  0.51100000000E-03 0. -1.
        -11    1    3    3    0    0 -0.11642568845E+02  0.87915237525E+01  0.33755996529E+02  0.36773735207E+02  0.51100000000E-03 0.  1.
         12    1    3    3    0    0 -0.30983125448E+01 -0.40529121114E+01 -0.26754684736E+01  0.57605354578E+01  0.00000000000E+00 0. -1.
</event>
<event>
 7    1  0.2543849E-011  0.5052887E+02  0.7816164E-02  0.1300439E+00
        -11   -1    0    0    0    0  0.00000000000E+00  0.00000000000E+00  0.45593999997E+02  0.45594000000E+02  0.51100000000E-03 0. -1.
         11   -1    0    0    0    0 -0.00000000000E+00 -0.00000000000E+00 -0.45593999997E+02  0.45594000000E+02  0.51100000000E-03 0.  1.
    9900012    2    1    2    0    0 -0.38469980199E+02 -0.11452048418E+02 -0.64866316422E+01  0.50528865977E+02  0.30000018622E+02 0.  0.
         12    1    1    2    0    0  0.38469980199E+02  0.11452048418E+02  0.64866316422E+01  0.40659134023E+02  0.00000000000E+00 0. -1.
         11    1    3    3    0    0 -0.47266644781E+01  0.68823164793E+01 -0.12534629643E+01  0.84426777076E+01  0.51100000000E-03 0. -1.
        -11    1    3    3    0    0 -0.22784824165E+01 -0.41178542862E+01 -0.59065291090E+01  0.75521713713E+01  0.51100000000E-03 0.  1.
        -12    1    3    3    0    0 -0.31464833304E+02 -0.14216510611E+02  0.67336043113E+00  0.34534016898E+02  0.00000000000E+00 0.  1.
</event>
<event>
 7    1  0.2450552E-011  0.5052886E+02  0.7816164E-02  0.1300439E+00
        -11   -1    0    0    0    0  0.00000000000E+00  0.00000000000E+00  0.45593999997E+02  0.45594000000E+02  0.51100000000E-03 0.  1.
         11   -1    0    0    0    0 -0.00000000000E+00 -0.00000000000E+00 -0.45593999997E+02  0.45594000000E+02  0.51100000000E-03 0. -1.
    9900012    2    1    2    0    0 -0.12655232746E+02  0.56941108520E+01  0.38217632931E+02  0.50528864728E+02  0.30000014827E+02 0.  0.
         12    1    1    2    0    0  0.12655232746E+02 -0.56941108520E+01 -0.38217632931E+02  0.40659135272E+02  0.00000000000E+00 0. -1.
         11    1    3    3    0    0  0.34071856052E+01 -0.17944860341E+01  0.23160129357E+02  0.23478089487E+02  0.51100000000E-03 0. -1.
        -11    1    3    3    0    0 -0.60138987714E+01 -0.27164159427E+01  0.97581303046E+01  0.11779940633E+02  0.51100000000E-03 0.  1.
        -12    1    3    3    0    0 -0.10048519579E+02  0.10205012829E+02  0.52993732692E+01  0.15270834608E+02  0.00000000000E+00 0.  1.
</event>
<event>
 7    1  0.3072504E-011  0.5052885E+02  0.7816164E-02  0.1300439E+00
        -11   -1    0    0    0    0  0.00000000000E+00  0.00000000000E+00  0.45593999997E+02  0.45594000000E+02  0.51100000000E-03 0. -1.
         11   -1    0    0    0    0 -0.00000000000E+00 -0.00000000000E+00 -0.45593999997E+02  0.45594000000E+02  0.51100000000E-03 0.  1.
    9900012    2    1    2    0    0 -0.33718724458E+02  0.31906179575E+01 -0.22495203349E+02  0.50528848561E+02  0.29999965685E+02 0.  0.
         12    1    1    2    0    0  0.33718724458E+02 -0.31906179575E+01  0.22495203349E+02  0.40659151439E+02  0.00000000000E+00 0. -1.
         11    1    3    3    0    0 -0.14732646492E+02  0.11050132750E+02 -0.96700434836E+01  0.20800626137E+02  0.51100000000E-03 0. -1.
        -11    1    3    3    0    0 -0.12828595994E+02  0.63052966813E+00 -0.14204069872E+02  0.19150092533E+02  0.51100000000E-03 0.  1.
         12    1    3    3    0    0 -0.61574819718E+01 -0.84900444603E+01  0.13789100068E+01  0.10578129890E+02  0.00000000000E+00 0. -1.
</event>
<event>
 7    1  0.2450552E-011  0.5052886E+02  0.7816164E-02  0.1300439E+00
        -11   -1    0    0    0    0  0.00000000000E+00  0.00000000000E+00  0.45593999997E+02  0.45594000000E+02  0.51100000000E-03 0. -1.
         11   -1    0    0    0    0 -0.00000000000E+00 -0.00000000000E+00 -0.45593999997E+02  0.45594000000E+02  0.51100000000E-03 0.  1.
    9900012    2    1    2    0    0  0.21670823203E+02  0.56594974643E+01 -0.33933924782E+02  0.50528859072E+02  0.29999997636E+02 0.  0.
         12    1    1    2    0    0 -0.21670823203E+02 -0.56594974643E+01  0.33933924782E+02  0.40659140928E+02  0.00000000000E+00 0. -1.
         11    1    3    3    0    0  0.88765981476E+01  0.10051054770E+02 -0.25832361588E+02  0.29105473749E+02  0.51100000000E-03 0.  1.
        -11    1    3    3    0    0  0.11460832982E+02  0.32840727814E+01 -0.37397806021E+01  0.12494870383E+02  0.51100000000E-03 0. -1.
        -12    1    3    3    0    0  0.13333920737E+01 -0.76756300874E+01 -0.43617825918E+01  0.89285149403E+01  0.00000000000E+00 0.  1.
</event>
<event>
 7    1  0.2450552E-011  0.5052886E+02  0.7816164E-02  0.1300439E+00
        -11   -1    0    0    0    0  0.00000000000E+00  0.00000000000E+00  0.45593999997E+02  0.45594000000E+02  0.51100000000E-03 0. -1.
         11   -1    0    0    0    0 -0.00000000000E+00 -0.00000000000E+00 -0.45593999997E+02  0.45594000000E+02  0.51100000000E-03 0.  1.
    9900012    2    1    2    0    0 -0.19241391941E+02  0.25927114419E+02 -0.24712732979E+02  0.50528860840E+02  0.30000003009E+02 0.  0.
         12    1    1    2    0    0  0.19241391941E+02 -0.25927114419E+02  0.24712732979E+02  0.40659139160E+02  0.00000000000E+00 0. -1.
         11    1    3    3    0    0 -0.62446583024E+01  0.11197606794E+02 -0.20973862817E+02  0.24582210579E+02  0.51100000000E-03 0. -1.
        -11    1    3    3    0    0 -0.11563897891E+02  0.30011057448E+01 -0.67923589040E+01  0.13742871238E+02  0.51100000000E-03 0.  1.
         12    1    3    3    0    0 -0.14328357475E+01  0.11728401881E+02  0.30534887415E+01  0.12203779023E+02  0.00000000000E+00 0. -1.
</event>
<event>
 7    1  0.2450552E-011  0.5052894E+02  0.7816164E-02  0.1300439E+00
        -11   -1    0    0    0    0  0.00000000000E+00  0.00000000000E+00  0.45593999997E+02  0.45594000000E+02  0.51100000000E-03 0.  1.
         11   -1    0    0    0    0 -0.00000000000E+00 -0.00000000000E+00 -0.45593999997E+02  0.45594000000E+02  0.51100000000E-03 0. -1.
    9900012    2    1    2    0    0 -0.13041008214E+02 -0.31683645717E+02 -0.21891497088E+02  0.50528942633E+02  0.30000251627E+02 0.  0.
         12    1    1    2    0    0  0.13041008214E+02  0.31683645717E+02  0.21891497088E+02  0.40659057367E+02  0.00000000000E+00 0. -1.
         11    1    3    3    0    0 -0.58042124264E+01 -0.12517215528E+02 -0.41483050382E+01  0.14407567505E+02  0.51100000000E-03 0. -1.
        -11    1    3    3    0    0  0.63279704543E+01 -0.16219266130E+02 -0.79873004099E+01  0.19154758468E+02  0.51100000000E-03 0.  1.
         12    1    3    3    0    0 -0.13564766242E+02 -0.29471640590E+01 -0.97558916403E+01  0.16966616660E+02  0.00000000000E+00 0. -1.
</event>
<event>
 7    1  0.2450552E-011  0.5052886E+02  0.7816164E-02  0.1300439E+00
        -11   -1    0    0    0    0  0.00000000000E+00  0.00000000000E+00  0.45593999997E+02  0.45594000000E+02  0.51100000000E-03 0.  1.
         11   -1    0    0    0    0 -0.00000000000E+00 -0.00000000000E+00 -0.45593999997E+02  0.45594000000E+02  0.51100000000E-03 0. -1.
    9900012    2    1    2    0    0  0.12895876383E+02 -0.12917931555E+02  0.36331659359E+02  0.50528855209E+02  0.29999985894E+02 0.  0.
         12    1    1    2    0    0 -0.12895876383E+02  0.12917931555E+02 -0.36331659359E+02  0.40659144791E+02  0.00000000000E+00 0. -1.
         11    1    3    3    0    0  0.98376115057E+01  0.21899391858E+01  0.11684599125E+02  0.15430628333E+02  0.51100000000E-03 0. -1.
        -11    1    3    3    0    0  0.42414823868E+00 -0.24020995273E+01  0.21641776429E+02  0.21778807844E+02  0.51100000000E-03 0.  1.
        -12    1    3    3    0    0  0.26341166382E+01 -0.12705771214E+02  0.30052838052E+01  0.13319419032E+02  0.00000000000E+00 0.  1.
</event>
<event>
 7    1  0.2450552E-011  0.5052887E+02  0.7816164E-02  0.1300439E+00
        -11   -1    0    0    0    0  0.00000000000E+00  0.00000000000E+00  0.45593999997E+02  0.45594000000E+02  0.51100000000E-03 0.  1.
         11   -1    0    0    0    0 -0.00000000000E+00 -0.00000000000E+00 -0.45593999997E+02  0.45594000000E+02  0.51100000000E-03 0. -1.
    9900012    2    1    2    0    0  0.66226120634E+00  0.14708456368E+02  0.37899706719E+02  0.50528867594E+02  0.30000023538E+02 0.  0.
         12    1    1    2    0    0 -0.66226120634E+00 -0.14708456368E+02 -0.37899706719E+02  0.40659132406E+02  0.00000000000E+00 0. -1.
         11    1    3    3    0    0  0.54847839496E+01 -0.11870754109E+01  0.30768938116E+01  0.63999436555E+01  0.51100000000E-03 0. -1.
        -11    1    3    3    0    0  0.28742605367E+01  0.16811863670E+02  0.31233737937E+02  0.35587167905E+02  0.51100000000E-03 0.  1.
         12    1    3    3    0    0 -0.76967832799E+01 -0.91633189137E+00  0.35890749702E+01  0.85417560335E+01  0.00000000000E+00 0. -1.
</event>
<event>
 7    1  0.2450552E-011  0.5052878E+02  0.7816164E-02  0.1300439E+00
        -11   -1    0    0    0    0  0.00000000000E+00  0.00000000000E+00  0.45593999997E+02  0.45594000000E+02  0.51100000000E-03 0.  1.
         11   -1    0    0    0    0 -0.00000000000E+00 -0.00000000000E+00 -0.45593999997E+02  0.45594000000E+02  0.51100000000E-03 0. -1.
    9900012    2    1    2    0    0  0.29936869810E+02  0.19059810209E+02  0.19841361539E+02  0.50528780050E+02  0.29999757439E+02 0.  0.
         12    1    1    2    0    0 -0.29936869810E+02 -0.19059810209E+02 -0.19841361539E+02  0.40659219950E+02  0.00000000000E+00 0. -1.
         11    1    3    3    0    0  0.85208816534E+01  0.35072790739E+01  0.15356363813E+02  0.17908778307E+02  0.51100000000E-03 0. -1.
        -11    1    3    3    0    0  0.11821885861E+02  0.13792691989E+02  0.10672477445E+02  0.21068865957E+02  0.51100000000E-03 0.  1.
         12    1    3    3    0    0  0.95941022953E+01  0.17598391462E+01 -0.61874797189E+01  0.11551135786E+02  0.00000000000E+00 0. -1.
</event>
<event>
 7    1  0.2450552E-011  0.5052886E+02  0.7816164E-02  0.1300439E+00
        -11   -1    0    0    0    0  0.00000000000E+00  0.00000000000E+00  0.45593999997E+02  0.45594000000E+02  0.51100000000E-03 0. -1.
         11   -1    0    0    0    0 -0.00000000000E+00 -0.00000000000E+00 -0.45593999997E+02  0.45594000000E+02  0.51100000000E-03 0.  1.
    9900012    2    1    2    0    0 -0.76446417241E+01 -0.18500961186E+02 -0.35389822888E+02  0.50528859872E+02  0.30000000068E+02 0.  0.
         12    1    1    2    0    0  0.76446417241E+01  0.18500961186E+02  0.35389822888E+02  0.40659140128E+02  0.00000000000E+00 0. -1.
         11    1    3    3    0    0 -0.82487013096E+01 -0.12525720609E+02 -0.13159651368E+02  0.19952723485E+02  0.51100000000E-03 0. -1.
        -11    1    3    3    0    0 -0.12143187040E+01 -0.46222467407E+01 -0.25859399879E+02  0.26297305892E+02  0.51100000000E-03 0.  1.
         12    1    3    3    0    0  0.18183782896E+01 -0.13529938363E+01  0.36292283590E+01  0.42788304952E+01  0.00000000000E+00 0. -1.
</event>
<event>
 7    1  0.2450552E-011  0.5052886E+02  0.7816164E-02  0.1300439E+00
        -11   -1    0    0    0    0  0.00000000000E+00  0.00000000000E+00  0.45593999997E+02  0.45594000000E+02  0.51100000000E-03 0. -1.
         11   -1    0    0    0    0 -0.00000000000E+00 -0.00000000000E+00 -0.45593999997E+02  0.45594000000E+02  0.51100000000E-03 0.  1.
    9900012    2    1    2    0    0  0.83197585110E+01  0.38736108420E+02  0.91357253548E+01  0.50528856441E+02  0.29999989638E+02 0.  0.
         12    1    1    2    0    0 -0.83197585110E+01 -0.38736108420E+02 -0.91357253548E+01  0.40659143559E+02  0.00000000000E+00 0. -1.
         11    1    3    3    0    0 -0.14680190831E+01  0.13862518839E+02  0.10910541415E+02  0.17702102215E+02  0.51100000000E-03 0. -1.
        -11    1    3    3    0    0 -0.19040612412E+01  0.14777721032E+02 -0.70762706419E+01  0.16494850547E+02  0.51100000000E-03 0.  1.
        -12    1    3    3    0    0  0.11691838835E+02  0.10095868549E+02  0.53014545815E+01  0.16331903680E+02  0.00000000000E+00 0.  1.
</event>
<event>
 7    1  0.2450552E-011  0.5052884E+02  0.7816164E-02  0.1300439E+00
        -11   -1    0    0    0    0  0.00000000000E+00  0.00000000000E+00  0.45593999997E+02  0.45594000000E+02  0.51100000000E-03 0.  1.
         11   -1    0    0    0    0 -0.00000000000E+00 -0.00000000000E+00 -0.45593999997E+02  0.45594000000E+02  0.51100000000E-03 0. -1.
    9900012    2    1    2    0    0  0.85353299585E+01  0.14345733114E+02  0.37074456994E+02  0.50528840177E+02  0.29999940203E+02 0.  0.
         12    1    1    2    0    0 -0.85353299585E+01 -0.14345733114E+02 -0.37074456994E+02  0.40659159823E+02  0.00000000000E+00 0. -1.
         11    1    3    3    0    0  0.61895494188E+01 -0.18050742578E+01  0.83482584848E+01  0.10548091537E+02  0.51100000000E-03 0. -1.
        -11    1    3    3    0    0  0.72677659311E+01  0.84981092713E+01  0.28786089978E+02  0.30881665423E+02  0.51100000000E-03 0.  1.
        -12    1    3    3    0    0 -0.49219853915E+01  0.76526981002E+01 -0.59891468653E-01  0.90990832173E+01  0.00000000000E+00 0.  1.
</event>
<event>
 7    1  0.2450552E-011  0.5052890E+02  0.7816164E-02  0.1300439E+00
        -11   -1    0    0    0    0  0.00000000000E+00  0.00000000000E+00  0.45593999997E+02  0.45594000000E+02  0.51100000000E-03 0.  1.
         11   -1    0    0    0    0 -0.00000000000E+00 -0.00000000000E+00 -0.45593999997E+02  0.45594000000E+02  0.51100000000E-03 0. -1.
    9900012    2    1    2    0    0 -0.10327900331E+02  0.25892214014E+01  0.39240194257E+02  0.50528899690E+02  0.30000121096E+02 0.  0.
         12    1    1    2    0    0  0.10327900331E+02 -0.25892214014E+01 -0.39240194257E+02  0.40659100310E+02  0.00000000000E+00 0. -1.
         11    1    3    3    0    0 -0.19174958636E+01  0.11298093841E+02  0.65105356860E+01  0.13179938923E+02  0.51100000000E-03 0. -1.
        -11    1    3    3    0    0 -0.33395797350E+01 -0.31371820556E+01  0.93821918321E+00  0.46770674095E+01  0.51100000000E-03 0.  1.
        -12    1    3    3    0    0 -0.50708247322E+01 -0.55716903839E+01  0.31791439388E+02  0.32671893357E+02  0.00000000000E+00 0.  1.
</event>
<event>
 7    1  0.2450552E-011  0.5052882E+02  0.7816164E-02  0.1300439E+00
        -11   -1    0    0    0    0  0.00000000000E+00  0.00000000000E+00  0.45593999997E+02  0.45594000000E+02  0.51100000000E-03 0.  1.
         11   -1    0    0    0    0 -0.00000000000E+00 -0.00000000000E+00 -0.45593999997E+02  0.45594000000E+02  0.51100000000E-03 0. -1.
    9900012    2    1    2    0    0 -0.12375692863E+02 -0.24006594122E+02  0.30392346587E+02  0.50528818181E+02  0.29999873342E+02 0.  0.
         12    1    1    2    0    0  0.12375692863E+02  0.24006594122E+02 -0.30392346587E+02  0.40659181819E+02  0.00000000000E+00 0. -1.
         11    1    3    3    0    0 -0.15130549124E+02 -0.92639859842E+01  0.12576339195E+02  0.21746706898E+02  0.51100000000E-03 0.  1.
        -11    1    3    3    0    0  0.24848125955E+01  0.68355061300E+00  0.12032215876E+02  0.12305110898E+02  0.51100000000E-03 0. -1.
         12    1    3    3    0    0  0.27004366535E+00 -0.15426158750E+02  0.57837915164E+01  0.16477000385E+02  0.00000000000E+00 0. -1.
</event>
<event>
 7    1  0.2450552E-011  0.5052888E+02  0.7816164E-02  0.1300439E+00
        -11   -1    0    0    0    0  0.00000000000E+00  0.00000000000E+00  0.45593999997E+02  0.45594000000E+02  0.51100000000E-03 0.  1.
         11   -1    0    0    0    0 -0.00000000000E+00 -0.00000000000E+00 -0.45593999997E+02  0.45594000000E+02  0.51100000000E-03 0. -1.
    9900012    2    1    2    0    0 -0.29179019401E+02 -0.92443491603E+01  0.26763610887E+02  0.50528880085E+02  0.30000061505E+02 0.  0.
         12    1    1    2    0    0  0.29179019401E+02  0.92443491603E+01 -0.26763610887E+02  0.40659119915E+02  0.00000000000E+00 0. -1.
         11    1    3    3    0    0 -0.35726085522E+01 -0.73038012644E+01  0.12848996994E+02  0.15205451943E+02  0.51100000000E-03 0. -1.
        -11    1    3    3    0    0 -0.24371015326E+02 -0.50227695853E+01  0.17512054844E+02  0.30427728595E+02  0.51100000000E-03 0.  1.
        -12    1    3    3    0    0 -0.12353955222E+01  0.30822216895E+01 -0.35974409519E+01  0.48956995457E+01  0.00000000000E+00 0.  1.
</event>
<event>
 7    1  0.2450552E-011  0.5052887E+02  0.7816164E-02  0.1300439E+00
        -11   -1    0    0    0    0  0.00000000000E+00  0.00000000000E+00  0.45593999997E+02  0.45594000000E+02  0.51100000000E-03 0.  1.
         11   -1    0    0    0    0 -0.00000000000E+00 -0.00000000000E+00 -0.45593999997E+02  0.45594000000E+02  0.51100000000E-03 0. -1.
    9900012    2    1    2    0    0  0.40074907523E+02 -0.61959371309E+01  0.29626515103E+01  0.50528866292E+02  0.30000019581E+02 0.  0.
         12    1    1    2    0    0 -0.40074907523E+02  0.61959371309E+01 -0.29626515103E+01  0.40659133708E+02  0.00000000000E+00 0. -1.
         11    1    3    3    0    0  0.16845059924E+02 -0.10890660286E+02 -0.91599227763E+01  0.22051455980E+02  0.51100000000E-03 0. -1.
        -11    1    3    3    0    0 -0.84950162829E-01  0.18131982418E+01  0.25032005829E+01  0.30920733843E+01  0.51100000000E-03 0.  1.
        -12    1    3    3    0    0  0.23314797761E+02  0.28815249129E+01  0.96193737036E+01  0.25385336928E+02  0.00000000000E+00 0.  1.
</event>
<event>
 7    1  0.2450552E-011  0.5052884E+02  0.7816164E-02  0.1300439E+00
        -11   -1    0    0    0    0  0.00000000000E+00  0.00000000000E+00  0.45593999997E+02  0.45594000000E+02  0.51100000000E-03 0.  1.
         11   -1    0    0    0    0 -0.00000000000E+00 -0.00000000000E+00 -0.45593999997E+02  0.45594000000E+02  0.51100000000E-03 0. -1.
    9900012    2    1    2    0    0 -0.32931165492E+02  0.23732231396E+02 -0.23423286016E+01  0.50528843946E+02  0.29999951658E+02 0.  0.
         12    1    1    2    0    0  0.32931165492E+02 -0.23732231396E+02  0.23423286016E+01  0.40659156054E+02  0.00000000000E+00 0. -1.
         11    1    3    3    0    0 -0.18169412493E+02  0.13418985608E+02 -0.29423434214E+01  0.22778369348E+02  0.51100000000E-03 0. -1.
        -11    1    3    3    0    0 -0.20012246795E+02  0.10028942159E+02  0.14161105094E+01  0.22429335074E+02  0.51100000000E-03 0.  1.
         12    1    3    3    0    0  0.52504937960E+01  0.28430362913E+00 -0.81609568957E+00  0.53211395236E+01  0.00000000000E+00 0. -1.
</event>
<event>
 7    1  0.2450552E-011  0.5052886E+02  0.7816164E-02  0.1300439E+00
        -11   -1    0    0    0    0  0.00000000000E+00  0.00000000000E+00  0.45593999997E+02  0.45594000000E+02  0.51100000000E-03 0. -1.
         11   -1    0    0    0    0 -0.00000000000E+00 -0.00000000000E+00 -0.45593999997E+02  0.45594000000E+02  0.51100000000E-03 0.  1.
    9900012    2    1    2    0    0 -0.33752610615E+02  0.15037529427E+01 -0.22620025552E+02  0.50528861394E+02  0.30000004694E+02 0.  0.
         12    1    1    2    0    0  0.33752610615E+02 -0.15037529427E+01  0.22620025552E+02  0.40659138606E+02  0.00000000000E+00 0. -1.
         11    1    3    3    0    0 -0.63605620958E+00  0.24132894985E+01 -0.54785252766E+01  0.60201971041E+01  0.51100000000E-03 0. -1.
        -11    1    3    3    0    0 -0.12153838249E+02 -0.10797628982E+02 -0.13321373662E+02  0.21018172431E+02  0.51100000000E-03 0.  1.
         12    1    3    3    0    0 -0.20962716156E+02  0.98880924263E+01 -0.38201266131E+01  0.23490491859E+02  0.00000000000E+00 0. -1.
</event>
<event>
 7    1  0.2450552E-011  0.5052885E+02  0.7816164E-02  0.1300439E+00
        -11   -1    0    0    0    0  0.00000000000E+00  0.00000000000E+00  0.45593999997E+02  0.45594000000E+02  0.51100000000E-03 0.  1.
         11   -1    0    0    0    0 -0.00000000000E+00 -0.00000000000E+00 -0.45593999997E+02  0.45594000000E+02  0.51100000000E-03 0. -1.
    9900012    2    1    2    0    0  0.30885681494E+02 -0.21934218369E+02  0.14769256929E+02  0.50528853341E+02  0.29999980217E+02 0.  0.
         12    1    1    2    0    0 -0.30885681494E+02  0.21934218369E+02 -0.14769256929E+02  0.40659146659E+02  0.00000000000E+00 0. -1.
         11    1    3    3    0    0  0.45929893975E+01 -0.71394977631E+01  0.15575237019E+02  0.17738545272E+02  0.51100000000E-03 0. -1.
        -11    1    3    3    0    0  0.11192754512E+02 -0.11802083986E+01  0.39181982067E+01  0.11917337071E+02  0.51100000000E-03 0.  1.
        -12    1    3    3    0    0  0.15099937585E+02 -0.13614512207E+02 -0.47241782971E+01  0.20872970998E+02  0.00000000000E+00 0.  1.
</event>
<event>
 7    1  0.2450552E-011  0.5052887E+02  0.7816164E-02  0.1300439E+00
        -11   -1    0    0    0    0  0.00000000000E+00  0.00000000000E+00  0.45593999997E+02  0.45594000000E+02  0.51100000000E-03 0. -1.
         11   -1    0    0    0    0 -0.00000000000E+00 -0.00000000000E+00 -0.45593999997E+02  0.45594000000E+02  0.51100000000E-03 0.  1.
    9900012    2    1    2    0    0 -0.16483468083E+02  0.16845558714E+02 -0.33131358112E+02  0.50528874840E+02  0.30000045564E+02 0.  0.
         12    1    1    2    0    0  0.16483468083E+02 -0.16845558714E+02  0.33131358112E+02  0.40659125160E+02  0.00000000000E+00 0. -1.
         11    1    3    3    0    0  0.44272372719E+01  0.43270747504E+01 -0.39852807084E+01  0.73625042168E+01  0.51100000000E-03 0. -1.
        -11    1    3    3    0    0 -0.10774754612E+02  0.35563669627E+01 -0.27232666145E+02  0.29501884491E+02  0.51100000000E-03 0.  1.
         12    1    3    3    0    0 -0.10135950743E+02  0.89621170014E+01 -0.19134112586E+01  0.13664486132E+02  0.00000000000E+00 0. -1.
</event>
<event>
 7    1  0.2450552E-011  0.5052885E+02  0.7816164E-02  0.1300439E+00
        -11   -1    0    0    0    0  0.00000000000E+00  0.00000000000E+00  0.45593999997E+02  0.45594000000E+02  0.51100000000E-03 0.  1.
         11   -1    0    0    0    0 -0.00000000000E+00 -0.00000000000E+00 -0.45593999997E+02  0.45594000000E+02  0.51100000000E-03 0. -1.
    9900012    2    1    2    0    0 -0.23907792192E+02 -0.32887032129E+02 -0.16387020175E+00  0.50528852650E+02  0.29999978115E+02 0.  0.
         12    1    1    2    0    0  0.23907792192E+02  0.32887032129E+02  0.16387020175E+00  0.40659147350E+02  0.00000000000E+00 0. -1.
         11    1    3    3    0    0 -0.72176840337E+01  0.11297719041E+01  0.46276380722E+01  0.86479119881E+01  0.51100000000E-03 0. -1.
        -11    1    3    3    0    0 -0.58934571329E+01 -0.17359874979E+02  0.59966326526E+01  0.19288797259E+02  0.51100000000E-03 0.  1.
         12    1    3    3    0    0 -0.10796651026E+02 -0.16656929055E+02 -0.10788140927E+02  0.22592143403E+02  0.00000000000E+00 0. -1.
</event>
<event>
 7    1  0.2450552E-011  0.5052886E+02  0.7816164E-02  0.1300439E+00
        -11   -1    0    0    0    0  0.00000000000E+00  0.00000000000E+00  0.45593999997E+02  0.45594000000E+02  0.51100000000E-03 0.  1.
         11   -1    0    0    0    0 -0.00000000000E+00 -0.00000000000E+00 -0.45593999997E+02  0.45594000000E+02  0.51100000000E-03 0. -1.
    9900012    2    1    2    0    0  0.25811134698E+02 -0.20447391524E+02  0.23850680629E+02  0.50528862515E+02  0.30000008102E+02 0.  0.
         12    1    1    2    0    0 -0.25811134698E+02  0.20447391524E+02 -0.23850680629E+02  0.40659137485E+02  0.00000000000E+00 0. -1.
         11    1    3    3    0    0  0.18041116087E+02 -0.16356930055E+02  0.19664998176E+02  0.31300849573E+02  0.51100000000E-03 0. -1.
        -11    1    3    3    0    0  0.21711760285E+01 -0.10155617407E+02  0.34404109025E+01  0.10940155287E+02  0.51100000000E-03 0.  1.
         12    1    3    3    0    0  0.55988425820E+01  0.60651559387E+01  0.74527155116E+00  0.82878576546E+01  0.00000000000E+00 0. -1.
</event>
<event>
 7    1  0.2450552E-011  0.5052886E+02  0.7816164E-02  0.1300439E+00
        -11   -1    0    0    0    0  0.00000000000E+00  0.00000000000E+00  0.45593999997E+02  0.45594000000E+02  0.51100000000E-03 0.  1.
         11   -1    0    0    0    0 -0.00000000000E+00 -0.00000000000E+00 -0.45593999997E+02  0.45594000000E+02  0.51100000000E-03 0. -1.
    9900012    2    1    2    0    0 -0.33422897989E+02 -0.12716325960E+02 -0.19348665634E+02  0.50528856899E+02  0.29999991031E+02 0.  0.
         12    1    1    2    0    0  0.33422897989E+02  0.12716325960E+02  0.19348665634E+02  0.40659143101E+02  0.00000000000E+00 0. -1.
         11    1    3    3    0    0 -0.11691452704E+02 -0.42425120443E+01  0.43008993234E+01  0.13160042174E+02  0.51100000000E-03 0. -1.
        -11    1    3    3    0    0 -0.13727424698E+02 -0.97257886189E+01 -0.58488776220E+01  0.17811303231E+02  0.51100000000E-03 0.  1.
         12    1    3    3    0    0 -0.80040205869E+01  0.12519747033E+01 -0.17800687336E+02  0.19557511494E+02  0.00000000000E+00 0. -1.
</event>
<event>
 7    1  0.2450552E-011  0.5052886E+02  0.7816164E-02  0.1300439E+00
        -11   -1    0    0    0    0  0.00000000000E+00  0.00000000000E+00  0.45593999997E+02  0.45594000000E+02  0.51100000000E-03 0.  1.
         11   -1    0    0    0    0 -0.00000000000E+00 -0.00000000000E+00 -0.45593999997E+02  0.45594000000E+02  0.51100000000E-03 0. -1.
    9900012    2    1    2    0    0  0.16632481565E+02 -0.28694299460E+02  0.23519421395E+02  0.50528862684E+02  0.30000008615E+02 0.  0.
         12    1    1    2    0    0 -0.16632481565E+02  0.28694299460E+02 -0.23519421395E+02  0.40659137316E+02  0.00000000000E+00 0. -1.
         11    1    3    3    0    0  0.57017690400E+01 -0.13635491972E+02 -0.14071934563E+01  0.14846447561E+02  0.51100000000E-03 0. -1.
        -11    1    3    3    0    0  0.75535700523E+01 -0.13731393685E+02  0.66082846805E+01  0.17008145688E+02  0.51100000000E-03 0.  1.
         12    1    3    3    0    0  0.33771424723E+01 -0.13274138031E+01  0.18318330171E+02  0.18674269435E+02  0.00000000000E+00 0. -1.
</event>
<event>
 7    1  0.2450552E-011  0.5052886E+02  0.7816164E-02  0.1300439E+00
        -11   -1    0    0    0    0  0.00000000000E+00  0.00000000000E+00  0.45593999997E+02  0.45594000000E+02  0.51100000000E-03 0.  1.
         11   -1    0    0    0    0 -0.00000000000E+00 -0.00000000000E+00 -0.45593999997E+02  0.45594000000E+02  0.51100000000E-03 0. -1.
    9900012    2    1    2    0    0  0.25622526947E+02  0.20506712851E+02  0.24002628977E+02  0.50528863795E+02  0.30000011993E+02 0.  0.
         12    1    1    2    0    0 -0.25622526947E+02 -0.20506712851E+02 -0.24002628977E+02  0.40659136205E+02  0.00000000000E+00 0. -1.
         11    1    3    3    0    0  0.34979555273E+01 -0.54527783566E+01  0.70297688962E+00  0.65163380396E+01  0.51100000000E-03 0. -1.
        -11    1    3    3    0    0  0.81933060962E+01  0.10790730549E+02  0.18386297039E+02  0.22839134170E+02  0.51100000000E-03 0.  1.
        -12    1    3    3    0    0  0.13931265324E+02  0.15168760658E+02  0.49133550484E+01  0.21173391586E+02  0.00000000000E+00 0.  1.
</event>
<event>
 7    1  0.2450552E-011  0.5052886E+02  0.7816164E-02  0.1300439E+00
        -11   -1    0    0    0    0  0.00000000000E+00  0.00000000000E+00  0.45593999997E+02  0.45594000000E+02  0.51100000000E-03 0.  1.
         11   -1    0    0    0    0 -0.00000000000E+00 -0.00000000000E+00 -0.45593999997E+02  0.45594000000E+02  0.51100000000E-03 0. -1.
    9900012    2    1    2    0    0  0.58050477428E-01 -0.24204748331E+02  0.32669436390E+02  0.50528864671E+02  0.30000014655E+02 0.  0.
         12    1    1    2    0    0 -0.58050477428E-01  0.24204748331E+02 -0.32669436390E+02  0.40659135329E+02  0.00000000000E+00 0. -1.
         11    1    3    3    0    0 -0.14679146070E+01  0.22629108546E+01  0.36908060453E+01  0.45713880118E+01  0.51100000000E-03 0. -1.
        -11    1    3    3    0    0 -0.10002790720E+02 -0.19179939979E+02  0.14359031111E+02  0.25963584007E+02  0.51100000000E-03 0.  1.
        -12    1    3    3    0    0  0.11528755804E+02 -0.72877192068E+01  0.14619599234E+02  0.19993892653E+02  0.00000000000E+00 0.  1.
</event>
<event>
 7    1  0.2450552E-011  0.5052886E+02  0.7816164E-02  0.1300439E+00
        -11   -1    0    0    0    0  0.00000000000E+00  0.00000000000E+00  0.45593999997E+02  0.45594000000E+02  0.51100000000E-03 0. -1.
         11   -1    0    0    0    0 -0.00000000000E+00 -0.00000000000E+00 -0.45593999997E+02  0.45594000000E+02  0.51100000000E-03 0.  1.
    9900012    2    1    2    0    0  0.28389389628E+02  0.28898756664E+02 -0.34742494347E+01  0.50528856019E+02  0.29999988355E+02 0.  0.
         12    1    1    2    0    0 -0.28389389628E+02 -0.28898756664E+02  0.34742494347E+01  0.40659143981E+02  0.00000000000E+00 0. -1.
         11    1    3    3    0    0  0.36543788563E+01 -0.45451327332E+01  0.25255372596E+01  0.63553957468E+01  0.51100000000E-03 0. -1.
        -11    1    3    3    0    0  0.97425718493E+01  0.16498002409E+02 -0.93177741484E+01  0.21305461860E+02  0.51100000000E-03 0.  1.
        -12    1    3    3    0    0  0.14992438922E+02  0.16945886988E+02  0.33179874542E+01  0.22867998412E+02  0.00000000000E+00 0.  1.
</event>
<event>
 7    1  0.2450552E-011  0.5052887E+02  0.7816164E-02  0.1300439E+00
        -11   -1    0    0    0    0  0.00000000000E+00  0.00000000000E+00  0.45593999997E+02  0.45594000000E+02  0.51100000000E-03 0.  1.
         11   -1    0    0    0    0 -0.00000000000E+00 -0.00000000000E+00 -0.45593999997E+02  0.45594000000E+02  0.51100000000E-03 0. -1.
    9900012    2    1    2    0    0 -0.65616316859E+00 -0.39841937875E+02  0.80842250622E+01  0.50528865004E+02  0.30000015666E+02 0.  0.
         12    1    1    2    0    0  0.65616316859E+00  0.39841937875E+02 -0.80842250622E+01  0.40659134996E+02  0.00000000000E+00 0. -1.
         11    1    3    3    0    0 -0.10676062276E+01  0.18907651522E+01  0.13049839366E+01  0.25333296773E+01  0.51100000000E-03 0. -1.
        -11    1    3    3    0    0 -0.62823645572E+01 -0.16320810994E+02 -0.63679898055E+01  0.18611509084E+02  0.51100000000E-03 0.  1.
        -12    1    3    3    0    0  0.66938076162E+01 -0.25411892033E+02  0.13147230931E+02  0.29384026243E+02  0.00000000000E+00 0.  1.
</event>
<event>
 7    1  0.2450552E-011  0.5052883E+02  0.7816164E-02  0.1300439E+00
        -11   -1    0    0    0    0  0.00000000000E+00  0.00000000000E+00  0.45593999997E+02  0.45594000000E+02  0.51100000000E-03 0.  1.
         11   -1    0    0    0    0 -0.00000000000E+00 -0.00000000000E+00 -0.45593999997E+02  0.45594000000E+02  0.51100000000E-03 0. -1.
    9900012    2    1    2    0    0 -0.16380219212E+02  0.25056105025E+02  0.27514504736E+02  0.50528831890E+02  0.29999915014E+02 0.  0.
         12    1    1    2    0    0  0.16380219212E+02 -0.25056105025E+02 -0.27514504736E+02  0.40659168110E+02  0.00000000000E+00 0. -1.
         11    1    3    3    0    0 -0.11939446205E+01 -0.46082289918E+01  0.92811222869E+01  0.10430748265E+02  0.51100000000E-03 0. -1.
        -11    1    3    3    0    0 -0.15305662240E+01  0.14145935298E+02  0.11693340715E+02  0.18416957831E+02  0.51100000000E-03 0.  1.
        -12    1    3    3    0    0 -0.13655708368E+02  0.15518398718E+02  0.65400417347E+01  0.21681125794E+02  0.00000000000E+00 0.  1.
</event>
<event>
 7    1  0.2450552E-011  0.5052886E+02  0.7816164E-02  0.1300439E+00
        -11   -1    0    0    0    0  0.00000000000E+00  0.00000000000E+00  0.45593999997E+02  0.45594000000E+02  0.51100000000E-03 0.  1.
         11   -1    0    0    0    0 -0.00000000000E+00 -0.00000000000E+00 -0.45593999997E+02  0.45594000000E+02  0.51100000000E-03 0. -1.
    9900012    2    1    2    0    0 -0.33996735841E+02  0.20624749519E+02  0.84857070983E+01  0.50528861230E+02  0.30000004196E+02 0.  0.
         12    1    1    2    0    0  0.33996735841E+02 -0.20624749519E+02 -0.84857070983E+01  0.40659138770E+02  0.00000000000E+00 0. -1.
         11    1    3    3    0    0  0.20181034796E+01  0.63719193645E+01  0.50394956292E+01  0.83708192251E+01  0.51100000000E-03 0. -1.
        -11    1    3    3    0    0 -0.88617265256E+01  0.41767844493E+01  0.82404128308E+01  0.12801567452E+02  0.51100000000E-03 0.  1.
         12    1    3    3    0    0 -0.27153112795E+02  0.10076045705E+02 -0.47942013617E+01  0.29356474553E+02  0.00000000000E+00 0. -1.
</event>
<event>
 7    1  0.2450552E-011  0.5052886E+02  0.7816164E-02  0.1300439E+00
        -11   -1    0    0    0    0  0.00000000000E+00  0.00000000000E+00  0.45593999997E+02  0.45594000000E+02  0.51100000000E-03 0.  1.
         11   -1    0    0    0    0 -0.00000000000E+00 -0.00000000000E+00 -0.45593999997E+02  0.45594000000E+02  0.51100000000E-03 0. -1.
    9900012    2    1    2    0    0 -0.19947164228E+02 -0.31200441950E+02  0.16787160419E+02  0.50528859655E+02  0.29999999408E+02 0.  0.
         12    1    1    2    0    0  0.19947164228E+02  0.31200441950E+02 -0.16787160419E+02  0.40659140345E+02  0.00000000000E+00 0. -1.
         11    1    3    3    0    0 -0.12052729170E+02  0.21979829521E+01  0.16334680702E+01  0.12359920214E+02  0.51100000000E-03 0. -1.
        -11    1    3    3    0    0 -0.36790591195E+01 -0.83352332006E+01  0.12419149033E+01  0.91953217128E+01  0.51100000000E-03 0.  1.
        -12    1    3    3    0    0 -0.42153759389E+01 -0.25063191702E+02  0.13911777446E+02  0.28973617729E+02  0.00000000000E+00 0.  1.
</event>
<event>
 7    1  0.2450552E-011  0.5052886E+02  0.7816164E-02  0.1300439E+00
        -11   -1    0    0    0    0  0.00000000000E+00  0.00000000000E+00  0.45593999997E+02  0.45594000000E+02  0.51100000000E-03 0.  1.
         11   -1    0    0    0    0 -0.00000000000E+00 -0.00000000000E+00 -0.45593999997E+02  0.45594000000E+02  0.51100000000E-03 0. -1.
    9900012    2    1    2    0    0  0.26784135092E+02 -0.18960958343E+00  0.30589861739E+02  0.50528862212E+02  0.30000007180E+02 0.  0.
         12    1    1    2    0    0 -0.26784135092E+02  0.18960958343E+00 -0.30589861739E+02  0.40659137788E+02  0.00000000000E+00 0. -1.
         11    1    3    3    0    0 -0.27036896400E+01 -0.54120598639E+01  0.76262985875E+00  0.60976990908E+01  0.51100000000E-03 0. -1.
        -11    1    3    3    0    0  0.11918183106E+02 -0.41763798109E+01  0.83789673824E+01  0.15155603965E+02  0.51100000000E-03 0.  1.
         12    1    3    3    0    0  0.17569641626E+02  0.93988300914E+01  0.21448264498E+02  0.29275559157E+02  0.00000000000E+00 0. -1.
</event>
<event>
 7    1  0.2450552E-011  0.5052886E+02  0.7816164E-02  0.1300439E+00
        -11   -1    0    0    0    0  0.00000000000E+00  0.00000000000E+00  0.45593999997E+02  0.45594000000E+02  0.51100000000E-03 0.  1.
         11   -1    0    0    0    0 -0.00000000000E+00 -0.00000000000E+00 -0.45593999997E+02  0.45594000000E+02  0.51100000000E-03 0. -1.
    9900012    2    1    2    0    0 -0.11453633051E+02  0.23777100333E+02  0.30929430853E+02  0.50528857077E+02  0.29999991572E+02 0.  0.
         12    1    1    2    0    0  0.11453633051E+02 -0.23777100333E+02 -0.30929430853E+02  0.40659142923E+02  0.00000000000E+00 0. -1.
         11    1    3    3    0    0  0.84595500299E+01  0.79078746871E+01  0.75970154985E+01  0.13849661134E+02  0.51100000000E-03 0. -1.
        -11    1    3    3    0    0  0.11588994705E+01  0.36869788747E+01  0.42986059101E+01  0.57805600279E+01  0.51100000000E-03 0.  1.
        -12    1    3    3    0    0 -0.21072082552E+02  0.12182246772E+02  0.19033809444E+02  0.30898635915E+02  0.00000000000E+00 0.  1.
</event>
<event>
 7    1  0.2450552E-011  0.5052885E+02  0.7816164E-02  0.1300439E+00
        -11   -1    0    0    0    0  0.00000000000E+00  0.00000000000E+00  0.45593999997E+02  0.45594000000E+02  0.51100000000E-03 0.  1.
         11   -1    0    0    0    0 -0.00000000000E+00 -0.00000000000E+00 -0.45593999997E+02  0.45594000000E+02  0.51100000000E-03 0. -1.
    9900012    2    1    2    0    0 -0.12707569821E+02  0.21184505690E+02  0.32293971790E+02  0.50528853107E+02  0.29999979503E+02 0.  0.
         12    1    1    2    0    0  0.12707569821E+02 -0.21184505690E+02 -0.32293971790E+02  0.40659146893E+02  0.00000000000E+00 0. -1.
         11    1    3    3    0    0 -0.14535725832E+02  0.12243725844E+01  0.11322331050E+02  0.18465686945E+02  0.51100000000E-03 0.  1.
        -11    1    3    3    0    0  0.17457272872E+01 -0.98010146741E+00 -0.50775239313E+00  0.20654237826E+01  0.51100000000E-03 0. -1.
        -12    1    3    3    0    0  0.82428723301E-01  0.20940234573E+02  0.21479393134E+02  0.29997742379E+02  0.00000000000E+00 0.  1.
</event>
<event>
 7    1  0.3266911E-011  0.5052886E+02  0.7816164E-02  0.1300439E+00
        -11   -1    0    0    0    0  0.00000000000E+00  0.00000000000E+00  0.45593999997E+02  0.45594000000E+02  0.51100000000E-03 0.  1.
         11   -1    0    0    0    0 -0.00000000000E+00 -0.00000000000E+00 -0.45593999997E+02  0.45594000000E+02  0.51100000000E-03 0. -1.
    9900012    2    1    2    0    0  0.22753799579E+02 -0.30780109352E+02  0.13711858380E+02  0.50528860963E+02  0.30000003383E+02 0.  0.
         12    1    1    2    0    0 -0.22753799579E+02  0.30780109352E+02 -0.13711858380E+02  0.40659139037E+02  0.00000000000E+00 0. -1.
         11    1    3    3    0    0  0.12882829937E+02 -0.60790118337E+01  0.44169230070E+01  0.14914117513E+02  0.51100000000E-03 0. -1.
        -11    1    3    3    0    0  0.15445875453E+02 -0.24291259157E+02  0.79921951377E+01  0.29874998298E+02  0.51100000000E-03 0.  1.
         12    1    3    3    0    0 -0.55749058117E+01 -0.40983836195E+00  0.13027402350E+01  0.57397451521E+01  0.00000000000E+00 0. -1.
</event>
<event>
 7    1  0.2450552E-011  0.5052886E+02  0.7816164E-02  0.1300439E+00
        -11   -1    0    0    0    0  0.00000000000E+00  0.00000000000E+00  0.45593999997E+02  0.45594000000E+02  0.51100000000E-03 0.  1.
         11   -1    0    0    0    0 -0.00000000000E+00 -0.00000000000E+00 -0.45593999997E+02  0.45594000000E+02  0.51100000000E-03 0. -1.
    9900012    2    1    2    0    0 -0.81985283795E+01  0.29339679124E+02  0.26928301092E+02  0.50528855415E+02  0.29999986519E+02 0.  0.
         12    1    1    2    0    0  0.81985283795E+01 -0.29339679124E+02 -0.26928301092E+02  0.40659144585E+02  0.00000000000E+00 0. -1.
         11    1    3    3    0    0 -0.11325931793E+01 -0.26151043509E+01 -0.50215205655E+00  0.28937337516E+01  0.51100000000E-03 0. -1.
        -11    1    3    3    0    0  0.32278173585E+01  0.12238090659E+02  0.20935855571E+02  0.24464253854E+02  0.51100000000E-03 0.  1.
        -12    1    3    3    0    0 -0.10293752559E+02  0.19716692816E+02  0.64945975774E+01  0.23170867809E+02  0.00000000000E+00 0.  1.
</event>
<event>
 7    1  0.2450552E-011  0.5052886E+02  0.7816164E-02  0.1300439E+00
        -11   -1    0    0    0    0  0.00000000000E+00  0.00000000000E+00  0.45593999997E+02  0.45594000000E+02  0.51100000000E-03 0. -1.
         11   -1    0    0    0    0 -0.00000000000E+00 -0.00000000000E+00 -0.45593999997E+02  0.45594000000E+02  0.51100000000E-03 0.  1.
    9900012    2    1    2    0    0 -0.57341419711E+01 -0.19650307784E+02 -0.35130485306E+02  0.50528856158E+02  0.29999988778E+02 0.  0.
         12    1    1    2    0    0  0.57341419711E+01  0.19650307784E+02  0.35130485306E+02  0.40659143842E+02  0.00000000000E+00 0. -1.
         11    1    3    3    0    0 -0.49059736420E+01 -0.11332305693E+02 -0.52599971252E+01  0.13422268799E+02  0.51100000000E-03 0. -1.
        -11    1    3    3    0    0  0.31246285634E+01 -0.16574162260E+01  0.21657543727E+01  0.41473876681E+01  0.51100000000E-03 0.  1.
        -12    1    3    3    0    0 -0.39527968926E+01 -0.66605858645E+01 -0.32036242553E+02  0.32959199691E+02  0.00000000000E+00 0.  1.
</event>
<event>
 7    1  0.2450552E-011  0.5052886E+02  0.7816164E-02  0.1300439E+00
        -11   -1    0    0    0    0  0.00000000000E+00  0.00000000000E+00  0.45593999997E+02  0.45594000000E+02  0.51100000000E-03 0. -1.
         11   -1    0    0    0    0 -0.00000000000E+00 -0.00000000000E+00 -0.45593999997E+02  0.45594000000E+02  0.51100000000E-03 0.  1.
    9900012    2    1    2    0    0 -0.77221543219E+01  0.32655157883E+02 -0.22960277775E+02  0.50528863767E+02  0.30000011906E+02 0.  0.
         12    1    1    2    0    0  0.77221543219E+01 -0.32655157883E+02  0.22960277775E+02  0.40659136233E+02  0.00000000000E+00 0. -1.
         11    1    3    3    0    0 -0.35284230196E+01 -0.21756682342E+01 -0.45949016199E+01  0.61884103312E+01  0.51100000000E-03 0. -1.
        -11    1    3    3    0    0 -0.11229268384E+02  0.28284268189E+02 -0.11510346752E+02  0.32535893688E+02  0.51100000000E-03 0.  1.
         12    1    3    3    0    0  0.70355370819E+01  0.65465579281E+01 -0.68550294026E+01  0.11804559748E+02  0.00000000000E+00 0. -1.
</event>
<event>
 7    1  0.2450552E-011  0.5052887E+02  0.7816164E-02  0.1300439E+00
        -11   -1    0    0    0    0  0.00000000000E+00  0.00000000000E+00  0.45593999997E+02  0.45594000000E+02  0.51100000000E-03 0. -1.
         11   -1    0    0    0    0 -0.00000000000E+00 -0.00000000000E+00 -0.45593999997E+02  0.45594000000E+02  0.51100000000E-03 0.  1.
    9900012    2    1    2    0    0 -0.13007283196E+01 -0.14764858308E+02 -0.37861221960E+02  0.50528867405E+02  0.30000022965E+02 0.  0.
         12    1    1    2    0    0  0.13007283196E+01  0.14764858308E+02  0.37861221960E+02  0.40659132595E+02  0.00000000000E+00 0. -1.
         11    1    3    3    0    0  0.82703532409E+01 -0.13541898470E+02 -0.94621106720E+01  0.18474666317E+02  0.51100000000E-03 0. -1.
        -11    1    3    3    0    0 -0.27044280514E+01 -0.57741674487E+01 -0.15358962857E+02  0.16629873154E+02  0.51100000000E-03 0.  1.
        -12    1    3    3    0    0 -0.68666535091E+01  0.45512076098E+01 -0.13040148431E+02  0.15424327934E+02  0.00000000000E+00 0.  1.
</event>
<event>
 7    1  0.2450552E-011  0.5052875E+02  0.7816164E-02  0.1300439E+00
        -11   -1    0    0    0    0  0.00000000000E+00  0.00000000000E+00  0.45593999997E+02  0.45594000000E+02  0.51100000000E-03 0. -1.
         11   -1    0    0    0    0 -0.00000000000E+00 -0.00000000000E+00 -0.45593999997E+02  0.45594000000E+02  0.51100000000E-03 0.  1.
    9900012    2    1    2    0    0 -0.32991749095E+02 -0.21474986074E+02 -0.10175645969E+02  0.50528753744E+02  0.29999677479E+02 0.  0.
         12    1    1    2    0    0  0.32991749095E+02  0.21474986074E+02  0.10175645969E+02  0.40659246256E+02  0.00000000000E+00 0. -1.
         11    1    3    3    0    0 -0.21146753926E+02 -0.17974329072E+02 -0.12053702148E+02  0.30258113671E+02  0.51100000000E-03 0. -1.
        -11    1    3    3    0    0 -0.97030918041E+01 -0.89616448751E+01  0.43483096685E+01  0.13905713454E+02  0.51100000000E-03 0.  1.
         12    1    3    3    0    0 -0.21419033650E+01  0.54609878728E+01 -0.24702534894E+01  0.63649266197E+01  0.00000000000E+00 0. -1.
</event>
<event>
 7    1  0.2450552E-011  0.5052886E+02  0.7816164E-02  0.1300439E+00
        -11   -1    0    0    0    0  0.00000000000E+00  0.00000000000E+00  0.45593999997E+02  0.45594000000E+02  0.51100000000E-03 0. -1.
         11   -1    0    0    0    0 -0.00000000000E+00 -0.00000000000E+00 -0.45593999997E+02  0.45594000000E+02  0.51100000000E-03 0.  1.
    9900012    2    1    2    0    0 -0.20463985735E+00 -0.25380756584E+02 -0.31763827824E+02  0.50528862770E+02  0.30000008877E+02 0.  0.
         12    1    1    2    0    0  0.20463985735E+00  0.25380756584E+02  0.31763827824E+02  0.40659137230E+02  0.00000000000E+00 0. -1.
         11    1    3    3    0    0 -0.13214070358E+02 -0.12160884417E+02 -0.18185936998E+02  0.25558307260E+02  0.51100000000E-03 0. -1.
        -11    1    3    3    0    0  0.13162062815E+01 -0.64323188267E+01 -0.79883825427E+01  0.10340279511E+02  0.51100000000E-03 0.  1.
        -12    1    3    3    0    0  0.11693224219E+02 -0.67875533399E+01 -0.55895082830E+01  0.14630275999E+02  0.00000000000E+00 0.  1.
</event>
<event>
 7    1  0.2450552E-011  0.5052885E+02  0.7816164E-02  0.1300439E+00
        -11   -1    0    0    0    0  0.00000000000E+00  0.00000000000E+00  0.45593999997E+02  0.45594000000E+02  0.51100000000E-03 0. -1.
         11   -1    0    0    0    0 -0.00000000000E+00 -0.00000000000E+00 -0.45593999997E+02  0.45594000000E+02  0.51100000000E-03 0.  1.
    9900012    2    1    2    0    0  0.40400151843E+02 -0.98564987056E+00 -0.44746605038E+01  0.50528851445E+02  0.29999974452E+02 0.  0.
         12    1    1    2    0    0 -0.40400151843E+02  0.98564987056E+00  0.44746605038E+01  0.40659148555E+02  0.00000000000E+00 0. -1.
         11    1    3    3    0    0  0.25671973895E-01 -0.19910224111E+00  0.40201404371E+01  0.40251497050E+01  0.51100000000E-03 0. -1.
        -11    1    3    3    0    0  0.19075639745E+02  0.10179144897E+02 -0.58707279592E+01  0.22404474320E+02  0.51100000000E-03 0.  1.
         12    1    3    3    0    0  0.21298840124E+02 -0.10965692527E+02 -0.26240729817E+01  0.24099227420E+02  0.00000000000E+00 0. -1.
</event>
<event>
 7    1  0.2450552E-011  0.5052887E+02  0.7816164E-02  0.1300439E+00
        -11   -1    0    0    0    0  0.00000000000E+00  0.00000000000E+00  0.45593999997E+02  0.45594000000E+02  0.51100000000E-03 0. -1.
         11   -1    0    0    0    0 -0.00000000000E+00 -0.00000000000E+00 -0.45593999997E+02  0.45594000000E+02  0.51100000000E-03 0.  1.
    9900012    2    1    2    0    0  0.26174081531E+02  0.10823428385E+02 -0.29170806530E+02  0.50528866959E+02  0.30000021610E+02 0.  0.
         12    1    1    2    0    0 -0.26174081531E+02 -0.10823428385E+02  0.29170806530E+02  0.40659133041E+02  0.00000000000E+00 0. -1.
         11    1    3    3    0    0  0.10089131759E+02 -0.68513803484E+00 -0.14974226397E+02  0.18068963729E+02  0.51100000000E-03 0.  1.
        -11    1    3    3    0    0  0.21049592941E+02  0.11801958796E+02 -0.10809204646E+02  0.26442588749E+02  0.51100000000E-03 0. -1.
        -12    1    3    3    0    0 -0.49646431691E+01 -0.29339237580E+00 -0.33873754864E+01  0.60173144814E+01  0.00000000000E+00 0.  1.
</event>
<event>
 7    1  0.2450552E-011  0.5052886E+02  0.7816164E-02  0.1300439E+00
        -11   -1    0    0    0    0  0.00000000000E+00  0.00000000000E+00  0.45593999997E+02  0.45594000000E+02  0.51100000000E-03 0.  1.
         11   -1    0    0    0    0 -0.00000000000E+00 -0.00000000000E+00 -0.45593999997E+02  0.45594000000E+02  0.51100000000E-03 0. -1.
    9900012    2    1    2    0    0  0.11530185445E+02 -0.11383408076E+02  0.37291270575E+02  0.50528855679E+02  0.29999987322E+02 0.  0.
         12    1    1    2    0    0 -0.11530185445E+02  0.11383408076E+02 -0.37291270575E+02  0.40659144321E+02  0.00000000000E+00 0. -1.
         11    1    3    3    0    0  0.34798060352E+01  0.33606087259E+01  0.12842071300E+02  0.13723029425E+02  0.51100000000E-03 0. -1.
        -11    1    3    3    0    0  0.48984978370E+01 -0.20415410718E+02  0.19377388175E+02  0.28570394618E+02  0.51100000000E-03 0.  1.
         12    1    3    3    0    0  0.31518815732E+01  0.56713939167E+01  0.50718110993E+01  0.82354316364E+01  0.00000000000E+00 0. -1.
</event>
<event>
 7    1  0.2450552E-011  0.5052886E+02  0.7816164E-02  0.1300439E+00
        -11   -1    0    0    0    0  0.00000000000E+00  0.00000000000E+00  0.45593999997E+02  0.45594000000E+02  0.51100000000E-03 0.  1.
         11   -1    0    0    0    0 -0.00000000000E+00 -0.00000000000E+00 -0.45593999997E+02  0.45594000000E+02  0.51100000000E-03 0. -1.
    9900012    2    1    2    0    0  0.96253289042E+01 -0.17135840973E+02  0.35593275847E+02  0.50528864644E+02  0.30000014571E+02 0.  0.
         12    1    1    2    0    0 -0.96253289042E+01  0.17135840973E+02 -0.35593275847E+02  0.40659135356E+02  0.00000000000E+00 0. -1.
         11    1    3    3    0    0  0.44963603968E+01 -0.12777827526E+02  0.15769423069E+02  0.20788574682E+02  0.51100000000E-03 0. -1.
        -11    1    3    3    0    0  0.98266520878E+01 -0.18307356311E+01  0.21854945508E+02  0.24032339204E+02  0.51100000000E-03 0.  1.
         12    1    3    3    0    0 -0.46976835803E+01 -0.25272778160E+01 -0.20310927297E+01  0.57079507581E+01  0.00000000000E+00 0. -1.
</event>
<event>
 7    1  0.2450552E-011  0.5052888E+02  0.7816164E-02  0.1300439E+00
        -11   -1    0    0    0    0  0.00000000000E+00  0.00000000000E+00  0.45593999997E+02  0.45594000000E+02  0.51100000000E-03 0. -1.
         11   -1    0    0    0    0 -0.00000000000E+00 -0.00000000000E+00 -0.45593999997E+02  0.45594000000E+02  0.51100000000E-03 0.  1.
    9900012    2    1    2    0    0 -0.26084783143E+02  0.44145556957E+01 -0.30874904508E+02  0.50528881195E+02  0.30000064880E+02 0.  0.
         12    1    1    2    0    0  0.26084783143E+02 -0.44145556957E+01  0.30874904508E+02  0.40659118805E+02  0.00000000000E+00 0. -1.
         11    1    3    3    0    0 -0.14117194135E+02 -0.42953230252E-02 -0.24115487796E+02  0.27943728109E+02  0.51100000000E-03 0. -1.
        -11    1    3    3    0    0 -0.16353103867E+02  0.38691346218E+01 -0.36925246053E+01  0.17205491769E+02  0.51100000000E-03 0.  1.
         12    1    3    3    0    0  0.43855148587E+01  0.54971639689E+00 -0.30668921069E+01  0.53796613172E+01  0.00000000000E+00 0. -1.
</event>
<event>
 7    1  0.2450552E-011  0.5052886E+02  0.7816164E-02  0.1300439E+00
        -11   -1    0    0    0    0  0.00000000000E+00  0.00000000000E+00  0.45593999997E+02  0.45594000000E+02  0.51100000000E-03 0.  1.
         11   -1    0    0    0    0 -0.00000000000E+00 -0.00000000000E+00 -0.45593999997E+02  0.45594000000E+02  0.51100000000E-03 0. -1.
    9900012    2    1    2    0    0  0.13947919244E+02  0.34838447658E+02 -0.15649407146E+02  0.50528857971E+02  0.29999994290E+02 0.  0.
         12    1    1    2    0    0 -0.13947919244E+02 -0.34838447658E+02  0.15649407146E+02  0.40659142029E+02  0.00000000000E+00 0. -1.
         11    1    3    3    0    0  0.17813811742E+01 -0.43953098339E+01  0.15880599792E+01  0.50014000223E+01  0.51100000000E-03 0. -1.
        -11    1    3    3    0    0 -0.11307587950E+01  0.92455746394E+01 -0.32412148663E+01  0.98622887778E+01  0.51100000000E-03 0.  1.
        -12    1    3    3    0    0  0.13297296865E+02  0.29988182853E+02 -0.13996252259E+02  0.35665169171E+02  0.00000000000E+00 0.  1.
</event>
<event>
 7    1  0.2450552E-011  0.5052886E+02  0.7816164E-02  0.1300439E+00
        -11   -1    0    0    0    0  0.00000000000E+00  0.00000000000E+00  0.45593999997E+02  0.45594000000E+02  0.51100000000E-03 0.  1.
         11   -1    0    0    0    0 -0.00000000000E+00 -0.00000000000E+00 -0.45593999997E+02  0.45594000000E+02  0.51100000000E-03 0. -1.
    9900012    2    1    2    0    0 -0.27829887835E+02  0.22887904791E+02  0.18836315132E+02  0.50528860678E+02  0.30000002517E+02 0.  0.
         12    1    1    2    0    0  0.27829887835E+02 -0.22887904791E+02 -0.18836315132E+02  0.40659139322E+02  0.00000000000E+00 0. -1.
         11    1    3    3    0    0  0.19253831271E+01 -0.18097517512E+01 -0.17053736063E+01  0.31449325884E+01  0.51100000000E-03 0. -1.
        -11    1    3    3    0    0 -0.23173292753E+01  0.12167809880E+02  0.42070083516E+01  0.13081457556E+02  0.51100000000E-03 0.  1.
         12    1    3    3    0    0 -0.27437941687E+02  0.12529846662E+02  0.16334680387E+02  0.34302470534E+02  0.00000000000E+00 0. -1.
</event>
<event>
 7    1  0.2450552E-011  0.5052886E+02  0.7816164E-02  0.1300439E+00
        -11   -1    0    0    0    0  0.00000000000E+00  0.00000000000E+00  0.45593999997E+02  0.45594000000E+02  0.51100000000E-03 0.  1.
         11   -1    0    0    0    0 -0.00000000000E+00 -0.00000000000E+00 -0.45593999997E+02  0.45594000000E+02  0.51100000000E-03 0. -1.
    9900012    2    1    2    0    0 -0.25317119881E+02 -0.31602633151E+02  0.36718599083E+01  0.50528861588E+02  0.30000005284E+02 0.  0.
         12    1    1    2    0    0  0.25317119881E+02  0.31602633151E+02 -0.36718599083E+01  0.40659138412E+02  0.00000000000E+00 0. -1.
         11    1    3    3    0    0 -0.32846231064E+01 -0.23907485540E+01 -0.63026141281E+01  0.74984913621E+01  0.51100000000E-03 0. -1.
        -11    1    3    3    0    0 -0.22804106331E+02 -0.28123997234E+02  0.34506477290E+01  0.36371602329E+02  0.51100000000E-03 0.  1.
         12    1    3    3    0    0  0.77160955609E+00 -0.10878873638E+01  0.65238263074E+01  0.66587678975E+01  0.00000000000E+00 0. -1.
</event>
<event>
 7    1  0.2450552E-011  0.5052883E+02  0.7816164E-02  0.1300439E+00
        -11   -1    0    0    0    0  0.00000000000E+00  0.00000000000E+00  0.45593999997E+02  0.45594000000E+02  0.51100000000E-03 0.  1.
         11   -1    0    0    0    0 -0.00000000000E+00 -0.00000000000E+00 -0.45593999997E+02  0.45594000000E+02  0.51100000000E-03 0. -1.
    9900012    2    1    2    0    0 -0.30443986869E+02  0.25125447474E+02  0.97490433933E+01  0.50528827673E+02  0.29999902195E+02 0.  0.
         12    1    1    2    0    0  0.30443986869E+02 -0.25125447474E+02 -0.97490433933E+01  0.40659172327E+02  0.00000000000E+00 0. -1.
         11    1    3    3    0    0 -0.15985207328E+02  0.16495684456E+02 -0.16825617067E+01  0.23031836078E+02  0.51100000000E-03 0. -1.
        -11    1    3    3    0    0 -0.67149462755E+01  0.13697328509E+02  0.97120917071E+01  0.18084027133E+02  0.51100000000E-03 0.  1.
        -12    1    3    3    0    0 -0.77438332652E+01 -0.50675654911E+01  0.17195133929E+01  0.94129644615E+01  0.00000000000E+00 0.  1.
</event>
<event>
 7    1  0.2450552E-011  0.5052886E+02  0.7816164E-02  0.1300439E+00
        -11   -1    0    0    0    0  0.00000000000E+00  0.00000000000E+00  0.45593999997E+02  0.45594000000E+02  0.51100000000E-03 0.  1.
         11   -1    0    0    0    0 -0.00000000000E+00 -0.00000000000E+00 -0.45593999997E+02  0.45594000000E+02  0.51100000000E-03 0. -1.
    9900012    2    1    2    0    0 -0.31289582350E+02  0.17750568097E+01  0.25903218537E+02  0.50528861779E+02  0.30000005864E+02 0.  0.
         12    1    1    2    0    0  0.31289582350E+02 -0.17750568097E+01 -0.25903218537E+02  0.40659138221E+02  0.00000000000E+00 0. -1.
         11    1    3    3    0    0 -0.60231782999E+01 -0.50820057110E+00  0.12227736648E+02  0.13640179194E+02  0.51100000000E-03 0. -1.
        -11    1    3    3    0    0 -0.26591218195E+01 -0.36157102506E+01  0.12738074947E+02  0.13505659668E+02  0.51100000000E-03 0.  1.
         12    1    3    3    0    0 -0.22607282230E+02  0.58989676314E+01  0.93740694197E+00  0.23383022917E+02  0.00000000000E+00 0. -1.
</event>
<event>
 7    1  0.2450552E-011  0.5052886E+02  0.7816164E-02  0.1300439E+00
        -11   -1    0    0    0    0  0.00000000000E+00  0.00000000000E+00  0.45593999997E+02  0.45594000000E+02  0.51100000000E-03 0.  1.
         11   -1    0    0    0    0 -0.00000000000E+00 -0.00000000000E+00 -0.45593999997E+02  0.45594000000E+02  0.51100000000E-03 0. -1.
    9900012    2    1    2    0    0 -0.24147386945E+02  0.63082940914E+01  0.32097893721E+02  0.50528860168E+02  0.30000000965E+02 0.  0.
         12    1    1    2    0    0  0.24147386945E+02 -0.63082940914E+01 -0.32097893721E+02  0.40659139832E+02  0.00000000000E+00 0. -1.
         11    1    3    3    0    0 -0.55528675352E+01 -0.43310636669E+01 -0.29450697960E+01  0.76332094635E+01  0.51100000000E-03 0. -1.
        -11    1    3    3    0    0 -0.32354790704E-01  0.50487528621E+01  0.10226542333E+02  0.11404960353E+02  0.51100000000E-03 0.  1.
        -12    1    3    3    0    0 -0.18562164619E+02  0.55906048962E+01  0.24816421183E+02  0.31490690351E+02  0.00000000000E+00 0.  1.
</event>
<event>
 7    1  0.2450552E-011  0.5052886E+02  0.7816164E-02  0.1300439E+00
        -11   -1    0    0    0    0  0.00000000000E+00  0.00000000000E+00  0.45593999997E+02  0.45594000000E+02  0.51100000000E-03 0. -1.
         11   -1    0    0    0    0 -0.00000000000E+00 -0.00000000000E+00 -0.45593999997E+02  0.45594000000E+02  0.51100000000E-03 0.  1.
    9900012    2    1    2    0    0 -0.46798650701E+01 -0.40009101982E+02 -0.55259910960E+01  0.50528856427E+02  0.29999989595E+02 0.  0.
         12    1    1    2    0    0  0.46798650701E+01  0.40009101982E+02  0.55259910960E+01  0.40659143573E+02  0.00000000000E+00 0. -1.
         11    1    3    3    0    0  0.13068596557E+01 -0.48476299480E+01  0.32548951547E+01  0.59834556071E+01  0.51100000000E-03 0. -1.
        -11    1    3    3    0    0 -0.25714302865E+01  0.37421476576E+01 -0.17404052634E+01  0.48626056340E+01  0.51100000000E-03 0.  1.
        -12    1    3    3    0    0 -0.34152944393E+01 -0.38903619692E+02 -0.70404809873E+01  0.39682795186E+02  0.00000000000E+00 0.  1.
</event>
<event>
 7    1  0.2450552E-011  0.5052885E+02  0.7816164E-02  0.1300439E+00
        -11   -1    0    0    0    0  0.00000000000E+00  0.00000000000E+00  0.45593999997E+02  0.45594000000E+02  0.51100000000E-03 0. -1.
         11   -1    0    0    0    0 -0.00000000000E+00 -0.00000000000E+00 -0.45593999997E+02  0.45594000000E+02  0.51100000000E-03 0.  1.
    9900012    2    1    2    0    0  0.31647960862E+02 -0.10986108389E+02 -0.23040794376E+02  0.50528853308E+02  0.29999980116E+02 0.  0.
         12    1    1    2    0    0 -0.31647960862E+02  0.10986108389E+02  0.23040794376E+02  0.40659146692E+02  0.00000000000E+00 0. -1.
         11    1    3    3    0    0  0.87866062973E+01  0.60919706195E+01 -0.34828427884E+01  0.11244854397E+02  0.51100000000E-03 0. -1.
        -11    1    3    3    0    0  0.22650945755E+02 -0.89545550574E+01 -0.90122594598E+01  0.25970564505E+02  0.51100000000E-03 0.  1.
         12    1    3    3    0    0  0.21040880894E+00 -0.81235239510E+01 -0.10545692127E+02  0.13313434407E+02  0.00000000000E+00 0. -1.
</event>
<event>
 7    1  0.2450552E-011  0.5052886E+02  0.7816164E-02  0.1300439E+00
        -11   -1    0    0    0    0  0.00000000000E+00  0.00000000000E+00  0.45593999997E+02  0.45594000000E+02  0.51100000000E-03 0.  1.
         11   -1    0    0    0    0 -0.00000000000E+00 -0.00000000000E+00 -0.45593999997E+02  0.45594000000E+02  0.51100000000E-03 0. -1.
    9900012    2    1    2    0    0 -0.51667236244E+01  0.26445705566E+02  0.30448241454E+02  0.50528858549E+02  0.29999996045E+02 0.  0.
         12    1    1    2    0    0  0.51667236244E+01 -0.26445705566E+02 -0.30448241454E+02  0.40659141451E+02  0.00000000000E+00 0. -1.
         11    1    3    3    0    0 -0.76060430377E+01  0.31214421097E+01  0.82532442770E+01  0.11649520715E+02  0.51100000000E-03 0. -1.
        -11    1    3    3    0    0  0.40276001347E+01 -0.41251284436E-01 -0.25831441098E+01  0.47849658584E+01  0.51100000000E-03 0.  1.
        -12    1    3    3    0    0 -0.15882807213E+01  0.23365514740E+02  0.24778141287E+02  0.34094371975E+02  0.00000000000E+00 0.  1.
</event>
<event>
 7    1  0.2450552E-011  0.5052884E+02  0.7816164E-02  0.1300439E+00
        -11   -1    0    0    0    0  0.00000000000E+00  0.00000000000E+00  0.45593999997E+02  0.45594000000E+02  0.51100000000E-03 0. -1.
         11   -1    0    0    0    0 -0.00000000000E+00 -0.00000000000E+00 -0.45593999997E+02  0.45594000000E+02  0.51100000000E-03 0.  1.
    9900012    2    1    2    0    0  0.39722566832E+02  0.61784308506E+01  0.60919316831E+01  0.50528844141E+02  0.29999952251E+02 0.  0.
         12    1    1    2    0    0 -0.39722566832E+02 -0.61784308506E+01 -0.60919316831E+01  0.40659155859E+02  0.00000000000E+00 0. -1.
         11    1    3    3    0    0  0.26350997805E+02  0.39410152642E+01 -0.65061355736E+01  0.27426929959E+02  0.51100000000E-03 0. -1.
        -11    1    3    3    0    0  0.13444683102E+02 -0.20085322770E+01  0.51664189862E+01  0.14542544173E+02  0.51100000000E-03 0.  1.
         12    1    3    3    0    0 -0.73114074786E-01  0.42459478634E+01  0.74316482705E+01  0.85593700086E+01  0.00000000000E+00 0. -1.
</event>
<event>
 7    1  0.2450552E-011  0.5052886E+02  0.7816164E-02  0.1300439E+00
        -11   -1    0    0    0    0  0.00000000000E+00  0.00000000000E+00  0.45593999997E+02  0.45594000000E+02  0.51100000000E-03 0.  1.
         11   -1    0    0    0    0 -0.00000000000E+00 -0.00000000000E+00 -0.45593999997E+02  0.45594000000E+02  0.51100000000E-03 0. -1.
    9900012    2    1    2    0    0  0.10739147294E+01 -0.39440496279E+02  0.98213932495E+01  0.50528858286E+02  0.29999995245E+02 0.  0.
         12    1    1    2    0    0 -0.10739147294E+01  0.39440496279E+02 -0.98213932495E+01  0.40659141714E+02  0.00000000000E+00 0. -1.
         11    1    3    3    0    0  0.32807395359E+01  0.20498756522E+01 -0.26255177944E+01  0.46753166783E+01  0.51100000000E-03 0. -1.
        -11    1    3    3    0    0 -0.55893041425E+01 -0.10734578527E+02 -0.94317289962E+00  0.12139236892E+02  0.51100000000E-03 0.  1.
         12    1    3    3    0    0  0.33824793360E+01 -0.30755793405E+02  0.13390083944E+02  0.33714304715E+02  0.00000000000E+00 0. -1.
</event>
<event>
 7    1  0.2450552E-011  0.5052885E+02  0.7816164E-02  0.1300439E+00
        -11   -1    0    0    0    0  0.00000000000E+00  0.00000000000E+00  0.45593999997E+02  0.45594000000E+02  0.51100000000E-03 0.  1.
         11   -1    0    0    0    0 -0.00000000000E+00 -0.00000000000E+00 -0.45593999997E+02  0.45594000000E+02  0.51100000000E-03 0. -1.
    9900012    2    1    2    0    0  0.10162022540E+02 -0.24829927643E+02  0.30551171245E+02  0.50528854985E+02  0.29999985214E+02 0.  0.
         12    1    1    2    0    0 -0.10162022540E+02  0.24829927643E+02 -0.30551171245E+02  0.40659145015E+02  0.00000000000E+00 0. -1.
         11    1    3    3    0    0  0.26710166204E+01  0.32529823187E+01 -0.22956323503E+01  0.47943875418E+01  0.51100000000E-03 0. -1.
        -11    1    3    3    0    0 -0.25523606578E+01 -0.10779776655E+01  0.14722150398E+01  0.31375146469E+01  0.51100000000E-03 0.  1.
        -12    1    3    3    0    0  0.10043366577E+02 -0.27004932296E+02  0.31374588556E+02  0.42596952797E+02  0.00000000000E+00 0.  1.
</event>
<event>
 7    1  0.2450552E-011  0.5052886E+02  0.7816164E-02  0.1300439E+00
        -11   -1    0    0    0    0  0.00000000000E+00  0.00000000000E+00  0.45593999997E+02  0.45594000000E+02  0.51100000000E-03 0.  1.
         11   -1    0    0    0    0 -0.00000000000E+00 -0.00000000000E+00 -0.45593999997E+02  0.45594000000E+02  0.51100000000E-03 0. -1.
    9900012    2    1    2    0    0 -0.15293256393E+02 -0.21802259418E+02  0.30723657316E+02  0.50528864179E+02  0.30000013158E+02 0.  0.
         12    1    1    2    0    0  0.15293256393E+02  0.21802259418E+02 -0.30723657316E+02  0.40659135821E+02  0.00000000000E+00 0. -1.
         11    1    3    3    0    0 -0.22355844601E+01 -0.39425323343E+01 -0.57841148155E+01  0.73482911990E+01  0.51100000000E-03 0. -1.
        -11    1    3    3    0    0 -0.96255861190E-01 -0.27497885511E+01  0.75866009595E+01  0.80701373375E+01  0.51100000000E-03 0.  1.
         12    1    3    3    0    0 -0.12961416071E+02 -0.15109938533E+02  0.28921171172E+02  0.35110435642E+02  0.00000000000E+00 0. -1.
</event>
<event>
 7    1  0.2450552E-011  0.5052888E+02  0.7816164E-02  0.1300439E+00
        -11   -1    0    0    0    0  0.00000000000E+00  0.00000000000E+00  0.45593999997E+02  0.45594000000E+02  0.51100000000E-03 0.  1.
         11   -1    0    0    0    0 -0.00000000000E+00 -0.00000000000E+00 -0.45593999997E+02  0.45594000000E+02  0.51100000000E-03 0. -1.
    9900012    2    1    2    0    0 -0.66717013657E+01  0.27681933773E+02  0.29023493130E+02  0.50528877900E+02  0.30000054864E+02 0.  0.
         12    1    1    2    0    0  0.66717013657E+01 -0.27681933773E+02 -0.29023493130E+02  0.40659122100E+02  0.00000000000E+00 0. -1.
         11    1    3    3    0    0 -0.80947577802E+01  0.18035752706E+02  0.94922682151E+01  0.21929811566E+02  0.51100000000E-03 0.  1.
        -11    1    3    3    0    0  0.52142943950E+01  0.10592179312E+02  0.38191901514E+01  0.12408438350E+02  0.51100000000E-03 0. -1.
        -12    1    3    3    0    0 -0.37912379804E+01 -0.94599824494E+00  0.15712034763E+02  0.16190627984E+02  0.00000000000E+00 0.  1.
</event>
<event>
 7    1  0.2450552E-011  0.5052887E+02  0.7816164E-02  0.1300439E+00
        -11   -1    0    0    0    0  0.00000000000E+00  0.00000000000E+00  0.45593999997E+02  0.45594000000E+02  0.51100000000E-03 0.  1.
         11   -1    0    0    0    0 -0.00000000000E+00 -0.00000000000E+00 -0.45593999997E+02  0.45594000000E+02  0.51100000000E-03 0. -1.
    9900012    2    1    2    0    0  0.27762028078E+02  0.29595696080E+02  0.25552298533E+01  0.50528872746E+02  0.30000039199E+02 0.  0.
         12    1    1    2    0    0 -0.27762028078E+02 -0.29595696080E+02 -0.25552298533E+01  0.40659127254E+02  0.00000000000E+00 0. -1.
         11    1    3    3    0    0  0.70278315640E+01  0.44829349938E+01 -0.86742749360E+01  0.12030385221E+02  0.51100000000E-03 0. -1.
        -11    1    3    3    0    0  0.11337234773E+02  0.17428765021E+02 -0.15793254590E+01  0.20851594942E+02  0.51100000000E-03 0.  1.
        -12    1    3    3    0    0  0.93969617414E+01  0.76839960649E+01  0.12808830248E+02  0.17646892583E+02  0.00000000000E+00 0.  1.
</event>
<event>
 7    1  0.2450552E-011  0.5052885E+02  0.7816164E-02  0.1300439E+00
        -11   -1    0    0    0    0  0.00000000000E+00  0.00000000000E+00  0.45593999997E+02  0.45594000000E+02  0.51100000000E-03 0.  1.
         11   -1    0    0    0    0 -0.00000000000E+00 -0.00000000000E+00 -0.45593999997E+02  0.45594000000E+02  0.51100000000E-03 0. -1.
    9900012    2    1    2    0    0  0.76369535832E+01 -0.97680680983E+01  0.38722448416E+02  0.50528853111E+02  0.29999979517E+02 0.  0.
         12    1    1    2    0    0 -0.76369535832E+01  0.97680680983E+01 -0.38722448416E+02  0.40659146889E+02  0.00000000000E+00 0. -1.
         11    1    3    3    0    0  0.50394219508E+01  0.36316602354E+01  0.26925822976E+01  0.67701351061E+01  0.51100000000E-03 0. -1.
        -11    1    3    3    0    0 -0.99865667046E+00 -0.11512081963E+02  0.52154417792E+01  0.12677782909E+02  0.51100000000E-03 0.  1.
        -12    1    3    3    0    0  0.35961883029E+01 -0.18876463705E+01  0.30814424339E+02  0.31080935096E+02  0.00000000000E+00 0.  1.
</event>
<event>
 7    1  0.2450552E-011  0.5052885E+02  0.7816164E-02  0.1300439E+00
        -11   -1    0    0    0    0  0.00000000000E+00  0.00000000000E+00  0.45593999997E+02  0.45594000000E+02  0.51100000000E-03 0. -1.
         11   -1    0    0    0    0 -0.00000000000E+00 -0.00000000000E+00 -0.45593999997E+02  0.45594000000E+02  0.51100000000E-03 0.  1.
    9900012    2    1    2    0    0  0.22623551987E+02  0.29059875630E+02 -0.17229768253E+02  0.50528851089E+02  0.29999973370E+02 0.  0.
         12    1    1    2    0    0 -0.22623551987E+02 -0.29059875630E+02  0.17229768253E+02  0.40659148911E+02  0.00000000000E+00 0. -1.
         11    1    3    3    0    0  0.10374271499E+02  0.17688001202E+02 -0.20213818471E+02  0.28793911737E+02  0.51100000000E-03 0. -1.
        -11    1    3    3    0    0  0.31470990318E+01  0.52854823712E+01 -0.52080008786E+01  0.80600142447E+01  0.51100000000E-03 0.  1.
         12    1    3    3    0    0  0.91021814562E+01  0.60863920564E+01  0.81920510965E+01  0.13674925107E+02  0.00000000000E+00 0. -1.
</event>
<event>
 7    1  0.2450552E-011  0.5052887E+02  0.7816164E-02  0.1300439E+00
        -11   -1    0    0    0    0  0.00000000000E+00  0.00000000000E+00  0.45593999997E+02  0.45594000000E+02  0.51100000000E-03 0.  1.
         11   -1    0    0    0    0 -0.00000000000E+00 -0.00000000000E+00 -0.45593999997E+02  0.45594000000E+02  0.51100000000E-03 0. -1.
    9900012    2    1    2    0    0  0.19625001407E+01 -0.31753413424E+02  0.25318660162E+02  0.50528865439E+02  0.30000016989E+02 0.  0.
         12    1    1    2    0    0 -0.19625001407E+01  0.31753413424E+02 -0.25318660162E+02  0.40659134561E+02  0.00000000000E+00 0. -1.
         11    1    3    3    0    0  0.42357668882E+01 -0.76842948667E+00 -0.21405928351E+01  0.48077378209E+01  0.51100000000E-03 0. -1.
        -11    1    3    3    0    0 -0.52011326499E+01 -0.18827151405E+02  0.52376816615E+01  0.20222431118E+02  0.51100000000E-03 0.  1.
        -12    1    3    3    0    0  0.29278659024E+01 -0.12157832532E+02  0.22221571335E+02  0.25498696501E+02  0.00000000000E+00 0.  1.
</event>
<event>
 7    1  0.2450552E-011  0.5052886E+02  0.7816164E-02  0.1300439E+00
        -11   -1    0    0    0    0  0.00000000000E+00  0.00000000000E+00  0.45593999997E+02  0.45594000000E+02  0.51100000000E-03 0.  1.
         11   -1    0    0    0    0 -0.00000000000E+00 -0.00000000000E+00 -0.45593999997E+02  0.45594000000E+02  0.51100000000E-03 0. -1.
    9900012    2    1    2    0    0  0.28274950770E+02 -0.24122170145E+02  0.16486767014E+02  0.50528863018E+02  0.30000009630E+02 0.  0.
         12    1    1    2    0    0 -0.28274950770E+02  0.24122170145E+02 -0.16486767014E+02  0.40659136982E+02  0.00000000000E+00 0. -1.
         11    1    3    3    0    0  0.14750960504E+02 -0.19667875520E+02  0.21724666962E+02  0.32808189803E+02  0.51100000000E-03 0. -1.
        -11    1    3    3    0    0  0.42486839576E+01 -0.56768597860E+01 -0.19684356705E+00  0.70934335869E+01  0.51100000000E-03 0.  1.
        -12    1    3    3    0    0  0.92753063083E+01  0.12225651604E+01 -0.50410563815E+01  0.10627239629E+02  0.00000000000E+00 0.  1.
</event>
<event>
 7    1  0.2450552E-011  0.5052886E+02  0.7816164E-02  0.1300439E+00
        -11   -1    0    0    0    0  0.00000000000E+00  0.00000000000E+00  0.45593999997E+02  0.45594000000E+02  0.51100000000E-03 0.  1.
         11   -1    0    0    0    0 -0.00000000000E+00 -0.00000000000E+00 -0.45593999997E+02  0.45594000000E+02  0.51100000000E-03 0. -1.
    9900012    2    1    2    0    0 -0.23978497795E+02 -0.18871563631E+02  0.26871201652E+02  0.50528858978E+02  0.29999997350E+02 0.  0.
         12    1    1    2    0    0  0.23978497795E+02  0.18871563631E+02 -0.26871201652E+02  0.40659141022E+02  0.00000000000E+00 0. -1.
         11    1    3    3    0    0 -0.15467706327E+02 -0.63119051923E-01  0.14626071824E+02  0.21287928511E+02  0.51100000000E-03 0. -1.
        -11    1    3    3    0    0 -0.43921442399E+01 -0.51656197976E+01  0.13323124888E+02  0.14949254696E+02  0.51100000000E-03 0.  1.
         12    1    3    3    0    0 -0.41186472285E+01 -0.13642824782E+02 -0.10779950593E+01  0.14291675772E+02  0.00000000000E+00 0. -1.
</event>
<event>
 7    1  0.2450552E-011  0.5052883E+02  0.7816164E-02  0.1300439E+00
        -11   -1    0    0    0    0  0.00000000000E+00  0.00000000000E+00  0.45593999997E+02  0.45594000000E+02  0.51100000000E-03 0.  1.
         11   -1    0    0    0    0 -0.00000000000E+00 -0.00000000000E+00 -0.45593999997E+02  0.45594000000E+02  0.51100000000E-03 0. -1.
    9900012    2    1    2    0    0 -0.30452509245E+02  0.15535965995E+02  0.22010153906E+02  0.50528825959E+02  0.29999896985E+02 0.  0.
         12    1    1    2    0    0  0.30452509245E+02 -0.15535965995E+02 -0.22010153906E+02  0.40659174041E+02  0.00000000000E+00 0. -1.
         11    1    3    3    0    0  0.11537140461E+01  0.88256620883E+01  0.28909867571E+01  0.93584812918E+01  0.51100000000E-03 0. -1.
        -11    1    3    3    0    0 -0.14783442952E+02 -0.17040716021E+01  0.78277574959E+00  0.14901905371E+02  0.51100000000E-03 0.  1.
        -12    1    3    3    0    0 -0.16822780339E+02  0.84143755090E+01  0.18336391399E+02  0.26268439297E+02  0.00000000000E+00 0.  1.
</event>
<event>
 7    1  0.2450552E-011  0.5052886E+02  0.7816164E-02  0.1300439E+00
        -11   -1    0    0    0    0  0.00000000000E+00  0.00000000000E+00  0.45593999997E+02  0.45594000000E+02  0.51100000000E-03 0.  1.
         11   -1    0    0    0    0 -0.00000000000E+00 -0.00000000000E+00 -0.45593999997E+02  0.45594000000E+02  0.51100000000E-03 0. -1.
    9900012    2    1    2    0    0 -0.14670454343E+02  0.25554214511E+02  0.28016516397E+02  0.50528864484E+02  0.30000014085E+02 0.  0.
         12    1    1    2    0    0  0.14670454343E+02 -0.25554214511E+02 -0.28016516397E+02  0.40659135516E+02  0.00000000000E+00 0. -1.
         11    1    3    3    0    0 -0.34163663344E+01  0.14870245414E+01  0.10657489101E+02  0.11290034327E+02  0.51100000000E-03 0.  1.
        -11    1    3    3    0    0 -0.15061195668E+02  0.25971082636E+02  0.11848538766E+02  0.32275759005E+02  0.51100000000E-03 0. -1.
         12    1    3    3    0    0  0.38071076590E+01 -0.19038926662E+01  0.55104885304E+01  0.69630711511E+01  0.00000000000E+00 0. -1.
</event>
<event>
 7    1  0.2450552E-011  0.5052886E+02  0.7816164E-02  0.1300439E+00
        -11   -1    0    0    0    0  0.00000000000E+00  0.00000000000E+00  0.45593999997E+02  0.45594000000E+02  0.51100000000E-03 0.  1.
         11   -1    0    0    0    0 -0.00000000000E+00 -0.00000000000E+00 -0.45593999997E+02  0.45594000000E+02  0.51100000000E-03 0. -1.
    9900012    2    1    2    0    0  0.12249882099E+02 -0.20856031659E+02  0.32682283250E+02  0.50528864415E+02  0.30000013877E+02 0.  0.
         12    1    1    2    0    0 -0.12249882099E+02  0.20856031659E+02 -0.32682283250E+02  0.40659135585E+02  0.00000000000E+00 0. -1.
         11    1    3    3    0    0  0.81783943907E+01 -0.11902294921E+02  0.83505985845E+01  0.16681824126E+02  0.51100000000E-03 0. -1.
        -11    1    3    3    0    0  0.87880340896E+01 -0.54569450957E+01  0.25798532492E+02  0.27795180732E+02  0.51100000000E-03 0.  1.
         12    1    3    3    0    0 -0.47165463809E+01 -0.34967916427E+01 -0.14668478259E+01  0.60518595572E+01  0.00000000000E+00 0. -1.
</event>
<event>
 7    1  0.2450552E-011  0.5052886E+02  0.7816164E-02  0.1300439E+00
        -11   -1    0    0    0    0  0.00000000000E+00  0.00000000000E+00  0.45593999997E+02  0.45594000000E+02  0.51100000000E-03 0. -1.
         11   -1    0    0    0    0 -0.00000000000E+00 -0.00000000000E+00 -0.45593999997E+02  0.45594000000E+02  0.51100000000E-03 0.  1.
    9900012    2    1    2    0    0  0.76083552616E+01  0.39759521146E+02  0.38025094770E+01  0.50528859947E+02  0.30000000295E+02 0.  0.
         12    1    1    2    0    0 -0.76083552616E+01 -0.39759521146E+02 -0.38025094770E+01  0.40659140053E+02  0.00000000000E+00 0. -1.
         11    1    3    3    0    0  0.37501938604E+01  0.24268873409E+01 -0.13715857444E+01  0.46727918712E+01  0.51100000000E-03 0. -1.
        -11    1    3    3    0    0  0.92148356475E+01  0.38903132287E+02  0.46618228982E+01  0.40250459510E+02  0.51100000000E-03 0.  1.
         12    1    3    3    0    0 -0.53566742463E+01 -0.15704984824E+01  0.51227232328E+00  0.56056085662E+01  0.00000000000E+00 0. -1.
</event>
<event>
 7    1  0.2450552E-011  0.5052886E+02  0.7816164E-02  0.1300439E+00
        -11   -1    0    0    0    0  0.00000000000E+00  0.00000000000E+00  0.45593999997E+02  0.45594000000E+02  0.51100000000E-03 0.  1.
         11   -1    0    0    0    0 -0.00000000000E+00 -0.00000000000E+00 -0.45593999997E+02  0.45594000000E+02  0.51100000000E-03 0. -1.
    9900012    2    1    2    0    0  0.21811741379E+02  0.33875397372E+02  0.54654476546E+01  0.50528859243E+02  0.29999998155E+02 0.  0.
         12    1    1    2    0    0 -0.21811741379E+02 -0.33875397372E+02 -0.54654476546E+01  0.40659140757E+02  0.00000000000E+00 0. -1.
         11    1    3    3    0    0  0.54888222010E+01  0.78550604864E+01  0.31851072521E+01  0.10098220282E+02  0.51100000000E-03 0. -1.
        -11    1    3    3    0    0  0.15738160880E+02  0.14867118758E+01  0.14740852296E+01  0.15876805334E+02  0.51100000000E-03 0.  1.
         12    1    3    3    0    0  0.58475829759E+00  0.24533625009E+02  0.80625517295E+00  0.24553833627E+02  0.00000000000E+00 0. -1.
</event>
<event>
 7    1  0.2450552E-011  0.5052888E+02  0.7816164E-02  0.1300439E+00
        -11   -1    0    0    0    0  0.00000000000E+00  0.00000000000E+00  0.45593999997E+02  0.45594000000E+02  0.51100000000E-03 0.  1.
         11   -1    0    0    0    0 -0.00000000000E+00 -0.00000000000E+00 -0.45593999997E+02  0.45594000000E+02  0.51100000000E-03 0. -1.
    9900012    2    1    2    0    0  0.14593202278E+02 -0.15377929874E+02  0.34694695646E+02  0.50528878196E+02  0.30000055764E+02 0.  0.
         12    1    1    2    0    0 -0.14593202278E+02  0.15377929874E+02 -0.34694695646E+02  0.40659121804E+02  0.00000000000E+00 0. -1.
         11    1    3    3    0    0 -0.40267962415E+01 -0.32868467573E+01  0.91110373065E+01  0.10489492392E+02  0.51100000000E-03 0. -1.
        -11    1    3    3    0    0  0.14360627623E+02 -0.17029625136E+02  0.25010403071E+02  0.33492626353E+02  0.51100000000E-03 0.  1.
         12    1    3    3    0    0  0.42593708963E+01  0.49385420188E+01  0.57325526836E+00  0.65467594508E+01  0.00000000000E+00 0. -1.
</event>
<event>
 7    1  0.2450552E-011  0.5052886E+02  0.7816164E-02  0.1300439E+00
        -11   -1    0    0    0    0  0.00000000000E+00  0.00000000000E+00  0.45593999997E+02  0.45594000000E+02  0.51100000000E-03 0.  1.
         11   -1    0    0    0    0 -0.00000000000E+00 -0.00000000000E+00 -0.45593999997E+02  0.45594000000E+02  0.51100000000E-03 0. -1.
    9900012    2    1    2    0    0  0.45501340844E+01 -0.36674359918E+02 -0.16954452048E+02  0.50528857857E+02  0.29999993941E+02 0.  0.
         12    1    1    2    0    0 -0.45501340844E+01  0.36674359918E+02  0.16954452048E+02  0.40659142143E+02  0.00000000000E+00 0. -1.
         11    1    3    3    0    0 -0.62905215397E+01 -0.23110639994E+01  0.30936733462E+01  0.73812257170E+01  0.51100000000E-03 0. -1.
        -11    1    3    3    0    0  0.25779810777E+01 -0.24345007351E+02 -0.89517743935E+01  0.26066446525E+02  0.51100000000E-03 0.  1.
        -12    1    3    3    0    0  0.82626745464E+01 -0.10018288567E+02 -0.11096351001E+02  0.17081185615E+02  0.00000000000E+00 0.  1.
</event>
<event>
 7    1  0.2450552E-011  0.5052886E+02  0.7816164E-02  0.1300439E+00
        -11   -1    0    0    0    0  0.00000000000E+00  0.00000000000E+00  0.45593999997E+02  0.45594000000E+02  0.51100000000E-03 0.  1.
         11   -1    0    0    0    0 -0.00000000000E+00 -0.00000000000E+00 -0.45593999997E+02  0.45594000000E+02  0.51100000000E-03 0. -1.
    9900012    2    1    2    0    0 -0.24156778445E+01  0.37443412423E+02 -0.15662739168E+02  0.50528855499E+02  0.29999986775E+02 0.  0.
         12    1    1    2    0    0  0.24156778445E+01 -0.37443412423E+02  0.15662739168E+02  0.40659144501E+02  0.00000000000E+00 0. -1.
         11    1    3    3    0    0 -0.37971400908E+01  0.80409137759E+01 -0.11384810295E+02  0.14446053888E+02  0.51100000000E-03 0. -1.
        -11    1    3    3    0    0  0.68365619352E+01  0.14668205077E+02 -0.10381935087E+02  0.19227048543E+02  0.51100000000E-03 0.  1.
        -12    1    3    3    0    0 -0.54550996889E+01  0.14734293570E+02  0.61040062143E+01  0.16855753068E+02  0.00000000000E+00 0.  1.
</event>
<event>
 7    1  0.2450552E-011  0.5052886E+02  0.7816164E-02  0.1300439E+00
        -11   -1    0    0    0    0  0.00000000000E+00  0.00000000000E+00  0.45593999997E+02  0.45594000000E+02  0.51100000000E-03 0.  1.
         11   -1    0    0    0    0 -0.00000000000E+00 -0.00000000000E+00 -0.45593999997E+02  0.45594000000E+02  0.51100000000E-03 0. -1.
    9900012    2    1    2    0    0  0.29576874948E+02 -0.27741748034E+02  0.29613081833E+01  0.50528862505E+02  0.30000008070E+02 0.  0.
         12    1    1    2    0    0 -0.29576874948E+02  0.27741748034E+02 -0.29613081833E+01  0.40659137495E+02  0.00000000000E+00 0. -1.
         11    1    3    3    0    0  0.15557809903E+02 -0.11163161938E+02  0.10825002566E+02  0.21996415941E+02  0.51100000000E-03 0. -1.
        -11    1    3    3    0    0 -0.20392776804E+01 -0.63787535287E+01  0.21507570809E+01  0.70336979122E+01  0.51100000000E-03 0.  1.
         12    1    3    3    0    0  0.16058342726E+02 -0.10199832567E+02 -0.10014451463E+02  0.21498748652E+02  0.00000000000E+00 0. -1.
</event>
<event>
 7    1  0.2450552E-011  0.5052887E+02  0.7816164E-02  0.1300439E+00
        -11   -1    0    0    0    0  0.00000000000E+00  0.00000000000E+00  0.45593999997E+02  0.45594000000E+02  0.51100000000E-03 0. -1.
         11   -1    0    0    0    0 -0.00000000000E+00 -0.00000000000E+00 -0.45593999997E+02  0.45594000000E+02  0.51100000000E-03 0.  1.
    9900012    2    1    2    0    0 -0.36505382945E+02 -0.59274906752E+01  0.16893400500E+02  0.50528866830E+02  0.30000021217E+02 0.  0.
         12    1    1    2    0    0  0.36505382945E+02  0.59274906752E+01 -0.16893400500E+02  0.40659133170E+02  0.00000000000E+00 0. -1.
         11    1    3    3    0    0 -0.87605229193E+01 -0.99698422077E+01  0.50318364876E+01  0.14193797736E+02  0.51100000000E-03 0.  1.
        -11    1    3    3    0    0 -0.65016783973E+01 -0.75170424889E+01  0.53597088460E+01  0.11291777050E+02  0.51100000000E-03 0. -1.
         12    1    3    3    0    0 -0.21243181628E+02  0.11559394021E+02  0.65018551663E+01  0.25043292045E+02  0.00000000000E+00 0. -1.
</event>
<event>
 7    1  0.2450552E-011  0.5052886E+02  0.7816164E-02  0.1300439E+00
        -11   -1    0    0    0    0  0.00000000000E+00  0.00000000000E+00  0.45593999997E+02  0.45594000000E+02  0.51100000000E-03 0. -1.
         11   -1    0    0    0    0 -0.00000000000E+00 -0.00000000000E+00 -0.45593999997E+02  0.45594000000E+02  0.51100000000E-03 0.  1.
    9900012    2    1    2    0    0  0.38831104950E+02 -0.81916324899E+01  0.88435321679E+01  0.50528860613E+02  0.30000002320E+02 0.  0.
         12    1    1    2    0    0 -0.38831104950E+02  0.81916324899E+01 -0.88435321679E+01  0.40659139387E+02  0.00000000000E+00 0. -1.
         11    1    3    3    0    0  0.12331295746E+02 -0.10900662567E+02 -0.39312638125E+01  0.16921587827E+02  0.51100000000E-03 0. -1.
        -11    1    3    3    0    0  0.62542774913E+01 -0.59437646458E+01  0.62159149756E+01  0.10633998512E+02  0.51100000000E-03 0.  1.
         12    1    3    3    0    0  0.20245531713E+02  0.86527947232E+01  0.65588810048E+01  0.22973274274E+02  0.00000000000E+00 0. -1.
</event>
<event>
 7    1  0.2450552E-011  0.5052885E+02  0.7816164E-02  0.1300439E+00
        -11   -1    0    0    0    0  0.00000000000E+00  0.00000000000E+00  0.45593999997E+02  0.45594000000E+02  0.51100000000E-03 0.  1.
         11   -1    0    0    0    0 -0.00000000000E+00 -0.00000000000E+00 -0.45593999997E+02  0.45594000000E+02  0.51100000000E-03 0. -1.
    9900012    2    1    2    0    0  0.25949166207E+02  0.26903835655E+02  0.15999702789E+02  0.50528854791E+02  0.29999984623E+02 0.  0.
         12    1    1    2    0    0 -0.25949166207E+02 -0.26903835655E+02 -0.15999702789E+02  0.40659145209E+02  0.00000000000E+00 0. -1.
         11    1    3    3    0    0 -0.30480741942E+01 -0.10945026321E+01  0.32625498812E+01  0.45970560464E+01  0.51100000000E-03 0.  1.
        -11    1    3    3    0    0 -0.96315234451E+00  0.14140443428E+01 -0.25403665469E+01  0.30627840759E+01  0.51100000000E-03 0. -1.
         12    1    3    3    0    0  0.29960392745E+02  0.26584293944E+02  0.15277519455E+02  0.42869014669E+02  0.00000000000E+00 0. -1.
</event>
<event>
 7    1  0.2450552E-011  0.5052880E+02  0.7816164E-02  0.1300439E+00
        -11   -1    0    0    0    0  0.00000000000E+00  0.00000000000E+00  0.45593999997E+02  0.45594000000E+02  0.51100000000E-03 0. -1.
         11   -1    0    0    0    0 -0.00000000000E+00 -0.00000000000E+00 -0.45593999997E+02  0.45594000000E+02  0.51100000000E-03 0.  1.
    9900012    2    1    2    0    0  0.27919105438E+02 -0.24164511759E+00 -0.29557334229E+02  0.50528796275E+02  0.29999806757E+02 0.  0.
         12    1    1    2    0    0 -0.27919105438E+02  0.24164511759E+00  0.29557334229E+02  0.40659203725E+02  0.00000000000E+00 0. -1.
         11    1    3    3    0    0  0.10872067925E+02 -0.16059274631E+01 -0.74714974831E+01  0.13289248996E+02  0.51100000000E-03 0. -1.
        -11    1    3    3    0    0  0.56578197188E+01  0.85952584312E+01 -0.21383321025E+02  0.23730482713E+02  0.51100000000E-03 0.  1.
         12    1    3    3    0    0  0.11389217794E+02 -0.72309760857E+01 -0.70251572110E+00  0.13509064566E+02  0.00000000000E+00 0. -1.
</event>
<event>
 7    1  0.2450552E-011  0.5052886E+02  0.7816164E-02  0.1300439E+00
        -11   -1    0    0    0    0  0.00000000000E+00  0.00000000000E+00  0.45593999997E+02  0.45594000000E+02  0.51100000000E-03 0. -1.
         11   -1    0    0    0    0 -0.00000000000E+00 -0.00000000000E+00 -0.45593999997E+02  0.45594000000E+02  0.51100000000E-03 0.  1.
    9900012    2    1    2    0    0 -0.40487747377E+02 -0.47278594027E-01 -0.37290437880E+01  0.50528859693E+02  0.29999999522E+02 0.  0.
         12    1    1    2    0    0  0.40487747377E+02  0.47278594027E-01  0.37290437880E+01  0.40659140307E+02  0.00000000000E+00 0. -1.
         11    1    3    3    0    0 -0.49037031435E+01  0.19795679612E+01 -0.10682510848E+02  0.11919774835E+02  0.51100000000E-03 0. -1.
        -11    1    3    3    0    0 -0.11564632356E+02 -0.62615179400E+01  0.52489171299E+01  0.14159747870E+02  0.51100000000E-03 0.  1.
        -12    1    3    3    0    0 -0.24019411878E+02  0.42346713847E+01  0.17045499299E+01  0.24449336989E+02  0.00000000000E+00 0.  1.
</event>
<event>
 7    1  0.2450552E-011  0.5052886E+02  0.7816164E-02  0.1300439E+00
        -11   -1    0    0    0    0  0.00000000000E+00  0.00000000000E+00  0.45593999997E+02  0.45594000000E+02  0.51100000000E-03 0.  1.
         11   -1    0    0    0    0 -0.00000000000E+00 -0.00000000000E+00 -0.45593999997E+02  0.45594000000E+02  0.51100000000E-03 0. -1.
    9900012    2    1    2    0    0 -0.90382721477E+01 -0.12303880964E+02  0.37684081423E+02  0.50528857819E+02  0.29999993828E+02 0.  0.
         12    1    1    2    0    0  0.90382721477E+01  0.12303880964E+02 -0.37684081423E+02  0.40659142181E+02  0.00000000000E+00 0. -1.
         11    1    3    3    0    0  0.43332873229E+01 -0.61810212619E+01  0.99909184372E+01  0.12522014788E+02  0.51100000000E-03 0. -1.
        -11    1    3    3    0    0 -0.39349118687E+01 -0.16471961167E+01  0.27219657066E+02  0.27551887731E+02  0.51100000000E-03 0.  1.
         12    1    3    3    0    0 -0.94366476019E+01 -0.44756635853E+01  0.47350591912E+00  0.10454955301E+02  0.00000000000E+00 0. -1.
</event>
<event>
 7    1  0.2450552E-011  0.5052886E+02  0.7816164E-02  0.1300439E+00
        -11   -1    0    0    0    0  0.00000000000E+00  0.00000000000E+00  0.45593999997E+02  0.45594000000E+02  0.51100000000E-03 0.  1.
         11   -1    0    0    0    0 -0.00000000000E+00 -0.00000000000E+00 -0.45593999997E+02  0.45594000000E+02  0.51100000000E-03 0. -1.
    9900012    2    1    2    0    0 -0.27406022215E+02 -0.13188247026E+02  0.26984181382E+02  0.50528856401E+02  0.29999989517E+02 0.  0.
         12    1    1    2    0    0  0.27406022215E+02  0.13188247026E+02 -0.26984181382E+02  0.40659143599E+02  0.00000000000E+00 0. -1.
         11    1    3    3    0    0  0.13323028037E+00 -0.65812097380E+01  0.59357042081E+01  0.88635577863E+01  0.51100000000E-03 0. -1.
        -11    1    3    3    0    0 -0.10069282035E+02 -0.91893120990E+01 -0.69978039768E+00  0.13650039942E+02  0.51100000000E-03 0.  1.
         12    1    3    3    0    0 -0.17469970461E+02  0.25822748105E+01  0.21748257572E+02  0.28015258673E+02  0.00000000000E+00 0. -1.
</event>
<event>
 7    1  0.2450552E-011  0.5052886E+02  0.7816164E-02  0.1300439E+00
        -11   -1    0    0    0    0  0.00000000000E+00  0.00000000000E+00  0.45593999997E+02  0.45594000000E+02  0.51100000000E-03 0. -1.
         11   -1    0    0    0    0 -0.00000000000E+00 -0.00000000000E+00 -0.45593999997E+02  0.45594000000E+02  0.51100000000E-03 0.  1.
    9900012    2    1    2    0    0 -0.14952218146E+01 -0.36216839007E+02 -0.18419300251E+02  0.50528859113E+02  0.29999997760E+02 0.  0.
         12    1    1    2    0    0  0.14952218146E+01  0.36216839007E+02  0.18419300251E+02  0.40659140887E+02  0.00000000000E+00 0. -1.
         11    1    3    3    0    0  0.13210690054E-01 -0.18570438927E+02  0.29633566203E+01  0.18805394417E+02  0.51100000000E-03 0. -1.
        -11    1    3    3    0    0  0.18725937561E+01 -0.18396940789E+02 -0.12860218641E+02  0.22524192805E+02  0.51100000000E-03 0.  1.
         12    1    3    3    0    0 -0.33810262608E+01  0.75054070915E+00 -0.85224382304E+01  0.91992718909E+01  0.00000000000E+00 0. -1.
</event>
<event>
 7    1  0.2450552E-011  0.5052888E+02  0.7816164E-02  0.1300439E+00
        -11   -1    0    0    0    0  0.00000000000E+00  0.00000000000E+00  0.45593999997E+02  0.45594000000E+02  0.51100000000E-03 0.  1.
         11   -1    0    0    0    0 -0.00000000000E+00 -0.00000000000E+00 -0.45593999997E+02  0.45594000000E+02  0.51100000000E-03 0. -1.
    9900012    2    1    2    0    0 -0.21246771654E+02 -0.69771594505E+01  0.33956709261E+02  0.50528878471E+02  0.30000056599E+02 0.  0.
         12    1    1    2    0    0  0.21246771654E+02  0.69771594505E+01 -0.33956709261E+02  0.40659121529E+02  0.00000000000E+00 0. -1.
         11    1    3    3    0    0 -0.14883949704E+02 -0.11633278891E+02  0.18807910729E+02  0.26657131181E+02  0.51100000000E-03 0. -1.
        -11    1    3    3    0    0 -0.19989794500E+01 -0.27623306191E+01  0.14874810709E+02  0.15260615426E+02  0.51100000000E-03 0.  1.
         12    1    3    3    0    0 -0.43638424995E+01  0.74184500593E+01  0.27398782262E+00  0.86111318635E+01  0.00000000000E+00 0. -1.
</event>
<event>
 7    1  0.2450552E-011  0.5052892E+02  0.7816164E-02  0.1300439E+00
        -11   -1    0    0    0    0  0.00000000000E+00  0.00000000000E+00  0.45593999997E+02  0.45594000000E+02  0.51100000000E-03 0.  1.
         11   -1    0    0    0    0 -0.00000000000E+00 -0.00000000000E+00 -0.45593999997E+02  0.45594000000E+02  0.51100000000E-03 0. -1.
    9900012    2    1    2    0    0  0.21368290388E+02  0.17109276138E+02  0.30063756111E+02  0.50528922347E+02  0.30000189966E+02 0.  0.
         12    1    1    2    0    0 -0.21368290388E+02 -0.17109276138E+02 -0.30063756111E+02  0.40659077653E+02  0.00000000000E+00 0. -1.
         11    1    3    3    0    0  0.73179139355E+01  0.13351232808E+02  0.21063958698E+02  0.25990337399E+02  0.51100000000E-03 0. -1.
        -11    1    3    3    0    0  0.51351124986E+01  0.37381058741E+01  0.13226184035E+02  0.14672244555E+02  0.51100000000E-03 0.  1.
         12    1    3    3    0    0  0.89152639541E+01  0.19937455966E-01 -0.42263866213E+01  0.98663403928E+01  0.00000000000E+00 0. -1.
</event>
<event>
 7    1  0.2450552E-011  0.5052886E+02  0.7816164E-02  0.1300439E+00
        -11   -1    0    0    0    0  0.00000000000E+00  0.00000000000E+00  0.45593999997E+02  0.45594000000E+02  0.51100000000E-03 0.  1.
         11   -1    0    0    0    0 -0.00000000000E+00 -0.00000000000E+00 -0.45593999997E+02  0.45594000000E+02  0.51100000000E-03 0. -1.
    9900012    2    1    2    0    0 -0.30288806370E+01 -0.23795440987E+02  0.32829383496E+02  0.50528861416E+02  0.30000004759E+02 0.  0.
         12    1    1    2    0    0  0.30288806370E+01  0.23795440987E+02 -0.32829383496E+02  0.40659138584E+02  0.00000000000E+00 0. -1.
         11    1    3    3    0    0  0.65714019920E+01 -0.43936585191E+00  0.32595113931E+01  0.73485223872E+01  0.51100000000E-03 0. -1.
        -11    1    3    3    0    0 -0.16730544869E+01 -0.58790523117E+01  0.21517097372E+02  0.22368456517E+02  0.51100000000E-03 0.  1.
        -12    1    3    3    0    0 -0.79272281421E+01 -0.17477022823E+02  0.80527747317E+01  0.20811882511E+02  0.00000000000E+00 0.  1.
</event>
<event>
 7    1  0.2450552E-011  0.5052886E+02  0.7816164E-02  0.1300439E+00
        -11   -1    0    0    0    0  0.00000000000E+00  0.00000000000E+00  0.45593999997E+02  0.45594000000E+02  0.51100000000E-03 0.  1.
         11   -1    0    0    0    0 -0.00000000000E+00 -0.00000000000E+00 -0.45593999997E+02  0.45594000000E+02  0.51100000000E-03 0. -1.
    9900012    2    1    2    0    0 -0.39130604875E+02  0.78548686916E+01  0.77628918540E+01  0.50528859700E+02  0.29999999543E+02 0.  0.
         12    1    1    2    0    0  0.39130604875E+02 -0.78548686916E+01 -0.77628918540E+01  0.40659140300E+02  0.00000000000E+00 0. -1.
         11    1    3    3    0    0 -0.21185571128E+02  0.10712735092E+02  0.11734271629E+02  0.26481771997E+02  0.51100000000E-03 0. -1.
        -11    1    3    3    0    0 -0.31874174142E+01 -0.75573144561E+01 -0.82964402469E+00  0.82438426131E+01  0.51100000000E-03 0.  1.
        -12    1    3    3    0    0 -0.14757616333E+02  0.46994480560E+01 -0.31417357499E+01  0.15803245090E+02  0.00000000000E+00 0.  1.
</event>
<event>
 7    1  0.2450552E-011  0.5052886E+02  0.7816164E-02  0.1300439E+00
        -11   -1    0    0    0    0  0.00000000000E+00  0.00000000000E+00  0.45593999997E+02  0.45594000000E+02  0.51100000000E-03 0. -1.
         11   -1    0    0    0    0 -0.00000000000E+00 -0.00000000000E+00 -0.45593999997E+02  0.45594000000E+02  0.51100000000E-03 0.  1.
    9900012    2    1    2    0    0  0.14600003886E+02  0.40145111311E+01 -0.37734457230E+02  0.50528859877E+02  0.30000000083E+02 0.  0.
         12    1    1    2    0    0 -0.14600003886E+02 -0.40145111311E+01  0.37734457230E+02  0.40659140123E+02  0.00000000000E+00 0. -1.
         11    1    3    3    0    0  0.13149568760E+02  0.70839641227E+01 -0.88248105211E+01  0.17348515419E+02  0.51100000000E-03 0. -1.
        -11    1    3    3    0    0  0.71549014570E+01 -0.21523591480E+01 -0.25270854060E+02  0.26352254741E+02  0.51100000000E-03 0.  1.
        -12    1    3    3    0    0 -0.57044663308E+01 -0.91709384366E+00 -0.36387926491E+01  0.68280897168E+01  0.00000000000E+00 0.  1.
</event>
<event>
 7    1  0.2450552E-011  0.5052885E+02  0.7816164E-02  0.1300439E+00
        -11   -1    0    0    0    0  0.00000000000E+00  0.00000000000E+00  0.45593999997E+02  0.45594000000E+02  0.51100000000E-03 0.  1.
         11   -1    0    0    0    0 -0.00000000000E+00 -0.00000000000E+00 -0.45593999997E+02  0.45594000000E+02  0.51100000000E-03 0. -1.
    9900012    2    1    2    0    0 -0.28206603833E+02  0.28427082852E+02  0.70324081171E+01  0.50528852159E+02  0.29999976621E+02 0.  0.
         12    1    1    2    0    0  0.28206603833E+02 -0.28427082852E+02 -0.70324081171E+01  0.40659147841E+02  0.00000000000E+00 0. -1.
         11    1    3    3    0    0 -0.31779106180E+01  0.17803189770E+02 -0.18997732440E+01  0.18184109011E+02  0.51100000000E-03 0. -1.
        -11    1    3    3    0    0 -0.11338612432E+02 -0.26759840878E+01  0.10598205163E+01  0.11698215356E+02  0.51100000000E-03 0.  1.
        -12    1    3    3    0    0 -0.13690080782E+02  0.13299877170E+02  0.78723608448E+01  0.20646527791E+02  0.00000000000E+00 0.  1.
</event>
<event>
 7    1  0.2450552E-011  0.5052887E+02  0.7816164E-02  0.1300439E+00
        -11   -1    0    0    0    0  0.00000000000E+00  0.00000000000E+00  0.45593999997E+02  0.45594000000E+02  0.51100000000E-03 0. -1.
         11   -1    0    0    0    0 -0.00000000000E+00 -0.00000000000E+00 -0.45593999997E+02  0.45594000000E+02  0.51100000000E-03 0.  1.
    9900012    2    1    2    0    0 -0.38640860756E+02 -0.10179179397E+02  0.75121981081E+01  0.50528869001E+02  0.30000027817E+02 0.  0.
         12    1    1    2    0    0  0.38640860756E+02  0.10179179397E+02 -0.75121981081E+01  0.40659130999E+02  0.00000000000E+00 0. -1.
         11    1    3    3    0    0 -0.26025610639E+01 -0.40262502983E+01  0.55103540890E+01  0.73039727549E+01  0.51100000000E-03 0. -1.
        -11    1    3    3    0    0 -0.11280676564E+02 -0.83605994672E+01 -0.83088534695E+01  0.16315340433E+02  0.51100000000E-03 0.  1.
         12    1    3    3    0    0 -0.24757623128E+02  0.22076703688E+01  0.10310697489E+02  0.26909555814E+02  0.00000000000E+00 0. -1.
</event>
<event>
 7    1  0.2450552E-011  0.5052886E+02  0.7816164E-02  0.1300439E+00
        -11   -1    0    0    0    0  0.00000000000E+00  0.00000000000E+00  0.45593999997E+02  0.45594000000E+02  0.51100000000E-03 0. -1.
         11   -1    0    0    0    0 -0.00000000000E+00 -0.00000000000E+00 -0.45593999997E+02  0.45594000000E+02  0.51100000000E-03 0.  1.
    9900012    2    1    2    0    0 -0.40359408564E+02 -0.42010105538E+01 -0.25758700493E+01  0.50528862579E+02  0.30000008295E+02 0.  0.
         12    1    1    2    0    0  0.40359408564E+02  0.42010105538E+01  0.25758700493E+01  0.40659137421E+02  0.00000000000E+00 0. -1.
         11    1    3    3    0    0  0.34711223376E+01  0.15961736654E+01 -0.38278003094E+00  0.38396590299E+01  0.51100000000E-03 0. -1.
        -11    1    3    3    0    0 -0.12864717318E+02  0.31932850549E+01  0.40204918415E+01  0.13851439493E+02  0.51100000000E-03 0.  1.
         12    1    3    3    0    0 -0.30965813584E+02 -0.89904692741E+01 -0.62135818599E+01  0.32837764056E+02  0.00000000000E+00 0. -1.
</event>
<event>
 7    1  0.2450552E-011  0.5052888E+02  0.7816164E-02  0.1300439E+00
        -11   -1    0    0    0    0  0.00000000000E+00  0.00000000000E+00  0.45593999997E+02  0.45594000000E+02  0.51100000000E-03 0. -1.
         11   -1    0    0    0    0 -0.00000000000E+00 -0.00000000000E+00 -0.45593999997E+02  0.45594000000E+02  0.51100000000E-03 0.  1.
    9900012    2    1    2    0    0  0.67523937429E+01 -0.16834082432E+01  0.40059143639E+02  0.50528884494E+02  0.30000074909E+02 0.  0.
         12    1    1    2    0    0 -0.67523937429E+01  0.16834082432E+01 -0.40059143639E+02  0.40659115506E+02  0.00000000000E+00 0. -1.
         11    1    3    3    0    0  0.69539266838E+01  0.33668227121E+01  0.28299723145E+02  0.29335420942E+02  0.51100000000E-03 0. -1.
        -11    1    3    3    0    0  0.57168272192E+01  0.17109911200E+01 -0.50601324677E+00  0.59887940133E+01  0.51100000000E-03 0.  1.
         12    1    3    3    0    0 -0.59183601602E+01 -0.67612220753E+01  0.12265433741E+02  0.15204669539E+02  0.00000000000E+00 0. -1.
</event>
<event>
 7    1  0.4375729E-011  0.5052886E+02  0.7816164E-02  0.1300439E+00
        -11   -1    0    0    0    0  0.00000000000E+00  0.00000000000E+00  0.45593999997E+02  0.45594000000E+02  0.51100000000E-03 0. -1.
         11   -1    0    0    0    0 -0.00000000000E+00 -0.00000000000E+00 -0.45593999997E+02  0.45594000000E+02  0.51100000000E-03 0.  1.
    9900012    2    1    2    0    0 -0.73353847111E+01 -0.32353902036E+02 -0.23507077927E+02  0.50528861317E+02  0.30000004459E+02 0.  0.
         12    1    1    2    0    0  0.73353847111E+01  0.32353902036E+02  0.23507077927E+02  0.40659138683E+02  0.00000000000E+00 0. -1.
         11    1    3    3    0    0  0.52348595952E+01  0.67281898949E+00  0.79136400455E+00  0.53369183639E+01  0.51100000000E-03 0. -1.
        -11    1    3    3    0    0 -0.13348396073E+01 -0.15446973093E+02 -0.38430687804E+01  0.15973726942E+02  0.51100000000E-03 0.  1.
        -12    1    3    3    0    0 -0.11235404699E+02 -0.17579747932E+02 -0.20455373151E+02  0.29218216011E+02  0.00000000000E+00 0.  1.
</event>
<event>
 7    1  0.2450552E-011  0.5052885E+02  0.7816164E-02  0.1300439E+00
        -11   -1    0    0    0    0  0.00000000000E+00  0.00000000000E+00  0.45593999997E+02  0.45594000000E+02  0.51100000000E-03 0.  1.
         11   -1    0    0    0    0 -0.00000000000E+00 -0.00000000000E+00 -0.45593999997E+02  0.45594000000E+02  0.51100000000E-03 0. -1.
    9900012    2    1    2    0    0  0.27722640002E+02  0.24747377434E+02  0.16498145879E+02  0.50528852493E+02  0.29999977639E+02 0.  0.
         12    1    1    2    0    0 -0.27722640002E+02 -0.24747377434E+02 -0.16498145879E+02  0.40659147507E+02  0.00000000000E+00 0. -1.
         11    1    3    3    0    0  0.84621754568E+01  0.94314782929E+01  0.86521537948E+01  0.15343433833E+02  0.51100000000E-03 0.  1.
        -11    1    3    3    0    0  0.20799984671E+02  0.90523404722E+01 -0.26781609064E+01  0.22841995894E+02  0.51100000000E-03 0. -1.
         12    1    3    3    0    0 -0.15395201254E+01  0.62635586687E+01  0.10524152990E+02  0.12343422766E+02  0.00000000000E+00 0. -1.
</event>
<event>
 7    1  0.2450552E-011  0.5052886E+02  0.7816164E-02  0.1300439E+00
        -11   -1    0    0    0    0  0.00000000000E+00  0.00000000000E+00  0.45593999997E+02  0.45594000000E+02  0.51100000000E-03 0. -1.
         11   -1    0    0    0    0 -0.00000000000E+00 -0.00000000000E+00 -0.45593999997E+02  0.45594000000E+02  0.51100000000E-03 0.  1.
    9900012    2    1    2    0    0 -0.12227646426E+02 -0.38763104383E+02  0.10354500438E+01  0.50528858895E+02  0.29999997099E+02 0.  0.
         12    1    1    2    0    0  0.12227646426E+02  0.38763104383E+02 -0.10354500438E+01  0.40659141105E+02  0.00000000000E+00 0. -1.
         11    1    3    3    0    0 -0.14249060494E+02 -0.22020255650E+02 -0.91467546893E+01  0.27777517986E+02  0.51100000000E-03 0. -1.
        -11    1    3    3    0    0 -0.22713275962E+00 -0.17738039978E+02  0.79851324461E+01  0.19453842602E+02  0.51100000000E-03 0.  1.
        -12    1    3    3    0    0  0.22485468274E+01  0.99519124504E+00  0.21970722869E+01  0.32974983068E+01  0.00000000000E+00 0.  1.
</event>
<event>
 7    1  0.2450552E-011  0.5052886E+02  0.7816164E-02  0.1300439E+00
        -11   -1    0    0    0    0  0.00000000000E+00  0.00000000000E+00  0.45593999997E+02  0.45594000000E+02  0.51100000000E-03 0.  1.
         11   -1    0    0    0    0 -0.00000000000E+00 -0.00000000000E+00 -0.45593999997E+02  0.45594000000E+02  0.51100000000E-03 0. -1.
    9900012    2    1    2    0    0 -0.34246184580E+02  0.37409479491E+01  0.21595591329E+02  0.50528863085E+02  0.30000009832E+02 0.  0.
         12    1    1    2    0    0  0.34246184580E+02 -0.37409479491E+01 -0.21595591329E+02  0.40659136915E+02  0.00000000000E+00 0. -1.
         11    1    3    3    0    0 -0.18203291153E+01  0.47170620517E+01  0.37583694749E+01  0.62999693537E+01  0.51100000000E-03 0. -1.
        -11    1    3    3    0    0 -0.10602461623E+02 -0.58858938174E+01  0.18184788981E+02  0.21857321177E+02  0.51100000000E-03 0.  1.
        -12    1    3    3    0    0 -0.21823393842E+02  0.49097797149E+01 -0.34756712706E+00  0.22371572554E+02  0.00000000000E+00 0.  1.
</event>
<event>
 7    1  0.2450552E-011  0.5052880E+02  0.7816164E-02  0.1300439E+00
        -11   -1    0    0    0    0  0.00000000000E+00  0.00000000000E+00  0.45593999997E+02  0.45594000000E+02  0.51100000000E-03 0.  1.
         11   -1    0    0    0    0 -0.00000000000E+00 -0.00000000000E+00 -0.45593999997E+02  0.45594000000E+02  0.51100000000E-03 0. -1.
    9900012    2    1    2    0    0  0.38374225297E+01 -0.14569789965E+02  0.37764613845E+02  0.50528798702E+02  0.29999814135E+02 0.  0.
         12    1    1    2    0    0 -0.38374225297E+01  0.14569789965E+02 -0.37764613845E+02  0.40659201298E+02  0.00000000000E+00 0. -1.
         11    1    3    3    0    0  0.37500910025E+01 -0.47594664247E+01  0.27441912979E+02  0.28102923183E+02  0.51100000000E-03 0. -1.
        -11    1    3    3    0    0 -0.84291849692E+01 -0.61715281116E+01  0.70504273006E+01  0.12603469517E+02  0.51100000000E-03 0.  1.
         12    1    3    3    0    0  0.85165164963E+01 -0.36387954284E+01  0.32722735652E+01  0.98224060030E+01  0.00000000000E+00 0. -1.
</event>
<event>
 7    1  0.2450552E-011  0.5052886E+02  0.7816164E-02  0.1300439E+00
        -11   -1    0    0    0    0  0.00000000000E+00  0.00000000000E+00  0.45593999997E+02  0.45594000000E+02  0.51100000000E-03 0.  1.
         11   -1    0    0    0    0 -0.00000000000E+00 -0.00000000000E+00 -0.45593999997E+02  0.45594000000E+02  0.51100000000E-03 0. -1.
    9900012    2    1    2    0    0 -0.38616462939E+02  0.10710528154E+02  0.68715888464E+01  0.50528863800E+02  0.30000012007E+02 0.  0.
         12    1    1    2    0    0  0.38616462939E+02 -0.10710528154E+02 -0.68715888464E+01  0.40659136200E+02  0.00000000000E+00 0. -1.
         11    1    3    3    0    0 -0.97293715964E+01 -0.65980071528E+01  0.21178599879E+01  0.11944860871E+02  0.51100000000E-03 0. -1.
        -11    1    3    3    0    0 -0.24350182316E+02  0.46827495152E+01  0.19105060414E+01  0.24869852340E+02  0.51100000000E-03 0.  1.
         12    1    3    3    0    0 -0.45369090267E+01  0.12625785792E+02  0.28432228171E+01  0.13714150588E+02  0.00000000000E+00 0. -1.
</event>
<event>
 7    1  0.2450552E-011  0.5052886E+02  0.7816164E-02  0.1300439E+00
        -11   -1    0    0    0    0  0.00000000000E+00  0.00000000000E+00  0.45593999997E+02  0.45594000000E+02  0.51100000000E-03 0.  1.
         11   -1    0    0    0    0 -0.00000000000E+00 -0.00000000000E+00 -0.45593999997E+02  0.45594000000E+02  0.51100000000E-03 0. -1.
    9900012    2    1    2    0    0  0.51260839257E+01  0.24547012487E+02  0.32005208060E+02  0.50528857099E+02  0.29999991639E+02 0.  0.
         12    1    1    2    0    0 -0.51260839257E+01 -0.24547012487E+02 -0.32005208060E+02  0.40659142901E+02  0.00000000000E+00 0. -1.
         11    1    3    3    0    0 -0.27254312364E+01 -0.12741181158E+01  0.12557465900E+02  0.12912834797E+02  0.51100000000E-03 0. -1.
        -11    1    3    3    0    0 -0.51432127946E+01  0.12417619395E+02  0.67674938306E+01  0.15048218576E+02  0.51100000000E-03 0.  1.
         12    1    3    3    0    0  0.12994727957E+02  0.13403511208E+02  0.12680248329E+02  0.22567803727E+02  0.00000000000E+00 0. -1.
</event>
<event>
 7    1  0.2450552E-011  0.5052884E+02  0.7816164E-02  0.1300439E+00
        -11   -1    0    0    0    0  0.00000000000E+00  0.00000000000E+00  0.45593999997E+02  0.45594000000E+02  0.51100000000E-03 0. -1.
         11   -1    0    0    0    0 -0.00000000000E+00 -0.00000000000E+00 -0.45593999997E+02  0.45594000000E+02  0.51100000000E-03 0.  1.
    9900012    2    1    2    0    0 -0.29188810904E+02 -0.30576627781E+01 -0.28139495920E+02  0.50528840955E+02  0.29999942565E+02 0.  0.
         12    1    1    2    0    0  0.29188810904E+02  0.30576627781E+01  0.28139495920E+02  0.40659159045E+02  0.00000000000E+00 0. -1.
         11    1    3    3    0    0 -0.13898221550E+02  0.30957230597E+01 -0.33367980820E+01  0.14624578121E+02  0.51100000000E-03 0. -1.
        -11    1    3    3    0    0 -0.16980700949E+02  0.23874477894E+01 -0.17951492668E+02  0.24825394275E+02  0.51100000000E-03 0.  1.
        -12    1    3    3    0    0  0.16901115948E+01 -0.85408336272E+01 -0.68512051702E+01  0.11078868558E+02  0.00000000000E+00 0.  1.
</event>
<event>
 7    1  0.2450552E-011  0.5052885E+02  0.7816164E-02  0.1300439E+00
        -11   -1    0    0    0    0  0.00000000000E+00  0.00000000000E+00  0.45593999997E+02  0.45594000000E+02  0.51100000000E-03 0.  1.
         11   -1    0    0    0    0 -0.00000000000E+00 -0.00000000000E+00 -0.45593999997E+02  0.45594000000E+02  0.51100000000E-03 0. -1.
    9900012    2    1    2    0    0  0.32514820344E+01  0.30339390234E+02  0.26872206454E+02  0.50528853244E+02  0.29999979922E+02 0.  0.
         12    1    1    2    0    0 -0.32514820344E+01 -0.30339390234E+02 -0.26872206454E+02  0.40659146756E+02  0.00000000000E+00 0. -1.
         11    1    3    3    0    0 -0.21283439916E+01  0.92389463325E+00  0.59083971628E+00  0.23942684209E+01  0.51100000000E-03 0. -1.
        -11    1    3    3    0    0  0.82198018834E+01  0.25755842358E+02  0.31263246111E+02  0.41331817238E+02  0.51100000000E-03 0.  1.
        -12    1    3    3    0    0 -0.28399758574E+01  0.36596532428E+01 -0.49818793732E+01  0.68027675852E+01  0.00000000000E+00 0.  1.
</event>
<event>
 7    1  0.2450552E-011  0.5052886E+02  0.7816164E-02  0.1300439E+00
        -11   -1    0    0    0    0  0.00000000000E+00  0.00000000000E+00  0.45593999997E+02  0.45594000000E+02  0.51100000000E-03 0.  1.
         11   -1    0    0    0    0 -0.00000000000E+00 -0.00000000000E+00 -0.45593999997E+02  0.45594000000E+02  0.51100000000E-03 0. -1.
    9900012    2    1    2    0    0 -0.58573192753E+00  0.40548200351E+02  0.29437499984E+01  0.50528864524E+02  0.30000014206E+02 0.  0.
         12    1    1    2    0    0  0.58573192753E+00 -0.40548200351E+02 -0.29437499984E+01  0.40659135476E+02  0.00000000000E+00 0. -1.
         11    1    3    3    0    0 -0.22076492307E+01  0.46248375756E+01 -0.15091923157E+01  0.53423308989E+01  0.51100000000E-03 0. -1.
        -11    1    3    3    0    0  0.13187260462E+02  0.27780440156E+02  0.18709908829E+01  0.30808396597E+02  0.51100000000E-03 0.  1.
        -12    1    3    3    0    0 -0.11565343159E+02  0.81429226203E+01  0.25819514312E+01  0.14378137028E+02  0.00000000000E+00 0.  1.
</event>
<event>
 7    1  0.2450552E-011  0.5052887E+02  0.7816164E-02  0.1300439E+00
        -11   -1    0    0    0    0  0.00000000000E+00  0.00000000000E+00  0.45593999997E+02  0.45594000000E+02  0.51100000000E-03 0. -1.
         11   -1    0    0    0    0 -0.00000000000E+00 -0.00000000000E+00 -0.45593999997E+02  0.45594000000E+02  0.51100000000E-03 0.  1.
    9900012    2    1    2    0    0  0.23102577479E+02 -0.24873849061E+02 -0.22376940911E+02  0.50528868949E+02  0.30000027659E+02 0.  0.
         12    1    1    2    0    0 -0.23102577479E+02  0.24873849061E+02  0.22376940911E+02  0.40659131051E+02  0.00000000000E+00 0. -1.
         11    1    3    3    0    0  0.95518463501E+00 -0.15647727214E+02 -0.91354166362E+01  0.18144409112E+02  0.51100000000E-03 0. -1.
        -11    1    3    3    0    0  0.26005878560E+01  0.36520390093E+01  0.14928348122E+01  0.47253573579E+01  0.51100000000E-03 0.  1.
        -12    1    3    3    0    0  0.19546804988E+02 -0.12878160856E+02 -0.14734359087E+02  0.27659102479E+02  0.00000000000E+00 0.  1.
</event>
<event>
 7    1  0.2450552E-011  0.5052886E+02  0.7816164E-02  0.1300439E+00
        -11   -1    0    0    0    0  0.00000000000E+00  0.00000000000E+00  0.45593999997E+02  0.45594000000E+02  0.51100000000E-03 0.  1.
         11   -1    0    0    0    0 -0.00000000000E+00 -0.00000000000E+00 -0.45593999997E+02  0.45594000000E+02  0.51100000000E-03 0. -1.
    9900012    2    1    2    0    0  0.82394486110E+01 -0.34637354261E+02  0.19634937318E+02  0.50528860965E+02  0.30000003389E+02 0.  0.
         12    1    1    2    0    0 -0.82394486110E+01  0.34637354261E+02 -0.19634937318E+02  0.40659139035E+02  0.00000000000E+00 0. -1.
         11    1    3    3    0    0  0.90314682416E+01 -0.14040480575E+02 -0.12009962665E+01  0.16737529855E+02  0.51100000000E-03 0. -1.
        -11    1    3    3    0    0  0.79873620476E+01 -0.10721787465E+02  0.11127904151E+02  0.17394968525E+02  0.51100000000E-03 0.  1.
        -12    1    3    3    0    0 -0.87793816781E+01 -0.98750862204E+01  0.97080294338E+01  0.16396362584E+02  0.00000000000E+00 0.  1.
</event>
<event>
 7    1  0.2450552E-011  0.5052886E+02  0.7816164E-02  0.1300439E+00
        -11   -1    0    0    0    0  0.00000000000E+00  0.00000000000E+00  0.45593999997E+02  0.45594000000E+02  0.51100000000E-03 0.  1.
         11   -1    0    0    0    0 -0.00000000000E+00 -0.00000000000E+00 -0.45593999997E+02  0.45594000000E+02  0.51100000000E-03 0. -1.
    9900012    2    1    2    0    0  0.29143412613E+02  0.26132333167E+02  0.10996753136E+02  0.50528856932E+02  0.29999991130E+02 0.  0.
         12    1    1    2    0    0 -0.29143412613E+02 -0.26132333167E+02 -0.10996753136E+02  0.40659143068E+02  0.00000000000E+00 0. -1.
         11    1    3    3    0    0 -0.40987461033E+00  0.51612311995E+00  0.52385268930E+01  0.52798242907E+01  0.51100000000E-03 0. -1.
        -11    1    3    3    0    0  0.12523513817E+02 -0.14439726617E+01  0.40078948472E+01  0.13228252973E+02  0.51100000000E-03 0.  1.
         12    1    3    3    0    0  0.17029773407E+02  0.27060182709E+02  0.17503313958E+01  0.32020779668E+02  0.00000000000E+00 0. -1.
</event>
<event>
 7    1  0.2450552E-011  0.5052886E+02  0.7816164E-02  0.1300439E+00
        -11   -1    0    0    0    0  0.00000000000E+00  0.00000000000E+00  0.45593999997E+02  0.45594000000E+02  0.51100000000E-03 0.  1.
         11   -1    0    0    0    0 -0.00000000000E+00 -0.00000000000E+00 -0.45593999997E+02  0.45594000000E+02  0.51100000000E-03 0. -1.
    9900012    2    1    2    0    0  0.79662958214E+01  0.39861823366E+02  0.85936470128E+00  0.50528864017E+02  0.30000012665E+02 0.  0.
         12    1    1    2    0    0 -0.79662958214E+01 -0.39861823366E+02 -0.85936470128E+00  0.40659135983E+02  0.00000000000E+00 0. -1.
         11    1    3    3    0    0 -0.41835108505E+01  0.22272693374E+02 -0.21383512646E+01  0.22762846473E+02  0.51100000000E-03 0. -1.
        -11    1    3    3    0    0 -0.21819885155E+01  0.48120247018E+00  0.48818357691E+01  0.53688872625E+01  0.51100000000E-03 0.  1.
         12    1    3    3    0    0  0.14331795187E+02  0.17107927522E+02 -0.18841198033E+01  0.22397130281E+02  0.00000000000E+00 0. -1.
</event>
<event>
 7    1  0.2450552E-011  0.5052885E+02  0.7816164E-02  0.1300439E+00
        -11   -1    0    0    0    0  0.00000000000E+00  0.00000000000E+00  0.45593999997E+02  0.45594000000E+02  0.51100000000E-03 0.  1.
         11   -1    0    0    0    0 -0.00000000000E+00 -0.00000000000E+00 -0.45593999997E+02  0.45594000000E+02  0.51100000000E-03 0. -1.
    9900012    2    1    2    0    0  0.98183757838E+01  0.24165780230E+02  0.31189443158E+02  0.50528846028E+02  0.29999957988E+02 0.  0.
         12    1    1    2    0    0 -0.98183757838E+01 -0.24165780230E+02 -0.31189443158E+02  0.40659153972E+02  0.00000000000E+00 0. -1.
         11    1    3    3    0    0 -0.61913234337E+01  0.13567114054E+01  0.58572562198E+00  0.63652357744E+01  0.51100000000E-03 0.  1.
        -11    1    3    3    0    0  0.27230372697E+01  0.90518063934E+01  0.18529801200E+01  0.96324278633E+01  0.51100000000E-03 0. -1.
        -12    1    3    3    0    0  0.13286661948E+02  0.13757262431E+02  0.28750737416E+02  0.34531182391E+02  0.00000000000E+00 0.  1.
</event>
<event>
 7    1  0.2450552E-011  0.5052880E+02  0.7816164E-02  0.1300439E+00
        -11   -1    0    0    0    0  0.00000000000E+00  0.00000000000E+00  0.45593999997E+02  0.45594000000E+02  0.51100000000E-03 0.  1.
         11   -1    0    0    0    0 -0.00000000000E+00 -0.00000000000E+00 -0.45593999997E+02  0.45594000000E+02  0.51100000000E-03 0. -1.
    9900012    2    1    2    0    0  0.17319579230E+02  0.19236776476E+02  0.31355211374E+02  0.50528798407E+02  0.29999813238E+02 0.  0.
         12    1    1    2    0    0 -0.17319579230E+02 -0.19236776476E+02 -0.31355211374E+02  0.40659201593E+02  0.00000000000E+00 0. -1.
         11    1    3    3    0    0  0.61028830172E+01 -0.26188068180E+01  0.34859289047E+01  0.75003353832E+01  0.51100000000E-03 0. -1.
        -11    1    3    3    0    0  0.15545345816E+02  0.78761707099E+01  0.19570687753E+02  0.26205031215E+02  0.51100000000E-03 0.  1.
         12    1    3    3    0    0 -0.43286496032E+01  0.13979412584E+02  0.82985947160E+01  0.16823431809E+02  0.00000000000E+00 0. -1.
</event>
<event>
 7    1  0.2450552E-011  0.5052882E+02  0.7816164E-02  0.1300439E+00
        -11   -1    0    0    0    0  0.00000000000E+00  0.00000000000E+00  0.45593999997E+02  0.45594000000E+02  0.51100000000E-03 0.  1.
         11   -1    0    0    0    0 -0.00000000000E+00 -0.00000000000E+00 -0.45593999997E+02  0.45594000000E+02  0.51100000000E-03 0. -1.
    9900012    2    1    2    0    0 -0.60270075868E+00  0.40082500707E+02  0.67969425944E+01  0.50528824655E+02  0.29999893021E+02 0.  0.
         12    1    1    2    0    0  0.60270075868E+00 -0.40082500707E+02 -0.67969425944E+01  0.40659175345E+02  0.00000000000E+00 0. -1.
         11    1    3    3    0    0 -0.21137997640E+01  0.26776989118E+02  0.37516139163E+00  0.26862912016E+02  0.51100000000E-03 0. -1.
        -11    1    3    3    0    0  0.71042506843E+01  0.25654769241E+01 -0.31963559982E+01  0.82017523470E+01  0.51100000000E-03 0.  1.
         12    1    3    3    0    0 -0.55931516790E+01  0.10740034665E+02  0.96181372009E+01  0.15464160291E+02  0.00000000000E+00 0. -1.
</event>
<event>
 7    1  0.2450552E-011  0.5052886E+02  0.7816164E-02  0.1300439E+00
        -11   -1    0    0    0    0  0.00000000000E+00  0.00000000000E+00  0.45593999997E+02  0.45594000000E+02  0.51100000000E-03 0.  1.
         11   -1    0    0    0    0 -0.00000000000E+00 -0.00000000000E+00 -0.45593999997E+02  0.45594000000E+02  0.51100000000E-03 0. -1.
    9900012    2    1    2    0    0  0.11354608609E+02 -0.29167178655E+02  0.25952155760E+02  0.50528857905E+02  0.29999994087E+02 0.  0.
         12    1    1    2    0    0 -0.11354608609E+02  0.29167178655E+02 -0.25952155760E+02  0.40659142095E+02  0.00000000000E+00 0. -1.
         11    1    3    3    0    0  0.17522562239E+01  0.21891173396E+01 -0.37508699321E+01  0.46831252502E+01  0.51100000000E-03 0. -1.
        -11    1    3    3    0    0 -0.25969532848E+01 -0.92007702553E+01  0.68806172208E+01  0.11778846856E+02  0.51100000000E-03 0.  1.
        -12    1    3    3    0    0  0.12199305670E+02 -0.22155525739E+02  0.22822408471E+02  0.34066885799E+02  0.00000000000E+00 0.  1.
</event>
<event>
 7    1  0.2769211E-011  0.5052886E+02  0.7816164E-02  0.1300439E+00
        -11   -1    0    0    0    0  0.00000000000E+00  0.00000000000E+00  0.45593999997E+02  0.45594000000E+02  0.51100000000E-03 0. -1.
         11   -1    0    0    0    0 -0.00000000000E+00 -0.00000000000E+00 -0.45593999997E+02  0.45594000000E+02  0.51100000000E-03 0.  1.
    9900012    2    1    2    0    0  0.31987442333E+02  0.12175880320E+02 -0.21948052437E+02  0.50528861614E+02  0.30000005361E+02 0.  0.
         12    1    1    2    0    0 -0.31987442333E+02 -0.12175880320E+02  0.21948052437E+02  0.40659138386E+02  0.00000000000E+00 0. -1.
         11    1    3    3    0    0  0.27552727726E+02  0.37261254775E+01 -0.18986421780E+02  0.33667804034E+02  0.51100000000E-03 0. -1.
        -11    1    3    3    0    0  0.81721345663E+01  0.83838014849E+01 -0.48506738529E+01  0.12672842925E+02  0.51100000000E-03 0.  1.
         12    1    3    3    0    0 -0.37374199590E+01  0.65953357269E-01  0.18890431966E+01  0.41882146547E+01  0.00000000000E+00 0. -1.
</event>
<event>
 7    1  0.2450552E-011  0.5052887E+02  0.7816164E-02  0.1300439E+00
        -11   -1    0    0    0    0  0.00000000000E+00  0.00000000000E+00  0.45593999997E+02  0.45594000000E+02  0.51100000000E-03 0. -1.
         11   -1    0    0    0    0 -0.00000000000E+00 -0.00000000000E+00 -0.45593999997E+02  0.45594000000E+02  0.51100000000E-03 0.  1.
    9900012    2    1    2    0    0 -0.23331512270E+02 -0.26597913419E+02  0.20033883077E+02  0.50528868994E+02  0.30000027794E+02 0.  0.
         12    1    1    2    0    0  0.23331512270E+02  0.26597913419E+02 -0.20033883077E+02  0.40659131006E+02  0.00000000000E+00 0. -1.
         11    1    3    3    0    0  0.31588495067E+01 -0.16915370339E+02  0.83095282706E+01  0.19109064452E+02  0.51100000000E-03 0. -1.
        -11    1    3    3    0    0 -0.90860590870E+01  0.34220048670E-01  0.50726934186E+01  0.10406241374E+02  0.51100000000E-03 0.  1.
        -12    1    3    3    0    0 -0.17404302689E+02 -0.97167631284E+01  0.66516613882E+01  0.21013563168E+02  0.00000000000E+00 0.  1.
</event>
<event>
 7    1  0.2450552E-011  0.5052881E+02  0.7816164E-02  0.1300439E+00
        -11   -1    0    0    0    0  0.00000000000E+00  0.00000000000E+00  0.45593999997E+02  0.45594000000E+02  0.51100000000E-03 0.  1.
         11   -1    0    0    0    0 -0.00000000000E+00 -0.00000000000E+00 -0.45593999997E+02  0.45594000000E+02  0.51100000000E-03 0. -1.
    9900012    2    1    2    0    0 -0.29172887352E+02  0.28232860938E+02  0.22400135274E+01  0.50528813415E+02  0.29999858856E+02 0.  0.
         12    1    1    2    0    0  0.29172887352E+02 -0.28232860938E+02 -0.22400135274E+01  0.40659186585E+02  0.00000000000E+00 0. -1.
         11    1    3    3    0    0 -0.85138647642E+01  0.20488593889E+02  0.52344023200E+01  0.22796213297E+02  0.51100000000E-03 0. -1.
        -11    1    3    3    0    0 -0.11041230428E+02  0.99057759542E+01  0.43289922828E+01  0.15452292421E+02  0.51100000000E-03 0.  1.
         12    1    3    3    0    0 -0.96177921592E+01 -0.21615089050E+01 -0.73233810754E+01  0.12280307697E+02  0.00000000000E+00 0. -1.
</event>
<event>
 7    1  0.2450552E-011  0.5052891E+02  0.7816164E-02  0.1300439E+00
        -11   -1    0    0    0    0  0.00000000000E+00  0.00000000000E+00  0.45593999997E+02  0.45594000000E+02  0.51100000000E-03 0.  1.
         11   -1    0    0    0    0 -0.00000000000E+00 -0.00000000000E+00 -0.45593999997E+02  0.45594000000E+02  0.51100000000E-03 0. -1.
    9900012    2    1    2    0    0  0.10428383793E+01 -0.39183449646E+02  0.10804230547E+02  0.50528909556E+02  0.30000151085E+02 0.  0.
         12    1    1    2    0    0 -0.10428383793E+01  0.39183449646E+02 -0.10804230547E+02  0.40659090444E+02  0.00000000000E+00 0. -1.
         11    1    3    3    0    0 -0.54295332132E+01 -0.80864235527E+01  0.63382290846E+01  0.11620809997E+02  0.51100000000E-03 0. -1.
        -11    1    3    3    0    0  0.47960630226E+01 -0.19779328248E+02  0.13420867260E+02  0.24379165792E+02  0.51100000000E-03 0.  1.
         12    1    3    3    0    0  0.16763085698E+01 -0.11317697846E+02 -0.89548657978E+01  0.14528933767E+02  0.00000000000E+00 0. -1.
</event>
<event>
 7    1  0.2450552E-011  0.5052886E+02  0.7816164E-02  0.1300439E+00
        -11   -1    0    0    0    0  0.00000000000E+00  0.00000000000E+00  0.45593999997E+02  0.45594000000E+02  0.51100000000E-03 0.  1.
         11   -1    0    0    0    0 -0.00000000000E+00 -0.00000000000E+00 -0.45593999997E+02  0.45594000000E+02  0.51100000000E-03 0. -1.
    9900012    2    1    2    0    0 -0.33344425859E+02  0.82588397762E+00 -0.23251512704E+02  0.50528860029E+02  0.30000000543E+02 0.  0.
         12    1    1    2    0    0  0.33344425859E+02 -0.82588397762E+00  0.23251512704E+02  0.40659139971E+02  0.00000000000E+00 0. -1.
         11    1    3    3    0    0 -0.14881585497E+01 -0.61824183555E+01 -0.11016901232E+02  0.12720417666E+02  0.51100000000E-03 0. -1.
        -11    1    3    3    0    0 -0.26529369776E+01  0.17245895564E+01  0.30771981418E+01  0.44137775670E+01  0.51100000000E-03 0.  1.
         12    1    3    3    0    0 -0.29203330331E+02  0.52837127767E+01 -0.15311809614E+02  0.33394664795E+02  0.00000000000E+00 0. -1.
</event>
<event>
 7    1  0.2450552E-011  0.5052886E+02  0.7816164E-02  0.1300439E+00
        -11   -1    0    0    0    0  0.00000000000E+00  0.00000000000E+00  0.45593999997E+02  0.45594000000E+02  0.51100000000E-03 0. -1.
         11   -1    0    0    0    0 -0.00000000000E+00 -0.00000000000E+00 -0.45593999997E+02  0.45594000000E+02  0.51100000000E-03 0.  1.
    9900012    2    1    2    0    0  0.22413635643E+02 -0.33807478396E+02  0.28016184865E+01  0.50528859276E+02  0.29999998256E+02 0.  0.
         12    1    1    2    0    0 -0.22413635643E+02  0.33807478396E+02 -0.28016184865E+01  0.40659140724E+02  0.00000000000E+00 0. -1.
         11    1    3    3    0    0  0.82120611556E+01 -0.43907345494E+01 -0.39866157323E+01  0.10129639854E+02  0.51100000000E-03 0. -1.
        -11    1    3    3    0    0  0.14847910019E+02 -0.13105951615E+02 -0.48030326754E+01  0.20378800819E+02  0.51100000000E-03 0.  1.
        -12    1    3    3    0    0 -0.64633553154E+00 -0.16310792232E+02  0.11591266894E+02  0.20020418604E+02  0.00000000000E+00 0.  1.
</event>
<event>
 7    1  0.2450552E-011  0.5052887E+02  0.7816164E-02  0.1300439E+00
        -11   -1    0    0    0    0  0.00000000000E+00  0.00000000000E+00  0.45593999997E+02  0.45594000000E+02  0.51100000000E-03 0.  1.
         11   -1    0    0    0    0 -0.00000000000E+00 -0.00000000000E+00 -0.45593999997E+02  0.45594000000E+02  0.51100000000E-03 0. -1.
    9900012    2    1    2    0    0 -0.19173197318E+02 -0.25781208071E+02  0.24917521866E+02  0.50528867189E+02  0.30000022306E+02 0.  0.
         12    1    1    2    0    0  0.19173197318E+02  0.25781208071E+02 -0.24917521866E+02  0.40659132811E+02  0.00000000000E+00 0. -1.
         11    1    3    3    0    0 -0.13436331251E+02 -0.72770426757E+01  0.59611227553E+01  0.16401991719E+02  0.51100000000E-03 0. -1.
        -11    1    3    3    0    0 -0.12179284529E+02 -0.52182068348E+01  0.11691977979E+02  0.17671078165E+02  0.51100000000E-03 0.  1.
        -12    1    3    3    0    0  0.64424184622E+01 -0.13285958561E+02  0.72644211324E+01  0.16455797304E+02  0.00000000000E+00 0.  1.
</event>
<event>
 7    1  0.2450552E-011  0.5052886E+02  0.7816164E-02  0.1300439E+00
        -11   -1    0    0    0    0  0.00000000000E+00  0.00000000000E+00  0.45593999997E+02  0.45594000000E+02  0.51100000000E-03 0.  1.
         11   -1    0    0    0    0 -0.00000000000E+00 -0.00000000000E+00 -0.45593999997E+02  0.45594000000E+02  0.51100000000E-03 0. -1.
    9900012    2    1    2    0    0  0.17837626396E+02 -0.20934164826E+02  0.29945715841E+02  0.50528855030E+02  0.29999985350E+02 0.  0.
         12    1    1    2    0    0 -0.17837626396E+02  0.20934164826E+02 -0.29945715841E+02  0.40659144970E+02  0.00000000000E+00 0. -1.
         11    1    3    3    0    0  0.38782250723E+01  0.66341965932E+01  0.99587865991E+00  0.77488688668E+01  0.51100000000E-03 0. -1.
        -11    1    3    3    0    0  0.36536598202E+01 -0.45224890042E+01  0.28730893758E+01  0.64851198676E+01  0.51100000000E-03 0.  1.
        -12    1    3    3    0    0  0.10305741503E+02 -0.23045872415E+02  0.26076747806E+02  0.36294866296E+02  0.00000000000E+00 0.  1.
</event>
<event>
 7    1  0.2450552E-011  0.5052888E+02  0.7816164E-02  0.1300439E+00
        -11   -1    0    0    0    0  0.00000000000E+00  0.00000000000E+00  0.45593999997E+02  0.45594000000E+02  0.51100000000E-03 0. -1.
         11   -1    0    0    0    0 -0.00000000000E+00 -0.00000000000E+00 -0.45593999997E+02  0.45594000000E+02  0.51100000000E-03 0.  1.
    9900012    2    1    2    0    0 -0.38672125344E+02 -0.10069799780E+02 -0.74986668392E+01  0.50528878630E+02  0.30000057082E+02 0.  0.
         12    1    1    2    0    0  0.38672125344E+02  0.10069799780E+02  0.74986668392E+01  0.40659121370E+02  0.00000000000E+00 0. -1.
         11    1    3    3    0    0 -0.19878709120E+02  0.68351439073E+01 -0.50008664079E+01  0.21607659142E+02  0.51100000000E-03 0. -1.
        -11    1    3    3    0    0 -0.12456722335E+02 -0.63616196305E+01  0.45940613708E+01  0.14722280251E+02  0.51100000000E-03 0.  1.
        -12    1    3    3    0    0 -0.63366938896E+01 -0.10543324057E+02 -0.70918618021E+01  0.14198939237E+02  0.00000000000E+00 0.  1.
</event>
<event>
 7    1  0.2450552E-011  0.5052886E+02  0.7816164E-02  0.1300439E+00
        -11   -1    0    0    0    0  0.00000000000E+00  0.00000000000E+00  0.45593999997E+02  0.45594000000E+02  0.51100000000E-03 0.  1.
         11   -1    0    0    0    0 -0.00000000000E+00 -0.00000000000E+00 -0.45593999997E+02  0.45594000000E+02  0.51100000000E-03 0. -1.
    9900012    2    1    2    0    0 -0.17434901584E+02  0.23089137452E+02  0.28567147554E+02  0.50528856122E+02  0.29999988670E+02 0.  0.
         12    1    1    2    0    0  0.17434901584E+02 -0.23089137452E+02 -0.28567147554E+02  0.40659143878E+02  0.00000000000E+00 0. -1.
         11    1    3    3    0    0 -0.53432237181E+01  0.67485214566E+00  0.88530740678E+01  0.10362547266E+02  0.51100000000E-03 0.  1.
        -11    1    3    3    0    0 -0.63613751833E+01  0.26945420322E+02  0.15347647964E+02  0.31655537728E+02  0.51100000000E-03 0. -1.
         12    1    3    3    0    0 -0.57303026827E+01 -0.45311350162E+01  0.43664255217E+01  0.85107711288E+01  0.00000000000E+00 0. -1.
</event>
<event>
 7    1  0.2450552E-011  0.5052884E+02  0.7816164E-02  0.1300439E+00
        -11   -1    0    0    0    0  0.00000000000E+00  0.00000000000E+00  0.45593999997E+02  0.45594000000E+02  0.51100000000E-03 0.  1.
         11   -1    0    0    0    0 -0.00000000000E+00 -0.00000000000E+00 -0.45593999997E+02  0.45594000000E+02  0.51100000000E-03 0. -1.
    9900012    2    1    2    0    0  0.11197398938E+02  0.27483965528E+02  0.27792395931E+02  0.50528838969E+02  0.29999936531E+02 0.  0.
         12    1    1    2    0    0 -0.11197398938E+02 -0.27483965528E+02 -0.27792395931E+02  0.40659161031E+02  0.00000000000E+00 0. -1.
         11    1    3    3    0    0  0.11258669234E+01  0.26069058904E+02  0.23441645004E+02  0.35076689257E+02  0.51100000000E-03 0. -1.
        -11    1    3    3    0    0  0.75925854791E+00 -0.36966072905E+01  0.28385529266E+01  0.47221564968E+01  0.51100000000E-03 0.  1.
        -12    1    3    3    0    0  0.93122734668E+01  0.51115139140E+01  0.15121980011E+01  0.10729993216E+02  0.00000000000E+00 0.  1.
</event>
<event>
 7    1  0.2450552E-011  0.5052882E+02  0.7816164E-02  0.1300439E+00
        -11   -1    0    0    0    0  0.00000000000E+00  0.00000000000E+00  0.45593999997E+02  0.45594000000E+02  0.51100000000E-03 0.  1.
         11   -1    0    0    0    0 -0.00000000000E+00 -0.00000000000E+00 -0.45593999997E+02  0.45594000000E+02  0.51100000000E-03 0. -1.
    9900012    2    1    2    0    0  0.26039737300E+02 -0.11344379978E+02  0.29093064117E+02  0.50528815853E+02  0.29999866267E+02 0.  0.
         12    1    1    2    0    0 -0.26039737300E+02  0.11344379978E+02 -0.29093064117E+02  0.40659184147E+02  0.00000000000E+00 0. -1.
         11    1    3    3    0    0  0.92839523484E+01 -0.74861650456E+01  0.27752039937E+02  0.30206127842E+02  0.51100000000E-03 0. -1.
        -11    1    3    3    0    0  0.15555074120E+02 -0.15552635907E+01  0.44672353623E+01  0.16258393763E+02  0.51100000000E-03 0.  1.
        -12    1    3    3    0    0  0.12007108324E+01 -0.23029513417E+01 -0.31262111819E+01  0.40642942486E+01  0.00000000000E+00 0.  1.
</event>
<event>
 7    1  0.2450552E-011  0.5052886E+02  0.7816164E-02  0.1300439E+00
        -11   -1    0    0    0    0  0.00000000000E+00  0.00000000000E+00  0.45593999997E+02  0.45594000000E+02  0.51100000000E-03 0.  1.
         11   -1    0    0    0    0 -0.00000000000E+00 -0.00000000000E+00 -0.45593999997E+02  0.45594000000E+02  0.51100000000E-03 0. -1.
    9900012    2    1    2    0    0 -0.17501601016E+01  0.33350104963E+02  0.23192083083E+02  0.50528864751E+02  0.30000014898E+02 0.  0.
         12    1    1    2    0    0  0.17501601016E+01 -0.33350104963E+02 -0.23192083083E+02  0.40659135249E+02  0.00000000000E+00 0. -1.
         11    1    3    3    0    0 -0.78516950472E+01  0.25253088366E+02  0.13937232370E+02  0.29893377753E+02  0.51100000000E-03 0. -1.
        -11    1    3    3    0    0 -0.21315237509E+01  0.81940701166E+01  0.30197218100E+00  0.84721523851E+01  0.51100000000E-03 0.  1.
         12    1    3    3    0    0  0.82330586964E+01 -0.97053519433E-01  0.89528785327E+01  0.12163334613E+02  0.00000000000E+00 0. -1.
</event>
<event>
 7    1  0.2450552E-011  0.5052885E+02  0.7816164E-02  0.1300439E+00
        -11   -1    0    0    0    0  0.00000000000E+00  0.00000000000E+00  0.45593999997E+02  0.45594000000E+02  0.51100000000E-03 0.  1.
         11   -1    0    0    0    0 -0.00000000000E+00 -0.00000000000E+00 -0.45593999997E+02  0.45594000000E+02  0.51100000000E-03 0. -1.
    9900012    2    1    2    0    0 -0.71163423444E+01 -0.29824633653E+02  0.26702344500E+02  0.50528852164E+02  0.29999976638E+02 0.  0.
         12    1    1    2    0    0  0.71163423444E+01  0.29824633653E+02 -0.26702344500E+02  0.40659147836E+02  0.00000000000E+00 0. -1.
         11    1    3    3    0    0 -0.88439544084E+01 -0.97542812657E+01  0.15039822422E+02  0.19988941726E+02  0.51100000000E-03 0. -1.
        -11    1    3    3    0    0  0.15238198131E+01 -0.21107869402E+02  0.15710028047E+02  0.26356577149E+02  0.51100000000E-03 0.  1.
         12    1    3    3    0    0  0.20379225096E+00  0.10375170140E+01 -0.40475059691E+01  0.41833332889E+01  0.00000000000E+00 0. -1.
</event>
<event>
 7    1  0.2450552E-011  0.5052886E+02  0.7816164E-02  0.1300439E+00
        -11   -1    0    0    0    0  0.00000000000E+00  0.00000000000E+00  0.45593999997E+02  0.45594000000E+02  0.51100000000E-03 0. -1.
         11   -1    0    0    0    0 -0.00000000000E+00 -0.00000000000E+00 -0.45593999997E+02  0.45594000000E+02  0.51100000000E-03 0.  1.
    9900012    2    1    2    0    0  0.15790074928E+02  0.37384845415E+02 -0.24925344671E+01  0.50528857596E+02  0.29999993150E+02 0.  0.
         12    1    1    2    0    0 -0.15790074928E+02 -0.37384845415E+02  0.24925344671E+01  0.40659142404E+02  0.00000000000E+00 0. -1.
         11    1    3    3    0    0  0.65732139152E+01  0.48265351236E+01 -0.77697999526E+01  0.11263763760E+02  0.51100000000E-03 0. -1.
        -11    1    3    3    0    0  0.88819868327E+01  0.30912727294E+02 -0.15829179398E+01  0.32202360602E+02  0.51100000000E-03 0.  1.
         12    1    3    3    0    0  0.33487417974E+00  0.16455829971E+01  0.68601834253E+01  0.70627332347E+01  0.00000000000E+00 0. -1.
</event>
<event>
 7    1  0.2450552E-011  0.5052886E+02  0.7816164E-02  0.1300439E+00
        -11   -1    0    0    0    0  0.00000000000E+00  0.00000000000E+00  0.45593999997E+02  0.45594000000E+02  0.51100000000E-03 0. -1.
         11   -1    0    0    0    0 -0.00000000000E+00 -0.00000000000E+00 -0.45593999997E+02  0.45594000000E+02  0.51100000000E-03 0.  1.
    9900012    2    1    2    0    0  0.12314312554E+02 -0.36473678751E+02  0.13084116097E+02  0.50528860445E+02  0.30000001810E+02 0.  0.
         12    1    1    2    0    0 -0.12314312554E+02  0.36473678751E+02 -0.13084116097E+02  0.40659139555E+02  0.00000000000E+00 0. -1.
         11    1    3    3    0    0  0.28518505320E+01  0.41297595677E+01 -0.22471285529E+01  0.54988682961E+01  0.51100000000E-03 0. -1.
        -11    1    3    3    0    0  0.57621031174E+01 -0.10587935623E+02  0.52887717328E+01  0.13163484333E+02  0.51100000000E-03 0.  1.
        -12    1    3    3    0    0  0.37003589043E+01 -0.30015502696E+02  0.10042472917E+02  0.31866507816E+02  0.00000000000E+00 0.  1.
</event>
<event>
 7    1  0.2450552E-011  0.5052887E+02  0.7816164E-02  0.1300439E+00
        -11   -1    0    0    0    0  0.00000000000E+00  0.00000000000E+00  0.45593999997E+02  0.45594000000E+02  0.51100000000E-03 0. -1.
         11   -1    0    0    0    0 -0.00000000000E+00 -0.00000000000E+00 -0.45593999997E+02  0.45594000000E+02  0.51100000000E-03 0.  1.
    9900012    2    1    2    0    0 -0.38418340395E+02  0.12980435458E+02  0.29503580663E+01  0.50528865773E+02  0.30000018004E+02 0.  0.
         12    1    1    2    0    0  0.38418340395E+02 -0.12980435458E+02 -0.29503580663E+01  0.40659134227E+02  0.00000000000E+00 0. -1.
         11    1    3    3    0    0 -0.19486902767E+02 -0.53801647349E+00  0.14484299339E+02  0.24286287670E+02  0.51100000000E-03 0. -1.
        -11    1    3    3    0    0 -0.37746662764E+01  0.98364281504E+00 -0.20610443291E+01  0.44117527892E+01  0.51100000000E-03 0.  1.
         12    1    3    3    0    0 -0.15156771351E+02  0.12534809117E+02 -0.94728969435E+01  0.21830825314E+02  0.00000000000E+00 0. -1.
</event>
<event>
 7    1  0.2450552E-011  0.5052885E+02  0.7816164E-02  0.1300439E+00
        -11   -1    0    0    0    0  0.00000000000E+00  0.00000000000E+00  0.45593999997E+02  0.45594000000E+02  0.51100000000E-03 0.  1.
         11   -1    0    0    0    0 -0.00000000000E+00 -0.00000000000E+00 -0.45593999997E+02  0.45594000000E+02  0.51100000000E-03 0. -1.
    9900012    2    1    2    0    0  0.19335186696E+02 -0.95862963816E+00  0.35754690960E+02  0.50528851693E+02  0.29999975208E+02 0.  0.
         12    1    1    2    0    0 -0.19335186696E+02  0.95862963816E+00 -0.35754690960E+02  0.40659148307E+02  0.00000000000E+00 0. -1.
         11    1    3    3    0    0  0.12487476560E+02  0.29171374915E+01  0.56980079996E+01  0.14032606936E+02  0.51100000000E-03 0. -1.
        -11    1    3    3    0    0  0.75122957262E+01 -0.24556316138E+01  0.16847675348E+01  0.80810367904E+01  0.51100000000E-03 0.  1.
        -12    1    3    3    0    0 -0.66458559074E+00 -0.14201355159E+01  0.28371915426E+02  0.28415207967E+02  0.00000000000E+00 0.  1.
</event>
<event>
 7    1  0.2450552E-011  0.5052886E+02  0.7816164E-02  0.1300439E+00
        -11   -1    0    0    0    0  0.00000000000E+00  0.00000000000E+00  0.45593999997E+02  0.45594000000E+02  0.51100000000E-03 0.  1.
         11   -1    0    0    0    0 -0.00000000000E+00 -0.00000000000E+00 -0.45593999997E+02  0.45594000000E+02  0.51100000000E-03 0. -1.
    9900012    2    1    2    0    0 -0.15964098559E+02  0.35490110982E+02 -0.11779853917E+02  0.50528863528E+02  0.30000011181E+02 0.  0.
         12    1    1    2    0    0  0.15964098559E+02 -0.35490110982E+02  0.11779853917E+02  0.40659136472E+02  0.00000000000E+00 0. -1.
         11    1    3    3    0    0  0.77082798304E+01  0.16166517536E+02 -0.94138721153E+00  0.17934884369E+02  0.51100000000E-03 0. -1.
        -11    1    3    3    0    0 -0.30874260740E+01  0.41161727813E+01 -0.18947338591E+01  0.54831646688E+01  0.51100000000E-03 0.  1.
         12    1    3    3    0    0 -0.20584952316E+02  0.15207420664E+02 -0.89437328461E+01  0.27110814490E+02  0.00000000000E+00 0. -1.
</event>
<event>
 7    1  0.2450552E-011  0.5052886E+02  0.7816164E-02  0.1300439E+00
        -11   -1    0    0    0    0  0.00000000000E+00  0.00000000000E+00  0.45593999997E+02  0.45594000000E+02  0.51100000000E-03 0.  1.
         11   -1    0    0    0    0 -0.00000000000E+00 -0.00000000000E+00 -0.45593999997E+02  0.45594000000E+02  0.51100000000E-03 0. -1.
    9900012    2    1    2    0    0  0.18274876598E+02  0.36315945199E+02 -0.58868266318E+00  0.50528861573E+02  0.30000005236E+02 0.  0.
         12    1    1    2    0    0 -0.18274876598E+02 -0.36315945199E+02  0.58868266318E+00  0.40659138427E+02  0.00000000000E+00 0. -1.
         11    1    3    3    0    0  0.79685234633E+01  0.61407046960E+01 -0.96360496075E+01  0.13930508700E+02  0.51100000000E-03 0. -1.
        -11    1    3    3    0    0  0.81943228591E+01  0.22458448254E+02 -0.78826572440E+00  0.23919661122E+02  0.51100000000E-03 0.  1.
         12    1    3    3    0    0  0.21120302759E+01  0.77167922492E+01  0.98356326688E+01  0.12678691750E+02  0.00000000000E+00 0. -1.
</event>
<event>
 7    1  0.2450552E-011  0.5052886E+02  0.7816164E-02  0.1300439E+00
        -11   -1    0    0    0    0  0.00000000000E+00  0.00000000000E+00  0.45593999997E+02  0.45594000000E+02  0.51100000000E-03 0.  1.
         11   -1    0    0    0    0 -0.00000000000E+00 -0.00000000000E+00 -0.45593999997E+02  0.45594000000E+02  0.51100000000E-03 0. -1.
    9900012    2    1    2    0    0  0.28672173029E+02 -0.17026681950E+02  0.23262942275E+02  0.50528857268E+02  0.29999992150E+02 0.  0.
         12    1    1    2    0    0 -0.28672173029E+02  0.17026681950E+02 -0.23262942275E+02  0.40659142732E+02  0.00000000000E+00 0. -1.
         11    1    3    3    0    0  0.59697143025E+01  0.21622891034E+01  0.83296222020E+01  0.10473566217E+02  0.51100000000E-03 0. -1.
        -11    1    3    3    0    0  0.92212366382E+01 -0.17181098397E+02  0.17482636620E+02  0.26189004004E+02  0.51100000000E-03 0.  1.
        -12    1    3    3    0    0  0.13481222088E+02 -0.20078726559E+01 -0.25493165462E+01  0.13866287046E+02  0.00000000000E+00 0.  1.
</event>
<event>
 7    1  0.2450552E-011  0.5052884E+02  0.7816164E-02  0.1300439E+00
        -11   -1    0    0    0    0  0.00000000000E+00  0.00000000000E+00  0.45593999997E+02  0.45594000000E+02  0.51100000000E-03 0.  1.
         11   -1    0    0    0    0 -0.00000000000E+00 -0.00000000000E+00 -0.45593999997E+02  0.45594000000E+02  0.51100000000E-03 0. -1.
    9900012    2    1    2    0    0 -0.13617093683E+02 -0.78865365573E+01  0.37490591024E+02  0.50528842180E+02  0.29999946291E+02 0.  0.
         12    1    1    2    0    0  0.13617093683E+02  0.78865365573E+01 -0.37490591024E+02  0.40659157820E+02  0.00000000000E+00 0. -1.
         11    1    3    3    0    0 -0.15620676153E+01  0.23408420795E+01  0.14164237939E+01  0.31505322568E+01  0.51100000000E-03 0. -1.
        -11    1    3    3    0    0 -0.10073401715E+02 -0.48967404113E+01  0.39282914191E+02  0.40848486341E+02  0.51100000000E-03 0.  1.
         12    1    3    3    0    0 -0.19816243526E+01 -0.53306382256E+01 -0.32087469600E+01  0.65298235827E+01  0.00000000000E+00 0. -1.
</event>
<event>
 7    1  0.2450552E-011  0.5052888E+02  0.7816164E-02  0.1300439E+00
        -11   -1    0    0    0    0  0.00000000000E+00  0.00000000000E+00  0.45593999997E+02  0.45594000000E+02  0.51100000000E-03 0.  1.
         11   -1    0    0    0    0 -0.00000000000E+00 -0.00000000000E+00 -0.45593999997E+02  0.45594000000E+02  0.51100000000E-03 0. -1.
    9900012    2    1    2    0    0  0.16175168679E+01 -0.40373821655E+02  0.45279778761E+01  0.50528875323E+02  0.30000047033E+02 0.  0.
         12    1    1    2    0    0 -0.16175168679E+01  0.40373821655E+02 -0.45279778761E+01  0.40659124677E+02  0.00000000000E+00 0. -1.
         11    1    3    3    0    0  0.11525617891E+02 -0.11649321418E+02  0.25562028820E+01  0.16585557895E+02  0.51100000000E-03 0.  1.
        -11    1    3    3    0    0 -0.76672076873E+01 -0.33709567947E+01  0.13478798238E+01  0.84832896752E+01  0.51100000000E-03 0. -1.
        -12    1    3    3    0    0 -0.22408933353E+01 -0.25353543442E+02  0.62389517027E+00  0.25460027753E+02  0.00000000000E+00 0.  1.
</event>
<event>
 7    1  0.2450552E-011  0.5052886E+02  0.7816164E-02  0.1300439E+00
        -11   -1    0    0    0    0  0.00000000000E+00  0.00000000000E+00  0.45593999997E+02  0.45594000000E+02  0.51100000000E-03 0.  1.
         11   -1    0    0    0    0 -0.00000000000E+00 -0.00000000000E+00 -0.45593999997E+02  0.45594000000E+02  0.51100000000E-03 0. -1.
    9900012    2    1    2    0    0  0.16005695934E+02 -0.27041728065E+02 -0.25801715258E+02  0.50528857494E+02  0.29999992840E+02 0.  0.
         12    1    1    2    0    0 -0.16005695934E+02  0.27041728065E+02  0.25801715258E+02  0.40659142506E+02  0.00000000000E+00 0. -1.
         11    1    3    3    0    0  0.14459277543E+02 -0.12941287799E+02 -0.15688976652E+02  0.24953789805E+02  0.51100000000E-03 0. -1.
        -11    1    3    3    0    0  0.10314278791E+01 -0.27910694643E+01 -0.13447719918E+02  0.13772983826E+02  0.51100000000E-03 0.  1.
        -12    1    3    3    0    0  0.51499051145E+00 -0.11309370801E+02  0.33349813127E+01  0.11802083863E+02  0.00000000000E+00 0.  1.
</event>
<event>
 7    1  0.2450552E-011  0.5052884E+02  0.7816164E-02  0.1300439E+00
        -11   -1    0    0    0    0  0.00000000000E+00  0.00000000000E+00  0.45593999997E+02  0.45594000000E+02  0.51100000000E-03 0.  1.
         11   -1    0    0    0    0 -0.00000000000E+00 -0.00000000000E+00 -0.45593999997E+02  0.45594000000E+02  0.51100000000E-03 0. -1.
    9900012    2    1    2    0    0  0.36424566939E+01  0.20341841986E+02  0.35015838885E+02  0.50528843603E+02  0.29999950615E+02 0.  0.
         12    1    1    2    0    0 -0.36424566939E+01 -0.20341841986E+02 -0.35015838885E+02  0.40659156397E+02  0.00000000000E+00 0. -1.
         11    1    3    3    0    0 -0.22065634629E+01 -0.95638205012E+00  0.10506975467E+01  0.26244150848E+01  0.51100000000E-03 0. -1.
        -11    1    3    3    0    0 -0.61896612150E+01 -0.27535675172E+01  0.53435235607E+01  0.86282839738E+01  0.51100000000E-03 0.  1.
        -12    1    3    3    0    0  0.12038681372E+02  0.24051791553E+02  0.28621617777E+02  0.39276144544E+02  0.00000000000E+00 0.  1.
</event>
<event>
 7    1  0.2450552E-011  0.5052887E+02  0.7816164E-02  0.1300439E+00
        -11   -1    0    0    0    0  0.00000000000E+00  0.00000000000E+00  0.45593999997E+02  0.45594000000E+02  0.51100000000E-03 0.  1.
         11   -1    0    0    0    0 -0.00000000000E+00 -0.00000000000E+00 -0.45593999997E+02  0.45594000000E+02  0.51100000000E-03 0. -1.
    9900012    2    1    2    0    0 -0.37687882385E+02  0.10080001661E+02 -0.11453457386E+02  0.50528873124E+02  0.30000040349E+02 0.  0.
         12    1    1    2    0    0  0.37687882385E+02 -0.10080001661E+02  0.11453457386E+02  0.40659126876E+02  0.00000000000E+00 0. -1.
         11    1    3    3    0    0 -0.46194342523E+01  0.12902117142E+01  0.30820636316E+01  0.57011345862E+01  0.51100000000E-03 0.  1.
        -11    1    3    3    0    0 -0.13119269523E+02  0.16009919934E+02 -0.10582735296E+02  0.23247087037E+02  0.51100000000E-03 0. -1.
         12    1    3    3    0    0 -0.19949178610E+02 -0.72201299868E+01 -0.39527857211E+01  0.21580651501E+02  0.00000000000E+00 0. -1.
</event>
<event>
 7    1  0.2450552E-011  0.5052886E+02  0.7816164E-02  0.1300439E+00
        -11   -1    0    0    0    0  0.00000000000E+00  0.00000000000E+00  0.45593999997E+02  0.45594000000E+02  0.51100000000E-03 0.  1.
         11   -1    0    0    0    0 -0.00000000000E+00 -0.00000000000E+00 -0.45593999997E+02  0.45594000000E+02  0.51100000000E-03 0. -1.
    9900012    2    1    2    0    0  0.26122679512E+01 -0.40521174490E+02  0.20918877196E+01  0.50528861788E+02  0.30000005891E+02 0.  0.
         12    1    1    2    0    0 -0.26122679512E+01  0.40521174490E+02 -0.20918877196E+01  0.40659138212E+02  0.00000000000E+00 0. -1.
         11    1    3    3    0    0  0.63806764792E+01 -0.28752359023E+02 -0.47201214392E+01  0.29827683926E+02  0.51100000000E-03 0. -1.
        -11    1    3    3    0    0  0.39423783984E+01  0.17902375647E+00 -0.15095215617E+01  0.42252872740E+01  0.51100000000E-03 0.  1.
        -12    1    3    3    0    0 -0.77107869264E+01 -0.11947839223E+02  0.83215307205E+01  0.16475890588E+02  0.00000000000E+00 0.  1.
</event>
<event>
 7    1  0.2450552E-011  0.5052886E+02  0.7816164E-02  0.1300439E+00
        -11   -1    0    0    0    0  0.00000000000E+00  0.00000000000E+00  0.45593999997E+02  0.45594000000E+02  0.51100000000E-03 0.  1.
         11   -1    0    0    0    0 -0.00000000000E+00 -0.00000000000E+00 -0.45593999997E+02  0.45594000000E+02  0.51100000000E-03 0. -1.
    9900012    2    1    2    0    0 -0.36990178146E+02  0.13618787510E+02 -0.99709921378E+01  0.50528864043E+02  0.30000012746E+02 0.  0.
         12    1    1    2    0    0  0.36990178146E+02 -0.13618787510E+02  0.99709921378E+01  0.40659135957E+02  0.00000000000E+00 0. -1.
         11    1    3    3    0    0  0.27059977198E+01 -0.21659526507E+01  0.40249353555E+00  0.34893804395E+01  0.51100000000E-03 0. -1.
        -11    1    3    3    0    0 -0.15325646943E+02  0.17320218435E+01  0.32819505148E+01  0.15768530475E+02  0.51100000000E-03 0.  1.
         12    1    3    3    0    0 -0.24370528923E+02  0.14052718318E+02 -0.13655436188E+02  0.31270953129E+02  0.00000000000E+00 0. -1.
</event>
<event>
 7    1  0.2450552E-011  0.5052887E+02  0.7816164E-02  0.1300439E+00
        -11   -1    0    0    0    0  0.00000000000E+00  0.00000000000E+00  0.45593999997E+02  0.45594000000E+02  0.51100000000E-03 0. -1.
         11   -1    0    0    0    0 -0.00000000000E+00 -0.00000000000E+00 -0.45593999997E+02  0.45594000000E+02  0.51100000000E-03 0.  1.
    9900012    2    1    2    0    0  0.27983854678E+02  0.20309470634E+02 -0.21391448015E+02  0.50528871034E+02  0.30000033995E+02 0.  0.
         12    1    1    2    0    0 -0.27983854678E+02 -0.20309470634E+02  0.21391448015E+02  0.40659128966E+02  0.00000000000E+00 0. -1.
         11    1    3    3    0    0  0.58172652035E+01 -0.15333676739E+01  0.22001287089E+00  0.60199831225E+01  0.51100000000E-03 0.  1.
        -11    1    3    3    0    0  0.15750710822E+02  0.59913274240E+01 -0.21615455445E+02  0.27408188741E+02  0.51100000000E-03 0. -1.
         12    1    3    3    0    0  0.64158786531E+01  0.15851510883E+02  0.39945585214E-02  0.17100699171E+02  0.00000000000E+00 0. -1.
</event>
<event>
 7    1  0.2450552E-011  0.5052887E+02  0.7816164E-02  0.1300439E+00
        -11   -1    0    0    0    0  0.00000000000E+00  0.00000000000E+00  0.45593999997E+02  0.45594000000E+02  0.51100000000E-03 0.  1.
         11   -1    0    0    0    0 -0.00000000000E+00 -0.00000000000E+00 -0.45593999997E+02  0.45594000000E+02  0.51100000000E-03 0. -1.
    9900012    2    1    2    0    0  0.38619465028E+01  0.38808316514E+01  0.40288828165E+02  0.50528866217E+02  0.30000019352E+02 0.  0.
         12    1    1    2    0    0 -0.38619465028E+01 -0.38808316514E+01 -0.40288828165E+02  0.40659133783E+02  0.00000000000E+00 0. -1.
         11    1    3    3    0    0 -0.56146772836E+01 -0.31614785909E+01  0.38829846112E+01  0.75231055842E+01  0.51100000000E-03 0.  1.
        -11    1    3    3    0    0  0.66379987576E+01 -0.18206314887E+00  0.94746749238E+00  0.67077469695E+01  0.51100000000E-03 0. -1.
        -12    1    3    3    0    0  0.28386250287E+01  0.72243733912E+01  0.35458376062E+02  0.36298013663E+02  0.00000000000E+00 0.  1.
</event>
<event>
 7    1  0.2450552E-011  0.5052886E+02  0.7816164E-02  0.1300439E+00
        -11   -1    0    0    0    0  0.00000000000E+00  0.00000000000E+00  0.45593999997E+02  0.45594000000E+02  0.51100000000E-03 0. -1.
         11   -1    0    0    0    0 -0.00000000000E+00 -0.00000000000E+00 -0.45593999997E+02  0.45594000000E+02  0.51100000000E-03 0.  1.
    9900012    2    1    2    0    0 -0.28013192460E+02 -0.29469022653E+02 -0.57947440419E-01  0.50528860734E+02  0.30000002688E+02 0.  0.
         12    1    1    2    0    0  0.28013192460E+02  0.29469022653E+02  0.57947440419E-01  0.40659139266E+02  0.00000000000E+00 0. -1.
         11    1    3    3    0    0 -0.15391991921E+02 -0.84835977811E+01 -0.10471290421E+01  0.17606286550E+02  0.51100000000E-03 0.  1.
        -11    1    3    3    0    0 -0.11399846448E+02 -0.18961020409E+02 -0.80776076322E+01  0.23552590926E+02  0.51100000000E-03 0. -1.
        -12    1    3    3    0    0 -0.12213540908E+01 -0.20244044631E+01  0.90667892338E+01  0.93699832581E+01  0.00000000000E+00 0.  1.
</event>
<event>
 7    1  0.2450552E-011  0.5052883E+02  0.7816164E-02  0.1300439E+00
        -11   -1    0    0    0    0  0.00000000000E+00  0.00000000000E+00  0.45593999997E+02  0.45594000000E+02  0.51100000000E-03 0.  1.
         11   -1    0    0    0    0 -0.00000000000E+00 -0.00000000000E+00 -0.45593999997E+02  0.45594000000E+02  0.51100000000E-03 0. -1.
    9900012    2    1    2    0    0 -0.17144500449E+02  0.32842914544E+02  0.16750449802E+02  0.50528825145E+02  0.29999894509E+02 0.  0.
         12    1    1    2    0    0  0.17144500449E+02 -0.32842914544E+02 -0.16750449802E+02  0.40659174855E+02  0.00000000000E+00 0. -1.
         11    1    3    3    0    0 -0.13571193121E+01  0.16268764853E+02  0.81805927406E+01  0.18260245905E+02  0.51100000000E-03 0.  1.
        -11    1    3    3    0    0 -0.59682498707E+01  0.17028672630E+02 -0.16119832565E+01  0.18116130611E+02  0.51100000000E-03 0. -1.
         12    1    3    3    0    0 -0.98191312663E+01 -0.45452293873E+00  0.10181840318E+02  0.14152448628E+02  0.00000000000E+00 0. -1.
</event>
<event>
 7    1  0.2450552E-011  0.5052886E+02  0.7816164E-02  0.1300439E+00
        -11   -1    0    0    0    0  0.00000000000E+00  0.00000000000E+00  0.45593999997E+02  0.45594000000E+02  0.51100000000E-03 0.  1.
         11   -1    0    0    0    0 -0.00000000000E+00 -0.00000000000E+00 -0.45593999997E+02  0.45594000000E+02  0.51100000000E-03 0. -1.
    9900012    2    1    2    0    0  0.18776309843E+02 -0.23180780954E+02 -0.27627289528E+02  0.50528861500E+02  0.30000005014E+02 0.  0.
         12    1    1    2    0    0 -0.18776309843E+02  0.23180780954E+02  0.27627289528E+02  0.40659138500E+02  0.00000000000E+00 0. -1.
         11    1    3    3    0    0 -0.55220028508E+01 -0.34261407170E+01 -0.65347731605E+01  0.92159761402E+01  0.51100000000E-03 0. -1.
        -11    1    3    3    0    0  0.69783421066E+01  0.11894457086E+01 -0.92979959055E+01  0.11686092922E+02  0.51100000000E-03 0.  1.
        -12    1    3    3    0    0  0.17319970588E+02 -0.20944085945E+02 -0.11794520462E+02  0.29626792438E+02  0.00000000000E+00 0.  1.
</event>
<event>
 7    1  0.2450552E-011  0.5052887E+02  0.7816164E-02  0.1300439E+00
        -11   -1    0    0    0    0  0.00000000000E+00  0.00000000000E+00  0.45593999997E+02  0.45594000000E+02  0.51100000000E-03 0.  1.
         11   -1    0    0    0    0 -0.00000000000E+00 -0.00000000000E+00 -0.45593999997E+02  0.45594000000E+02  0.51100000000E-03 0. -1.
    9900012    2    1    2    0    0  0.11694974600E+02  0.64813986339E+01  0.38397708625E+02  0.50528868346E+02  0.30000025825E+02 0.  0.
         12    1    1    2    0    0 -0.11694974600E+02 -0.64813986339E+01 -0.38397708625E+02  0.40659131654E+02  0.00000000000E+00 0. -1.
         11    1    3    3    0    0  0.48462965400E+01 -0.67330649182E+01  0.14183965840E+02  0.16431848361E+02  0.51100000000E-03 0.  1.
        -11    1    3    3    0    0  0.61055491083E-01  0.21003503499E+01  0.20426967860E+02  0.20534756283E+02  0.51100000000E-03 0. -1.
        -12    1    3    3    0    0  0.67876225693E+01  0.11114113202E+02  0.37867749256E+01  0.13562263703E+02  0.00000000000E+00 0.  1.
</event>
<event>
 7    1  0.2450552E-011  0.5052886E+02  0.7816164E-02  0.1300439E+00
        -11   -1    0    0    0    0  0.00000000000E+00  0.00000000000E+00  0.45593999997E+02  0.45594000000E+02  0.51100000000E-03 0. -1.
         11   -1    0    0    0    0 -0.00000000000E+00 -0.00000000000E+00 -0.45593999997E+02  0.45594000000E+02  0.51100000000E-03 0.  1.
    9900012    2    1    2    0    0 -0.21916696928E+02 -0.86903601142E+01 -0.33125547633E+02  0.50528857496E+02  0.29999992845E+02 0.  0.
         12    1    1    2    0    0  0.21916696928E+02  0.86903601142E+01  0.33125547633E+02  0.40659142504E+02  0.00000000000E+00 0. -1.
         11    1    3    3    0    0 -0.19655668597E+02 -0.48700228163E+01 -0.23304909043E+02  0.30873633022E+02  0.51100000000E-03 0. -1.
        -11    1    3    3    0    0 -0.74921034830E+01 -0.73686811732E+01 -0.46612609472E+01  0.11495931050E+02  0.51100000000E-03 0.  1.
         12    1    3    3    0    0  0.52310751525E+01  0.35483438754E+01 -0.51593776431E+01  0.81592934236E+01  0.00000000000E+00 0. -1.
</event>
<event>
 7    1  0.2450552E-011  0.5052886E+02  0.7816164E-02  0.1300439E+00
        -11   -1    0    0    0    0  0.00000000000E+00  0.00000000000E+00  0.45593999997E+02  0.45594000000E+02  0.51100000000E-03 0.  1.
         11   -1    0    0    0    0 -0.00000000000E+00 -0.00000000000E+00 -0.45593999997E+02  0.45594000000E+02  0.51100000000E-03 0. -1.
    9900012    2    1    2    0    0 -0.11225887445E+02  0.32728922109E+02  0.21353279887E+02  0.50528862610E+02  0.30000008389E+02 0.  0.
         12    1    1    2    0    0  0.11225887445E+02 -0.32728922109E+02 -0.21353279887E+02  0.40659137390E+02  0.00000000000E+00 0. -1.
         11    1    3    3    0    0 -0.44726996397E+01 -0.15707933664E+01  0.26006406943E+01  0.54070108331E+01  0.51100000000E-03 0. -1.
        -11    1    3    3    0    0 -0.91635586637E+01  0.13302702752E+02 -0.10122618924E+01  0.16185097538E+02  0.51100000000E-03 0.  1.
        -12    1    3    3    0    0  0.24103708584E+01  0.20997012723E+02  0.19764901085E+02  0.28936754239E+02  0.00000000000E+00 0.  1.
</event>
<event>
 7    1  0.2450552E-011  0.5052886E+02  0.7816164E-02  0.1300439E+00
        -11   -1    0    0    0    0  0.00000000000E+00  0.00000000000E+00  0.45593999997E+02  0.45594000000E+02  0.51100000000E-03 0. -1.
         11   -1    0    0    0    0 -0.00000000000E+00 -0.00000000000E+00 -0.45593999997E+02  0.45594000000E+02  0.51100000000E-03 0.  1.
    9900012    2    1    2    0    0  0.18055928919E+02 -0.23085175190E+02 -0.28181970937E+02  0.50528863652E+02  0.30000011557E+02 0.  0.
         12    1    1    2    0    0 -0.18055928919E+02  0.23085175190E+02  0.28181970937E+02  0.40659136348E+02  0.00000000000E+00 0. -1.
         11    1    3    3    0    0  0.49323252213E+00 -0.46373618394E+01  0.20579766429E+01  0.50974180988E+01  0.51100000000E-03 0. -1.
        -11    1    3    3    0    0  0.16260285713E+02 -0.55139770868E+01 -0.64874785239E+01  0.18354514776E+02  0.51100000000E-03 0.  1.
        -12    1    3    3    0    0  0.13024106837E+01 -0.12933836264E+02 -0.23752469056E+02  0.27076930778E+02  0.00000000000E+00 0.  1.
</event>
<event>
 7    1  0.2450552E-011  0.5052886E+02  0.7816164E-02  0.1300439E+00
        -11   -1    0    0    0    0  0.00000000000E+00  0.00000000000E+00  0.45593999997E+02  0.45594000000E+02  0.51100000000E-03 0.  1.
         11   -1    0    0    0    0 -0.00000000000E+00 -0.00000000000E+00 -0.45593999997E+02  0.45594000000E+02  0.51100000000E-03 0. -1.
    9900012    2    1    2    0    0  0.63229539196E+01 -0.33188945074E+02  0.22620336379E+02  0.50528862782E+02  0.30000008912E+02 0.  0.
         12    1    1    2    0    0 -0.63229539196E+01  0.33188945074E+02 -0.22620336379E+02  0.40659137218E+02  0.00000000000E+00 0. -1.
         11    1    3    3    0    0  0.90994587396E+01 -0.21123789209E+01  0.12833900329E+02  0.15873603623E+02  0.51100000000E-03 0. -1.
        -11    1    3    3    0    0 -0.26664458674E+01 -0.80165476136E+00 -0.15780453836E+00  0.27888145248E+01  0.51100000000E-03 0.  1.
        -12    1    3    3    0    0 -0.11005895250E+00 -0.30274911392E+02  0.99442405883E+01  0.31866444634E+02  0.00000000000E+00 0.  1.
</event>
<event>
 7    1  0.2450552E-011  0.5052886E+02  0.7816164E-02  0.1300439E+00
        -11   -1    0    0    0    0  0.00000000000E+00  0.00000000000E+00  0.45593999997E+02  0.45594000000E+02  0.51100000000E-03 0. -1.
         11   -1    0    0    0    0 -0.00000000000E+00 -0.00000000000E+00 -0.45593999997E+02  0.45594000000E+02  0.51100000000E-03 0.  1.
    9900012    2    1    2    0    0  0.13639176892E+02 -0.30755152836E+02 -0.22831103990E+02  0.50528857342E+02  0.29999992376E+02 0.  0.
         12    1    1    2    0    0 -0.13639176892E+02  0.30755152836E+02  0.22831103990E+02  0.40659142658E+02  0.00000000000E+00 0. -1.
         11    1    3    3    0    0  0.46522875025E+01 -0.23278302879E+01 -0.10092286821E+02  0.11354154588E+02  0.51100000000E-03 0. -1.
        -11    1    3    3    0    0  0.84118505969E+01 -0.31406388851E+02 -0.14572328684E+02  0.35629668181E+02  0.51100000000E-03 0.  1.
         12    1    3    3    0    0  0.57503879301E+00  0.29790663026E+01  0.18335115153E+01  0.35450345733E+01  0.00000000000E+00 0. -1.
</event>
<event>
 7    1  0.2450552E-011  0.5052886E+02  0.7816164E-02  0.1300439E+00
        -11   -1    0    0    0    0  0.00000000000E+00  0.00000000000E+00  0.45593999997E+02  0.45594000000E+02  0.51100000000E-03 0.  1.
         11   -1    0    0    0    0 -0.00000000000E+00 -0.00000000000E+00 -0.45593999997E+02  0.45594000000E+02  0.51100000000E-03 0. -1.
    9900012    2    1    2    0    0  0.15671123328E+02 -0.28058988561E+02  0.24905313585E+02  0.50528860926E+02  0.30000003272E+02 0.  0.
         12    1    1    2    0    0 -0.15671123328E+02  0.28058988561E+02 -0.24905313585E+02  0.40659139074E+02  0.00000000000E+00 0. -1.
         11    1    3    3    0    0 -0.15673468367E+01 -0.16360495982E+01 -0.30098390686E+01  0.37672756568E+01  0.51100000000E-03 0. -1.
        -11    1    3    3    0    0 -0.57225729269E+00 -0.33817826416E+01 -0.28054433490E+01  0.44310771704E+01  0.51100000000E-03 0.  1.
        -12    1    3    3    0    0  0.17810727458E+02 -0.23041156321E+02  0.30720596002E+02  0.42330508099E+02  0.00000000000E+00 0.  1.
</event>
<event>
 7    1  0.2450552E-011  0.5052885E+02  0.7816164E-02  0.1300439E+00
        -11   -1    0    0    0    0  0.00000000000E+00  0.00000000000E+00  0.45593999997E+02  0.45594000000E+02  0.51100000000E-03 0.  1.
         11   -1    0    0    0    0 -0.00000000000E+00 -0.00000000000E+00 -0.45593999997E+02  0.45594000000E+02  0.51100000000E-03 0. -1.
    9900012    2    1    2    0    0  0.40000650305E+02  0.48543522953E+01  0.54359614787E+01  0.50528850498E+02  0.29999971573E+02 0.  0.
         12    1    1    2    0    0 -0.40000650305E+02 -0.48543522953E+01 -0.54359614787E+01  0.40659149502E+02  0.00000000000E+00 0. -1.
         11    1    3    3    0    0  0.28063226959E+02  0.14717970233E+01 -0.64044826983E+01  0.28822357515E+02  0.51100000000E-03 0. -1.
        -11    1    3    3    0    0  0.12428129192E+02  0.40101095579E+01  0.37637802122E+01  0.13590637057E+02  0.51100000000E-03 0.  1.
        -12    1    3    3    0    0 -0.49070584542E+00 -0.62755428595E+00  0.80766639648E+01  0.81158559258E+01  0.00000000000E+00 0.  1.
</event>
<event>
 7    1  0.2450552E-011  0.5052886E+02  0.7816164E-02  0.1300439E+00
        -11   -1    0    0    0    0  0.00000000000E+00  0.00000000000E+00  0.45593999997E+02  0.45594000000E+02  0.51100000000E-03 0. -1.
         11   -1    0    0    0    0 -0.00000000000E+00 -0.00000000000E+00 -0.45593999997E+02  0.45594000000E+02  0.51100000000E-03 0.  1.
    9900012    2    1    2    0    0 -0.22175552666E+02  0.33125348401E+02 -0.80076286105E+01  0.50528856395E+02  0.29999989498E+02 0.  0.
         12    1    1    2    0    0  0.22175552666E+02 -0.33125348401E+02  0.80076286105E+01  0.40659143605E+02  0.00000000000E+00 0. -1.
         11    1    3    3    0    0 -0.82282907090E+01  0.53961714292E+01 -0.75702570583E+00  0.98689676393E+01  0.51100000000E-03 0. -1.
        -11    1    3    3    0    0 -0.12376327271E+02  0.32035298753E+02 -0.93871180580E+01  0.35602694120E+02  0.51100000000E-03 0.  1.
         12    1    3    3    0    0 -0.15709346857E+01 -0.43061217810E+01  0.21365151534E+01  0.50571946354E+01  0.00000000000E+00 0. -1.
</event>
<event>
 7    1  0.2450552E-011  0.5052886E+02  0.7816164E-02  0.1300439E+00
        -11   -1    0    0    0    0  0.00000000000E+00  0.00000000000E+00  0.45593999997E+02  0.45594000000E+02  0.51100000000E-03 0.  1.
         11   -1    0    0    0    0 -0.00000000000E+00 -0.00000000000E+00 -0.45593999997E+02  0.45594000000E+02  0.51100000000E-03 0. -1.
    9900012    2    1    2    0    0  0.19266768578E+01  0.40425113673E+02 -0.39069292970E+01  0.50528855940E+02  0.29999988114E+02 0.  0.
         12    1    1    2    0    0 -0.19266768578E+01 -0.40425113673E+02  0.39069292970E+01  0.40659144060E+02  0.00000000000E+00 0. -1.
         11    1    3    3    0    0  0.32472351437E+01  0.18893223195E+02 -0.60440938356E+01  0.20100484803E+02  0.51100000000E-03 0. -1.
        -11    1    3    3    0    0  0.86932460056E+01  0.14777817005E+02  0.52942279218E+01  0.17943947478E+02  0.51100000000E-03 0.  1.
         12    1    3    3    0    0 -0.10013804292E+02  0.67540734729E+01 -0.31570633833E+01  0.12484423658E+02  0.00000000000E+00 0. -1.
</event>
<event>
 7    1  0.2450552E-011  0.5052887E+02  0.7816164E-02  0.1300439E+00
        -11   -1    0    0    0    0  0.00000000000E+00  0.00000000000E+00  0.45593999997E+02  0.45594000000E+02  0.51100000000E-03 0. -1.
         11   -1    0    0    0    0 -0.00000000000E+00 -0.00000000000E+00 -0.45593999997E+02  0.45594000000E+02  0.51100000000E-03 0.  1.
    9900012    2    1    2    0    0  0.34226201894E+01 -0.77712140355E+01 -0.39762531781E+02  0.50528867813E+02  0.30000024204E+02 0.  0.
         12    1    1    2    0    0 -0.34226201894E+01  0.77712140355E+01  0.39762531781E+02  0.40659132187E+02  0.00000000000E+00 0. -1.
         11    1    3    3    0    0 -0.20163054978E+01 -0.45598444367E+01  0.18156041604E+01  0.53060425814E+01  0.51100000000E-03 0. -1.
        -11    1    3    3    0    0 -0.34819608145E+01  0.19722131507E+01 -0.27384996115E+02  0.27675832206E+02  0.51100000000E-03 0.  1.
         12    1    3    3    0    0  0.89208865017E+01 -0.51835827495E+01 -0.14193139827E+02  0.17546993025E+02  0.00000000000E+00 0. -1.
</event>
<event>
 7    1  0.2450552E-011  0.5052889E+02  0.7816164E-02  0.1300439E+00
        -11   -1    0    0    0    0  0.00000000000E+00  0.00000000000E+00  0.45593999997E+02  0.45594000000E+02  0.51100000000E-03 0. -1.
         11   -1    0    0    0    0 -0.00000000000E+00 -0.00000000000E+00 -0.45593999997E+02  0.45594000000E+02  0.51100000000E-03 0.  1.
    9900012    2    1    2    0    0 -0.21446479107E+02 -0.29265107111E+02 -0.18351172784E+02  0.50528886595E+02  0.30000081295E+02 0.  0.
         12    1    1    2    0    0  0.21446479107E+02  0.29265107111E+02  0.18351172784E+02  0.40659113405E+02  0.00000000000E+00 0. -1.
         11    1    3    3    0    0  0.26571238080E+01 -0.39414589847E+01 -0.85961228905E+01  0.98228679554E+01  0.51100000000E-03 0. -1.
        -11    1    3    3    0    0 -0.14537631379E+02 -0.69270142277E+01 -0.11662819148E+02  0.19883349893E+02  0.51100000000E-03 0.  1.
        -12    1    3    3    0    0 -0.95659715366E+01 -0.18396633898E+02  0.19077692544E+01  0.20822668747E+02  0.00000000000E+00 0.  1.
</event>
<event>
 7    1  0.2450552E-011  0.5052887E+02  0.7816164E-02  0.1300439E+00
        -11   -1    0    0    0    0  0.00000000000E+00  0.00000000000E+00  0.45593999997E+02  0.45594000000E+02  0.51100000000E-03 0.  1.
         11   -1    0    0    0    0 -0.00000000000E+00 -0.00000000000E+00 -0.45593999997E+02  0.45594000000E+02  0.51100000000E-03 0. -1.
    9900012    2    1    2    0    0 -0.21735705916E+02  0.28641861700E+02  0.18983358089E+02  0.50528867722E+02  0.30000023928E+02 0.  0.
         12    1    1    2    0    0  0.21735705916E+02 -0.28641861700E+02 -0.18983358089E+02  0.40659132278E+02  0.00000000000E+00 0. -1.
         11    1    3    3    0    0 -0.25511846514E+01 -0.51318637139E+01  0.23891375561E+01  0.62090697231E+01  0.51100000000E-03 0. -1.
        -11    1    3    3    0    0 -0.10563234792E+02  0.68053404389E+01  0.30318825662E+01  0.12926209805E+02  0.51100000000E-03 0.  1.
        -12    1    3    3    0    0 -0.86212864721E+01  0.26968384975E+02  0.13562337966E+02  0.31393588194E+02  0.00000000000E+00 0.  1.
</event>
<event>
 7    1  0.2450552E-011  0.5052886E+02  0.7816164E-02  0.1300439E+00
        -11   -1    0    0    0    0  0.00000000000E+00  0.00000000000E+00  0.45593999997E+02  0.45594000000E+02  0.51100000000E-03 0.  1.
         11   -1    0    0    0    0 -0.00000000000E+00 -0.00000000000E+00 -0.45593999997E+02  0.45594000000E+02  0.51100000000E-03 0. -1.
    9900012    2    1    2    0    0 -0.39408876779E+02  0.92009235154E+01  0.39305546644E+01  0.50528858070E+02  0.29999994589E+02 0.  0.
         12    1    1    2    0    0  0.39408876779E+02 -0.92009235154E+01 -0.39305546644E+01  0.40659141930E+02  0.00000000000E+00 0. -1.
         11    1    3    3    0    0 -0.58346548106E+01  0.67010354310E+01  0.10935644042E+02  0.14090258460E+02  0.51100000000E-03 0. -1.
        -11    1    3    3    0    0 -0.97602684433E+01 -0.35721748220E+01  0.13512378439E+01  0.10480892949E+02  0.51100000000E-03 0.  1.
        -12    1    3    3    0    0 -0.23813953525E+02  0.60720629065E+01 -0.83563272213E+01  0.25957706660E+02  0.00000000000E+00 0.  1.
</event>
<event>
 7    1  0.2450552E-011  0.5052892E+02  0.7816164E-02  0.1300439E+00
        -11   -1    0    0    0    0  0.00000000000E+00  0.00000000000E+00  0.45593999997E+02  0.45594000000E+02  0.51100000000E-03 0. -1.
         11   -1    0    0    0    0 -0.00000000000E+00 -0.00000000000E+00 -0.45593999997E+02  0.45594000000E+02  0.51100000000E-03 0.  1.
    9900012    2    1    2    0    0  0.89474224335E+01 -0.30381019524E+02 -0.25497024147E+02  0.50528917916E+02  0.30000176498E+02 0.  0.
         12    1    1    2    0    0 -0.89474224335E+01  0.30381019524E+02  0.25497024147E+02  0.40659082084E+02  0.00000000000E+00 0. -1.
         11    1    3    3    0    0 -0.44061991382E+00 -0.13426493300E+02 -0.84850957107E+01  0.15889043952E+02  0.51100000000E-03 0. -1.
        -11    1    3    3    0    0  0.32128787103E+01 -0.21826883018E+02 -0.14425552844E+02  0.26359665912E+02  0.51100000000E-03 0.  1.
         12    1    3    3    0    0  0.61751636370E+01  0.48723567940E+01 -0.25863755927E+01  0.82802080516E+01  0.00000000000E+00 0. -1.
</event>
<event>
 7    1  0.2450552E-011  0.5052886E+02  0.7816164E-02  0.1300439E+00
        -11   -1    0    0    0    0  0.00000000000E+00  0.00000000000E+00  0.45593999997E+02  0.45594000000E+02  0.51100000000E-03 0.  1.
         11   -1    0    0    0    0 -0.00000000000E+00 -0.00000000000E+00 -0.45593999997E+02  0.45594000000E+02  0.51100000000E-03 0. -1.
    9900012    2    1    2    0    0 -0.12435288089E+02 -0.43835696695E+01  0.38461844087E+02  0.50528861747E+02  0.30000005765E+02 0.  0.
         12    1    1    2    0    0  0.12435288089E+02  0.43835696695E+01 -0.38461844087E+02  0.40659138253E+02  0.00000000000E+00 0. -1.
         11    1    3    3    0    0  0.30009085053E+01 -0.61923439561E+01  0.65026875337E+01  0.94676037597E+01  0.51100000000E-03 0. -1.
        -11    1    3    3    0    0 -0.67569442147E+01 -0.53168630316E+01  0.27778489260E+02  0.29078682801E+02  0.51100000000E-03 0.  1.
        -12    1    3    3    0    0 -0.86792523798E+01  0.71256373182E+01  0.41806672938E+01  0.11982575186E+02  0.00000000000E+00 0.  1.
</event>
<event>
 7    1  0.2450552E-011  0.5052887E+02  0.7816164E-02  0.1300439E+00
        -11   -1    0    0    0    0  0.00000000000E+00  0.00000000000E+00  0.45593999997E+02  0.45594000000E+02  0.51100000000E-03 0.  1.
         11   -1    0    0    0    0 -0.00000000000E+00 -0.00000000000E+00 -0.45593999997E+02  0.45594000000E+02  0.51100000000E-03 0. -1.
    9900012    2    1    2    0    0  0.22416746347E+02  0.12136152627E+01  0.33899584892E+02  0.50528865299E+02  0.30000016564E+02 0.  0.
         12    1    1    2    0    0 -0.22416746347E+02 -0.12136152627E+01 -0.33899584892E+02  0.40659134701E+02  0.00000000000E+00 0. -1.
         11    1    3    3    0    0  0.21838278078E+02  0.37000644654E+01  0.18876449559E+02  0.29101910842E+02  0.51100000000E-03 0. -1.
        -11    1    3    3    0    0 -0.14805213436E+01  0.61592809236E+01  0.53588047796E+01  0.82973172696E+01  0.51100000000E-03 0.  1.
        -12    1    3    3    0    0  0.20589896128E+01 -0.86457301263E+01  0.96643305528E+01  0.13129637187E+02  0.00000000000E+00 0.  1.
</event>
<event>
 7    1  0.2450552E-011  0.5052886E+02  0.7816164E-02  0.1300439E+00
        -11   -1    0    0    0    0  0.00000000000E+00  0.00000000000E+00  0.45593999997E+02  0.45594000000E+02  0.51100000000E-03 0.  1.
         11   -1    0    0    0    0 -0.00000000000E+00 -0.00000000000E+00 -0.45593999997E+02  0.45594000000E+02  0.51100000000E-03 0. -1.
    9900012    2    1    2    0    0  0.39913977740E+02  0.51467380051E+01 -0.57923334518E+01  0.50528860093E+02  0.30000000739E+02 0.  0.
         12    1    1    2    0    0 -0.39913977740E+02 -0.51467380051E+01  0.57923334518E+01  0.40659139907E+02  0.00000000000E+00 0. -1.
         11    1    3    3    0    0  0.12257015953E+02  0.70986162009E+01 -0.89957598907E+00  0.14192745656E+02  0.51100000000E-03 0. -1.
        -11    1    3    3    0    0 -0.15962149665E+01 -0.21876590737E+01  0.48057390694E+01  0.55162380937E+01  0.51100000000E-03 0.  1.
         12    1    3    3    0    0  0.29253176754E+02  0.23578087797E+00 -0.96984965321E+01  0.30819876343E+02  0.00000000000E+00 0. -1.
</event>
<event>
 7    1  0.2450552E-011  0.5052886E+02  0.7816164E-02  0.1300439E+00
        -11   -1    0    0    0    0  0.00000000000E+00  0.00000000000E+00  0.45593999997E+02  0.45594000000E+02  0.51100000000E-03 0.  1.
         11   -1    0    0    0    0 -0.00000000000E+00 -0.00000000000E+00 -0.45593999997E+02  0.45594000000E+02  0.51100000000E-03 0. -1.
    9900012    2    1    2    0    0  0.25370238537E+01 -0.39324692276E+02  0.10014878209E+02  0.50528859599E+02  0.29999999236E+02 0.  0.
         12    1    1    2    0    0 -0.25370238537E+01  0.39324692276E+02 -0.10014878209E+02  0.40659140401E+02  0.00000000000E+00 0. -1.
         11    1    3    3    0    0 -0.66643250400E+01 -0.18416410561E+02  0.74411474635E+01  0.20951087848E+02  0.51100000000E-03 0. -1.
        -11    1    3    3    0    0 -0.21808190850E+01  0.22872554397E+01 -0.13633450307E+01  0.34418337063E+01  0.51100000000E-03 0.  1.
        -12    1    3    3    0    0  0.11382167979E+02 -0.23195537155E+02  0.39370757764E+01  0.26135938045E+02  0.00000000000E+00 0.  1.
</event>
<event>
 7    1  0.2450552E-011  0.5052886E+02  0.7816164E-02  0.1300439E+00
        -11   -1    0    0    0    0  0.00000000000E+00  0.00000000000E+00  0.45593999997E+02  0.45594000000E+02  0.51100000000E-03 0.  1.
         11   -1    0    0    0    0 -0.00000000000E+00 -0.00000000000E+00 -0.45593999997E+02  0.45594000000E+02  0.51100000000E-03 0. -1.
    9900012    2    1    2    0    0 -0.69118809358E+01  0.29054316894E+02  0.27590542518E+02  0.50528862470E+02  0.30000007964E+02 0.  0.
         12    1    1    2    0    0  0.69118809358E+01 -0.29054316894E+02 -0.27590542518E+02  0.40659137530E+02  0.00000000000E+00 0. -1.
         11    1    3    3    0    0  0.15352714227E+01  0.16521319492E+01  0.75594257971E+01  0.78886955171E+01  0.51100000000E-03 0.  1.
        -11    1    3    3    0    0 -0.10430630512E+01  0.26194961063E+02  0.62514652492E+01  0.26950784472E+02  0.51100000000E-03 0. -1.
         12    1    3    3    0    0 -0.74040893073E+01  0.12072238820E+01  0.13779651471E+02  0.15689382481E+02  0.00000000000E+00 0. -1.
</event>
<event>
 7    1  0.5175383E-011  0.5052886E+02  0.7816164E-02  0.1300439E+00
        -11   -1    0    0    0    0  0.00000000000E+00  0.00000000000E+00  0.45593999997E+02  0.45594000000E+02  0.51100000000E-03 0. -1.
         11   -1    0    0    0    0 -0.00000000000E+00 -0.00000000000E+00 -0.45593999997E+02  0.45594000000E+02  0.51100000000E-03 0.  1.
    9900012    2    1    2    0    0 -0.23380967701E+02 -0.24901862626E+02 -0.22054323414E+02  0.50528860878E+02  0.30000003125E+02 0.  0.
         12    1    1    2    0    0  0.23380967701E+02  0.24901862626E+02  0.22054323414E+02  0.40659139122E+02  0.00000000000E+00 0. -1.
         11    1    3    3    0    0  0.28169136573E+01 -0.60607536501E+00  0.20293017676E+01  0.35242581951E+01  0.51100000000E-03 0. -1.
        -11    1    3    3    0    0 -0.11462726109E+02 -0.11079290592E+02 -0.14518993642E+00  0.15942579787E+02  0.51100000000E-03 0.  1.
        -12    1    3    3    0    0 -0.14735155249E+02 -0.13216496669E+02 -0.23938435246E+02  0.31062022896E+02  0.00000000000E+00 0.  1.
</event>
<event>
 7    1  0.2450552E-011  0.5052891E+02  0.7816164E-02  0.1300439E+00
        -11   -1    0    0    0    0  0.00000000000E+00  0.00000000000E+00  0.45593999997E+02  0.45594000000E+02  0.51100000000E-03 0. -1.
         11   -1    0    0    0    0 -0.00000000000E+00 -0.00000000000E+00 -0.45593999997E+02  0.45594000000E+02  0.51100000000E-03 0.  1.
    9900012    2    1    2    0    0 -0.25900591062E+02 -0.26352429446E+02 -0.16966737308E+02  0.50528913317E+02  0.30000162517E+02 0.  0.
         12    1    1    2    0    0  0.25900591062E+02  0.26352429446E+02  0.16966737308E+02  0.40659086683E+02  0.00000000000E+00 0. -1.
         11    1    3    3    0    0 -0.63355229939E+01 -0.85310399671E+01  0.44657825272E+01  0.11526521954E+02  0.51100000000E-03 0. -1.
        -11    1    3    3    0    0  0.27695613958E+01 -0.71357749574E+01 -0.34167126232E+01  0.83823433465E+01  0.51100000000E-03 0.  1.
        -12    1    3    3    0    0 -0.22334629464E+02 -0.10685614521E+02 -0.18015807212E+02  0.30620048016E+02  0.00000000000E+00 0.  1.
</event>
<event>
 7    1  0.2450552E-011  0.5052887E+02  0.7816164E-02  0.1300439E+00
        -11   -1    0    0    0    0  0.00000000000E+00  0.00000000000E+00  0.45593999997E+02  0.45594000000E+02  0.51100000000E-03 0.  1.
         11   -1    0    0    0    0 -0.00000000000E+00 -0.00000000000E+00 -0.45593999997E+02  0.45594000000E+02  0.51100000000E-03 0. -1.
    9900012    2    1    2    0    0 -0.26074725780E+02 -0.27063091833E+02  0.15519761335E+02  0.50528865037E+02  0.30000015765E+02 0.  0.
         12    1    1    2    0    0  0.26074725780E+02  0.27063091833E+02 -0.15519761335E+02  0.40659134963E+02  0.00000000000E+00 0. -1.
         11    1    3    3    0    0 -0.11051670398E+02 -0.73917334675E-01  0.55571475722E+01  0.12370399014E+02  0.51100000000E-03 0. -1.
        -11    1    3    3    0    0 -0.61402919376E+01 -0.37703111529E+01 -0.53379329719E+01  0.89672715997E+01  0.51100000000E-03 0.  1.
        -12    1    3    3    0    0 -0.88827634442E+01 -0.23218863346E+02  0.15300546735E+02  0.29191194423E+02  0.00000000000E+00 0.  1.
</event>
<event>
 7    1  0.2450552E-011  0.5052886E+02  0.7816164E-02  0.1300439E+00
        -11   -1    0    0    0    0  0.00000000000E+00  0.00000000000E+00  0.45593999997E+02  0.45594000000E+02  0.51100000000E-03 0.  1.
         11   -1    0    0    0    0 -0.00000000000E+00 -0.00000000000E+00 -0.45593999997E+02  0.45594000000E+02  0.51100000000E-03 0. -1.
    9900012    2    1    2    0    0 -0.78732148272E+01 -0.39884699657E+02  0.62378747128E+00  0.50528857249E+02  0.29999992093E+02 0.  0.
         12    1    1    2    0    0  0.78732148272E+01  0.39884699657E+02 -0.62378747128E+00  0.40659142751E+02  0.00000000000E+00 0. -1.
         11    1    3    3    0    0  0.35686083161E+01 -0.95596375387E+01  0.16004050591E+01  0.10328742992E+02  0.51100000000E-03 0. -1.
        -11    1    3    3    0    0 -0.82183126857E+01 -0.94840243752E+00  0.55149297630E+01  0.99425641127E+01  0.51100000000E-03 0.  1.
         12    1    3    3    0    0 -0.32235104576E+01 -0.29376659681E+02 -0.64915473508E+01  0.30257550144E+02  0.00000000000E+00 0. -1.
</event>
<event>
 7    1  0.2667967E-011  0.5052885E+02  0.7816164E-02  0.1300439E+00
        -11   -1    0    0    0    0  0.00000000000E+00  0.00000000000E+00  0.45593999997E+02  0.45594000000E+02  0.51100000000E-03 0. -1.
         11   -1    0    0    0    0 -0.00000000000E+00 -0.00000000000E+00 -0.45593999997E+02  0.45594000000E+02  0.51100000000E-03 0.  1.
    9900012    2    1    2    0    0 -0.25490217519E+02 -0.20496432265E+02 -0.24151838506E+02  0.50528853083E+02  0.29999979432E+02 0.  0.
         12    1    1    2    0    0  0.25490217519E+02  0.20496432265E+02  0.24151838506E+02  0.40659146917E+02  0.00000000000E+00 0. -1.
         11    1    3    3    0    0  0.18105298961E+01 -0.48318848602E+00 -0.87592631409E+01  0.89574650795E+01  0.51100000000E-03 0. -1.
        -11    1    3    3    0    0 -0.13345869173E+02 -0.26083004886E+01 -0.13534057409E+02  0.19185571809E+02  0.51100000000E-03 0.  1.
         12    1    3    3    0    0 -0.13954878243E+02 -0.17404943290E+02 -0.18585179556E+01  0.22385816195E+02  0.00000000000E+00 0. -1.
</event>
<event>
 7    1  0.2450552E-011  0.5052885E+02  0.7816164E-02  0.1300439E+00
        -11   -1    0    0    0    0  0.00000000000E+00  0.00000000000E+00  0.45593999997E+02  0.45594000000E+02  0.51100000000E-03 0. -1.
         11   -1    0    0    0    0 -0.00000000000E+00 -0.00000000000E+00 -0.45593999997E+02  0.45594000000E+02  0.51100000000E-03 0.  1.
    9900012    2    1    2    0    0  0.14353571261E+02 -0.15842339958E+02 -0.34585569968E+02  0.50528851051E+02  0.29999973254E+02 0.  0.
         12    1    1    2    0    0 -0.14353571261E+02  0.15842339958E+02  0.34585569968E+02  0.40659148949E+02  0.00000000000E+00 0. -1.
         11    1    3    3    0    0  0.73099911861E+00  0.40700980932E+01  0.18972967611E+01  0.45497025683E+01  0.51100000000E-03 0. -1.
        -11    1    3    3    0    0 -0.22680568392E+01 -0.68956223527E+01 -0.11951188056E+02  0.13983010608E+02  0.51100000000E-03 0.  1.
        -12    1    3    3    0    0  0.15890628982E+02 -0.13016815698E+02 -0.24531678673E+02  0.31996137874E+02  0.00000000000E+00 0.  1.
</event>
<event>
 7    1  0.2450552E-011  0.5052886E+02  0.7816164E-02  0.1300439E+00
        -11   -1    0    0    0    0  0.00000000000E+00  0.00000000000E+00  0.45593999997E+02  0.45594000000E+02  0.51100000000E-03 0.  1.
         11   -1    0    0    0    0 -0.00000000000E+00 -0.00000000000E+00 -0.45593999997E+02  0.45594000000E+02  0.51100000000E-03 0. -1.
    9900012    2    1    2    0    0  0.78485203222E+01 -0.45599688554E+01  0.39632974903E+02  0.50528864657E+02  0.30000014612E+02 0.  0.
         12    1    1    2    0    0 -0.78485203222E+01  0.45599688554E+01 -0.39632974903E+02  0.40659135343E+02  0.00000000000E+00 0. -1.
         11    1    3    3    0    0  0.72881364497E+01 -0.10214077348E+02  0.12184261826E+02  0.17490012735E+02  0.51100000000E-03 0. -1.
        -11    1    3    3    0    0  0.48501934248E+01 -0.18340727487E+00  0.24885653081E+02  0.25354560616E+02  0.51100000000E-03 0.  1.
        -12    1    3    3    0    0 -0.42898095523E+01  0.58375157674E+01  0.25630599952E+01  0.76842913056E+01  0.00000000000E+00 0.  1.
</event>
<event>
 7    1  0.2450552E-011  0.5052886E+02  0.7816164E-02  0.1300439E+00
        -11   -1    0    0    0    0  0.00000000000E+00  0.00000000000E+00  0.45593999997E+02  0.45594000000E+02  0.51100000000E-03 0. -1.
         11   -1    0    0    0    0 -0.00000000000E+00 -0.00000000000E+00 -0.45593999997E+02  0.45594000000E+02  0.51100000000E-03 0.  1.
    9900012    2    1    2    0    0  0.20333741728E+02  0.24078589307E+02 -0.25689022210E+02  0.50528863538E+02  0.30000011211E+02 0.  0.
         12    1    1    2    0    0 -0.20333741728E+02 -0.24078589307E+02  0.25689022210E+02  0.40659136462E+02  0.00000000000E+00 0. -1.
         11    1    3    3    0    0  0.18472292139E+01  0.11037524010E+02  0.33161200603E+01  0.11672011162E+02  0.51100000000E-03 0. -1.
        -11    1    3    3    0    0 -0.33714282323E-01  0.80520921474E-01 -0.79962146708E+01  0.79966911654E+01  0.51100000000E-03 0.  1.
        -12    1    3    3    0    0  0.18520226796E+02  0.12960544376E+02 -0.21008927600E+02  0.30860161211E+02  0.00000000000E+00 0.  1.
</event>
<event>
 7    1  0.2450552E-011  0.5052886E+02  0.7816164E-02  0.1300439E+00
        -11   -1    0    0    0    0  0.00000000000E+00  0.00000000000E+00  0.45593999997E+02  0.45594000000E+02  0.51100000000E-03 0.  1.
         11   -1    0    0    0    0 -0.00000000000E+00 -0.00000000000E+00 -0.45593999997E+02  0.45594000000E+02  0.51100000000E-03 0. -1.
    9900012    2    1    2    0    0 -0.17491465626E+02  0.25796851958E+02  0.26110088046E+02  0.50528860333E+02  0.30000001468E+02 0.  0.
         12    1    1    2    0    0  0.17491465626E+02 -0.25796851958E+02 -0.26110088046E+02  0.40659139667E+02  0.00000000000E+00 0. -1.
         11    1    3    3    0    0 -0.64932896134E+01  0.20223557884E+02  0.12140593646E+02  0.24465263494E+02  0.51100000000E-03 0. -1.
        -11    1    3    3    0    0 -0.10632205010E+02 -0.15927991939E+01  0.15366005132E+02  0.18753530510E+02  0.51100000000E-03 0.  1.
         12    1    3    3    0    0 -0.36597100334E+00  0.71660932678E+01 -0.13965107322E+01  0.73100663282E+01  0.00000000000E+00 0. -1.
</event>
<event>
 7    1  0.2450552E-011  0.5052885E+02  0.7816164E-02  0.1300439E+00
        -11   -1    0    0    0    0  0.00000000000E+00  0.00000000000E+00  0.45593999997E+02  0.45594000000E+02  0.51100000000E-03 0.  1.
         11   -1    0    0    0    0 -0.00000000000E+00 -0.00000000000E+00 -0.45593999997E+02  0.45594000000E+02  0.51100000000E-03 0. -1.
    9900012    2    1    2    0    0  0.24478989830E+02 -0.12494810901E+02  0.29963725841E+02  0.50528854549E+02  0.29999983886E+02 0.  0.
         12    1    1    2    0    0 -0.24478989830E+02  0.12494810901E+02 -0.29963725841E+02  0.40659145451E+02  0.00000000000E+00 0. -1.
         11    1    3    3    0    0  0.20399306677E+02 -0.15416965970E+01  0.27487139985E+02  0.34264433544E+02  0.51100000000E-03 0.  1.
        -11    1    3    3    0    0  0.68108556720E+01 -0.26065599594E+01  0.11554473066E+01  0.73835606956E+01  0.51100000000E-03 0. -1.
        -12    1    3    3    0    0 -0.27311725184E+01 -0.83465543450E+01  0.13211385490E+01  0.88808603088E+01  0.00000000000E+00 0.  1.
</event>
<event>
 7    1  0.2450552E-011  0.5052880E+02  0.7816164E-02  0.1300439E+00
        -11   -1    0    0    0    0  0.00000000000E+00  0.00000000000E+00  0.45593999997E+02  0.45594000000E+02  0.51100000000E-03 0.  1.
         11   -1    0    0    0    0 -0.00000000000E+00 -0.00000000000E+00 -0.45593999997E+02  0.45594000000E+02  0.51100000000E-03 0. -1.
    9900012    2    1    2    0    0  0.38230283247E+02 -0.11726338676E+02  0.73558695362E+01  0.50528801870E+02  0.29999823765E+02 0.  0.
         12    1    1    2    0    0 -0.38230283247E+02  0.11726338676E+02 -0.73558695362E+01  0.40659198130E+02  0.00000000000E+00 0. -1.
         11    1    3    3    0    0  0.18955153936E+02  0.42977405822E+01 -0.10084361893E+01  0.19462409374E+02  0.51100000000E-03 0. -1.
        -11    1    3    3    0    0  0.10693030711E+02 -0.10910471133E+01  0.87175117832E+01  0.13839302783E+02  0.51100000000E-03 0.  1.
        -12    1    3    3    0    0  0.85820986005E+01 -0.14933032145E+02 -0.35320605763E+00  0.17227089712E+02  0.00000000000E+00 0.  1.
</event>
<event>
 7    1  0.2450552E-011  0.5052886E+02  0.7816164E-02  0.1300439E+00
        -11   -1    0    0    0    0  0.00000000000E+00  0.00000000000E+00  0.45593999997E+02  0.45594000000E+02  0.51100000000E-03 0.  1.
         11   -1    0    0    0    0 -0.00000000000E+00 -0.00000000000E+00 -0.45593999997E+02  0.45594000000E+02  0.51100000000E-03 0. -1.
    9900012    2    1    2    0    0  0.27535664809E+02  0.25484446247E+02  0.15668317027E+02  0.50528855943E+02  0.29999988124E+02 0.  0.
         12    1    1    2    0    0 -0.27535664809E+02 -0.25484446247E+02 -0.15668317027E+02  0.40659144057E+02  0.00000000000E+00 0. -1.
         11    1    3    3    0    0  0.15884068565E+01  0.17225095700E+00  0.63940935168E+01  0.65906857683E+01  0.51100000000E-03 0. -1.
        -11    1    3    3    0    0  0.19924762876E+02  0.13231424199E+02  0.16080118655E+02  0.28820773380E+02  0.51100000000E-03 0.  1.
         12    1    3    3    0    0  0.60224950769E+01  0.12080771092E+02 -0.68058951453E+01  0.15117396795E+02  0.00000000000E+00 0. -1.
</event>
<event>
 7    1  0.2450552E-011  0.5052885E+02  0.7816164E-02  0.1300439E+00
        -11   -1    0    0    0    0  0.00000000000E+00  0.00000000000E+00  0.45593999997E+02  0.45594000000E+02  0.51100000000E-03 0.  1.
         11   -1    0    0    0    0 -0.00000000000E+00 -0.00000000000E+00 -0.45593999997E+02  0.45594000000E+02  0.51100000000E-03 0. -1.
    9900012    2    1    2    0    0  0.26768308227E+02  0.91878414118E+01  0.29192595011E+02  0.50528851476E+02  0.29999974548E+02 0.  0.
         12    1    1    2    0    0 -0.26768308227E+02 -0.91878414118E+01 -0.29192595011E+02  0.40659148524E+02  0.00000000000E+00 0. -1.
         11    1    3    3    0    0  0.18368971243E+02  0.11764710780E+02  0.10826124319E+02  0.24352258464E+02  0.51100000000E-03 0. -1.
        -11    1    3    3    0    0  0.74372661436E+01  0.56034022445E+01  0.14108454795E+02  0.16904423722E+02  0.51100000000E-03 0.  1.
         12    1    3    3    0    0  0.96207084131E+00 -0.81802716132E+01  0.42580158970E+01  0.92721692903E+01  0.00000000000E+00 0. -1.
</event>
<event>
 7    1  0.2450552E-011  0.5052885E+02  0.7816164E-02  0.1300439E+00
        -11   -1    0    0    0    0  0.00000000000E+00  0.00000000000E+00  0.45593999997E+02  0.45594000000E+02  0.51100000000E-03 0.  1.
         11   -1    0    0    0    0 -0.00000000000E+00 -0.00000000000E+00 -0.45593999997E+02  0.45594000000E+02  0.51100000000E-03 0. -1.
    9900012    2    1    2    0    0 -0.13966797283E+02 -0.23635461575E+02  0.29990993043E+02  0.50528854240E+02  0.29999982948E+02 0.  0.
         12    1    1    2    0    0  0.13966797283E+02  0.23635461575E+02 -0.29990993043E+02  0.40659145760E+02  0.00000000000E+00 0. -1.
         11    1    3    3    0    0 -0.15156229389E+01 -0.97910211314E+01  0.17299615810E+01  0.10057533247E+02  0.51100000000E-03 0. -1.
        -11    1    3    3    0    0 -0.16737764872E+02 -0.51798604938E+01  0.24451375722E+02  0.30080782945E+02  0.51100000000E-03 0.  1.
         12    1    3    3    0    0  0.42865905275E+01 -0.86645799501E+01  0.38096557401E+01  0.10390538048E+02  0.00000000000E+00 0. -1.
</event>
<event>
 7    1  0.2450552E-011  0.5052872E+02  0.7816164E-02  0.1300439E+00
        -11   -1    0    0    0    0  0.00000000000E+00  0.00000000000E+00  0.45593999997E+02  0.45594000000E+02  0.51100000000E-03 0.  1.
         11   -1    0    0    0    0 -0.00000000000E+00 -0.00000000000E+00 -0.45593999997E+02  0.45594000000E+02  0.51100000000E-03 0. -1.
    9900012    2    1    2    0    0 -0.79115032890E+01  0.39816834144E+02  0.22813419593E+01  0.50528724469E+02  0.29999588493E+02 0.  0.
         12    1    1    2    0    0  0.79115032890E+01 -0.39816834144E+02 -0.22813419593E+01  0.40659275531E+02  0.00000000000E+00 0. -1.
         11    1    3    3    0    0 -0.14300177910E+02  0.10855255791E+02  0.49813152995E+01  0.18631832141E+02  0.51100000000E-03 0. -1.
        -11    1    3    3    0    0  0.33403093325E+01  0.22037005955E+02  0.29102656922E+01  0.22477921268E+02  0.51100000000E-03 0.  1.
        -12    1    3    3    0    0  0.30483652881E+01  0.69245723983E+01 -0.56102390324E+01  0.94189710601E+01  0.00000000000E+00 0.  1.
</event>
<event>
 7    1  0.2450552E-011  0.5052886E+02  0.7816164E-02  0.1300439E+00
        -11   -1    0    0    0    0  0.00000000000E+00  0.00000000000E+00  0.45593999997E+02  0.45594000000E+02  0.51100000000E-03 0.  1.
         11   -1    0    0    0    0 -0.00000000000E+00 -0.00000000000E+00 -0.45593999997E+02  0.45594000000E+02  0.51100000000E-03 0. -1.
    9900012    2    1    2    0    0  0.27545518384E+01 -0.37242402484E+01  0.40394410834E+02  0.50528856528E+02  0.29999989903E+02 0.  0.
         12    1    1    2    0    0 -0.27545518384E+01  0.37242402484E+01 -0.40394410834E+02  0.40659143472E+02  0.00000000000E+00 0. -1.
         11    1    3    3    0    0  0.99853915349E+01  0.87827538533E+00  0.25099110887E+02  0.27026741929E+02  0.51100000000E-03 0. -1.
        -11    1    3    3    0    0  0.92133102866E-02  0.54199751263E+01  0.37955611304E+01  0.66168345763E+01  0.51100000000E-03 0.  1.
         12    1    3    3    0    0 -0.72400530068E+01 -0.10022490760E+02  0.11499738817E+02  0.16885280022E+02  0.00000000000E+00 0. -1.
</event>
<event>
 7    1  0.2450552E-011  0.5052881E+02  0.7816164E-02  0.1300439E+00
        -11   -1    0    0    0    0  0.00000000000E+00  0.00000000000E+00  0.45593999997E+02  0.45594000000E+02  0.51100000000E-03 0.  1.
         11   -1    0    0    0    0 -0.00000000000E+00 -0.00000000000E+00 -0.45593999997E+02  0.45594000000E+02  0.51100000000E-03 0. -1.
    9900012    2    1    2    0    0  0.35811806396E+02 -0.50644438349E+01  0.18575144264E+02  0.50528806045E+02  0.29999836453E+02 0.  0.
         12    1    1    2    0    0 -0.35811806396E+02  0.50644438349E+01 -0.18575144264E+02  0.40659193955E+02  0.00000000000E+00 0. -1.
         11    1    3    3    0    0  0.24561452756E+02  0.48362554792E+00 -0.76660620595E+00  0.24578172033E+02  0.51100000000E-03 0. -1.
        -11    1    3    3    0    0  0.11587749925E+02 -0.81931112268E+01  0.13772043890E+02  0.19775545835E+02  0.51100000000E-03 0.  1.
        -12    1    3    3    0    0 -0.33739628475E+00  0.26450418440E+01  0.55697065798E+01  0.61750881771E+01  0.00000000000E+00 0.  1.
</event>
<event>
 7    1  0.2450552E-011  0.5052886E+02  0.7816164E-02  0.1300439E+00
        -11   -1    0    0    0    0  0.00000000000E+00  0.00000000000E+00  0.45593999997E+02  0.45594000000E+02  0.51100000000E-03 0. -1.
         11   -1    0    0    0    0 -0.00000000000E+00 -0.00000000000E+00 -0.45593999997E+02  0.45594000000E+02  0.51100000000E-03 0.  1.
    9900012    2    1    2    0    0 -0.27343411772E+02  0.18876680130E+01 -0.30032321385E+02  0.50528858523E+02  0.29999995967E+02 0.  0.
         12    1    1    2    0    0  0.27343411772E+02 -0.18876680130E+01  0.30032321385E+02  0.40659141477E+02  0.00000000000E+00 0. -1.
         11    1    3    3    0    0 -0.10018802751E+02 -0.13379384667E+02 -0.11280407315E+02  0.20165116714E+02  0.51100000000E-03 0.  1.
        -11    1    3    3    0    0 -0.36360875667E+01  0.69995865541E+01 -0.63929512231E+01  0.10153086739E+02  0.51100000000E-03 0. -1.
        -12    1    3    3    0    0 -0.13688521454E+02  0.82674661255E+01 -0.12358962847E+02  0.20210655070E+02  0.00000000000E+00 0.  1.
</event>
<event>
 7    1  0.2450552E-011  0.5052888E+02  0.7816164E-02  0.1300439E+00
        -11   -1    0    0    0    0  0.00000000000E+00  0.00000000000E+00  0.45593999997E+02  0.45594000000E+02  0.51100000000E-03 0. -1.
         11   -1    0    0    0    0 -0.00000000000E+00 -0.00000000000E+00 -0.45593999997E+02  0.45594000000E+02  0.51100000000E-03 0.  1.
    9900012    2    1    2    0    0  0.39900603200E+02 -0.62236369580E+01 -0.47299507230E+01  0.50528877696E+02  0.30000054244E+02 0.  0.
         12    1    1    2    0    0 -0.39900603200E+02  0.62236369580E+01  0.47299507230E+01  0.40659122304E+02  0.00000000000E+00 0. -1.
         11    1    3    3    0    0  0.17528097325E+02  0.14386750246E+01 -0.52485818979E+01  0.18353517207E+02  0.51100000000E-03 0. -1.
        -11    1    3    3    0    0  0.25724225884E+02 -0.82795674238E+01  0.39828479772E+01  0.27315748431E+02  0.51100000000E-03 0.  1.
         12    1    3    3    0    0 -0.33517200092E+01  0.61725544121E+00 -0.34642168023E+01  0.48596120579E+01  0.00000000000E+00 0. -1.
</event>
<event>
 7    1  0.2450552E-011  0.5052886E+02  0.7816164E-02  0.1300439E+00
        -11   -1    0    0    0    0  0.00000000000E+00  0.00000000000E+00  0.45593999997E+02  0.45594000000E+02  0.51100000000E-03 0.  1.
         11   -1    0    0    0    0 -0.00000000000E+00 -0.00000000000E+00 -0.45593999997E+02  0.45594000000E+02  0.51100000000E-03 0. -1.
    9900012    2    1    2    0    0  0.25605384301E+02  0.19987539934E+02  0.24454612642E+02  0.50528861577E+02  0.30000005250E+02 0.  0.
         12    1    1    2    0    0 -0.25605384301E+02 -0.19987539934E+02 -0.24454612642E+02  0.40659138423E+02  0.00000000000E+00 0. -1.
         11    1    3    3    0    0  0.17812333107E+02  0.40540892123E+01  0.22721856814E+02  0.29154718785E+02  0.51100000000E-03 0. -1.
        -11    1    3    3    0    0 -0.27631309896E+01  0.23465736327E+01  0.20518135054E+01  0.41654819171E+01  0.51100000000E-03 0.  1.
        -12    1    3    3    0    0  0.10556182183E+02  0.13586877089E+02 -0.31905767749E+00  0.17208660875E+02  0.00000000000E+00 0.  1.
</event>
<event>
 7    1  0.2450552E-011  0.5052885E+02  0.7816164E-02  0.1300439E+00
        -11   -1    0    0    0    0  0.00000000000E+00  0.00000000000E+00  0.45593999997E+02  0.45594000000E+02  0.51100000000E-03 0.  1.
         11   -1    0    0    0    0 -0.00000000000E+00 -0.00000000000E+00 -0.45593999997E+02  0.45594000000E+02  0.51100000000E-03 0. -1.
    9900012    2    1    2    0    0 -0.26548858415E+02 -0.21586888549E+02  0.21962027084E+02  0.50528852518E+02  0.29999977713E+02 0.  0.
         12    1    1    2    0    0  0.26548858415E+02  0.21586888549E+02 -0.21962027084E+02  0.40659147482E+02  0.00000000000E+00 0. -1.
         11    1    3    3    0    0 -0.11626003057E+01 -0.10852453021E+02  0.15666620957E+02  0.19093726418E+02  0.51100000000E-03 0. -1.
        -11    1    3    3    0    0 -0.55104836456E+00 -0.43433394343E+01 -0.15066850793E+01  0.46301567934E+01  0.51100000000E-03 0.  1.
        -12    1    3    3    0    0 -0.24835209745E+02 -0.63910960931E+01  0.78020912062E+01  0.26804969307E+02  0.00000000000E+00 0.  1.
</event>
<event>
 7    1  0.2450552E-011  0.5052886E+02  0.7816164E-02  0.1300439E+00
        -11   -1    0    0    0    0  0.00000000000E+00  0.00000000000E+00  0.45593999997E+02  0.45594000000E+02  0.51100000000E-03 0. -1.
         11   -1    0    0    0    0 -0.00000000000E+00 -0.00000000000E+00 -0.45593999997E+02  0.45594000000E+02  0.51100000000E-03 0.  1.
    9900012    2    1    2    0    0 -0.12502341489E+02 -0.34376089406E+02 -0.17752226845E+02  0.50528860517E+02  0.30000002027E+02 0.  0.
         12    1    1    2    0    0  0.12502341489E+02  0.34376089406E+02  0.17752226845E+02  0.40659139483E+02  0.00000000000E+00 0. -1.
         11    1    3    3    0    0 -0.94935868284E+01 -0.18227743802E+02 -0.13654499276E+02  0.24674362924E+02  0.51100000000E-03 0. -1.
        -11    1    3    3    0    0 -0.89928904061E+01 -0.16359810278E+02 -0.59380565025E+01  0.19590201262E+02  0.51100000000E-03 0.  1.
         12    1    3    3    0    0  0.59841357457E+01  0.21146467429E+00  0.18403289336E+01  0.62642963304E+01  0.00000000000E+00 0. -1.
</event>
<event>
 7    1  0.2450552E-011  0.5052886E+02  0.7816164E-02  0.1300439E+00
        -11   -1    0    0    0    0  0.00000000000E+00  0.00000000000E+00  0.45593999997E+02  0.45594000000E+02  0.51100000000E-03 0. -1.
         11   -1    0    0    0    0 -0.00000000000E+00 -0.00000000000E+00 -0.45593999997E+02  0.45594000000E+02  0.51100000000E-03 0.  1.
    9900012    2    1    2    0    0 -0.37875502989E+02 -0.14749531634E+02  0.10310495640E+01  0.50528862364E+02  0.30000007642E+02 0.  0.
         12    1    1    2    0    0  0.37875502989E+02  0.14749531634E+02 -0.10310495640E+01  0.40659137636E+02  0.00000000000E+00 0. -1.
         11    1    3    3    0    0 -0.18470077902E+01 -0.36644263984E+01 -0.62044233295E+01  0.74387047070E+01  0.51100000000E-03 0. -1.
        -11    1    3    3    0    0 -0.23247586242E+02 -0.15523010580E+02  0.45681902557E+00  0.27957517905E+02  0.51100000000E-03 0.  1.
        -12    1    3    3    0    0 -0.12780908957E+02  0.44379053439E+01  0.67786538679E+01  0.15132639752E+02  0.00000000000E+00 0.  1.
</event>
<event>
 7    1  0.2450552E-011  0.5052884E+02  0.7816164E-02  0.1300439E+00
        -11   -1    0    0    0    0  0.00000000000E+00  0.00000000000E+00  0.45593999997E+02  0.45594000000E+02  0.51100000000E-03 0.  1.
         11   -1    0    0    0    0 -0.00000000000E+00 -0.00000000000E+00 -0.45593999997E+02  0.45594000000E+02  0.51100000000E-03 0. -1.
    9900012    2    1    2    0    0  0.56714959683E+01  0.22516774510E+02  0.33376578533E+02  0.50528843646E+02  0.29999950746E+02 0.  0.
         12    1    1    2    0    0 -0.56714959683E+01 -0.22516774510E+02 -0.33376578533E+02  0.40659156354E+02  0.00000000000E+00 0. -1.
         11    1    3    3    0    0 -0.59639344963E+01  0.99359161895E+01  0.58265532058E+01  0.12970723485E+02  0.51100000000E-03 0. -1.
        -11    1    3    3    0    0  0.81789120859E+01  0.17566511933E+02  0.22223711525E+02  0.29485086037E+02  0.51100000000E-03 0.  1.
         12    1    3    3    0    0  0.34565183788E+01 -0.49856536125E+01  0.53263138026E+01  0.80730341242E+01  0.00000000000E+00 0. -1.
</event>
<event>
 7    1  0.2450552E-011  0.5052886E+02  0.7816164E-02  0.1300439E+00
        -11   -1    0    0    0    0  0.00000000000E+00  0.00000000000E+00  0.45593999997E+02  0.45594000000E+02  0.51100000000E-03 0.  1.
         11   -1    0    0    0    0 -0.00000000000E+00 -0.00000000000E+00 -0.45593999997E+02  0.45594000000E+02  0.51100000000E-03 0. -1.
    9900012    2    1    2    0    0  0.51792229556E+01  0.38796882462E+02  0.11006504546E+02  0.50528861033E+02  0.30000003596E+02 0.  0.
         12    1    1    2    0    0 -0.51792229556E+01 -0.38796882462E+02 -0.11006504546E+02  0.40659138967E+02  0.00000000000E+00 0. -1.
         11    1    3    3    0    0 -0.59740992984E+01  0.30532544069E+01 -0.13549025445E+01  0.68445588657E+01  0.51100000000E-03 0. -1.
        -11    1    3    3    0    0  0.11102941176E+02  0.75211289388E+01  0.17119501209E+01  0.13519373386E+02  0.51100000000E-03 0.  1.
        -12    1    3    3    0    0  0.50381078283E-01  0.28222499117E+02  0.10649456970E+02  0.30164928781E+02  0.00000000000E+00 0.  1.
</event>
<event>
 7    1  0.2450552E-011  0.5052886E+02  0.7816164E-02  0.1300439E+00
        -11   -1    0    0    0    0  0.00000000000E+00  0.00000000000E+00  0.45593999997E+02  0.45594000000E+02  0.51100000000E-03 0.  1.
         11   -1    0    0    0    0 -0.00000000000E+00 -0.00000000000E+00 -0.45593999997E+02  0.45594000000E+02  0.51100000000E-03 0. -1.
    9900012    2    1    2    0    0  0.32215796445E+02  0.54280964422E+01  0.24204210282E+02  0.50528861213E+02  0.30000004142E+02 0.  0.
         12    1    1    2    0    0 -0.32215796445E+02 -0.54280964422E+01 -0.24204210282E+02  0.40659138787E+02  0.00000000000E+00 0. -1.
         11    1    3    3    0    0  0.12042549035E+02 -0.40615756424E+01  0.59423148497E+01  0.14029629004E+02  0.51100000000E-03 0. -1.
        -11    1    3    3    0    0  0.13822994725E+00 -0.14204736453E+01  0.13011887389E+02  0.13089922329E+02  0.51100000000E-03 0.  1.
        -12    1    3    3    0    0  0.20035017463E+02  0.10910145730E+02  0.52500080427E+01  0.23409309879E+02  0.00000000000E+00 0.  1.
</event>
<event>
 7    1  0.2450552E-011  0.5052886E+02  0.7816164E-02  0.1300439E+00
        -11   -1    0    0    0    0  0.00000000000E+00  0.00000000000E+00  0.45593999997E+02  0.45594000000E+02  0.51100000000E-03 0.  1.
         11   -1    0    0    0    0 -0.00000000000E+00 -0.00000000000E+00 -0.45593999997E+02  0.45594000000E+02  0.51100000000E-03 0. -1.
    9900012    2    1    2    0    0  0.38327789522E+02 -0.12110043141E+02  0.61231857437E+01  0.50528855909E+02  0.29999988022E+02 0.  0.
         12    1    1    2    0    0 -0.38327789522E+02  0.12110043141E+02 -0.61231857437E+01  0.40659144091E+02  0.00000000000E+00 0. -1.
         11    1    3    3    0    0  0.57628820814E+00 -0.37004553962E+01  0.23648928525E+01  0.44292433556E+01  0.51100000000E-03 0. -1.
        -11    1    3    3    0    0 -0.17414068665E+01 -0.48437171195E+01 -0.28739666295E+01  0.58952334862E+01  0.51100000000E-03 0.  1.
        -12    1    3    3    0    0  0.39492908180E+02 -0.35658706252E+01  0.66322595207E+01  0.40204379068E+02  0.00000000000E+00 0.  1.
</event>
<event>
 7    1  0.2450552E-011  0.5052886E+02  0.7816164E-02  0.1300439E+00
        -11   -1    0    0    0    0  0.00000000000E+00  0.00000000000E+00  0.45593999997E+02  0.45594000000E+02  0.51100000000E-03 0.  1.
         11   -1    0    0    0    0 -0.00000000000E+00 -0.00000000000E+00 -0.45593999997E+02  0.45594000000E+02  0.51100000000E-03 0. -1.
    9900012    2    1    2    0    0  0.14359589991E+02  0.17571419410E+02  0.33737416259E+02  0.50528857601E+02  0.29999993164E+02 0.  0.
         12    1    1    2    0    0 -0.14359589991E+02 -0.17571419410E+02 -0.33737416259E+02  0.40659142399E+02  0.00000000000E+00 0. -1.
         11    1    3    3    0    0  0.41103207879E+01  0.75936896263E+01  0.25856762632E+02  0.27260429806E+02  0.51100000000E-03 0. -1.
        -11    1    3    3    0    0 -0.38544468134E+01 -0.65227143277E+00  0.30510809160E+01  0.49589629234E+01  0.51100000000E-03 0.  1.
         12    1    3    3    0    0  0.14103716016E+02  0.10630001217E+02  0.48295727110E+01  0.18309464872E+02  0.00000000000E+00 0. -1.
</event>
<event>
 7    1  0.2450552E-011  0.5052886E+02  0.7816164E-02  0.1300439E+00
        -11   -1    0    0    0    0  0.00000000000E+00  0.00000000000E+00  0.45593999997E+02  0.45594000000E+02  0.51100000000E-03 0.  1.
         11   -1    0    0    0    0 -0.00000000000E+00 -0.00000000000E+00 -0.45593999997E+02  0.45594000000E+02  0.51100000000E-03 0. -1.
    9900012    2    1    2    0    0  0.29090338838E+01 -0.19521390531E+02  0.35547413527E+02  0.50528858656E+02  0.29999996370E+02 0.  0.
         12    1    1    2    0    0 -0.29090338838E+01  0.19521390531E+02 -0.35547413527E+02  0.40659141344E+02  0.00000000000E+00 0. -1.
         11    1    3    3    0    0  0.73279715206E+00  0.50695538538E+01  0.14863270943E+02  0.15721138360E+02  0.51100000000E-03 0.  1.
        -11    1    3    3    0    0 -0.25204627597E+01 -0.20984315848E+02  0.19525047699E+02  0.28773629108E+02  0.51100000000E-03 0. -1.
        -12    1    3    3    0    0  0.46966994914E+01 -0.36066285364E+01  0.11590948849E+01  0.60340911879E+01  0.00000000000E+00 0.  1.
</event>
<event>
 7    1  0.2450552E-011  0.5052886E+02  0.7816164E-02  0.1300439E+00
        -11   -1    0    0    0    0  0.00000000000E+00  0.00000000000E+00  0.45593999997E+02  0.45594000000E+02  0.51100000000E-03 0. -1.
         11   -1    0    0    0    0 -0.00000000000E+00 -0.00000000000E+00 -0.45593999997E+02  0.45594000000E+02  0.51100000000E-03 0.  1.
    9900012    2    1    2    0    0  0.17080226633E+02 -0.34418446138E+02 -0.13296690606E+02  0.50528861329E+02  0.30000004495E+02 0.  0.
         12    1    1    2    0    0 -0.17080226633E+02  0.34418446138E+02  0.13296690606E+02  0.40659138671E+02  0.00000000000E+00 0. -1.
         11    1    3    3    0    0 -0.48479296884E+01 -0.11464430669E+02  0.48587427448E-01  0.12447407515E+02  0.51100000000E-03 0. -1.
        -11    1    3    3    0    0  0.21160803013E+01 -0.12031872338E+02 -0.86693379855E+01  0.14980025673E+02  0.51100000000E-03 0.  1.
        -12    1    3    3    0    0  0.19812076021E+02 -0.10922143131E+02 -0.46759400483E+01  0.23101428141E+02  0.00000000000E+00 0.  1.
</event>
<event>
 7    1  0.2450552E-011  0.5052886E+02  0.7816164E-02  0.1300439E+00
        -11   -1    0    0    0    0  0.00000000000E+00  0.00000000000E+00  0.45593999997E+02  0.45594000000E+02  0.51100000000E-03 0. -1.
         11   -1    0    0    0    0 -0.00000000000E+00 -0.00000000000E+00 -0.45593999997E+02  0.45594000000E+02  0.51100000000E-03 0.  1.
    9900012    2    1    2    0    0  0.27876653395E+02 -0.14211310988E+02 -0.25963371056E+02  0.50528858333E+02  0.29999995389E+02 0.  0.
         12    1    1    2    0    0 -0.27876653395E+02  0.14211310988E+02  0.25963371056E+02  0.40659141667E+02  0.00000000000E+00 0. -1.
         11    1    3    3    0    0  0.23710604439E+01 -0.12286177770E+02 -0.48979092297E+01  0.13437321419E+02  0.51100000000E-03 0.  1.
        -11    1    3    3    0    0  0.79076126565E+01 -0.29829273404E+01  0.13660331998E+01  0.85612055463E+01  0.51100000000E-03 0. -1.
        -12    1    3    3    0    0  0.17597980295E+02  0.10577941223E+01 -0.22431495026E+02  0.28530331368E+02  0.00000000000E+00 0.  1.
</event>
<event>
 7    1  0.2450552E-011  0.5052885E+02  0.7816164E-02  0.1300439E+00
        -11   -1    0    0    0    0  0.00000000000E+00  0.00000000000E+00  0.45593999997E+02  0.45594000000E+02  0.51100000000E-03 0. -1.
         11   -1    0    0    0    0 -0.00000000000E+00 -0.00000000000E+00 -0.45593999997E+02  0.45594000000E+02  0.51100000000E-03 0.  1.
    9900012    2    1    2    0    0 -0.15094792232E+02  0.26849712847E+02 -0.26540654904E+02  0.50528853486E+02  0.29999980655E+02 0.  0.
         12    1    1    2    0    0  0.15094792232E+02 -0.26849712847E+02  0.26540654904E+02  0.40659146514E+02  0.00000000000E+00 0. -1.
         11    1    3    3    0    0 -0.93844614541E+01 -0.18566199115E+01 -0.17032467704E+01  0.97168000957E+01  0.51100000000E-03 0. -1.
        -11    1    3    3    0    0  0.16070058995E+01  0.50165903964E+00  0.92247204757E+00  0.19196574415E+01  0.51100000000E-03 0.  1.
        -12    1    3    3    0    0 -0.73173366776E+01  0.28204673719E+02 -0.25759880182E+02  0.38892395949E+02  0.00000000000E+00 0.  1.
</event>
<event>
 7    1  0.2450552E-011  0.5052886E+02  0.7816164E-02  0.1300439E+00
        -11   -1    0    0    0    0  0.00000000000E+00  0.00000000000E+00  0.45593999997E+02  0.45594000000E+02  0.51100000000E-03 0.  1.
         11   -1    0    0    0    0 -0.00000000000E+00 -0.00000000000E+00 -0.45593999997E+02  0.45594000000E+02  0.51100000000E-03 0. -1.
    9900012    2    1    2    0    0 -0.18320513421E+02 -0.24108782784E+02  0.27134688228E+02  0.50528856815E+02  0.29999990774E+02 0.  0.
         12    1    1    2    0    0  0.18320513421E+02  0.24108782784E+02 -0.27134688228E+02  0.40659143185E+02  0.00000000000E+00 0. -1.
         11    1    3    3    0    0 -0.11549990287E+02 -0.11517413951E+01  0.95317259481E+01  0.15019406902E+02  0.51100000000E-03 0. -1.
        -11    1    3    3    0    0  0.57992696404E+01 -0.14593339956E+02  0.80960465620E+01  0.17667571130E+02  0.51100000000E-03 0.  1.
         12    1    3    3    0    0 -0.12569792774E+02 -0.83637014326E+01  0.95069157180E+01  0.17841878783E+02  0.00000000000E+00 0. -1.
</event>
<event>
 7    1  0.2450552E-011  0.5052887E+02  0.7816164E-02  0.1300439E+00
        -11   -1    0    0    0    0  0.00000000000E+00  0.00000000000E+00  0.45593999997E+02  0.45594000000E+02  0.51100000000E-03 0. -1.
         11   -1    0    0    0    0 -0.00000000000E+00 -0.00000000000E+00 -0.45593999997E+02  0.45594000000E+02  0.51100000000E-03 0.  1.
    9900012    2    1    2    0    0 -0.12989352422E+02 -0.37156372837E+02 -0.10190457054E+02  0.50528871459E+02  0.30000035286E+02 0.  0.
         12    1    1    2    0    0  0.12989352422E+02  0.37156372837E+02  0.10190457054E+02  0.40659128541E+02  0.00000000000E+00 0. -1.
         11    1    3    3    0    0 -0.77830105566E+01 -0.27137858403E+02  0.49460903725E+01  0.28661863551E+02  0.51100000000E-03 0. -1.
        -11    1    3    3    0    0 -0.20451087654E+01 -0.11835902834E+02 -0.10390076082E+02  0.15881585154E+02  0.51100000000E-03 0.  1.
         12    1    3    3    0    0 -0.31612331004E+01  0.18173883995E+01 -0.47464713447E+01  0.59854227533E+01  0.00000000000E+00 0. -1.
</event>
<event>
 7    1  0.3342253E-011  0.5052887E+02  0.7816164E-02  0.1300439E+00
        -11   -1    0    0    0    0  0.00000000000E+00  0.00000000000E+00  0.45593999997E+02  0.45594000000E+02  0.51100000000E-03 0.  1.
         11   -1    0    0    0    0 -0.00000000000E+00 -0.00000000000E+00 -0.45593999997E+02  0.45594000000E+02  0.51100000000E-03 0. -1.
    9900012    2    1    2    0    0 -0.22841053608E+02 -0.22081397381E+02  0.25374462917E+02  0.50528865619E+02  0.30000017537E+02 0.  0.
         12    1    1    2    0    0  0.22841053608E+02  0.22081397381E+02 -0.25374462917E+02  0.40659134381E+02  0.00000000000E+00 0. -1.
         11    1    3    3    0    0  0.39869587780E+01 -0.94694275591E+01  0.13589924357E+01  0.10364012702E+02  0.51100000000E-03 0. -1.
        -11    1    3    3    0    0 -0.16739596966E+02 -0.57995213933E+01  0.65757174794E+01  0.18896788500E+02  0.51100000000E-03 0.  1.
        -12    1    3    3    0    0 -0.10088415420E+02 -0.68124484289E+01  0.17439753002E+02  0.21268064417E+02  0.00000000000E+00 0.  1.
</event>
<event>
 7    1  0.2450552E-011  0.5052887E+02  0.7816164E-02  0.1300439E+00
        -11   -1    0    0    0    0  0.00000000000E+00  0.00000000000E+00  0.45593999997E+02  0.45594000000E+02  0.51100000000E-03 0.  1.
         11   -1    0    0    0    0 -0.00000000000E+00 -0.00000000000E+00 -0.45593999997E+02  0.45594000000E+02  0.51100000000E-03 0. -1.
    9900012    2    1    2    0    0 -0.40254194332E+02  0.71220328575E+00 -0.56795525279E+01  0.50528871729E+02  0.30000036108E+02 0.  0.
         12    1    1    2    0    0  0.40254194332E+02 -0.71220328575E+00  0.56795525279E+01  0.40659128271E+02  0.00000000000E+00 0. -1.
         11    1    3    3    0    0 -0.12312858253E+02 -0.10888584214E+02 -0.11326615762E+01  0.16475759984E+02  0.51100000000E-03 0. -1.
        -11    1    3    3    0    0 -0.16863641199E+02  0.83598926136E+00  0.25117622133E+01  0.17070155893E+02  0.51100000000E-03 0.  1.
         12    1    3    3    0    0 -0.11077694879E+02  0.10764798239E+02 -0.70586531649E+01  0.16982955852E+02  0.00000000000E+00 0. -1.
</event>
<event>
 7    1  0.2450552E-011  0.5052888E+02  0.7816164E-02  0.1300439E+00
        -11   -1    0    0    0    0  0.00000000000E+00  0.00000000000E+00  0.45593999997E+02  0.45594000000E+02  0.51100000000E-03 0.  1.
         11   -1    0    0    0    0 -0.00000000000E+00 -0.00000000000E+00 -0.45593999997E+02  0.45594000000E+02  0.51100000000E-03 0. -1.
    9900012    2    1    2    0    0  0.14627335511E+02  0.33196289153E+02  0.18363321475E+02  0.50528878843E+02  0.30000057730E+02 0.  0.
         12    1    1    2    0    0 -0.14627335511E+02 -0.33196289153E+02 -0.18363321475E+02  0.40659121157E+02  0.00000000000E+00 0. -1.
         11    1    3    3    0    0  0.35481861073E+01  0.11891881299E+02 -0.16465954543E+01  0.12518695712E+02  0.51100000000E-03 0. -1.
        -11    1    3    3    0    0  0.56045446130E+01  0.24524842795E+02  0.12246451978E+02  0.27979535750E+02  0.51100000000E-03 0.  1.
        -12    1    3    3    0    0  0.54746047907E+01 -0.32204349414E+01  0.77634649513E+01  0.10030647381E+02  0.00000000000E+00 0.  1.
</event>
<event>
 7    1  0.2450552E-011  0.5052887E+02  0.7816164E-02  0.1300439E+00
        -11   -1    0    0    0    0  0.00000000000E+00  0.00000000000E+00  0.45593999997E+02  0.45594000000E+02  0.51100000000E-03 0.  1.
         11   -1    0    0    0    0 -0.00000000000E+00 -0.00000000000E+00 -0.45593999997E+02  0.45594000000E+02  0.51100000000E-03 0. -1.
    9900012    2    1    2    0    0 -0.31351638544E+02  0.18667537863E+02  0.17937749473E+02  0.50528867380E+02  0.30000022887E+02 0.  0.
         12    1    1    2    0    0  0.31351638544E+02 -0.18667537863E+02 -0.17937749473E+02  0.40659132620E+02  0.00000000000E+00 0. -1.
         11    1    3    3    0    0 -0.49669990678E+01  0.93676711161E+01 -0.13134080117E+01  0.10684071450E+02  0.51100000000E-03 0. -1.
        -11    1    3    3    0    0  0.59725173044E+00  0.35886144626E+01  0.10181714200E+02  0.10812130581E+02  0.51100000000E-03 0.  1.
         12    1    3    3    0    0 -0.26981891207E+02  0.57112522845E+01  0.90694432849E+01  0.29032665349E+02  0.00000000000E+00 0. -1.
</event>
<event>
 7    1  0.2450552E-011  0.5052886E+02  0.7816164E-02  0.1300439E+00
        -11   -1    0    0    0    0  0.00000000000E+00  0.00000000000E+00  0.45593999997E+02  0.45594000000E+02  0.51100000000E-03 0. -1.
         11   -1    0    0    0    0 -0.00000000000E+00 -0.00000000000E+00 -0.45593999997E+02  0.45594000000E+02  0.51100000000E-03 0.  1.
    9900012    2    1    2    0    0 -0.35827560613E+02 -0.18917117031E+02  0.34196443779E+01  0.50528863463E+02  0.30000010983E+02 0.  0.
         12    1    1    2    0    0  0.35827560613E+02  0.18917117031E+02 -0.34196443779E+01  0.40659136537E+02  0.00000000000E+00 0. -1.
         11    1    3    3    0    0 -0.30788557890E+02 -0.66393925106E+01  0.11214615005E+02  0.33433283115E+02  0.51100000000E-03 0.  1.
        -11    1    3    3    0    0  0.87463694365E+00  0.26237772038E+00 -0.17430562204E+01  0.19677594111E+01  0.51100000000E-03 0. -1.
        -12    1    3    3    0    0 -0.59136396662E+01 -0.12540102241E+02 -0.60519144069E+01  0.15127820937E+02  0.00000000000E+00 0.  1.
</event>
<event>
 7    1  0.2450552E-011  0.5052891E+02  0.7816164E-02  0.1300439E+00
        -11   -1    0    0    0    0  0.00000000000E+00  0.00000000000E+00  0.45593999997E+02  0.45594000000E+02  0.51100000000E-03 0.  1.
         11   -1    0    0    0    0 -0.00000000000E+00 -0.00000000000E+00 -0.45593999997E+02  0.45594000000E+02  0.51100000000E-03 0. -1.
    9900012    2    1    2    0    0 -0.18831722869E+01  0.37718718199E+02  0.15063657687E+02  0.50528907249E+02  0.30000144073E+02 0.  0.
         12    1    1    2    0    0  0.18831722869E+01 -0.37718718199E+02 -0.15063657687E+02  0.40659092751E+02  0.00000000000E+00 0. -1.
         11    1    3    3    0    0  0.43971247240E+01  0.15750947984E+02  0.63381667085E+01  0.17538512643E+02  0.51100000000E-03 0. -1.
        -11    1    3    3    0    0 -0.11126580205E+02  0.23917528504E+02  0.86670064849E+01  0.27766273759E+02  0.51100000000E-03 0.  1.
         12    1    3    3    0    0  0.48462831946E+01 -0.19497582887E+01  0.58484493453E-01  0.52241208468E+01  0.00000000000E+00 0. -1.
</event>
<event>
 7    1  0.2450552E-011  0.5052886E+02  0.7816164E-02  0.1300439E+00
        -11   -1    0    0    0    0  0.00000000000E+00  0.00000000000E+00  0.45593999997E+02  0.45594000000E+02  0.51100000000E-03 0. -1.
         11   -1    0    0    0    0 -0.00000000000E+00 -0.00000000000E+00 -0.45593999997E+02  0.45594000000E+02  0.51100000000E-03 0.  1.
    9900012    2    1    2    0    0  0.22537428691E+01 -0.34376711231E+02 -0.21594634965E+02  0.50528857224E+02  0.29999992019E+02 0.  0.
         12    1    1    2    0    0 -0.22537428691E+01  0.34376711231E+02  0.21594634965E+02  0.40659142776E+02  0.00000000000E+00 0. -1.
         11    1    3    3    0    0  0.32423207080E-01 -0.74039026054E+00  0.32601321978E+01  0.33433054318E+01  0.51100000000E-03 0. -1.
        -11    1    3    3    0    0  0.11446204282E+02 -0.13633764888E+02 -0.13894562011E+02  0.22582160907E+02  0.51100000000E-03 0.  1.
        -12    1    3    3    0    0 -0.92248846202E+01 -0.20002556082E+02 -0.10960205152E+02  0.24603390885E+02  0.00000000000E+00 0.  1.
</event>
<event>
 7    1  0.2450552E-011  0.5052886E+02  0.7816164E-02  0.1300439E+00
        -11   -1    0    0    0    0  0.00000000000E+00  0.00000000000E+00  0.45593999997E+02  0.45594000000E+02  0.51100000000E-03 0.  1.
         11   -1    0    0    0    0 -0.00000000000E+00 -0.00000000000E+00 -0.45593999997E+02  0.45594000000E+02  0.51100000000E-03 0. -1.
    9900012    2    1    2    0    0  0.29782448787E+02  0.71032591497E+01  0.26752851471E+02  0.50528860705E+02  0.30000002600E+02 0.  0.
         12    1    1    2    0    0 -0.29782448787E+02 -0.71032591497E+01 -0.26752851471E+02  0.40659139295E+02  0.00000000000E+00 0. -1.
         11    1    3    3    0    0  0.30100788049E+01 -0.16213062035E+01  0.84654832332E+01  0.91298200885E+01  0.51100000000E-03 0. -1.
        -11    1    3    3    0    0 -0.11925663435E+01  0.90824614782E+01  0.49936276081E+01  0.10433102987E+02  0.51100000000E-03 0.  1.
        -12    1    3    3    0    0  0.27964936326E+02 -0.35789612500E+00  0.13293740630E+02  0.30965937630E+02  0.00000000000E+00 0.  1.
</event>
<event>
 7    1  0.2450552E-011  0.5052886E+02  0.7816164E-02  0.1300439E+00
        -11   -1    0    0    0    0  0.00000000000E+00  0.00000000000E+00  0.45593999997E+02  0.45594000000E+02  0.51100000000E-03 0. -1.
         11   -1    0    0    0    0 -0.00000000000E+00 -0.00000000000E+00 -0.45593999997E+02  0.45594000000E+02  0.51100000000E-03 0.  1.
    9900012    2    1    2    0    0 -0.36595228495E+02  0.15896620257E+02 -0.78263894505E+01  0.50528860117E+02  0.30000000812E+02 0.  0.
         12    1    1    2    0    0  0.36595228495E+02 -0.15896620257E+02  0.78263894505E+01  0.40659139883E+02  0.00000000000E+00 0. -1.
         11    1    3    3    0    0 -0.14195063202E+02  0.12023098432E+02 -0.14682464201E+02  0.23698722972E+02  0.51100000000E-03 0. -1.
        -11    1    3    3    0    0 -0.97896827819E+01 -0.13907407018E+01 -0.25856042701E+01  0.10220440224E+02  0.51100000000E-03 0.  1.
        -12    1    3    3    0    0 -0.12610482511E+02  0.52642625263E+01  0.94416790203E+01  0.16609696922E+02  0.00000000000E+00 0.  1.
</event>
<event>
 7    1  0.2450552E-011  0.5052886E+02  0.7816164E-02  0.1300439E+00
        -11   -1    0    0    0    0  0.00000000000E+00  0.00000000000E+00  0.45593999997E+02  0.45594000000E+02  0.51100000000E-03 0.  1.
         11   -1    0    0    0    0 -0.00000000000E+00 -0.00000000000E+00 -0.45593999997E+02  0.45594000000E+02  0.51100000000E-03 0. -1.
    9900012    2    1    2    0    0  0.18725004125E+02 -0.14342676372E+02  0.33118386749E+02  0.50528859750E+02  0.29999999695E+02 0.  0.
         12    1    1    2    0    0 -0.18725004125E+02  0.14342676372E+02 -0.33118386749E+02  0.40659140250E+02  0.00000000000E+00 0. -1.
         11    1    3    3    0    0  0.31149155232E+01  0.33400746445E+01  0.19252483173E+01  0.49563473135E+01  0.51100000000E-03 0.  1.
        -11    1    3    3    0    0  0.72872820361E+01 -0.16290202556E+02  0.57232963597E+01  0.18741165926E+02  0.51100000000E-03 0. -1.
         12    1    3    3    0    0  0.83228065658E+01 -0.13925484609E+01  0.25469842073E+02  0.26831346510E+02  0.00000000000E+00 0. -1.
</event>
<event>
 7    1  0.2450552E-011  0.5052886E+02  0.7816164E-02  0.1300439E+00
        -11   -1    0    0    0    0  0.00000000000E+00  0.00000000000E+00  0.45593999997E+02  0.45594000000E+02  0.51100000000E-03 0.  1.
         11   -1    0    0    0    0 -0.00000000000E+00 -0.00000000000E+00 -0.45593999997E+02  0.45594000000E+02  0.51100000000E-03 0. -1.
    9900012    2    1    2    0    0 -0.25530650395E+02 -0.25620954178E+02  0.18571977518E+02  0.50528858942E+02  0.29999997241E+02 0.  0.
         12    1    1    2    0    0  0.25530650395E+02  0.25620954178E+02 -0.18571977518E+02  0.40659141058E+02  0.00000000000E+00 0. -1.
         11    1    3    3    0    0 -0.16498611362E+01  0.31552556320E+01  0.35568021260E+00  0.35782940833E+01  0.51100000000E-03 0. -1.
        -11    1    3    3    0    0 -0.66785904676E+01 -0.51328564197E+00 -0.33165010678E+01  0.74743703666E+01  0.51100000000E-03 0.  1.
        -12    1    3    3    0    0 -0.17202198792E+02 -0.28262924169E+02  0.21532798373E+02  0.39476194492E+02  0.00000000000E+00 0.  1.
</event>
<event>
 7    1  0.2450552E-011  0.5052885E+02  0.7816164E-02  0.1300439E+00
        -11   -1    0    0    0    0  0.00000000000E+00  0.00000000000E+00  0.45593999997E+02  0.45594000000E+02  0.51100000000E-03 0.  1.
         11   -1    0    0    0    0 -0.00000000000E+00 -0.00000000000E+00 -0.45593999997E+02  0.45594000000E+02  0.51100000000E-03 0. -1.
    9900012    2    1    2    0    0 -0.95520808289E+01 -0.38894472869E+02  0.70102748691E+01  0.50528853161E+02  0.29999979668E+02 0.  0.
         12    1    1    2    0    0  0.95520808289E+01  0.38894472869E+02 -0.70102748691E+01  0.40659146839E+02  0.00000000000E+00 0. -1.
         11    1    3    3    0    0 -0.70534220958E+00 -0.75410592540E+01 -0.70374001850E+01  0.10338766074E+02  0.51100000000E-03 0. -1.
        -11    1    3    3    0    0  0.14043510298E+01 -0.25023204692E+02  0.62214174165E+01  0.25823226170E+02  0.51100000000E-03 0.  1.
         12    1    3    3    0    0 -0.10251089649E+02 -0.63302089231E+01  0.78262576376E+01  0.14366860917E+02  0.00000000000E+00 0. -1.
</event>
<event>
 7    1  0.2450552E-011  0.5052881E+02  0.7816164E-02  0.1300439E+00
        -11   -1    0    0    0    0  0.00000000000E+00  0.00000000000E+00  0.45593999997E+02  0.45594000000E+02  0.51100000000E-03 0.  1.
         11   -1    0    0    0    0 -0.00000000000E+00 -0.00000000000E+00 -0.45593999997E+02  0.45594000000E+02  0.51100000000E-03 0. -1.
    9900012    2    1    2    0    0 -0.16052147356E+01  0.39289538295E+02  0.10340453092E+02  0.50528812798E+02  0.29999856981E+02 0.  0.
         12    1    1    2    0    0  0.16052147356E+01 -0.39289538295E+02 -0.10340453092E+02  0.40659187202E+02  0.00000000000E+00 0. -1.
         11    1    3    3    0    0 -0.74245370846E+01  0.13664695402E+02 -0.52657083142E+01  0.16418749516E+02  0.51100000000E-03 0. -1.
        -11    1    3    3    0    0  0.45145740605E+01  0.13354472302E+02 -0.14914692952E+00  0.14097714512E+02  0.51100000000E-03 0.  1.
         12    1    3    3    0    0  0.13047482885E+01  0.12270370591E+02  0.15755308336E+02  0.20012348770E+02  0.00000000000E+00 0. -1.
</event>
<event>
 7    1  0.2450552E-011  0.5052886E+02  0.7816164E-02  0.1300439E+00
        -11   -1    0    0    0    0  0.00000000000E+00  0.00000000000E+00  0.45593999997E+02  0.45594000000E+02  0.51100000000E-03 0.  1.
         11   -1    0    0    0    0 -0.00000000000E+00 -0.00000000000E+00 -0.45593999997E+02  0.45594000000E+02  0.51100000000E-03 0. -1.
    9900012    2    1    2    0    0  0.11644932111E+02 -0.24838221854E+02  0.30010393775E+02  0.50528862733E+02  0.30000008763E+02 0.  0.
         12    1    1    2    0    0 -0.11644932111E+02  0.24838221854E+02 -0.30010393775E+02  0.40659137267E+02  0.00000000000E+00 0. -1.
         11    1    3    3    0    0  0.31799070972E+01  0.38190722634E+01  0.89195006085E+01  0.10210514848E+02  0.51100000000E-03 0.  1.
        -11    1    3    3    0    0  0.87259755563E+01 -0.42501057427E+01  0.38833645000E+01  0.10454021635E+02  0.51100000000E-03 0. -1.
        -12    1    3    3    0    0 -0.26095054269E+00 -0.24407188375E+02  0.17207528667E+02  0.29864326250E+02  0.00000000000E+00 0.  1.
</event>
<event>
 7    1  0.2450552E-011  0.5052885E+02  0.7816164E-02  0.1300439E+00
        -11   -1    0    0    0    0  0.00000000000E+00  0.00000000000E+00  0.45593999997E+02  0.45594000000E+02  0.51100000000E-03 0. -1.
         11   -1    0    0    0    0 -0.00000000000E+00 -0.00000000000E+00 -0.45593999997E+02  0.45594000000E+02  0.51100000000E-03 0.  1.
    9900012    2    1    2    0    0  0.37533081790E+02  0.14109028353E+02 -0.67356685055E+01  0.50528854167E+02  0.29999982725E+02 0.  0.
         12    1    1    2    0    0 -0.37533081790E+02 -0.14109028353E+02  0.67356685055E+01  0.40659145833E+02  0.00000000000E+00 0. -1.
         11    1    3    3    0    0  0.12696284281E+01  0.16127537441E+01 -0.86664797590E+01  0.89062226931E+01  0.51100000000E-03 0. -1.
        -11    1    3    3    0    0  0.15430378102E+02  0.10879263816E+02 -0.51327978897E+01  0.19565289775E+02  0.51100000000E-03 0.  1.
        -12    1    3    3    0    0  0.20833075259E+02  0.16170107925E+01  0.70636091431E+01  0.22057341698E+02  0.00000000000E+00 0.  1.
</event>
<event>
 7    1  0.2450552E-011  0.5052887E+02  0.7816164E-02  0.1300439E+00
        -11   -1    0    0    0    0  0.00000000000E+00  0.00000000000E+00  0.45593999997E+02  0.45594000000E+02  0.51100000000E-03 0.  1.
         11   -1    0    0    0    0 -0.00000000000E+00 -0.00000000000E+00 -0.45593999997E+02  0.45594000000E+02  0.51100000000E-03 0. -1.
    9900012    2    1    2    0    0 -0.24366321323E+02  0.14926727027E+02  0.28924729687E+02  0.50528870865E+02  0.30000033482E+02 0.  0.
         12    1    1    2    0    0  0.24366321323E+02 -0.14926727027E+02 -0.28924729687E+02  0.40659129135E+02  0.00000000000E+00 0. -1.
         11    1    3    3    0    0 -0.70854543038E+01 -0.51515894077E+01  0.11568592158E+02  0.14511197776E+02  0.51100000000E-03 0. -1.
        -11    1    3    3    0    0 -0.96324069399E+01  0.61945260185E+01  0.16575886821E+02  0.20147343255E+02  0.51100000000E-03 0.  1.
         12    1    3    3    0    0 -0.76484600795E+01  0.13883790416E+02  0.78025070803E+00  0.15870329835E+02  0.00000000000E+00 0. -1.
</event>
<event>
 7    1  0.2450552E-011  0.5052886E+02  0.7816164E-02  0.1300439E+00
        -11   -1    0    0    0    0  0.00000000000E+00  0.00000000000E+00  0.45593999997E+02  0.45594000000E+02  0.51100000000E-03 0.  1.
         11   -1    0    0    0    0 -0.00000000000E+00 -0.00000000000E+00 -0.45593999997E+02  0.45594000000E+02  0.51100000000E-03 0. -1.
    9900012    2    1    2    0    0  0.23976843958E+02 -0.32754799600E+02 -0.23237497190E+01  0.50528858890E+02  0.29999997083E+02 0.  0.
         12    1    1    2    0    0 -0.23976843958E+02  0.32754799600E+02  0.23237497190E+01  0.40659141110E+02  0.00000000000E+00 0. -1.
         11    1    3    3    0    0  0.17664491423E+02 -0.23781965767E+02 -0.62574756352E+01  0.30278245566E+02  0.51100000000E-03 0. -1.
        -11    1    3    3    0    0 -0.28257482551E+00 -0.12393712339E+02  0.30684017368E+01  0.12771023591E+02  0.51100000000E-03 0.  1.
        -12    1    3    3    0    0  0.65949273603E+01  0.34208785062E+01  0.86532417944E+00  0.74795897332E+01  0.00000000000E+00 0.  1.
</event>
<event>
 7    1  0.2450552E-011  0.5052888E+02  0.7816164E-02  0.1300439E+00
        -11   -1    0    0    0    0  0.00000000000E+00  0.00000000000E+00  0.45593999997E+02  0.45594000000E+02  0.51100000000E-03 0. -1.
         11   -1    0    0    0    0 -0.00000000000E+00 -0.00000000000E+00 -0.45593999997E+02  0.45594000000E+02  0.51100000000E-03 0.  1.
    9900012    2    1    2    0    0 -0.36158221702E+02 -0.13830564096E+02  0.12428280762E+02  0.50528884631E+02  0.30000075325E+02 0.  0.
         12    1    1    2    0    0  0.36158221702E+02  0.13830564096E+02 -0.12428280762E+02  0.40659115369E+02  0.00000000000E+00 0. -1.
         11    1    3    3    0    0 -0.15083103951E+02  0.19417600210E+01  0.70184914062E+01  0.16749020230E+02  0.51100000000E-03 0. -1.
        -11    1    3    3    0    0 -0.19920791631E+02 -0.43106072089E+01 -0.13443863535E+01  0.20426126618E+02  0.51100000000E-03 0.  1.
         12    1    3    3    0    0 -0.11543261205E+01 -0.11461716908E+02  0.67541757093E+01  0.13353737783E+02  0.00000000000E+00 0. -1.
</event>
<event>
 7    1  0.2450552E-011  0.5052889E+02  0.7816164E-02  0.1300439E+00
        -11   -1    0    0    0    0  0.00000000000E+00  0.00000000000E+00  0.45593999997E+02  0.45594000000E+02  0.51100000000E-03 0.  1.
         11   -1    0    0    0    0 -0.00000000000E+00 -0.00000000000E+00 -0.45593999997E+02  0.45594000000E+02  0.51100000000E-03 0. -1.
    9900012    2    1    2    0    0  0.32069990414E+02 -0.44238346258E+01  0.24598957164E+02  0.50528889194E+02  0.30000089195E+02 0.  0.
         12    1    1    2    0    0 -0.32069990414E+02  0.44238346258E+01 -0.24598957164E+02  0.40659110806E+02  0.00000000000E+00 0. -1.
         11    1    3    3    0    0  0.53022618753E+01 -0.79151951261E+01  0.11775183253E+02  0.15146591557E+02  0.51100000000E-03 0. -1.
        -11    1    3    3    0    0  0.21523810532E+02 -0.56014431668E+01  0.10666841656E+02  0.24666416370E+02  0.51100000000E-03 0.  1.
        -12    1    3    3    0    0  0.52439180066E+01  0.90928036672E+01  0.21569322544E+01  0.10715881268E+02  0.00000000000E+00 0.  1.
</event>
<event>
 7    1  0.2450552E-011  0.5052886E+02  0.7816164E-02  0.1300439E+00
        -11   -1    0    0    0    0  0.00000000000E+00  0.00000000000E+00  0.45593999997E+02  0.45594000000E+02  0.51100000000E-03 0.  1.
         11   -1    0    0    0    0 -0.00000000000E+00 -0.00000000000E+00 -0.45593999997E+02  0.45594000000E+02  0.51100000000E-03 0. -1.
    9900012    2    1    2    0    0 -0.18127393663E+02  0.24452196350E+02  0.26956504542E+02  0.50528862719E+02  0.30000008720E+02 0.  0.
         12    1    1    2    0    0  0.18127393663E+02 -0.24452196350E+02 -0.26956504542E+02  0.40659137281E+02  0.00000000000E+00 0. -1.
         11    1    3    3    0    0  0.31251858237E+01  0.87578056778E+00  0.43033783243E+00  0.32739836509E+01  0.51100000000E-03 0. -1.
        -11    1    3    3    0    0 -0.30569734669E+01  0.25870226447E+01  0.17641461763E+02  0.18090299786E+02  0.51100000000E-03 0.  1.
        -12    1    3    3    0    0 -0.18195606020E+02  0.20989393137E+02  0.88847049461E+01  0.29164579282E+02  0.00000000000E+00 0.  1.
</event>
<event>
 7    1  0.2450552E-011  0.5052884E+02  0.7816164E-02  0.1300439E+00
        -11   -1    0    0    0    0  0.00000000000E+00  0.00000000000E+00  0.45593999997E+02  0.45594000000E+02  0.51100000000E-03 0.  1.
         11   -1    0    0    0    0 -0.00000000000E+00 -0.00000000000E+00 -0.45593999997E+02  0.45594000000E+02  0.51100000000E-03 0. -1.
    9900012    2    1    2    0    0 -0.15527923017E+02 -0.32788024182E+02  0.18357461080E+02  0.50528839897E+02  0.29999939352E+02 0.  0.
         12    1    1    2    0    0  0.15527923017E+02  0.32788024182E+02 -0.18357461080E+02  0.40659160103E+02  0.00000000000E+00 0. -1.
         11    1    3    3    0    0 -0.95305317948E+00 -0.16959469101E+02  0.46063306620E+01  0.17599721162E+02  0.51100000000E-03 0. -1.
        -11    1    3    3    0    0 -0.18743626370E+02 -0.16493007846E+02  0.89173868103E+01  0.26511556444E+02  0.51100000000E-03 0.  1.
         12    1    3    3    0    0  0.41687565325E+01  0.66445276463E+00  0.48337436075E+01  0.64175622915E+01  0.00000000000E+00 0. -1.
</event>
<event>
 7    1  0.2450552E-011  0.5052887E+02  0.7816164E-02  0.1300439E+00
        -11   -1    0    0    0    0  0.00000000000E+00  0.00000000000E+00  0.45593999997E+02  0.45594000000E+02  0.51100000000E-03 0.  1.
         11   -1    0    0    0    0 -0.00000000000E+00 -0.00000000000E+00 -0.45593999997E+02  0.45594000000E+02  0.51100000000E-03 0. -1.
    9900012    2    1    2    0    0  0.46977017535E+01  0.40378291882E+02 -0.83069578354E+00  0.50528869259E+02  0.30000028601E+02 0.  0.
         12    1    1    2    0    0 -0.46977017535E+01 -0.40378291882E+02  0.83069578354E+00  0.40659130741E+02  0.00000000000E+00 0. -1.
         11    1    3    3    0    0  0.28878152582E+01  0.75647680078E+00 -0.63814567761E+01  0.70451916200E+01  0.51100000000E-03 0. -1.
        -11    1    3    3    0    0  0.41227644085E+01  0.55613008637E+01  0.62656852452E+01  0.93372407872E+01  0.51100000000E-03 0.  1.
        -12    1    3    3    0    0 -0.23128779132E+01  0.34060514218E+02 -0.71492425267E+00  0.34146436852E+02  0.00000000000E+00 0.  1.
</event>
<event>
 7    1  0.2450552E-011  0.5052886E+02  0.7816164E-02  0.1300439E+00
        -11   -1    0    0    0    0  0.00000000000E+00  0.00000000000E+00  0.45593999997E+02  0.45594000000E+02  0.51100000000E-03 0. -1.
         11   -1    0    0    0    0 -0.00000000000E+00 -0.00000000000E+00 -0.45593999997E+02  0.45594000000E+02  0.51100000000E-03 0.  1.
    9900012    2    1    2    0    0  0.24475912490E+02  0.24964560333E+02 -0.20757323907E+02  0.50528855141E+02  0.29999985687E+02 0.  0.
         12    1    1    2    0    0 -0.24475912490E+02 -0.24964560333E+02  0.20757323907E+02  0.40659144859E+02  0.00000000000E+00 0. -1.
         11    1    3    3    0    0 -0.40294594053E+01 -0.16350920163E+00 -0.26982227849E+01  0.48521835102E+01  0.51100000000E-03 0. -1.
        -11    1    3    3    0    0  0.11276851133E+02  0.63354379639E+01 -0.15297192164E+02  0.20032704112E+02  0.51100000000E-03 0.  1.
        -12    1    3    3    0    0  0.17228520763E+02  0.18792631571E+02 -0.27619089583E+01  0.25643967519E+02  0.00000000000E+00 0.  1.
</event>
<event>
 7    1  0.2450552E-011  0.5052886E+02  0.7816164E-02  0.1300439E+00
        -11   -1    0    0    0    0  0.00000000000E+00  0.00000000000E+00  0.45593999997E+02  0.45594000000E+02  0.51100000000E-03 0.  1.
         11   -1    0    0    0    0 -0.00000000000E+00 -0.00000000000E+00 -0.45593999997E+02  0.45594000000E+02  0.51100000000E-03 0. -1.
    9900012    2    1    2    0    0 -0.49776799684E+01 -0.92948368199E+01  0.39268239189E+02  0.50528857137E+02  0.29999991754E+02 0.  0.
         12    1    1    2    0    0  0.49776799684E+01  0.92948368199E+01 -0.39268239189E+02  0.40659142863E+02  0.00000000000E+00 0. -1.
         11    1    3    3    0    0 -0.41919095276E+01  0.15639768718E+00  0.21299822076E+02  0.21708960971E+02  0.51100000000E-03 0.  1.
        -11    1    3    3    0    0 -0.58122550495E+01  0.36829786819E+01  0.12848023936E+01  0.69998112963E+01  0.51100000000E-03 0. -1.
         12    1    3    3    0    0  0.50264846087E+01 -0.13134213189E+02  0.16683614719E+02  0.21820084870E+02  0.00000000000E+00 0. -1.
</event>
<event>
 7    1  0.2450552E-011  0.5052886E+02  0.7816164E-02  0.1300439E+00
        -11   -1    0    0    0    0  0.00000000000E+00  0.00000000000E+00  0.45593999997E+02  0.45594000000E+02  0.51100000000E-03 0.  1.
         11   -1    0    0    0    0 -0.00000000000E+00 -0.00000000000E+00 -0.45593999997E+02  0.45594000000E+02  0.51100000000E-03 0. -1.
    9900012    2    1    2    0    0  0.38839498351E+02  0.15823634369E+01 -0.11922877554E+02  0.50528861847E+02  0.30000006069E+02 0.  0.
         12    1    1    2    0    0 -0.38839498351E+02 -0.15823634369E+01  0.11922877554E+02  0.40659138153E+02  0.00000000000E+00 0. -1.
         11    1    3    3    0    0 -0.13667191123E+01  0.59571119151E+01  0.25912265185E+00  0.61173726641E+01  0.51100000000E-03 0. -1.
        -11    1    3    3    0    0  0.21763474073E+02  0.42262432878E+00  0.48890834972E-01  0.21767632063E+02  0.51100000000E-03 0.  1.
        -12    1    3    3    0    0  0.18442743390E+02 -0.47973728070E+01 -0.12230891041E+02  0.22643857120E+02  0.00000000000E+00 0.  1.
</event>
<event>
 7    1  0.2450552E-011  0.5052886E+02  0.7816164E-02  0.1300439E+00
        -11   -1    0    0    0    0  0.00000000000E+00  0.00000000000E+00  0.45593999997E+02  0.45594000000E+02  0.51100000000E-03 0.  1.
         11   -1    0    0    0    0 -0.00000000000E+00 -0.00000000000E+00 -0.45593999997E+02  0.45594000000E+02  0.51100000000E-03 0. -1.
    9900012    2    1    2    0    0  0.19450318087E+02  0.29760131250E+02  0.19727786250E+02  0.50528857903E+02  0.29999994083E+02 0.  0.
         12    1    1    2    0    0 -0.19450318087E+02 -0.29760131250E+02 -0.19727786250E+02  0.40659142097E+02  0.00000000000E+00 0. -1.
         11    1    3    3    0    0  0.79764952777E+01  0.34808847994E+01  0.40933220075E+01  0.96175007783E+01  0.51100000000E-03 0. -1.
        -11    1    3    3    0    0 -0.64980987095E+00  0.85845388744E+00  0.12530912722E+02  0.12577081134E+02  0.51100000000E-03 0.  1.
         12    1    3    3    0    0  0.12123632681E+02  0.25420792563E+02  0.31035515207E+01  0.28334275991E+02  0.00000000000E+00 0. -1.
</event>
<event>
 7    1  0.2450552E-011  0.5052886E+02  0.7816164E-02  0.1300439E+00
        -11   -1    0    0    0    0  0.00000000000E+00  0.00000000000E+00  0.45593999997E+02  0.45594000000E+02  0.51100000000E-03 0. -1.
         11   -1    0    0    0    0 -0.00000000000E+00 -0.00000000000E+00 -0.45593999997E+02  0.45594000000E+02  0.51100000000E-03 0.  1.
    9900012    2    1    2    0    0  0.16034752949E+02  0.29896125472E+02 -0.22411466180E+02  0.50528862814E+02  0.30000009009E+02 0.  0.
         12    1    1    2    0    0 -0.16034752949E+02 -0.29896125472E+02  0.22411466180E+02  0.40659137186E+02  0.00000000000E+00 0. -1.
         11    1    3    3    0    0  0.63378292306E+01  0.29706586135E+01  0.34218242280E+01  0.77911342732E+01  0.51100000000E-03 0. -1.
        -11    1    3    3    0    0  0.13680608717E+02  0.16503186844E+02 -0.10763153639E+02  0.23986656861E+02  0.51100000000E-03 0.  1.
         12    1    3    3    0    0 -0.39836849985E+01  0.10422280015E+02 -0.15070136769E+02  0.18751071679E+02  0.00000000000E+00 0. -1.
</event>
<event>
 7    1  0.2450552E-011  0.5052884E+02  0.7816164E-02  0.1300439E+00
        -11   -1    0    0    0    0  0.00000000000E+00  0.00000000000E+00  0.45593999997E+02  0.45594000000E+02  0.51100000000E-03 0. -1.
         11   -1    0    0    0    0 -0.00000000000E+00 -0.00000000000E+00 -0.45593999997E+02  0.45594000000E+02  0.51100000000E-03 0.  1.
    9900012    2    1    2    0    0 -0.11499269725E+02 -0.16837764388E+02 -0.35177030285E+02  0.50528843915E+02  0.29999951565E+02 0.  0.
         12    1    1    2    0    0  0.11499269725E+02  0.16837764388E+02  0.35177030285E+02  0.40659156085E+02  0.00000000000E+00 0. -1.
         11    1    3    3    0    0  0.24634205989E+01 -0.60156319014E+01  0.15636047991E+01  0.66858902510E+01  0.51100000000E-03 0. -1.
        -11    1    3    3    0    0  0.36335450005E+00 -0.35328511215E+01  0.19960629535E+00  0.35570924185E+01  0.51100000000E-03 0.  1.
        -12    1    3    3    0    0 -0.14326044824E+02 -0.72892813655E+01 -0.36940241380E+02  0.40285861246E+02  0.00000000000E+00 0.  1.
</event>
<event>
 7    1  0.2450552E-011  0.5052887E+02  0.7816164E-02  0.1300439E+00
        -11   -1    0    0    0    0  0.00000000000E+00  0.00000000000E+00  0.45593999997E+02  0.45594000000E+02  0.51100000000E-03 0.  1.
         11   -1    0    0    0    0 -0.00000000000E+00 -0.00000000000E+00 -0.45593999997E+02  0.45594000000E+02  0.51100000000E-03 0. -1.
    9900012    2    1    2    0    0  0.22722464545E+02  0.75122764977E+01  0.32869750443E+02  0.50528865880E+02  0.30000018329E+02 0.  0.
         12    1    1    2    0    0 -0.22722464545E+02 -0.75122764977E+01 -0.32869750443E+02  0.40659134120E+02  0.00000000000E+00 0. -1.
         11    1    3    3    0    0 -0.75048748772E+00  0.50290903793E+01  0.10363557357E+02  0.11543756012E+02  0.51100000000E-03 0. -1.
        -11    1    3    3    0    0  0.72646439612E+01 -0.49033612810E+01  0.18869346338E+02  0.20805533764E+02  0.51100000000E-03 0.  1.
         12    1    3    3    0    0  0.16208308072E+02  0.73865473995E+01  0.36368467482E+01  0.18179576103E+02  0.00000000000E+00 0. -1.
</event>
<event>
 7    1  0.2450552E-011  0.5052886E+02  0.7816164E-02  0.1300439E+00
        -11   -1    0    0    0    0  0.00000000000E+00  0.00000000000E+00  0.45593999997E+02  0.45594000000E+02  0.51100000000E-03 0.  1.
         11   -1    0    0    0    0 -0.00000000000E+00 -0.00000000000E+00 -0.45593999997E+02  0.45594000000E+02  0.51100000000E-03 0. -1.
    9900012    2    1    2    0    0 -0.18672503014E+02 -0.15474956569E+02  0.32634781126E+02  0.50528860944E+02  0.30000003325E+02 0.  0.
         12    1    1    2    0    0  0.18672503014E+02  0.15474956569E+02 -0.32634781126E+02  0.40659139056E+02  0.00000000000E+00 0. -1.
         11    1    3    3    0    0 -0.11543138672E+02  0.70109958147E+01  0.16038171566E+02  0.20967142394E+02  0.51100000000E-03 0. -1.
        -11    1    3    3    0    0 -0.25959240573E+01 -0.51326484604E+01  0.74984683441E+01  0.94503930975E+01  0.51100000000E-03 0.  1.
        -12    1    3    3    0    0 -0.45334402854E+01 -0.17353303923E+02  0.90981412161E+01  0.20111325453E+02  0.00000000000E+00 0.  1.
</event>
<event>
 7    1  0.2450552E-011  0.5052886E+02  0.7816164E-02  0.1300439E+00
        -11   -1    0    0    0    0  0.00000000000E+00  0.00000000000E+00  0.45593999997E+02  0.45594000000E+02  0.51100000000E-03 0.  1.
         11   -1    0    0    0    0 -0.00000000000E+00 -0.00000000000E+00 -0.45593999997E+02  0.45594000000E+02  0.51100000000E-03 0. -1.
    9900012    2    1    2    0    0  0.31968004060E+02 -0.22456267594E+02  0.11266260772E+02  0.50528857490E+02  0.29999992828E+02 0.  0.
         12    1    1    2    0    0 -0.31968004060E+02  0.22456267594E+02 -0.11266260772E+02  0.40659142510E+02  0.00000000000E+00 0. -1.
         11    1    3    3    0    0  0.18022628632E+01 -0.64107459294E+01 -0.85388634240E+01  0.10828573481E+02  0.51100000000E-03 0. -1.
        -11    1    3    3    0    0  0.48480765047E+01 -0.30481296241E+01  0.17134977778E+01  0.59775425466E+01  0.51100000000E-03 0.  1.
         12    1    3    3    0    0  0.25317664692E+02 -0.12997392041E+02  0.18091626419E+02  0.33722741463E+02  0.00000000000E+00 0. -1.
</event>
<event>
 7    1  0.2450552E-011  0.5052886E+02  0.7816164E-02  0.1300439E+00
        -11   -1    0    0    0    0  0.00000000000E+00  0.00000000000E+00  0.45593999997E+02  0.45594000000E+02  0.51100000000E-03 0. -1.
         11   -1    0    0    0    0 -0.00000000000E+00 -0.00000000000E+00 -0.45593999997E+02  0.45594000000E+02  0.51100000000E-03 0.  1.
    9900012    2    1    2    0    0  0.67592970536E+01  0.94504902839E-01 -0.40093253167E+02  0.50528856165E+02  0.29999988800E+02 0.  0.
         12    1    1    2    0    0 -0.67592970536E+01 -0.94504902839E-01  0.40093253167E+02  0.40659143835E+02  0.00000000000E+00 0. -1.
         11    1    3    3    0    0  0.14364390729E+01 -0.53156179029E+01 -0.33523348849E+01  0.64464951983E+01  0.51100000000E-03 0. -1.
        -11    1    3    3    0    0  0.11091518177E+02 -0.22769387517E+01 -0.30722536095E+02  0.32742639630E+02  0.51100000000E-03 0.  1.
         12    1    3    3    0    0 -0.57686601967E+01  0.76870615574E+01 -0.60183821870E+01  0.11339721337E+02  0.00000000000E+00 0. -1.
</event>
<event>
 7    1  0.2450552E-011  0.5052886E+02  0.7816164E-02  0.1300439E+00
        -11   -1    0    0    0    0  0.00000000000E+00  0.00000000000E+00  0.45593999997E+02  0.45594000000E+02  0.51100000000E-03 0.  1.
         11   -1    0    0    0    0 -0.00000000000E+00 -0.00000000000E+00 -0.45593999997E+02  0.45594000000E+02  0.51100000000E-03 0. -1.
    9900012    2    1    2    0    0  0.10070668291E+02  0.11612623927E+02  0.37641654600E+02  0.50528861355E+02  0.30000004576E+02 0.  0.
         12    1    1    2    0    0 -0.10070668291E+02 -0.11612623927E+02 -0.37641654600E+02  0.40659138645E+02  0.00000000000E+00 0. -1.
         11    1    3    3    0    0  0.10503834112E+02 -0.44421617172E+01  0.23765712309E+02  0.26360432728E+02  0.51100000000E-03 0. -1.
        -11    1    3    3    0    0  0.51190269304E+01  0.59020245613E+01  0.80311580409E+01  0.11204366576E+02  0.51100000000E-03 0.  1.
         12    1    3    3    0    0 -0.55521927509E+01  0.10152761083E+02  0.58447842500E+01  0.12964062052E+02  0.00000000000E+00 0. -1.
</event>
<event>
 7    1  0.2450552E-011  0.5052886E+02  0.7816164E-02  0.1300439E+00
        -11   -1    0    0    0    0  0.00000000000E+00  0.00000000000E+00  0.45593999997E+02  0.45594000000E+02  0.51100000000E-03 0. -1.
         11   -1    0    0    0    0 -0.00000000000E+00 -0.00000000000E+00 -0.45593999997E+02  0.45594000000E+02  0.51100000000E-03 0.  1.
    9900012    2    1    2    0    0  0.37157886868E+02  0.95798991014E+01 -0.13441819359E+02  0.50528861655E+02  0.30000005487E+02 0.  0.
         12    1    1    2    0    0 -0.37157886868E+02 -0.95798991014E+01  0.13441819359E+02  0.40659138345E+02  0.00000000000E+00 0. -1.
         11    1    3    3    0    0  0.30251433141E+01  0.54959810475E+01 -0.73897163444E+01  0.96935652707E+01  0.51100000000E-03 0. -1.
        -11    1    3    3    0    0  0.28476101166E+01  0.83348554437E+01 -0.10881708427E+01  0.88748416712E+01  0.51100000000E-03 0.  1.
        -12    1    3    3    0    0  0.31285133437E+02 -0.42509373899E+01 -0.49639321718E+01  0.31960454713E+02  0.00000000000E+00 0.  1.
</event>
<event>
 7    1  0.2450552E-011  0.5052886E+02  0.7816164E-02  0.1300439E+00
        -11   -1    0    0    0    0  0.00000000000E+00  0.00000000000E+00  0.45593999997E+02  0.45594000000E+02  0.51100000000E-03 0.  1.
         11   -1    0    0    0    0 -0.00000000000E+00 -0.00000000000E+00 -0.45593999997E+02  0.45594000000E+02  0.51100000000E-03 0. -1.
    9900012    2    1    2    0    0  0.88773871483E+00  0.79387490201E+01  0.39866700092E+02  0.50528860901E+02  0.30000003194E+02 0.  0.
         12    1    1    2    0    0 -0.88773871483E+00 -0.79387490201E+01 -0.39866700092E+02  0.40659139099E+02  0.00000000000E+00 0. -1.
         11    1    3    3    0    0 -0.69520619658E+01  0.11964780453E+01  0.22755777009E+02  0.23824107808E+02  0.51100000000E-03 0. -1.
        -11    1    3    3    0    0  0.37305856970E+01  0.55899541904E+01  0.20295864635E+02  0.21379592584E+02  0.51100000000E-03 0.  1.
         12    1    3    3    0    0  0.41092149837E+01  0.11523167845E+01 -0.31849415524E+01  0.53251605089E+01  0.00000000000E+00 0. -1.
</event>
<event>
 7    1  0.2450552E-011  0.5052885E+02  0.7816164E-02  0.1300439E+00
        -11   -1    0    0    0    0  0.00000000000E+00  0.00000000000E+00  0.45593999997E+02  0.45594000000E+02  0.51100000000E-03 0. -1.
         11   -1    0    0    0    0 -0.00000000000E+00 -0.00000000000E+00 -0.45593999997E+02  0.45594000000E+02  0.51100000000E-03 0.  1.
    9900012    2    1    2    0    0  0.30409147406E+02  0.12841423622E+02 -0.23739161225E+02  0.50528853646E+02  0.29999981142E+02 0.  0.
         12    1    1    2    0    0 -0.30409147406E+02 -0.12841423622E+02  0.23739161225E+02  0.40659146354E+02  0.00000000000E+00 0. -1.
         11    1    3    3    0    0  0.21545761530E+02  0.63443049785E+01 -0.74442590382E+01  0.23661932264E+02  0.51100000000E-03 0. -1.
        -11    1    3    3    0    0  0.12424640702E+02  0.32790650417E+01 -0.17693552149E+02  0.21867458746E+02  0.51100000000E-03 0.  1.
         12    1    3    3    0    0 -0.35612548260E+01  0.32180536021E+01  0.13986499627E+01  0.49994626351E+01  0.00000000000E+00 0. -1.
</event>
<event>
 7    1  0.2450552E-011  0.5052886E+02  0.7816164E-02  0.1300439E+00
        -11   -1    0    0    0    0  0.00000000000E+00  0.00000000000E+00  0.45593999997E+02  0.45594000000E+02  0.51100000000E-03 0. -1.
         11   -1    0    0    0    0 -0.00000000000E+00 -0.00000000000E+00 -0.45593999997E+02  0.45594000000E+02  0.51100000000E-03 0.  1.
    9900012    2    1    2    0    0 -0.34562671567E+02  0.18366857744E+02  0.11011162373E+02  0.50528862945E+02  0.30000009409E+02 0.  0.
         12    1    1    2    0    0  0.34562671567E+02 -0.18366857744E+02 -0.11011162373E+02  0.40659137055E+02  0.00000000000E+00 0. -1.
         11    1    3    3    0    0 -0.78358711822E+01  0.23309227299E+01  0.95147232762E+01  0.12544482343E+02  0.51100000000E-03 0. -1.
        -11    1    3    3    0    0 -0.26106130614E+02  0.15930962096E+02  0.78702782596E+01  0.31579532756E+02  0.51100000000E-03 0.  1.
         12    1    3    3    0    0 -0.62066977068E+00  0.10497291856E+00 -0.63738391626E+01  0.64048478474E+01  0.00000000000E+00 0. -1.
</event>
<event>
 7    1  0.2450552E-011  0.5052887E+02  0.7816164E-02  0.1300439E+00
        -11   -1    0    0    0    0  0.00000000000E+00  0.00000000000E+00  0.45593999997E+02  0.45594000000E+02  0.51100000000E-03 0. -1.
         11   -1    0    0    0    0 -0.00000000000E+00 -0.00000000000E+00 -0.45593999997E+02  0.45594000000E+02  0.51100000000E-03 0.  1.
    9900012    2    1    2    0    0 -0.14517052361E+02 -0.26997706867E+02 -0.26712246046E+02  0.50528867272E+02  0.30000022561E+02 0.  0.
         12    1    1    2    0    0  0.14517052361E+02  0.26997706867E+02  0.26712246046E+02  0.40659132728E+02  0.00000000000E+00 0. -1.
         11    1    3    3    0    0  0.64574784565E+01 -0.16013245318E+01 -0.75982884002E+01  0.10099369047E+02  0.51100000000E-03 0. -1.
        -11    1    3    3    0    0 -0.14365319559E+01 -0.67097853605E+01  0.71896915852E+00  0.68994029130E+01  0.51100000000E-03 0.  1.
        -12    1    3    3    0    0 -0.19537998862E+02 -0.18686596975E+02 -0.19832926805E+02  0.33530095312E+02  0.00000000000E+00 0.  1.
</event>
<event>
 7    1  0.2450552E-011  0.5052885E+02  0.7816164E-02  0.1300439E+00
        -11   -1    0    0    0    0  0.00000000000E+00  0.00000000000E+00  0.45593999997E+02  0.45594000000E+02  0.51100000000E-03 0. -1.
         11   -1    0    0    0    0 -0.00000000000E+00 -0.00000000000E+00 -0.45593999997E+02  0.45594000000E+02  0.51100000000E-03 0.  1.
    9900012    2    1    2    0    0  0.22333416798E+02 -0.13264166981E+02 -0.31280128714E+02  0.50528854855E+02  0.29999984816E+02 0.  0.
         12    1    1    2    0    0 -0.22333416798E+02  0.13264166981E+02  0.31280128714E+02  0.40659145145E+02  0.00000000000E+00 0. -1.
         11    1    3    3    0    0  0.62702037114E+01  0.62945833221E+01 -0.74473104435E+01  0.11593087030E+02  0.51100000000E-03 0. -1.
        -11    1    3    3    0    0 -0.16177272701E+01 -0.21127389078E+01 -0.10322994998E+02  0.10660437758E+02  0.51100000000E-03 0.  1.
        -12    1    3    3    0    0  0.17680940357E+02 -0.17446011395E+02 -0.13509823273E+02  0.28275330067E+02  0.00000000000E+00 0.  1.
</event>
<event>
 7    1  0.2450552E-011  0.5052886E+02  0.7816164E-02  0.1300439E+00
        -11   -1    0    0    0    0  0.00000000000E+00  0.00000000000E+00  0.45593999997E+02  0.45594000000E+02  0.51100000000E-03 0.  1.
         11   -1    0    0    0    0 -0.00000000000E+00 -0.00000000000E+00 -0.45593999997E+02  0.45594000000E+02  0.51100000000E-03 0. -1.
    9900012    2    1    2    0    0 -0.18929600515E+02 -0.13092911079E+02  0.33517334109E+02  0.50528858568E+02  0.29999996104E+02 0.  0.
         12    1    1    2    0    0  0.18929600515E+02  0.13092911079E+02 -0.33517334109E+02  0.40659141432E+02  0.00000000000E+00 0. -1.
         11    1    3    3    0    0 -0.12692455917E+02  0.49609568995E+01  0.16192371306E+02  0.21163705236E+02  0.51100000000E-03 0. -1.
        -11    1    3    3    0    0 -0.20155761619E+01 -0.64049705916E+01  0.15434097874E+02  0.16831445957E+02  0.51100000000E-03 0.  1.
         12    1    3    3    0    0 -0.42215684363E+01 -0.11648897386E+02  0.18908649290E+01  0.12533707375E+02  0.00000000000E+00 0. -1.
</event>
<event>
 7    1  0.3857768E-011  0.5052886E+02  0.7816164E-02  0.1300439E+00
        -11   -1    0    0    0    0  0.00000000000E+00  0.00000000000E+00  0.45593999997E+02  0.45594000000E+02  0.51100000000E-03 0. -1.
         11   -1    0    0    0    0 -0.00000000000E+00 -0.00000000000E+00 -0.45593999997E+02  0.45594000000E+02  0.51100000000E-03 0.  1.
    9900012    2    1    2    0    0  0.82784019076E+01  0.25979939743E+02 -0.30160845568E+02  0.50528858192E+02  0.29999994961E+02 0.  0.
         12    1    1    2    0    0 -0.82784019076E+01 -0.25979939743E+02  0.30160845568E+02  0.40659141808E+02  0.00000000000E+00 0. -1.
         11    1    3    3    0    0 -0.51896201526E+01  0.74476966225E+01 -0.81021948195E+00  0.91135502511E+01  0.51100000000E-03 0. -1.
        -11    1    3    3    0    0  0.66366519906E+01  0.18556695609E+02 -0.28326169436E+02  0.34507506093E+02  0.51100000000E-03 0.  1.
         12    1    3    3    0    0  0.68313700696E+01 -0.24452488148E-01 -0.10244566499E+01  0.69078018486E+01  0.00000000000E+00 0. -1.
</event>
<event>
 7    1  0.2450552E-011  0.5052887E+02  0.7816164E-02  0.1300439E+00
        -11   -1    0    0    0    0  0.00000000000E+00  0.00000000000E+00  0.45593999997E+02  0.45594000000E+02  0.51100000000E-03 0.  1.
         11   -1    0    0    0    0 -0.00000000000E+00 -0.00000000000E+00 -0.45593999997E+02  0.45594000000E+02  0.51100000000E-03 0. -1.
    9900012    2    1    2    0    0  0.14870466347E+02 -0.32481789769E+02  0.19415655059E+02  0.50528866987E+02  0.30000021694E+02 0.  0.
         12    1    1    2    0    0 -0.14870466347E+02  0.32481789769E+02 -0.19415655059E+02  0.40659133013E+02  0.00000000000E+00 0. -1.
         11    1    3    3    0    0  0.46493648232E+01 -0.13225979586E+02  0.86776085300E+01  0.16487692966E+02  0.51100000000E-03 0. -1.
        -11    1    3    3    0    0  0.13438158399E+02 -0.48989868406E+01  0.12787782911E+02  0.19186233744E+02  0.51100000000E-03 0.  1.
         12    1    3    3    0    0 -0.32170568749E+01 -0.14356823342E+02 -0.20497363817E+01  0.14854940278E+02  0.00000000000E+00 0. -1.
</event>
<event>
 7    1  0.2450552E-011  0.5052886E+02  0.7816164E-02  0.1300439E+00
        -11   -1    0    0    0    0  0.00000000000E+00  0.00000000000E+00  0.45593999997E+02  0.45594000000E+02  0.51100000000E-03 0.  1.
         11   -1    0    0    0    0 -0.00000000000E+00 -0.00000000000E+00 -0.45593999997E+02  0.45594000000E+02  0.51100000000E-03 0. -1.
    9900012    2    1    2    0    0  0.35795414919E+02  0.31648138054E+01  0.19022035676E+02  0.50528860598E+02  0.30000002274E+02 0.  0.
         12    1    1    2    0    0 -0.35795414919E+02 -0.31648138054E+01 -0.19022035676E+02  0.40659139402E+02  0.00000000000E+00 0. -1.
         11    1    3    3    0    0  0.30231868020E+02  0.51962049946E-02  0.16981285420E+02  0.34674629425E+02  0.51100000000E-03 0.  1.
        -11    1    3    3    0    0  0.37681418076E+01 -0.52110057198E+01  0.32550207746E+01  0.72075400657E+01  0.51100000000E-03 0. -1.
         12    1    3    3    0    0  0.17954050918E+01  0.83706233202E+01 -0.12142705191E+01  0.86466911074E+01  0.00000000000E+00 0. -1.
</event>
<event>
 7    1  0.2450552E-011  0.5052885E+02  0.7816164E-02  0.1300439E+00
        -11   -1    0    0    0    0  0.00000000000E+00  0.00000000000E+00  0.45593999997E+02  0.45594000000E+02  0.51100000000E-03 0.  1.
         11   -1    0    0    0    0 -0.00000000000E+00 -0.00000000000E+00 -0.45593999997E+02  0.45594000000E+02  0.51100000000E-03 0. -1.
    9900012    2    1    2    0    0  0.15112051837E+02 -0.37209114169E+02  0.63461777415E+01  0.50528852691E+02  0.29999978239E+02 0.  0.
         12    1    1    2    0    0 -0.15112051837E+02  0.37209114169E+02 -0.63461777415E+01  0.40659147309E+02  0.00000000000E+00 0. -1.
         11    1    3    3    0    0 -0.75106732158E+01 -0.40832961991E+01  0.40514593054E+01  0.94603299503E+01  0.51100000000E-03 0. -1.
        -11    1    3    3    0    0  0.92425958619E+01 -0.20964098561E+02  0.17737148813E+01  0.22979666479E+02  0.51100000000E-03 0.  1.
        -12    1    3    3    0    0  0.13380129191E+02 -0.12161719409E+02  0.52100355482E+00  0.18088856262E+02  0.00000000000E+00 0.  1.
</event>
<event>
 7    1  0.2450552E-011  0.5052886E+02  0.7816164E-02  0.1300439E+00
        -11   -1    0    0    0    0  0.00000000000E+00  0.00000000000E+00  0.45593999997E+02  0.45594000000E+02  0.51100000000E-03 0.  1.
         11   -1    0    0    0    0 -0.00000000000E+00 -0.00000000000E+00 -0.45593999997E+02  0.45594000000E+02  0.51100000000E-03 0. -1.
    9900012    2    1    2    0    0  0.28885886296E+01 -0.39077952241E+02  0.10850603593E+02  0.50528857191E+02  0.29999991919E+02 0.  0.
         12    1    1    2    0    0 -0.28885886296E+01  0.39077952241E+02 -0.10850603593E+02  0.40659142809E+02  0.00000000000E+00 0. -1.
         11    1    3    3    0    0 -0.96158252984E+00 -0.27175905508E+02 -0.32236107309E+01  0.27383318782E+02  0.51100000000E-03 0.  1.
        -11    1    3    3    0    0 -0.18854469873E+00  0.12077141035E+01 -0.17934062290E+01  0.21703521886E+01  0.51100000000E-03 0. -1.
        -12    1    3    3    0    0  0.40387158582E+01 -0.13109760837E+02  0.15867620553E+02  0.20975186220E+02  0.00000000000E+00 0.  1.
</event>
<event>
 7    1  0.2450552E-011  0.5052886E+02  0.7816164E-02  0.1300439E+00
        -11   -1    0    0    0    0  0.00000000000E+00  0.00000000000E+00  0.45593999997E+02  0.45594000000E+02  0.51100000000E-03 0. -1.
         11   -1    0    0    0    0 -0.00000000000E+00 -0.00000000000E+00 -0.45593999997E+02  0.45594000000E+02  0.51100000000E-03 0.  1.
    9900012    2    1    2    0    0  0.17789276543E+02 -0.34176015990E+02  0.12988721501E+02  0.50528864309E+02  0.30000013554E+02 0.  0.
         12    1    1    2    0    0 -0.17789276543E+02  0.34176015990E+02 -0.12988721501E+02  0.40659135691E+02  0.00000000000E+00 0. -1.
         11    1    3    3    0    0 -0.21969661491E+01 -0.16701903741E+02  0.10174297625E+02  0.19679852166E+02  0.51100000000E-03 0. -1.
        -11    1    3    3    0    0  0.18123994912E+00 -0.41283823728E+01  0.54307672573E+01  0.68241938865E+01  0.51100000000E-03 0.  1.
        -12    1    3    3    0    0  0.19805002743E+02 -0.13345729876E+02 -0.26163433812E+01  0.24024818257E+02  0.00000000000E+00 0.  1.
</event>
<event>
 7    1  0.2450552E-011  0.5052886E+02  0.7816164E-02  0.1300439E+00
        -11   -1    0    0    0    0  0.00000000000E+00  0.00000000000E+00  0.45593999997E+02  0.45594000000E+02  0.51100000000E-03 0. -1.
         11   -1    0    0    0    0 -0.00000000000E+00 -0.00000000000E+00 -0.45593999997E+02  0.45594000000E+02  0.51100000000E-03 0.  1.
    9900012    2    1    2    0    0  0.10569459250E+02  0.23813795742E+01 -0.39189045731E+02  0.50528859050E+02  0.29999997568E+02 0.  0.
         12    1    1    2    0    0 -0.10569459250E+02 -0.23813795742E+01  0.39189045731E+02  0.40659140950E+02  0.00000000000E+00 0. -1.
         11    1    3    3    0    0  0.77650348516E+01  0.13605890592E+01 -0.44922700653E+01  0.90734480455E+01  0.51100000000E-03 0. -1.
        -11    1    3    3    0    0 -0.48240022672E+01  0.82518632861E+01 -0.26360397154E+02  0.28039878458E+02  0.51100000000E-03 0.  1.
         12    1    3    3    0    0  0.76284266661E+01 -0.72310727710E+01 -0.83363785117E+01  0.13415532547E+02  0.00000000000E+00 0. -1.
</event>
<event>
 7    1  0.2450552E-011  0.5052886E+02  0.7816164E-02  0.1300439E+00
        -11   -1    0    0    0    0  0.00000000000E+00  0.00000000000E+00  0.45593999997E+02  0.45594000000E+02  0.51100000000E-03 0.  1.
         11   -1    0    0    0    0 -0.00000000000E+00 -0.00000000000E+00 -0.45593999997E+02  0.45594000000E+02  0.51100000000E-03 0. -1.
    9900012    2    1    2    0    0  0.30188049350E+02  0.19854573682E+02  0.18645199932E+02  0.50528857115E+02  0.29999991686E+02 0.  0.
         12    1    1    2    0    0 -0.30188049350E+02 -0.19854573682E+02 -0.18645199932E+02  0.40659142885E+02  0.00000000000E+00 0. -1.
         11    1    3    3    0    0 -0.21427533671E+01 -0.48438020891E+01  0.48601398624E+01  0.71885165656E+01  0.51100000000E-03 0. -1.
        -11    1    3    3    0    0  0.11431308259E+02  0.55356492781E+01  0.34582949944E+01  0.13163511156E+02  0.51100000000E-03 0.  1.
         12    1    3    3    0    0  0.20899494459E+02  0.19162726493E+02  0.10326765075E+02  0.30176829393E+02  0.00000000000E+00 0. -1.
</event>
<event>
 7    1  0.2450552E-011  0.5052886E+02  0.7816164E-02  0.1300439E+00
        -11   -1    0    0    0    0  0.00000000000E+00  0.00000000000E+00  0.45593999997E+02  0.45594000000E+02  0.51100000000E-03 0.  1.
         11   -1    0    0    0    0 -0.00000000000E+00 -0.00000000000E+00 -0.45593999997E+02  0.45594000000E+02  0.51100000000E-03 0. -1.
    9900012    2    1    2    0    0 -0.21192124237E+01  0.25329559446E+02  0.31734653542E+02  0.50528857381E+02  0.29999992497E+02 0.  0.
         12    1    1    2    0    0  0.21192124237E+01 -0.25329559446E+02 -0.31734653542E+02  0.40659142619E+02  0.00000000000E+00 0. -1.
         11    1    3    3    0    0 -0.95552092598E+01  0.13259301688E+02  0.75161145599E+01  0.17988971166E+02  0.51100000000E-03 0. -1.
        -11    1    3    3    0    0  0.33434759999E+01  0.12911606885E+02  0.74883449390E+01  0.15295873114E+02  0.51100000000E-03 0.  1.
         12    1    3    3    0    0  0.40925208362E+01 -0.84134912706E+00  0.16730194043E+02  0.17244013102E+02  0.00000000000E+00 0. -1.
</event>
<event>
 7    1  0.2450552E-011  0.5052886E+02  0.7816164E-02  0.1300439E+00
        -11   -1    0    0    0    0  0.00000000000E+00  0.00000000000E+00  0.45593999997E+02  0.45594000000E+02  0.51100000000E-03 0. -1.
         11   -1    0    0    0    0 -0.00000000000E+00 -0.00000000000E+00 -0.45593999997E+02  0.45594000000E+02  0.51100000000E-03 0.  1.
    9900012    2    1    2    0    0 -0.31572112822E+02  0.24047907241E+02  0.88354837312E+01  0.50528856828E+02  0.29999990813E+02 0.  0.
         12    1    1    2    0    0  0.31572112822E+02 -0.24047907241E+02 -0.88354837312E+01  0.40659143172E+02  0.00000000000E+00 0. -1.
         11    1    3    3    0    0  0.72993812431E+00 -0.26420492015E+01 -0.19624391729E+01  0.33711127861E+01  0.51100000000E-03 0. -1.
        -11    1    3    3    0    0 -0.20167699981E+02  0.45824693590E+01  0.51904614066E+01  0.21323133865E+02  0.51100000000E-03 0.  1.
        -12    1    3    3    0    0 -0.12134350965E+02  0.22107487084E+02  0.56074614976E+01  0.25834610176E+02  0.00000000000E+00 0.  1.
</event>
<event>
 7    1  0.2450552E-011  0.5052885E+02  0.7816164E-02  0.1300439E+00
        -11   -1    0    0    0    0  0.00000000000E+00  0.00000000000E+00  0.45593999997E+02  0.45594000000E+02  0.51100000000E-03 0. -1.
         11   -1    0    0    0    0 -0.00000000000E+00 -0.00000000000E+00 -0.45593999997E+02  0.45594000000E+02  0.51100000000E-03 0.  1.
    9900012    2    1    2    0    0 -0.86173610214E+01 -0.17214245091E+02 -0.35813084727E+02  0.50528853640E+02  0.29999981125E+02 0.  0.
         12    1    1    2    0    0  0.86173610214E+01  0.17214245091E+02  0.35813084727E+02  0.40659146360E+02  0.00000000000E+00 0. -1.
         11    1    3    3    0    0 -0.54402959343E+01 -0.49185226375E+01  0.40125478005E+01  0.83599775658E+01  0.51100000000E-03 0. -1.
        -11    1    3    3    0    0 -0.27248442379E+01 -0.16155646576E+01 -0.87005099831E+01  0.92592494032E+01  0.51100000000E-03 0.  1.
         12    1    3    3    0    0 -0.45222084926E+00 -0.10680157796E+02 -0.31125122544E+02  0.32909626671E+02  0.00000000000E+00 0. -1.
</event>
<event>
 7    1  0.2450552E-011  0.5052886E+02  0.7816164E-02  0.1300439E+00
        -11   -1    0    0    0    0  0.00000000000E+00  0.00000000000E+00  0.45593999997E+02  0.45594000000E+02  0.51100000000E-03 0.  1.
         11   -1    0    0    0    0 -0.00000000000E+00 -0.00000000000E+00 -0.45593999997E+02  0.45594000000E+02  0.51100000000E-03 0. -1.
    9900012    2    1    2    0    0  0.38623372017E+02 -0.27282351531E+01  0.12407948738E+02  0.50528864189E+02  0.30000013190E+02 0.  0.
         12    1    1    2    0    0 -0.38623372017E+02  0.27282351531E+01 -0.12407948738E+02  0.40659135811E+02  0.00000000000E+00 0. -1.
         11    1    3    3    0    0  0.42188348778E+01 -0.38589947785E+01  0.51197690451E+01  0.76747927506E+01  0.51100000000E-03 0. -1.
        -11    1    3    3    0    0  0.82509341391E+00 -0.59692206382E+01  0.60065781348E+01  0.85083109557E+01  0.51100000000E-03 0.  1.
         12    1    3    3    0    0  0.33579443725E+02  0.70999802637E+01  0.12816015579E+01  0.34345760483E+02  0.00000000000E+00 0. -1.
</event>
<event>
 7    1  0.2450552E-011  0.5052886E+02  0.7816164E-02  0.1300439E+00
        -11   -1    0    0    0    0  0.00000000000E+00  0.00000000000E+00  0.45593999997E+02  0.45594000000E+02  0.51100000000E-03 0. -1.
         11   -1    0    0    0    0 -0.00000000000E+00 -0.00000000000E+00 -0.45593999997E+02  0.45594000000E+02  0.51100000000E-03 0.  1.
    9900012    2    1    2    0    0 -0.33119672130E+02  0.20537320094E+01 -0.23495420283E+02  0.50528864847E+02  0.30000015188E+02 0.  0.
         12    1    1    2    0    0  0.33119672130E+02 -0.20537320094E+01  0.23495420283E+02  0.40659135153E+02  0.00000000000E+00 0. -1.
         11    1    3    3    0    0 -0.53222208293E+00  0.40615650764E+01 -0.68335720365E+01  0.79672629086E+01  0.51100000000E-03 0. -1.
        -11    1    3    3    0    0 -0.29298355314E+02  0.65025614026E+01 -0.13469689728E+02  0.32895432366E+02  0.51100000000E-03 0.  1.
         12    1    3    3    0    0 -0.32890947327E+01 -0.85103944696E+01 -0.31921585188E+01  0.96661695721E+01  0.00000000000E+00 0. -1.
</event>
<event>
 7    1  0.2450552E-011  0.5052886E+02  0.7816164E-02  0.1300439E+00
        -11   -1    0    0    0    0  0.00000000000E+00  0.00000000000E+00  0.45593999997E+02  0.45594000000E+02  0.51100000000E-03 0. -1.
         11   -1    0    0    0    0 -0.00000000000E+00 -0.00000000000E+00 -0.45593999997E+02  0.45594000000E+02  0.51100000000E-03 0.  1.
    9900012    2    1    2    0    0  0.78570877560E+00 -0.36117470233E+02 -0.18656817911E+02  0.50528857745E+02  0.29999993602E+02 0.  0.
         12    1    1    2    0    0 -0.78570877560E+00  0.36117470233E+02  0.18656817911E+02  0.40659142255E+02  0.00000000000E+00 0. -1.
         11    1    3    3    0    0 -0.10306516478E+02 -0.55659780996E+01 -0.72917889072E+01  0.13797629501E+02  0.51100000000E-03 0. -1.
        -11    1    3    3    0    0  0.30372413876E+01 -0.21435719611E+02 -0.11605281157E+02  0.24564149923E+02  0.51100000000E-03 0.  1.
         12    1    3    3    0    0  0.80549838660E+01 -0.91157725231E+01  0.24025215275E+00  0.12167078321E+02  0.00000000000E+00 0. -1.
</event>
<event>
 7    1  0.2450552E-011  0.5052885E+02  0.7816164E-02  0.1300439E+00
        -11   -1    0    0    0    0  0.00000000000E+00  0.00000000000E+00  0.45593999997E+02  0.45594000000E+02  0.51100000000E-03 0. -1.
         11   -1    0    0    0    0 -0.00000000000E+00 -0.00000000000E+00 -0.45593999997E+02  0.45594000000E+02  0.51100000000E-03 0.  1.
    9900012    2    1    2    0    0 -0.19985556160E+02 -0.29475975078E+02 -0.19619139845E+02  0.50528853303E+02  0.29999980101E+02 0.  0.
         12    1    1    2    0    0  0.19985556160E+02  0.29475975078E+02  0.19619139845E+02  0.40659146697E+02  0.00000000000E+00 0. -1.
         11    1    3    3    0    0 -0.10607639252E+01 -0.11405809821E+02 -0.11694510216E+02  0.16370072915E+02  0.51100000000E-03 0. -1.
        -11    1    3    3    0    0  0.29442335291E+01 -0.11501044046E+01  0.30665463916E+01  0.44039707365E+01  0.51100000000E-03 0.  1.
        -12    1    3    3    0    0 -0.21869025764E+02 -0.16920060853E+02 -0.10991176020E+02  0.29754809652E+02  0.00000000000E+00 0.  1.
</event>
<event>
 7    1  0.2450552E-011  0.5052886E+02  0.7816164E-02  0.1300439E+00
        -11   -1    0    0    0    0  0.00000000000E+00  0.00000000000E+00  0.45593999997E+02  0.45594000000E+02  0.51100000000E-03 0.  1.
         11   -1    0    0    0    0 -0.00000000000E+00 -0.00000000000E+00 -0.45593999997E+02  0.45594000000E+02  0.51100000000E-03 0. -1.
    9900012    2    1    2    0    0  0.33355172293E+02 -0.22772894570E+02 -0.46897498625E+01  0.50528855892E+02  0.29999987971E+02 0.  0.
         12    1    1    2    0    0 -0.33355172293E+02  0.22772894570E+02  0.46897498625E+01  0.40659144108E+02  0.00000000000E+00 0. -1.
         11    1    3    3    0    0  0.18134593979E-01 -0.88194480644E+01  0.39645882798E+01  0.96695891078E+01  0.51100000000E-03 0. -1.
        -11    1    3    3    0    0  0.17448221704E+02 -0.15711195116E+02 -0.20695186004E+01  0.23570426388E+02  0.51100000000E-03 0.  1.
        -12    1    3    3    0    0  0.15888815994E+02  0.17577486094E+01 -0.65848195418E+01  0.17288840397E+02  0.00000000000E+00 0.  1.
</event>
<event>
 7    1  0.2450552E-011  0.5052887E+02  0.7816164E-02  0.1300439E+00
        -11   -1    0    0    0    0  0.00000000000E+00  0.00000000000E+00  0.45593999997E+02  0.45594000000E+02  0.51100000000E-03 0.  1.
         11   -1    0    0    0    0 -0.00000000000E+00 -0.00000000000E+00 -0.45593999997E+02  0.45594000000E+02  0.51100000000E-03 0. -1.
    9900012    2    1    2    0    0 -0.25728311745E+02  0.24219449723E+02  0.20115588442E+02  0.50528872260E+02  0.30000037723E+02 0.  0.
         12    1    1    2    0    0  0.25728311745E+02 -0.24219449723E+02 -0.20115588442E+02  0.40659127740E+02  0.00000000000E+00 0. -1.
         11    1    3    3    0    0 -0.17827340900E+01 -0.24053132164E+01 -0.88530956687E+00  0.31220899723E+01  0.51100000000E-03 0. -1.
        -11    1    3    3    0    0 -0.33165855311E+01  0.67426058719E+01  0.16859806022E+02  0.18458481326E+02  0.51100000000E-03 0.  1.
         12    1    3    3    0    0 -0.20628992124E+02  0.19882157068E+02  0.41410919876E+01  0.28948300962E+02  0.00000000000E+00 0. -1.
</event>
<event>
 7    1  0.2450552E-011  0.5052886E+02  0.7816164E-02  0.1300439E+00
        -11   -1    0    0    0    0  0.00000000000E+00  0.00000000000E+00  0.45593999997E+02  0.45594000000E+02  0.51100000000E-03 0.  1.
         11   -1    0    0    0    0 -0.00000000000E+00 -0.00000000000E+00 -0.45593999997E+02  0.45594000000E+02  0.51100000000E-03 0. -1.
    9900012    2    1    2    0    0 -0.10357063928E+02  0.30382520058E+02  0.24955956114E+02  0.50528855348E+02  0.29999986316E+02 0.  0.
         12    1    1    2    0    0  0.10357063928E+02 -0.30382520058E+02 -0.24955956114E+02  0.40659144652E+02  0.00000000000E+00 0. -1.
         11    1    3    3    0    0  0.24741156671E-01  0.22074204615E+02  0.16852238734E+01  0.22138453001E+02  0.51100000000E-03 0. -1.
        -11    1    3    3    0    0 -0.55847039460E+01  0.56276669070E+01  0.51486899669E+01  0.94534946775E+01  0.51100000000E-03 0.  1.
        -12    1    3    3    0    0 -0.47971011390E+01  0.26806485354E+01  0.18122042273E+02  0.18936907669E+02  0.00000000000E+00 0.  1.
</event>
<event>
 7    1  0.2450552E-011  0.5052885E+02  0.7816164E-02  0.1300439E+00
        -11   -1    0    0    0    0  0.00000000000E+00  0.00000000000E+00  0.45593999997E+02  0.45594000000E+02  0.51100000000E-03 0.  1.
         11   -1    0    0    0    0 -0.00000000000E+00 -0.00000000000E+00 -0.45593999997E+02  0.45594000000E+02  0.51100000000E-03 0. -1.
    9900012    2    1    2    0    0 -0.14161503101E+02 -0.53437064179E+01  0.37736755720E+02  0.50528854650E+02  0.29999984193E+02 0.  0.
         12    1    1    2    0    0  0.14161503101E+02  0.53437064179E+01 -0.37736755720E+02  0.40659145350E+02  0.00000000000E+00 0. -1.
         11    1    3    3    0    0 -0.47871713098E+01  0.12523542507E+01 -0.20688666590E+01  0.53633580743E+01  0.51100000000E-03 0. -1.
        -11    1    3    3    0    0 -0.91030265269E+01 -0.58474240650E+01  0.82653971280E+01  0.13615221265E+02  0.51100000000E-03 0.  1.
        -12    1    3    3    0    0 -0.27130526398E+00 -0.74863660365E+00  0.31540225251E+02  0.31550275311E+02  0.00000000000E+00 0.  1.
</event>
<event>
 7    1  0.2450552E-011  0.5052886E+02  0.7816164E-02  0.1300439E+00
        -11   -1    0    0    0    0  0.00000000000E+00  0.00000000000E+00  0.45593999997E+02  0.45594000000E+02  0.51100000000E-03 0.  1.
         11   -1    0    0    0    0 -0.00000000000E+00 -0.00000000000E+00 -0.45593999997E+02  0.45594000000E+02  0.51100000000E-03 0. -1.
    9900012    2    1    2    0    0 -0.30946910045E+02  0.25968361402E+02  0.45933028075E+01  0.50528862455E+02  0.30000007919E+02 0.  0.
         12    1    1    2    0    0  0.30946910045E+02 -0.25968361402E+02 -0.45933028075E+01  0.40659137545E+02  0.00000000000E+00 0. -1.
         11    1    3    3    0    0 -0.16767928752E+01  0.66797119708E+01 -0.11392875682E+01  0.69805560511E+01  0.51100000000E-03 0. -1.
        -11    1    3    3    0    0 -0.21728037908E+02  0.21990389581E+02  0.12217881847E+02  0.33240961213E+02  0.51100000000E-03 0.  1.
         12    1    3    3    0    0 -0.75420792616E+01 -0.27017401503E+01 -0.64852914714E+01  0.10307345191E+02  0.00000000000E+00 0. -1.
</event>
<event>
 7    1  0.2450552E-011  0.5052885E+02  0.7816164E-02  0.1300439E+00
        -11   -1    0    0    0    0  0.00000000000E+00  0.00000000000E+00  0.45593999997E+02  0.45594000000E+02  0.51100000000E-03 0.  1.
         11   -1    0    0    0    0 -0.00000000000E+00 -0.00000000000E+00 -0.45593999997E+02  0.45594000000E+02  0.51100000000E-03 0. -1.
    9900012    2    1    2    0    0 -0.20372552931E+02 -0.10090950665E+02  0.33709019348E+02  0.50528853628E+02  0.29999981089E+02 0.  0.
         12    1    1    2    0    0  0.20372552931E+02  0.10090950665E+02 -0.33709019348E+02  0.40659146372E+02  0.00000000000E+00 0. -1.
         11    1    3    3    0    0 -0.18949515393E+01 -0.26794835239E+01  0.10969947635E+02  0.11450337316E+02  0.51100000000E-03 0. -1.
        -11    1    3    3    0    0 -0.90303143459E+01 -0.15167120155E+02  0.66271901652E+01  0.18854913437E+02  0.51100000000E-03 0.  1.
        -12    1    3    3    0    0 -0.94472870463E+01  0.77556530138E+01  0.16111881548E+02  0.20223602875E+02  0.00000000000E+00 0.  1.
</event>
<event>
 7    1  0.2450552E-011  0.5052886E+02  0.7816164E-02  0.1300439E+00
        -11   -1    0    0    0    0  0.00000000000E+00  0.00000000000E+00  0.45593999997E+02  0.45594000000E+02  0.51100000000E-03 0. -1.
         11   -1    0    0    0    0 -0.00000000000E+00 -0.00000000000E+00 -0.45593999997E+02  0.45594000000E+02  0.51100000000E-03 0.  1.
    9900012    2    1    2    0    0  0.17280646955E+02 -0.35844072807E+02 -0.83514948575E+01  0.50528858581E+02  0.29999996143E+02 0.  0.
         12    1    1    2    0    0 -0.17280646955E+02  0.35844072807E+02  0.83514948575E+01  0.40659141419E+02  0.00000000000E+00 0. -1.
         11    1    3    3    0    0  0.58202331864E+01 -0.17039178341E+01 -0.46679619930E+01  0.76529941695E+01  0.51100000000E-03 0. -1.
        -11    1    3    3    0    0  0.71295000778E+01 -0.21484990851E+02 -0.13434317310E+02  0.26323287885E+02  0.51100000000E-03 0.  1.
         12    1    3    3    0    0  0.43309136905E+01 -0.12655164122E+02  0.97507844458E+01  0.16552576526E+02  0.00000000000E+00 0. -1.
</event>
<event>
 7    1  0.2450552E-011  0.5052885E+02  0.7816164E-02  0.1300439E+00
        -11   -1    0    0    0    0  0.00000000000E+00  0.00000000000E+00  0.45593999997E+02  0.45594000000E+02  0.51100000000E-03 0.  1.
         11   -1    0    0    0    0 -0.00000000000E+00 -0.00000000000E+00 -0.45593999997E+02  0.45594000000E+02  0.51100000000E-03 0. -1.
    9900012    2    1    2    0    0 -0.36949200030E+01  0.85987295912E+01  0.39567356381E+02  0.50528852500E+02  0.29999977659E+02 0.  0.
         12    1    1    2    0    0  0.36949200030E+01 -0.85987295912E+01 -0.39567356381E+02  0.40659147500E+02  0.00000000000E+00 0. -1.
         11    1    3    3    0    0  0.21802731559E+01  0.64579201098E+01  0.13734593354E+01  0.69530363141E+01  0.51100000000E-03 0. -1.
        -11    1    3    3    0    0 -0.12569107346E+02  0.17534761242E-01  0.16300583335E+02  0.20583774781E+02  0.51100000000E-03 0.  1.
         12    1    3    3    0    0  0.66939141869E+01  0.21232747202E+01  0.21893313711E+02  0.22992041405E+02  0.00000000000E+00 0. -1.
</event>
<event>
 7    1  0.2450552E-011  0.5052886E+02  0.7816164E-02  0.1300439E+00
        -11   -1    0    0    0    0  0.00000000000E+00  0.00000000000E+00  0.45593999997E+02  0.45594000000E+02  0.51100000000E-03 0.  1.
         11   -1    0    0    0    0 -0.00000000000E+00 -0.00000000000E+00 -0.45593999997E+02  0.45594000000E+02  0.51100000000E-03 0. -1.
    9900012    2    1    2    0    0  0.32608678763E+02  0.23938911123E+02  0.40948605961E+01  0.50528864744E+02  0.30000014876E+02 0.  0.
         12    1    1    2    0    0 -0.32608678763E+02 -0.23938911123E+02 -0.40948605961E+01  0.40659135256E+02  0.00000000000E+00 0. -1.
         11    1    3    3    0    0 -0.12588892739E+01  0.11168524576E+02  0.42891807386E+01  0.12029871781E+02  0.51100000000E-03 0. -1.
        -11    1    3    3    0    0  0.92112456145E+01  0.72383583243E+01  0.49390008327E+01  0.12713559945E+02  0.51100000000E-03 0.  1.
         12    1    3    3    0    0  0.24656322423E+02  0.55320282236E+01 -0.51333209752E+01  0.25785433018E+02  0.00000000000E+00 0. -1.
</event>
<event>
 7    1  0.2450552E-011  0.5052886E+02  0.7816164E-02  0.1300439E+00
        -11   -1    0    0    0    0  0.00000000000E+00  0.00000000000E+00  0.45593999997E+02  0.45594000000E+02  0.51100000000E-03 0. -1.
         11   -1    0    0    0    0 -0.00000000000E+00 -0.00000000000E+00 -0.45593999997E+02  0.45594000000E+02  0.51100000000E-03 0.  1.
    9900012    2    1    2    0    0 -0.22084107866E+02  0.16635911996E+02 -0.29811138692E+02  0.50528863533E+02  0.30000011194E+02 0.  0.
         12    1    1    2    0    0  0.22084107866E+02 -0.16635911996E+02  0.29811138692E+02  0.40659136467E+02  0.00000000000E+00 0. -1.
         11    1    3    3    0    0 -0.16669436467E+01  0.78004317961E+01 -0.10243853597E+00  0.79772132503E+01  0.51100000000E-03 0. -1.
        -11    1    3    3    0    0 -0.12637960270E+02  0.38831787467E+01 -0.20285932042E+01  0.13375810541E+02  0.51100000000E-03 0.  1.
         12    1    3    3    0    0 -0.77792039487E+01  0.49523014533E+01 -0.27680106952E+02  0.29175839741E+02  0.00000000000E+00 0. -1.
</event>
<event>
 7    1  0.2450552E-011  0.5052886E+02  0.7816164E-02  0.1300439E+00
        -11   -1    0    0    0    0  0.00000000000E+00  0.00000000000E+00  0.45593999997E+02  0.45594000000E+02  0.51100000000E-03 0.  1.
         11   -1    0    0    0    0 -0.00000000000E+00 -0.00000000000E+00 -0.45593999997E+02  0.45594000000E+02  0.51100000000E-03 0. -1.
    9900012    2    1    2    0    0 -0.28408615547E+02  0.11189786205E+02  0.26849676715E+02  0.50528857211E+02  0.29999991979E+02 0.  0.
         12    1    1    2    0    0  0.28408615547E+02 -0.11189786205E+02 -0.26849676715E+02  0.40659142789E+02  0.00000000000E+00 0. -1.
         11    1    3    3    0    0 -0.13186922730E+02 -0.61973985365E+01  0.14009613050E+02  0.20213162488E+02  0.51100000000E-03 0. -1.
        -11    1    3    3    0    0 -0.16248417134E+02  0.11299414883E+02  0.13717046004E+02  0.24079974821E+02  0.51100000000E-03 0.  1.
         12    1    3    3    0    0  0.10267243167E+01  0.60877698586E+01 -0.87698233840E+00  0.62357199020E+01  0.00000000000E+00 0. -1.
</event>
<event>
 7    1  0.2450552E-011  0.5052885E+02  0.7816164E-02  0.1300439E+00
        -11   -1    0    0    0    0  0.00000000000E+00  0.00000000000E+00  0.45593999997E+02  0.45594000000E+02  0.51100000000E-03 0. -1.
         11   -1    0    0    0    0 -0.00000000000E+00 -0.00000000000E+00 -0.45593999997E+02  0.45594000000E+02  0.51100000000E-03 0.  1.
    9900012    2    1    2    0    0 -0.20293273065E+02 -0.13653850836E+02 -0.32479557168E+02  0.50528853328E+02  0.29999980175E+02 0.  0.
         12    1    1    2    0    0  0.20293273065E+02  0.13653850836E+02  0.32479557168E+02  0.40659146672E+02  0.00000000000E+00 0. -1.
         11    1    3    3    0    0 -0.42519771042E+01  0.91756294196E+01 -0.58376802571E+01  0.11676900085E+02  0.51100000000E-03 0. -1.
        -11    1    3    3    0    0 -0.36427963925E+01 -0.26134496014E+01 -0.32155279867E+01  0.55172189435E+01  0.51100000000E-03 0.  1.
        -12    1    3    3    0    0 -0.12398499568E+02 -0.20216030654E+02 -0.23426348924E+02  0.33334734300E+02  0.00000000000E+00 0.  1.
</event>
<event>
 7    1  0.2450552E-011  0.5052885E+02  0.7816164E-02  0.1300439E+00
        -11   -1    0    0    0    0  0.00000000000E+00  0.00000000000E+00  0.45593999997E+02  0.45594000000E+02  0.51100000000E-03 0. -1.
         11   -1    0    0    0    0 -0.00000000000E+00 -0.00000000000E+00 -0.45593999997E+02  0.45594000000E+02  0.51100000000E-03 0.  1.
    9900012    2    1    2    0    0  0.28918585827E+02 -0.25705850436E+02 -0.12493633051E+02  0.50528853186E+02  0.29999979744E+02 0.  0.
         12    1    1    2    0    0 -0.28918585827E+02  0.25705850436E+02  0.12493633051E+02  0.40659146814E+02  0.00000000000E+00 0. -1.
         11    1    3    3    0    0 -0.20715770827E+01 -0.94338683347E+01 -0.60882226691E+01  0.11417344652E+02  0.51100000000E-03 0. -1.
        -11    1    3    3    0    0  0.11412396966E+02 -0.14829020554E+02 -0.53061680713E+01  0.19449886245E+02  0.51100000000E-03 0.  1.
         12    1    3    3    0    0  0.19577765944E+02 -0.14429615469E+01 -0.10992423103E+01  0.19661622289E+02  0.00000000000E+00 0. -1.
</event>
<event>
 7    1  0.2450552E-011  0.5052886E+02  0.7816164E-02  0.1300439E+00
        -11   -1    0    0    0    0  0.00000000000E+00  0.00000000000E+00  0.45593999997E+02  0.45594000000E+02  0.51100000000E-03 0.  1.
         11   -1    0    0    0    0 -0.00000000000E+00 -0.00000000000E+00 -0.45593999997E+02  0.45594000000E+02  0.51100000000E-03 0. -1.
    9900012    2    1    2    0    0 -0.29603148834E+02 -0.18289342464E+02  0.21031389734E+02  0.50528858066E+02  0.29999994578E+02 0.  0.
         12    1    1    2    0    0  0.29603148834E+02  0.18289342464E+02 -0.21031389734E+02  0.40659141934E+02  0.00000000000E+00 0. -1.
         11    1    3    3    0    0  0.41596877449E-01  0.25869665140E+01 -0.17878212308E+01  0.31449055723E+01  0.51100000000E-03 0. -1.
        -11    1    3    3    0    0 -0.77400105788E+00 -0.54371742903E+01  0.11497704287E+02  0.12742022839E+02  0.51100000000E-03 0.  1.
        -12    1    3    3    0    0 -0.28870744653E+02 -0.15439134688E+02  0.11321506678E+02  0.34641929655E+02  0.00000000000E+00 0.  1.
</event>
<event>
 7    1  0.2450552E-011  0.5052886E+02  0.7816164E-02  0.1300439E+00
        -11   -1    0    0    0    0  0.00000000000E+00  0.00000000000E+00  0.45593999997E+02  0.45594000000E+02  0.51100000000E-03 0.  1.
         11   -1    0    0    0    0 -0.00000000000E+00 -0.00000000000E+00 -0.45593999997E+02  0.45594000000E+02  0.51100000000E-03 0. -1.
    9900012    2    1    2    0    0  0.20252565161E+02  0.34391795606E+02  0.77591042447E+01  0.50528859585E+02  0.29999999194E+02 0.  0.
         12    1    1    2    0    0 -0.20252565161E+02 -0.34391795606E+02 -0.77591042447E+01  0.40659140415E+02  0.00000000000E+00 0. -1.
         11    1    3    3    0    0  0.71736666448E+01  0.46088436015E+01 -0.71764602806E+01  0.11144707932E+02  0.51100000000E-03 0. -1.
        -11    1    3    3    0    0  0.89233643138E+01  0.32142384761E+01  0.49475308031E+01  0.10697467970E+02  0.51100000000E-03 0.  1.
         12    1    3    3    0    0  0.41555342023E+01  0.26568713529E+02  0.99880337222E+01  0.28686683683E+02  0.00000000000E+00 0. -1.
</event>
<event>
 7    1  0.2450552E-011  0.5052886E+02  0.7816164E-02  0.1300439E+00
        -11   -1    0    0    0    0  0.00000000000E+00  0.00000000000E+00  0.45593999997E+02  0.45594000000E+02  0.51100000000E-03 0. -1.
         11   -1    0    0    0    0 -0.00000000000E+00 -0.00000000000E+00 -0.45593999997E+02  0.45594000000E+02  0.51100000000E-03 0.  1.
    9900012    2    1    2    0    0  0.38956464573E+02 -0.64102863667E+01  0.97194657251E+01  0.50528856904E+02  0.29999991045E+02 0.  0.
         12    1    1    2    0    0 -0.38956464573E+02  0.64102863667E+01 -0.97194657251E+01  0.40659143096E+02  0.00000000000E+00 0. -1.
         11    1    3    3    0    0 -0.11984527840E+01  0.49451862227E+01 -0.33708429965E+01  0.61035840799E+01  0.51100000000E-03 0. -1.
        -11    1    3    3    0    0  0.23138650100E+02 -0.57776592110E+01  0.34779923664E+01  0.24101346551E+02  0.51100000000E-03 0.  1.
        -12    1    3    3    0    0  0.17016267257E+02 -0.55778133784E+01  0.96123163552E+01  0.20323926274E+02  0.00000000000E+00 0.  1.
</event>
<event>
 7    1  0.2450552E-011  0.5052885E+02  0.7816164E-02  0.1300439E+00
        -11   -1    0    0    0    0  0.00000000000E+00  0.00000000000E+00  0.45593999997E+02  0.45594000000E+02  0.51100000000E-03 0.  1.
         11   -1    0    0    0    0 -0.00000000000E+00 -0.00000000000E+00 -0.45593999997E+02  0.45594000000E+02  0.51100000000E-03 0. -1.
    9900012    2    1    2    0    0  0.13062337268E+02 -0.33976686699E+02  0.18114254307E+02  0.50528854620E+02  0.29999984103E+02 0.  0.
         12    1    1    2    0    0 -0.13062337268E+02  0.33976686699E+02 -0.18114254307E+02  0.40659145380E+02  0.00000000000E+00 0. -1.
         11    1    3    3    0    0  0.10719623720E+02 -0.17382553042E+02 -0.42962710811E+00  0.20426650795E+02  0.51100000000E-03 0. -1.
        -11    1    3    3    0    0  0.56148233704E+01  0.38825950911E+00  0.15094942767E+01  0.58271399640E+01  0.51100000000E-03 0.  1.
        -12    1    3    3    0    0 -0.32721098223E+01 -0.16982393165E+02  0.17034387138E+02  0.24275063862E+02  0.00000000000E+00 0.  1.
</event>
<event>
 7    1  0.2450552E-011  0.5052887E+02  0.7816164E-02  0.1300439E+00
        -11   -1    0    0    0    0  0.00000000000E+00  0.00000000000E+00  0.45593999997E+02  0.45594000000E+02  0.51100000000E-03 0. -1.
         11   -1    0    0    0    0 -0.00000000000E+00 -0.00000000000E+00 -0.45593999997E+02  0.45594000000E+02  0.51100000000E-03 0.  1.
    9900012    2    1    2    0    0  0.12914644932E+02  0.35465741918E+02 -0.15118141786E+02  0.50528866775E+02  0.30000021051E+02 0.  0.
         12    1    1    2    0    0 -0.12914644932E+02 -0.35465741918E+02  0.15118141786E+02  0.40659133225E+02  0.00000000000E+00 0. -1.
         11    1    3    3    0    0  0.31140267708E+01  0.31267822957E+02 -0.88131069244E+01  0.32635023657E+02  0.51100000000E-03 0. -1.
        -11    1    3    3    0    0 -0.10172452778E+01  0.31739850948E+01 -0.61862324482E+01  0.70269795433E+01  0.51100000000E-03 0.  1.
         12    1    3    3    0    0  0.10817863439E+02  0.10239338668E+01 -0.11880241289E+00  0.10866863575E+02  0.00000000000E+00 0. -1.
</event>
<event>
 7    1  0.2450552E-011  0.5052886E+02  0.7816164E-02  0.1300439E+00
        -11   -1    0    0    0    0  0.00000000000E+00  0.00000000000E+00  0.45593999997E+02  0.45594000000E+02  0.51100000000E-03 0.  1.
         11   -1    0    0    0    0 -0.00000000000E+00 -0.00000000000E+00 -0.45593999997E+02  0.45594000000E+02  0.51100000000E-03 0. -1.
    9900012    2    1    2    0    0  0.13054262322E+02 -0.10566274207E+02  0.37028443587E+02  0.50528861422E+02  0.30000004778E+02 0.  0.
         12    1    1    2    0    0 -0.13054262322E+02  0.10566274207E+02 -0.37028443587E+02  0.40659138578E+02  0.00000000000E+00 0. -1.
         11    1    3    3    0    0  0.25951439928E+01 -0.20099473635E+01 -0.21470066258E+01  0.39222823024E+01  0.51100000000E-03 0. -1.
        -11    1    3    3    0    0  0.12803392768E+02  0.19413437325E+01  0.13196886851E+02  0.18489280805E+02  0.51100000000E-03 0.  1.
        -12    1    3    3    0    0 -0.23442744386E+01 -0.10497670576E+02  0.25978563362E+02  0.28117298315E+02  0.00000000000E+00 0.  1.
</event>
<event>
 7    1  0.2450552E-011  0.5052886E+02  0.7816164E-02  0.1300439E+00
        -11   -1    0    0    0    0  0.00000000000E+00  0.00000000000E+00  0.45593999997E+02  0.45594000000E+02  0.51100000000E-03 0. -1.
         11   -1    0    0    0    0 -0.00000000000E+00 -0.00000000000E+00 -0.45593999997E+02  0.45594000000E+02  0.51100000000E-03 0.  1.
    9900012    2    1    2    0    0  0.27371135269E+02 -0.29776273414E+02 -0.41665665366E+01  0.50528858579E+02  0.29999996137E+02 0.  0.
         12    1    1    2    0    0 -0.27371135269E+02  0.29776273414E+02  0.41665665366E+01  0.40659141421E+02  0.00000000000E+00 0. -1.
         11    1    3    3    0    0 -0.38853451533E+01 -0.26010843594E+00  0.28489288370E+01  0.48249309983E+01  0.51100000000E-03 0. -1.
        -11    1    3    3    0    0  0.10071450056E+02 -0.93625229138E+01  0.42133124891E+01  0.14382035459E+02  0.51100000000E-03 0.  1.
         12    1    3    3    0    0  0.21185030367E+02 -0.20153642064E+02 -0.11228807863E+02  0.31321892122E+02  0.00000000000E+00 0. -1.
</event>
<event>
 7    1  0.2450552E-011  0.5052887E+02  0.7816164E-02  0.1300439E+00
        -11   -1    0    0    0    0  0.00000000000E+00  0.00000000000E+00  0.45593999997E+02  0.45594000000E+02  0.51100000000E-03 0.  1.
         11   -1    0    0    0    0 -0.00000000000E+00 -0.00000000000E+00 -0.45593999997E+02  0.45594000000E+02  0.51100000000E-03 0. -1.
    9900012    2    1    2    0    0  0.14076213173E+02 -0.15216548133E+02  0.34978300026E+02  0.50528873262E+02  0.30000040767E+02 0.  0.
         12    1    1    2    0    0 -0.14076213173E+02  0.15216548133E+02 -0.34978300026E+02  0.40659126738E+02  0.00000000000E+00 0. -1.
         11    1    3    3    0    0  0.13956961784E+02 -0.54164422518E+01  0.23620091822E+02  0.27965038296E+02  0.51100000000E-03 0.  1.
        -11    1    3    3    0    0 -0.55339807305E+01  0.14637185812E+01  0.73966900473E+01  0.93529908975E+01  0.51100000000E-03 0. -1.
         12    1    3    3    0    0  0.56532321198E+01 -0.11263824462E+02  0.39615181564E+01  0.13210844069E+02  0.00000000000E+00 0. -1.
</event>
<event>
 7    1  0.2450552E-011  0.5052886E+02  0.7816164E-02  0.1300439E+00
        -11   -1    0    0    0    0  0.00000000000E+00  0.00000000000E+00  0.45593999997E+02  0.45594000000E+02  0.51100000000E-03 0.  1.
         11   -1    0    0    0    0 -0.00000000000E+00 -0.00000000000E+00 -0.45593999997E+02  0.45594000000E+02  0.51100000000E-03 0. -1.
    9900012    2    1    2    0    0 -0.18135067712E+02  0.17146417480E+02  0.32098064270E+02  0.50528855356E+02  0.29999986340E+02 0.  0.
         12    1    1    2    0    0  0.18135067712E+02 -0.17146417480E+02 -0.32098064270E+02  0.40659144644E+02  0.00000000000E+00 0. -1.
         11    1    3    3    0    0 -0.10929693310E+02  0.77890691408E+01 -0.91631084468E+00  0.13452413157E+02  0.51100000000E-03 0. -1.
        -11    1    3    3    0    0 -0.55740949358E+01 -0.92769734259E+00  0.66301520720E+01  0.87114908869E+01  0.51100000000E-03 0.  1.
        -12    1    3    3    0    0 -0.16312794666E+01  0.10285045681E+02  0.26384223043E+02  0.28364951312E+02  0.00000000000E+00 0.  1.
</event>
<event>
 7    1  0.2450552E-011  0.5052887E+02  0.7816164E-02  0.1300439E+00
        -11   -1    0    0    0    0  0.00000000000E+00  0.00000000000E+00  0.45593999997E+02  0.45594000000E+02  0.51100000000E-03 0.  1.
         11   -1    0    0    0    0 -0.00000000000E+00 -0.00000000000E+00 -0.45593999997E+02  0.45594000000E+02  0.51100000000E-03 0. -1.
    9900012    2    1    2    0    0  0.34637169514E+02 -0.84434061926E+00  0.21277190079E+02  0.50528865225E+02  0.30000016337E+02 0.  0.
         12    1    1    2    0    0 -0.34637169514E+02  0.84434061926E+00 -0.21277190079E+02  0.40659134775E+02  0.00000000000E+00 0. -1.
         11    1    3    3    0    0  0.95873790454E+01  0.60604633460E+01 -0.20117736750E+01  0.11519300608E+02  0.51100000000E-03 0. -1.
        -11    1    3    3    0    0  0.26623869038E+02 -0.81990163809E+01  0.17563393257E+02  0.32932158374E+02  0.51100000000E-03 0.  1.
         12    1    3    3    0    0 -0.15740785702E+01  0.12942124156E+01  0.57255704969E+01  0.60774062425E+01  0.00000000000E+00 0. -1.
</event>
<event>
 7    1  0.2450552E-011  0.5052885E+02  0.7816164E-02  0.1300439E+00
        -11   -1    0    0    0    0  0.00000000000E+00  0.00000000000E+00  0.45593999997E+02  0.45594000000E+02  0.51100000000E-03 0.  1.
         11   -1    0    0    0    0 -0.00000000000E+00 -0.00000000000E+00 -0.45593999997E+02  0.45594000000E+02  0.51100000000E-03 0. -1.
    9900012    2    1    2    0    0 -0.37211410381E+02 -0.17392723379E+01  0.16292709319E+02  0.50528849643E+02  0.29999968975E+02 0.  0.
         12    1    1    2    0    0  0.37211410381E+02  0.17392723379E+01 -0.16292709319E+02  0.40659150357E+02  0.00000000000E+00 0. -1.
         11    1    3    3    0    0 -0.14349632215E+02 -0.35879223127E+01  0.69664083111E+00  0.14807783086E+02  0.51100000000E-03 0.  1.
        -11    1    3    3    0    0  0.13965561821E+01 -0.50955792839E+01 -0.11888297902E+01  0.54155898977E+01  0.51100000000E-03 0. -1.
        -12    1    3    3    0    0 -0.24258334348E+02  0.69442292588E+01  0.16784898278E+02  0.30305476659E+02  0.00000000000E+00 0.  1.
</event>
<event>
 7    1  0.2450552E-011  0.5052885E+02  0.7816164E-02  0.1300439E+00
        -11   -1    0    0    0    0  0.00000000000E+00  0.00000000000E+00  0.45593999997E+02  0.45594000000E+02  0.51100000000E-03 0.  1.
         11   -1    0    0    0    0 -0.00000000000E+00 -0.00000000000E+00 -0.45593999997E+02  0.45594000000E+02  0.51100000000E-03 0. -1.
    9900012    2    1    2    0    0 -0.52857120841E+01 -0.16079335613E+02  0.36968669073E+02  0.50528852456E+02  0.29999977525E+02 0.  0.
         12    1    1    2    0    0  0.52857120841E+01  0.16079335613E+02 -0.36968669073E+02  0.40659147544E+02  0.00000000000E+00 0. -1.
         11    1    3    3    0    0  0.17780674347E-01 -0.85582983329E+01  0.33992697866E+02  0.35053506172E+02  0.51100000000E-03 0. -1.
        -11    1    3    3    0    0 -0.32472991286E+01 -0.19288623576E+01  0.72281165016E+01  0.81554356136E+01  0.51100000000E-03 0.  1.
         12    1    3    3    0    0 -0.20561936299E+01 -0.55921749230E+01 -0.42521452947E+01  0.73199106702E+01  0.00000000000E+00 0. -1.
</event>
<event>
 7    1  0.2450552E-011  0.5052890E+02  0.7816164E-02  0.1300439E+00
        -11   -1    0    0    0    0  0.00000000000E+00  0.00000000000E+00  0.45593999997E+02  0.45594000000E+02  0.51100000000E-03 0.  1.
         11   -1    0    0    0    0 -0.00000000000E+00 -0.00000000000E+00 -0.45593999997E+02  0.45594000000E+02  0.51100000000E-03 0. -1.
    9900012    2    1    2    0    0  0.11713394659E+02  0.19504953227E+02  0.33697414092E+02  0.50528898543E+02  0.30000117611E+02 0.  0.
         12    1    1    2    0    0 -0.11713394659E+02 -0.19504953227E+02 -0.33697414092E+02  0.40659101457E+02  0.00000000000E+00 0. -1.
         11    1    3    3    0    0  0.22669033376E+01  0.55635238788E+01  0.15768081015E+02  0.16873767447E+02  0.51100000000E-03 0. -1.
        -11    1    3    3    0    0  0.67290729104E+01 -0.46023838976E+01  0.10959632489E+02  0.13659279056E+02  0.51100000000E-03 0.  1.
         12    1    3    3    0    0  0.27174184112E+01  0.18543813246E+02  0.69697005874E+01  0.19995852040E+02  0.00000000000E+00 0. -1.
</event>
<event>
 7    1  0.2450552E-011  0.5052884E+02  0.7816164E-02  0.1300439E+00
        -11   -1    0    0    0    0  0.00000000000E+00  0.00000000000E+00  0.45593999997E+02  0.45594000000E+02  0.51100000000E-03 0.  1.
         11   -1    0    0    0    0 -0.00000000000E+00 -0.00000000000E+00 -0.45593999997E+02  0.45594000000E+02  0.51100000000E-03 0. -1.
    9900012    2    1    2    0    0  0.24544047074E+02 -0.17114939635E+02  0.27528822109E+02  0.50528838030E+02  0.29999933675E+02 0.  0.
         12    1    1    2    0    0 -0.24544047074E+02  0.17114939635E+02 -0.27528822109E+02  0.40659161970E+02  0.00000000000E+00 0. -1.
         11    1    3    3    0    0  0.16629970738E+02 -0.17386105973E+02  0.23515174580E+02  0.33642176556E+02  0.51100000000E-03 0. -1.
        -11    1    3    3    0    0  0.96663147864E+01 -0.48248024673E+01  0.13883441536E+01  0.10892376240E+02  0.51100000000E-03 0.  1.
         12    1    3    3    0    0 -0.17522384511E+01  0.50959688053E+01  0.26253033751E+01  0.59942852339E+01  0.00000000000E+00 0. -1.
</event>
<event>
 7    1  0.2450552E-011  0.5052886E+02  0.7816164E-02  0.1300439E+00
        -11   -1    0    0    0    0  0.00000000000E+00  0.00000000000E+00  0.45593999997E+02  0.45594000000E+02  0.51100000000E-03 0. -1.
         11   -1    0    0    0    0 -0.00000000000E+00 -0.00000000000E+00 -0.45593999997E+02  0.45594000000E+02  0.51100000000E-03 0.  1.
    9900012    2    1    2    0    0  0.21954621208E+02  0.24017853748E+02 -0.24378325677E+02  0.50528862603E+02  0.30000008369E+02 0.  0.
         12    1    1    2    0    0 -0.21954621208E+02 -0.24017853748E+02  0.24378325677E+02  0.40659137397E+02  0.00000000000E+00 0. -1.
         11    1    3    3    0    0  0.67389195286E+01 -0.71552999309E+00  0.26819302380E+01  0.72881938535E+01  0.51100000000E-03 0. -1.
        -11    1    3    3    0    0  0.14958260089E+02  0.94622981801E+01 -0.19015254915E+02  0.25978155275E+02  0.51100000000E-03 0.  1.
        -12    1    3    3    0    0  0.25744158972E+00  0.15271085561E+02 -0.80450009998E+01  0.17262513475E+02  0.00000000000E+00 0.  1.
</event>
<event>
 7    1  0.2450552E-011  0.5052886E+02  0.7816164E-02  0.1300439E+00
        -11   -1    0    0    0    0  0.00000000000E+00  0.00000000000E+00  0.45593999997E+02  0.45594000000E+02  0.51100000000E-03 0. -1.
         11   -1    0    0    0    0 -0.00000000000E+00 -0.00000000000E+00 -0.45593999997E+02  0.45594000000E+02  0.51100000000E-03 0.  1.
    9900012    2    1    2    0    0 -0.29070705242E+02  0.15944403591E+02 -0.23533711316E+02  0.50528862313E+02  0.30000007487E+02 0.  0.
         12    1    1    2    0    0  0.29070705242E+02 -0.15944403591E+02  0.23533711316E+02  0.40659137687E+02  0.00000000000E+00 0. -1.
         11    1    3    3    0    0 -0.21655004760E-01  0.26126725899E+01  0.21676232256E+01  0.33948663759E+01  0.51100000000E-03 0. -1.
        -11    1    3    3    0    0 -0.13909925492E+02 -0.49282692084E+01 -0.47967007506E+01  0.15517158340E+02  0.51100000000E-03 0.  1.
        -12    1    3    3    0    0 -0.15139124744E+02  0.18260000210E+02 -0.20904633791E+02  0.31616837597E+02  0.00000000000E+00 0.  1.
</event>
<event>
 7    1  0.2450552E-011  0.5052885E+02  0.7816164E-02  0.1300439E+00
        -11   -1    0    0    0    0  0.00000000000E+00  0.00000000000E+00  0.45593999997E+02  0.45594000000E+02  0.51100000000E-03 0.  1.
         11   -1    0    0    0    0 -0.00000000000E+00 -0.00000000000E+00 -0.45593999997E+02  0.45594000000E+02  0.51100000000E-03 0. -1.
    9900012    2    1    2    0    0  0.27794601861E+02  0.29675165622E+02  0.10507225527E+00  0.50528851122E+02  0.29999973471E+02 0.  0.
         12    1    1    2    0    0 -0.27794601861E+02 -0.29675165622E+02 -0.10507225527E+00  0.40659148878E+02  0.00000000000E+00 0. -1.
         11    1    3    3    0    0  0.39870052712E+00  0.71585451888E+01 -0.98426805419E+00  0.72368857386E+01  0.51100000000E-03 0. -1.
        -11    1    3    3    0    0  0.43839647810E+01  0.14616889913E+02 -0.81092944603E+01  0.17281009080E+02  0.51100000000E-03 0.  1.
        -12    1    3    3    0    0  0.23011936552E+02  0.78997305209E+01  0.91986347697E+01  0.26010956304E+02  0.00000000000E+00 0.  1.
</event>
<event>
 7    1  0.2450552E-011  0.5052886E+02  0.7816164E-02  0.1300439E+00
        -11   -1    0    0    0    0  0.00000000000E+00  0.00000000000E+00  0.45593999997E+02  0.45594000000E+02  0.51100000000E-03 0. -1.
         11   -1    0    0    0    0 -0.00000000000E+00 -0.00000000000E+00 -0.45593999997E+02  0.45594000000E+02  0.51100000000E-03 0.  1.
    9900012    2    1    2    0    0  0.19297830657E+02  0.35669521144E+02  0.29059543443E+01  0.50528861085E+02  0.30000003753E+02 0.  0.
         12    1    1    2    0    0 -0.19297830657E+02 -0.35669521144E+02 -0.29059543443E+01  0.40659138915E+02  0.00000000000E+00 0. -1.
         11    1    3    3    0    0  0.25044696167E+01  0.21568506385E+02  0.93789235011E+01  0.23652421484E+02  0.51100000000E-03 0. -1.
        -11    1    3    3    0    0  0.54662782162E-01  0.35910247839E+01  0.32553798361E+01  0.48472616142E+01  0.51100000000E-03 0.  1.
        -12    1    3    3    0    0  0.16738698258E+02  0.10509989975E+02 -0.97283489929E+01  0.22029177986E+02  0.00000000000E+00 0.  1.
</event>
<event>
 7    1  0.2450552E-011  0.5052886E+02  0.7816164E-02  0.1300439E+00
        -11   -1    0    0    0    0  0.00000000000E+00  0.00000000000E+00  0.45593999997E+02  0.45594000000E+02  0.51100000000E-03 0.  1.
         11   -1    0    0    0    0 -0.00000000000E+00 -0.00000000000E+00 -0.45593999997E+02  0.45594000000E+02  0.51100000000E-03 0. -1.
    9900012    2    1    2    0    0  0.74115320402E+01 -0.28810830704E+02  0.27715893040E+02  0.50528862035E+02  0.30000006643E+02 0.  0.
         12    1    1    2    0    0 -0.74115320402E+01  0.28810830704E+02 -0.27715893040E+02  0.40659137965E+02  0.00000000000E+00 0. -1.
         11    1    3    3    0    0  0.11665737081E+02 -0.11078705290E+02  0.29956492307E+01  0.16364627925E+02  0.51100000000E-03 0. -1.
        -11    1    3    3    0    0  0.19881858460E+01 -0.13926142371E+02  0.86628821188E+01  0.16520770296E+02  0.51100000000E-03 0.  1.
        -12    1    3    3    0    0 -0.62423908871E+01 -0.38059830420E+01  0.16057361691E+02  0.17643463814E+02  0.00000000000E+00 0.  1.
</event>
<event>
 7    1  0.2450552E-011  0.5052884E+02  0.7816164E-02  0.1300439E+00
        -11   -1    0    0    0    0  0.00000000000E+00  0.00000000000E+00  0.45593999997E+02  0.45594000000E+02  0.51100000000E-03 0. -1.
         11   -1    0    0    0    0 -0.00000000000E+00 -0.00000000000E+00 -0.45593999997E+02  0.45594000000E+02  0.51100000000E-03 0.  1.
    9900012    2    1    2    0    0 -0.28718252341E+02  0.28780481601E+02  0.33628662006E+00  0.50528840794E+02  0.29999942077E+02 0.  0.
         12    1    1    2    0    0  0.28718252341E+02 -0.28780481601E+02 -0.33628662006E+00  0.40659159206E+02  0.00000000000E+00 0. -1.
         11    1    3    3    0    0 -0.36385607859E+01  0.76575153070E+01  0.40705144894E+01  0.94045602629E+01  0.51100000000E-03 0. -1.
        -11    1    3    3    0    0 -0.20253781959E+02  0.44764758294E+01  0.55364414966E+01  0.21468737835E+02  0.51100000000E-03 0.  1.
        -12    1    3    3    0    0 -0.48259095954E+01  0.16646490464E+02 -0.92706693660E+01  0.19655542696E+02  0.00000000000E+00 0.  1.
</event>
<event>
 7    1  0.2450552E-011  0.5052886E+02  0.7816164E-02  0.1300439E+00
        -11   -1    0    0    0    0  0.00000000000E+00  0.00000000000E+00  0.45593999997E+02  0.45594000000E+02  0.51100000000E-03 0. -1.
         11   -1    0    0    0    0 -0.00000000000E+00 -0.00000000000E+00 -0.45593999997E+02  0.45594000000E+02  0.51100000000E-03 0.  1.
    9900012    2    1    2    0    0  0.38220622763E+02  0.12858797511E+02  0.51962856570E+01  0.50528855119E+02  0.29999985620E+02 0.  0.
         12    1    1    2    0    0 -0.38220622763E+02 -0.12858797511E+02 -0.51962856570E+01  0.40659144881E+02  0.00000000000E+00 0. -1.
         11    1    3    3    0    0  0.12001959134E+02  0.51897224989E+01 -0.10866602077E+02  0.17001861181E+02  0.51100000000E-03 0. -1.
        -11    1    3    3    0    0  0.38902386697E+01 -0.27607972410E+01  0.29915032779E+01  0.56307237933E+01  0.51100000000E-03 0.  1.
         12    1    3    3    0    0  0.22328424959E+02  0.10429872253E+02  0.13071384456E+02  0.27896270144E+02  0.00000000000E+00 0. -1.
</event>
<event>
 7    1  0.2450552E-011  0.5052886E+02  0.7816164E-02  0.1300439E+00
        -11   -1    0    0    0    0  0.00000000000E+00  0.00000000000E+00  0.45593999997E+02  0.45594000000E+02  0.51100000000E-03 0. -1.
         11   -1    0    0    0    0 -0.00000000000E+00 -0.00000000000E+00 -0.45593999997E+02  0.45594000000E+02  0.51100000000E-03 0.  1.
    9900012    2    1    2    0    0  0.15682740067E+02  0.36609979756E+02  0.81808606615E+01  0.50528862837E+02  0.30000009078E+02 0.  0.
         12    1    1    2    0    0 -0.15682740067E+02 -0.36609979756E+02 -0.81808606615E+01  0.40659137163E+02  0.00000000000E+00 0. -1.
         11    1    3    3    0    0 -0.26889149014E+01  0.47251411838E+01 -0.27143408375E+01  0.60765836617E+01  0.51100000000E-03 0. -1.
        -11    1    3    3    0    0 -0.13628108337E+01  0.15461897890E+02  0.10564589595E+02  0.18775997798E+02  0.51100000000E-03 0.  1.
        -12    1    3    3    0    0  0.19734465802E+02  0.16422940682E+02  0.33061190444E+00  0.25676281377E+02  0.00000000000E+00 0.  1.
</event>
<event>
 7    1  0.2450552E-011  0.5052884E+02  0.7816164E-02  0.1300439E+00
        -11   -1    0    0    0    0  0.00000000000E+00  0.00000000000E+00  0.45593999997E+02  0.45594000000E+02  0.51100000000E-03 0.  1.
         11   -1    0    0    0    0 -0.00000000000E+00 -0.00000000000E+00 -0.45593999997E+02  0.45594000000E+02  0.51100000000E-03 0. -1.
    9900012    2    1    2    0    0 -0.45178449834E+01 -0.83624883621E+00  0.40398725847E+02  0.50528840079E+02  0.29999939904E+02 0.  0.
         12    1    1    2    0    0  0.45178449834E+01  0.83624883621E+00 -0.40398725847E+02  0.40659159921E+02  0.00000000000E+00 0. -1.
         11    1    3    3    0    0 -0.12685615082E+01  0.47857447755E+01  0.14382241172E+02  0.15210570757E+02  0.51100000000E-03 0. -1.
        -11    1    3    3    0    0 -0.86502496724E+01  0.27331326605E+01  0.23302300767E+02  0.25005880405E+02  0.51100000000E-03 0.  1.
         12    1    3    3    0    0  0.54009661972E+01 -0.83551262722E+01  0.27141839080E+01  0.10312388917E+02  0.00000000000E+00 0. -1.
</event>
<event>
 7    1  0.2450552E-011  0.5052885E+02  0.7816164E-02  0.1300439E+00
        -11   -1    0    0    0    0  0.00000000000E+00  0.00000000000E+00  0.45593999997E+02  0.45594000000E+02  0.51100000000E-03 0.  1.
         11   -1    0    0    0    0 -0.00000000000E+00 -0.00000000000E+00 -0.45593999997E+02  0.45594000000E+02  0.51100000000E-03 0. -1.
    9900012    2    1    2    0    0 -0.12780689231E+02 -0.16379922603E+02 -0.34950227335E+02  0.50528852536E+02  0.29999977769E+02 0.  0.
         12    1    1    2    0    0  0.12780689231E+02  0.16379922603E+02  0.34950227335E+02  0.40659147464E+02  0.00000000000E+00 0. -1.
         11    1    3    3    0    0  0.44756037769E+01 -0.65581931573E+01 -0.81547402671E+01  0.11381595483E+02  0.51100000000E-03 0. -1.
        -11    1    3    3    0    0 -0.76948591669E+01  0.26300913510E+01 -0.47153407516E-01  0.81320638105E+01  0.51100000000E-03 0.  1.
        -12    1    3    3    0    0 -0.95614338413E+01 -0.12451820797E+02 -0.26748333660E+02  0.31015193242E+02  0.00000000000E+00 0.  1.
</event>
<event>
 7    1  0.2450552E-011  0.5052886E+02  0.7816164E-02  0.1300439E+00
        -11   -1    0    0    0    0  0.00000000000E+00  0.00000000000E+00  0.45593999997E+02  0.45594000000E+02  0.51100000000E-03 0.  1.
         11   -1    0    0    0    0 -0.00000000000E+00 -0.00000000000E+00 -0.45593999997E+02  0.45594000000E+02  0.51100000000E-03 0. -1.
    9900012    2    1    2    0    0 -0.40136049196E+02 -0.57605835538E+01  0.30131407665E+01  0.50528858528E+02  0.29999995982E+02 0.  0.
         12    1    1    2    0    0  0.40136049196E+02  0.57605835538E+01 -0.30131407665E+01  0.40659141472E+02  0.00000000000E+00 0. -1.
         11    1    3    3    0    0 -0.45095291914E+01  0.57131563770E+01 -0.66748462484E+01  0.98757066592E+01  0.51100000000E-03 0. -1.
        -11    1    3    3    0    0  0.44444940742E+00  0.10697865852E+01  0.89585448211E+00  0.14644227968E+01  0.51100000000E-03 0.  1.
        -12    1    3    3    0    0 -0.36070969412E+02 -0.12543526516E+02  0.87921325328E+01  0.39188729072E+02  0.00000000000E+00 0.  1.
</event>
<event>
 7    1  0.2450552E-011  0.5052890E+02  0.7816164E-02  0.1300439E+00
        -11   -1    0    0    0    0  0.00000000000E+00  0.00000000000E+00  0.45593999997E+02  0.45594000000E+02  0.51100000000E-03 0. -1.
         11   -1    0    0    0    0 -0.00000000000E+00 -0.00000000000E+00 -0.45593999997E+02  0.45594000000E+02  0.51100000000E-03 0.  1.
    9900012    2    1    2    0    0  0.19236795180E+02  0.29371297052E+02  0.20504504743E+02  0.50528903920E+02  0.30000133953E+02 0.  0.
         12    1    1    2    0    0 -0.19236795180E+02 -0.29371297052E+02 -0.20504504743E+02  0.40659096080E+02  0.00000000000E+00 0. -1.
         11    1    3    3    0    0  0.12463574083E+00  0.24436574829E+02  0.13062451939E+02  0.27709012511E+02  0.51100000000E-03 0. -1.
        -11    1    3    3    0    0  0.10707171678E+02  0.56637655396E+01  0.90413135466E+00  0.12146572323E+02  0.51100000000E-03 0.  1.
        -12    1    3    3    0    0  0.84049877607E+01 -0.72904331594E+00  0.65379214488E+01  0.10673319085E+02  0.00000000000E+00 0.  1.
</event>
<event>
 7    1  0.2694048E-011  0.5052887E+02  0.7816164E-02  0.1300439E+00
        -11   -1    0    0    0    0  0.00000000000E+00  0.00000000000E+00  0.45593999997E+02  0.45594000000E+02  0.51100000000E-03 0.  1.
         11   -1    0    0    0    0 -0.00000000000E+00 -0.00000000000E+00 -0.45593999997E+02  0.45594000000E+02  0.51100000000E-03 0. -1.
    9900012    2    1    2    0    0 -0.20247563757E+02 -0.17883509349E+02  0.30387185300E+02  0.50528870949E+02  0.30000033736E+02 0.  0.
         12    1    1    2    0    0  0.20247563757E+02  0.17883509349E+02 -0.30387185300E+02  0.40659129051E+02  0.00000000000E+00 0. -1.
         11    1    3    3    0    0  0.28655731630E+01 -0.15406931200E+01 -0.16579388785E+01  0.36515758829E+01  0.51100000000E-03 0. -1.
        -11    1    3    3    0    0 -0.57486834113E+01 -0.51937177743E+01  0.23139550587E+02  0.24402066858E+02  0.51100000000E-03 0.  1.
        -12    1    3    3    0    0 -0.17364453509E+02 -0.11149098455E+02  0.89055735910E+01  0.22475228208E+02  0.00000000000E+00 0.  1.
</event>
<event>
 7    1  0.2450552E-011  0.5052886E+02  0.7816164E-02  0.1300439E+00
        -11   -1    0    0    0    0  0.00000000000E+00  0.00000000000E+00  0.45593999997E+02  0.45594000000E+02  0.51100000000E-03 0.  1.
         11   -1    0    0    0    0 -0.00000000000E+00 -0.00000000000E+00 -0.45593999997E+02  0.45594000000E+02  0.51100000000E-03 0. -1.
    9900012    2    1    2    0    0 -0.32587487846E+02  0.17797097413E+02  0.16567566923E+02  0.50528864321E+02  0.30000013591E+02 0.  0.
         12    1    1    2    0    0  0.32587487846E+02 -0.17797097413E+02 -0.16567566923E+02  0.40659135679E+02  0.00000000000E+00 0. -1.
         11    1    3    3    0    0  0.53560956666E+00 -0.40228193580E+01  0.45822050811E+01  0.61209931271E+01  0.51100000000E-03 0. -1.
        -11    1    3    3    0    0 -0.14435171460E+02  0.10780478908E+02  0.13702289275E+02  0.22635053174E+02  0.51100000000E-03 0.  1.
        -12    1    3    3    0    0 -0.18687925953E+02  0.11039437863E+02 -0.17169274331E+01  0.21772818021E+02  0.00000000000E+00 0.  1.
</event>
<event>
 7    1  0.2450552E-011  0.5052886E+02  0.7816164E-02  0.1300439E+00
        -11   -1    0    0    0    0  0.00000000000E+00  0.00000000000E+00  0.45593999997E+02  0.45594000000E+02  0.51100000000E-03 0. -1.
         11   -1    0    0    0    0 -0.00000000000E+00 -0.00000000000E+00 -0.45593999997E+02  0.45594000000E+02  0.51100000000E-03 0.  1.
    9900012    2    1    2    0    0  0.34594163440E+02 -0.20018081704E+02 -0.74623036100E+01  0.50528859399E+02  0.29999998630E+02 0.  0.
         12    1    1    2    0    0 -0.34594163440E+02  0.20018081704E+02  0.74623036100E+01  0.40659140601E+02  0.00000000000E+00 0. -1.
         11    1    3    3    0    0  0.12392564106E+02  0.15528599140E+01 -0.28799762887E+01  0.12817226015E+02  0.51100000000E-03 0.  1.
        -11    1    3    3    0    0  0.19581461893E+02 -0.15745039427E+02 -0.12065087529E+02  0.27873038115E+02  0.51100000000E-03 0. -1.
         12    1    3    3    0    0  0.26201374406E+01 -0.58259021915E+01  0.74827602073E+01  0.98385952693E+01  0.00000000000E+00 0. -1.
</event>
<event>
 7    1  0.2450552E-011  0.5052887E+02  0.7816164E-02  0.1300439E+00
        -11   -1    0    0    0    0  0.00000000000E+00  0.00000000000E+00  0.45593999997E+02  0.45594000000E+02  0.51100000000E-03 0.  1.
         11   -1    0    0    0    0 -0.00000000000E+00 -0.00000000000E+00 -0.45593999997E+02  0.45594000000E+02  0.51100000000E-03 0. -1.
    9900012    2    1    2    0    0 -0.27175828851E+02 -0.19191370585E+02  0.23373719264E+02  0.50528866575E+02  0.30000020441E+02 0.  0.
         12    1    1    2    0    0  0.27175828851E+02  0.19191370585E+02 -0.23373719264E+02  0.40659133425E+02  0.00000000000E+00 0. -1.
         11    1    3    3    0    0 -0.54486666319E+01 -0.29860593998E+01  0.14462035266E+02  0.15740234531E+02  0.51100000000E-03 0.  1.
        -11    1    3    3    0    0 -0.24684385598E+02 -0.17583703380E+02  0.86415046207E+01  0.31514776205E+02  0.51100000000E-03 0. -1.
         12    1    3    3    0    0  0.29572233791E+01  0.13783921947E+01  0.27017937782E+00  0.32738558387E+01  0.00000000000E+00 0. -1.
</event>
<event>
 7    1  0.2450552E-011  0.5052887E+02  0.7816164E-02  0.1300439E+00
        -11   -1    0    0    0    0  0.00000000000E+00  0.00000000000E+00  0.45593999997E+02  0.45594000000E+02  0.51100000000E-03 0.  1.
         11   -1    0    0    0    0 -0.00000000000E+00 -0.00000000000E+00 -0.45593999997E+02  0.45594000000E+02  0.51100000000E-03 0. -1.
    9900012    2    1    2    0    0  0.31611019222E+02  0.20787869403E+02  0.14892049084E+02  0.50528866014E+02  0.30000018736E+02 0.  0.
         12    1    1    2    0    0 -0.31611019222E+02 -0.20787869403E+02 -0.14892049084E+02  0.40659133986E+02  0.00000000000E+00 0. -1.
         11    1    3    3    0    0  0.39019772444E+01 -0.19921944328E+01 -0.18345038751E+01  0.47497020751E+01  0.51100000000E-03 0. -1.
        -11    1    3    3    0    0  0.12309696116E+02 -0.12623929788E+01 -0.58751846880E+00  0.12388197315E+02  0.51100000000E-03 0.  1.
        -12    1    3    3    0    0  0.15399345861E+02  0.24042456815E+02  0.17314071428E+02  0.33390966624E+02  0.00000000000E+00 0.  1.
</event>
<event>
 7    1  0.2450552E-011  0.5052885E+02  0.7816164E-02  0.1300439E+00
        -11   -1    0    0    0    0  0.00000000000E+00  0.00000000000E+00  0.45593999997E+02  0.45594000000E+02  0.51100000000E-03 0.  1.
         11   -1    0    0    0    0 -0.00000000000E+00 -0.00000000000E+00 -0.45593999997E+02  0.45594000000E+02  0.51100000000E-03 0. -1.
    9900012    2    1    2    0    0  0.17490338330E+02 -0.12677380704E+02  0.34446173356E+02  0.50528846353E+02  0.29999958975E+02 0.  0.
         12    1    1    2    0    0 -0.17490338330E+02  0.12677380704E+02 -0.34446173356E+02  0.40659153647E+02  0.00000000000E+00 0. -1.
         11    1    3    3    0    0  0.73097499909E+00  0.31596223813E+01  0.88291588651E+01  0.94059334767E+01  0.51100000000E-03 0. -1.
        -11    1    3    3    0    0  0.64128927240E+01 -0.17924004286E+02  0.23694357809E+02  0.30394369791E+02  0.51100000000E-03 0.  1.
         12    1    3    3    0    0  0.10346470607E+02  0.20870012004E+01  0.19226566820E+01  0.10728543086E+02  0.00000000000E+00 0. -1.
</event>
<event>
 7    1  0.2450552E-011  0.5052886E+02  0.7816164E-02  0.1300439E+00
        -11   -1    0    0    0    0  0.00000000000E+00  0.00000000000E+00  0.45593999997E+02  0.45594000000E+02  0.51100000000E-03 0.  1.
         11   -1    0    0    0    0 -0.00000000000E+00 -0.00000000000E+00 -0.45593999997E+02  0.45594000000E+02  0.51100000000E-03 0. -1.
    9900012    2    1    2    0    0 -0.44722328658E+01  0.20550367620E+02  0.34797224866E+02  0.50528864071E+02  0.30000012829E+02 0.  0.
         12    1    1    2    0    0  0.44722328658E+01 -0.20550367620E+02 -0.34797224866E+02  0.40659135929E+02  0.00000000000E+00 0. -1.
         11    1    3    3    0    0  0.17683333212E+01  0.73661899299E+00  0.29446940237E+01  0.35129522385E+01  0.51100000000E-03 0. -1.
        -11    1    3    3    0    0 -0.97122311980E+01  0.18258461684E+02  0.69394943205E+01  0.21814111020E+02  0.51100000000E-03 0.  1.
        -12    1    3    3    0    0  0.34716650110E+01  0.15552869430E+01  0.24913036522E+02  0.25201800812E+02  0.00000000000E+00 0.  1.
</event>
<event>
 7    1  0.2450552E-011  0.5052886E+02  0.7816164E-02  0.1300439E+00
        -11   -1    0    0    0    0  0.00000000000E+00  0.00000000000E+00  0.45593999997E+02  0.45594000000E+02  0.51100000000E-03 0. -1.
         11   -1    0    0    0    0 -0.00000000000E+00 -0.00000000000E+00 -0.45593999997E+02  0.45594000000E+02  0.51100000000E-03 0.  1.
    9900012    2    1    2    0    0  0.10247480704E+01  0.36316159088E+02 -0.18255191290E+02  0.50528861685E+02  0.30000005577E+02 0.  0.
         12    1    1    2    0    0 -0.10247480704E+01 -0.36316159088E+02  0.18255191290E+02  0.40659138315E+02  0.00000000000E+00 0. -1.
         11    1    3    3    0    0 -0.27492378310E+01  0.46702368150E+00  0.59901846911E+00  0.28522347656E+01  0.51100000000E-03 0. -1.
        -11    1    3    3    0    0 -0.94506695834E+01  0.65861673954E+01 -0.32218523679E+01  0.11961316377E+02  0.51100000000E-03 0.  1.
        -12    1    3    3    0    0  0.13224655485E+02  0.29262968011E+02 -0.15632357392E+02  0.35715310542E+02  0.00000000000E+00 0.  1.
</event>
<event>
 7    1  0.2450552E-011  0.5052883E+02  0.7816164E-02  0.1300439E+00
        -11   -1    0    0    0    0  0.00000000000E+00  0.00000000000E+00  0.45593999997E+02  0.45594000000E+02  0.51100000000E-03 0. -1.
         11   -1    0    0    0    0 -0.00000000000E+00 -0.00000000000E+00 -0.45593999997E+02  0.45594000000E+02  0.51100000000E-03 0.  1.
    9900012    2    1    2    0    0  0.26530106128E+02 -0.22594874153E+02  0.20947391046E+02  0.50528830545E+02  0.29999910925E+02 0.  0.
         12    1    1    2    0    0 -0.26530106128E+02  0.22594874153E+02 -0.20947391046E+02  0.40659169455E+02  0.00000000000E+00 0. -1.
         11    1    3    3    0    0  0.17253152450E+01 -0.89059827209E+00 -0.22573461151E+01  0.29774972245E+01  0.51100000000E-03 0. -1.
        -11    1    3    3    0    0  0.23529483315E+02 -0.22870234087E+02  0.10098497240E+02  0.34331673991E+02  0.51100000000E-03 0.  1.
         12    1    3    3    0    0  0.12753075676E+01  0.11659582059E+01  0.13106239920E+02  0.13219659329E+02  0.00000000000E+00 0. -1.
</event>
<event>
 7    1  0.2450552E-011  0.5052886E+02  0.7816164E-02  0.1300439E+00
        -11   -1    0    0    0    0  0.00000000000E+00  0.00000000000E+00  0.45593999997E+02  0.45594000000E+02  0.51100000000E-03 0.  1.
         11   -1    0    0    0    0 -0.00000000000E+00 -0.00000000000E+00 -0.45593999997E+02  0.45594000000E+02  0.51100000000E-03 0. -1.
    9900012    2    1    2    0    0 -0.18380099810E+02  0.25705325600E+02  0.25584638112E+02  0.50528861537E+02  0.30000005128E+02 0.  0.
         12    1    1    2    0    0  0.18380099810E+02 -0.25705325600E+02 -0.25584638112E+02  0.40659138463E+02  0.00000000000E+00 0. -1.
         11    1    3    3    0    0  0.38366609623E+01  0.84907640084E+01 -0.29924477083E+01  0.97861015903E+01  0.51100000000E-03 0. -1.
        -11    1    3    3    0    0 -0.10986773048E+00  0.58176860549E+00 -0.37270547904E+00  0.69959650068E+00  0.51100000000E-03 0.  1.
        -12    1    3    3    0    0 -0.22106893042E+02  0.16632792986E+02  0.28949791299E+02  0.40043163446E+02  0.00000000000E+00 0.  1.
</event>
<event>
 7    1  0.2450552E-011  0.5052887E+02  0.7816164E-02  0.1300439E+00
        -11   -1    0    0    0    0  0.00000000000E+00  0.00000000000E+00  0.45593999997E+02  0.45594000000E+02  0.51100000000E-03 0.  1.
         11   -1    0    0    0    0 -0.00000000000E+00 -0.00000000000E+00 -0.45593999997E+02  0.45594000000E+02  0.51100000000E-03 0. -1.
    9900012    2    1    2    0    0  0.47834214216E+01 -0.25798858513E+02  0.31059666933E+02  0.50528866573E+02  0.30000020435E+02 0.  0.
         12    1    1    2    0    0 -0.47834214216E+01  0.25798858513E+02 -0.31059666933E+02  0.40659133427E+02  0.00000000000E+00 0. -1.
         11    1    3    3    0    0 -0.12767113240E+01  0.43334052302E+01  0.17423019258E+01  0.48419013782E+01  0.51100000000E-03 0. -1.
        -11    1    3    3    0    0  0.92933706004E+01 -0.90312155018E+01  0.67077247399E+01  0.14591886855E+02  0.51100000000E-03 0.  1.
        -12    1    3    3    0    0 -0.32332378547E+01 -0.21101048241E+02  0.22609640267E+02  0.31095078339E+02  0.00000000000E+00 0.  1.
</event>
<event>
 7    1  0.2450552E-011  0.5052886E+02  0.7816164E-02  0.1300439E+00
        -11   -1    0    0    0    0  0.00000000000E+00  0.00000000000E+00  0.45593999997E+02  0.45594000000E+02  0.51100000000E-03 0.  1.
         11   -1    0    0    0    0 -0.00000000000E+00 -0.00000000000E+00 -0.45593999997E+02  0.45594000000E+02  0.51100000000E-03 0. -1.
    9900012    2    1    2    0    0 -0.23686960290E+02 -0.28475159468E+02  0.16770777191E+02  0.50528858813E+02  0.29999996847E+02 0.  0.
         12    1    1    2    0    0  0.23686960290E+02  0.28475159468E+02 -0.16770777191E+02  0.40659141187E+02  0.00000000000E+00 0. -1.
         11    1    3    3    0    0 -0.37265076635E+01 -0.19964558696E+02  0.12017950987E+02  0.23598762880E+02  0.51100000000E-03 0. -1.
        -11    1    3    3    0    0 -0.13950591562E+02 -0.12881477385E+02  0.24226945858E+01  0.19142124069E+02  0.51100000000E-03 0.  1.
         12    1    3    3    0    0 -0.60098610645E+01  0.43708766133E+01  0.23301316176E+01  0.77879718630E+01  0.00000000000E+00 0. -1.
</event>
<event>
 7    1  0.2450552E-011  0.5052886E+02  0.7816164E-02  0.1300439E+00
        -11   -1    0    0    0    0  0.00000000000E+00  0.00000000000E+00  0.45593999997E+02  0.45594000000E+02  0.51100000000E-03 0.  1.
         11   -1    0    0    0    0 -0.00000000000E+00 -0.00000000000E+00 -0.45593999997E+02  0.45594000000E+02  0.51100000000E-03 0. -1.
    9900012    2    1    2    0    0  0.21639851422E+02  0.33876972932E+02 -0.61018957583E+01  0.50528860850E+02  0.30000003039E+02 0.  0.
         12    1    1    2    0    0 -0.21639851422E+02 -0.33876972932E+02  0.61018957583E+01  0.40659139150E+02  0.00000000000E+00 0. -1.
         11    1    3    3    0    0  0.14413367520E+02  0.13675566490E+02 -0.11518850811E+02  0.22966284122E+02  0.51100000000E-03 0. -1.
        -11    1    3    3    0    0  0.11760065813E+02  0.11967498331E+02  0.13176889486E+00  0.16779080056E+02  0.51100000000E-03 0.  1.
         12    1    3    3    0    0 -0.45335819121E+01  0.82339081109E+01  0.52851861582E+01  0.10783496671E+02  0.00000000000E+00 0. -1.
</event>
<event>
 7    1  0.2450552E-011  0.5052886E+02  0.7816164E-02  0.1300439E+00
        -11   -1    0    0    0    0  0.00000000000E+00  0.00000000000E+00  0.45593999997E+02  0.45594000000E+02  0.51100000000E-03 0.  1.
         11   -1    0    0    0    0 -0.00000000000E+00 -0.00000000000E+00 -0.45593999997E+02  0.45594000000E+02  0.51100000000E-03 0. -1.
    9900012    2    1    2    0    0  0.57629782351E+01 -0.13522691581E+02  0.37908981297E+02  0.50528856272E+02  0.29999989123E+02 0.  0.
         12    1    1    2    0    0 -0.57629782351E+01  0.13522691581E+02 -0.37908981297E+02  0.40659143728E+02  0.00000000000E+00 0. -1.
         11    1    3    3    0    0  0.11321341139E+02 -0.47664469666E+01  0.25342924701E+02  0.28163018562E+02  0.51100000000E-03 0. -1.
        -11    1    3    3    0    0 -0.71841062164E+00  0.32199295072E+01  0.80199564252E+01  0.86720102154E+01  0.51100000000E-03 0.  1.
         12    1    3    3    0    0 -0.48399522825E+01 -0.11976174121E+02  0.45461001716E+01  0.13693827494E+02  0.00000000000E+00 0. -1.
</event>
<event>
 7    1  0.2450552E-011  0.5052874E+02  0.7816164E-02  0.1300439E+00
        -11   -1    0    0    0    0  0.00000000000E+00  0.00000000000E+00  0.45593999997E+02  0.45594000000E+02  0.51100000000E-03 0.  1.
         11   -1    0    0    0    0 -0.00000000000E+00 -0.00000000000E+00 -0.45593999997E+02  0.45594000000E+02  0.51100000000E-03 0. -1.
    9900012    2    1    2    0    0 -0.35504949855E+02  0.19681774755E+02 -0.22806818472E+01  0.50528742365E+02  0.29999642891E+02 0.  0.
         12    1    1    2    0    0  0.35504949855E+02 -0.19681774755E+02  0.22806818472E+01  0.40659257635E+02  0.00000000000E+00 0. -1.
         11    1    3    3    0    0 -0.78961291142E+01  0.13054432884E+02  0.20867710687E+00  0.15258132890E+02  0.51100000000E-03 0. -1.
        -11    1    3    3    0    0  0.21392152234E+01 -0.37370665613E+00  0.35091161222E+01  0.41267171768E+01  0.51100000000E-03 0.  1.
        -12    1    3    3    0    0 -0.29748035964E+02  0.70010485274E+01 -0.59984750763E+01  0.31143892298E+02  0.00000000000E+00 0.  1.
</event>
<event>
 7    1  0.2450552E-011  0.5052888E+02  0.7816164E-02  0.1300439E+00
        -11   -1    0    0    0    0  0.00000000000E+00  0.00000000000E+00  0.45593999997E+02  0.45594000000E+02  0.51100000000E-03 0.  1.
         11   -1    0    0    0    0 -0.00000000000E+00 -0.00000000000E+00 -0.45593999997E+02  0.45594000000E+02  0.51100000000E-03 0. -1.
    9900012    2    1    2    0    0 -0.13138030406E+02 -0.23577440394E+02  0.30408232473E+02  0.50528878752E+02  0.30000057456E+02 0.  0.
         12    1    1    2    0    0  0.13138030406E+02  0.23577440394E+02 -0.30408232473E+02  0.40659121248E+02  0.00000000000E+00 0. -1.
         11    1    3    3    0    0 -0.11852426290E+01 -0.97614437166E+01  0.52646198157E+00  0.98472202169E+01  0.51100000000E-03 0. -1.
        -11    1    3    3    0    0 -0.12645957386E+02 -0.85428333297E+01  0.63046122173E+01  0.16512067556E+02  0.51100000000E-03 0.  1.
        -12    1    3    3    0    0  0.69316960960E+00 -0.52731633478E+01  0.23577158275E+02  0.24169590979E+02  0.00000000000E+00 0.  1.
</event>
<event>
 7    1  0.2450552E-011  0.5052886E+02  0.7816164E-02  0.1300439E+00
        -11   -1    0    0    0    0  0.00000000000E+00  0.00000000000E+00  0.45593999997E+02  0.45594000000E+02  0.51100000000E-03 0.  1.
         11   -1    0    0    0    0 -0.00000000000E+00 -0.00000000000E+00 -0.45593999997E+02  0.45594000000E+02  0.51100000000E-03 0. -1.
    9900012    2    1    2    0    0  0.23943652368E+02 -0.63566863455E+01  0.32240657992E+02  0.50528856160E+02  0.29999988784E+02 0.  0.
         12    1    1    2    0    0 -0.23943652368E+02  0.63566863455E+01 -0.32240657992E+02  0.40659143840E+02  0.00000000000E+00 0. -1.
         11    1    3    3    0    0  0.50554025935E+01 -0.69662806213E+01  0.83585576867E+00  0.86478214716E+01  0.51100000000E-03 0. -1.
        -11    1    3    3    0    0  0.16817464094E+02 -0.18000502573E+01  0.88223867242E+01  0.19076209982E+02  0.51100000000E-03 0.  1.
         12    1    3    3    0    0  0.20707856805E+01  0.24096445331E+01  0.22582415500E+02  0.22804824707E+02  0.00000000000E+00 0. -1.
</event>
<event>
 7    1  0.2450552E-011  0.5052887E+02  0.7816164E-02  0.1300439E+00
        -11   -1    0    0    0    0  0.00000000000E+00  0.00000000000E+00  0.45593999997E+02  0.45594000000E+02  0.51100000000E-03 0.  1.
         11   -1    0    0    0    0 -0.00000000000E+00 -0.00000000000E+00 -0.45593999997E+02  0.45594000000E+02  0.51100000000E-03 0. -1.
    9900012    2    1    2    0    0  0.17129685386E+02  0.22371109894E+02  0.29313343322E+02  0.50528870938E+02  0.30000033704E+02 0.  0.
         12    1    1    2    0    0 -0.17129685386E+02 -0.22371109894E+02 -0.29313343322E+02  0.40659129062E+02  0.00000000000E+00 0. -1.
         11    1    3    3    0    0  0.15108219271E+02  0.14492254921E+02  0.71625577817E+01  0.22126589807E+02  0.51100000000E-03 0.  1.
        -11    1    3    3    0    0  0.64237942133E+01  0.21768130180E+01  0.19632430607E+02  0.20771037018E+02  0.51100000000E-03 0. -1.
         12    1    3    3    0    0 -0.44023280987E+01  0.57020419552E+01  0.25183549335E+01  0.76312441134E+01  0.00000000000E+00 0. -1.
</event>
<event>
 7    1  0.2450552E-011  0.5052885E+02  0.7816164E-02  0.1300439E+00
        -11   -1    0    0    0    0  0.00000000000E+00  0.00000000000E+00  0.45593999997E+02  0.45594000000E+02  0.51100000000E-03 0.  1.
         11   -1    0    0    0    0 -0.00000000000E+00 -0.00000000000E+00 -0.45593999997E+02  0.45594000000E+02  0.51100000000E-03 0. -1.
    9900012    2    1    2    0    0 -0.17315338168E+02 -0.13120302608E+02  0.34368633272E+02  0.50528853066E+02  0.29999979380E+02 0.  0.
         12    1    1    2    0    0  0.17315338168E+02  0.13120302608E+02 -0.34368633272E+02  0.40659146934E+02  0.00000000000E+00 0. -1.
         11    1    3    3    0    0  0.40102233320E+01 -0.24686042817E+01  0.18680598040E+01  0.50661174449E+01  0.51100000000E-03 0. -1.
        -11    1    3    3    0    0 -0.69164658758E+01 -0.15179169480E+02  0.17466957667E+02  0.24152418031E+02  0.51100000000E-03 0.  1.
        -12    1    3    3    0    0 -0.14409095624E+02  0.45274711540E+01  0.15033615801E+02  0.21310317591E+02  0.00000000000E+00 0.  1.
</event>
<event>
 7    1  0.2450552E-011  0.5052887E+02  0.7816164E-02  0.1300439E+00
        -11   -1    0    0    0    0  0.00000000000E+00  0.00000000000E+00  0.45593999997E+02  0.45594000000E+02  0.51100000000E-03 0.  1.
         11   -1    0    0    0    0 -0.00000000000E+00 -0.00000000000E+00 -0.45593999997E+02  0.45594000000E+02  0.51100000000E-03 0. -1.
    9900012    2    1    2    0    0  0.17563894205E+02 -0.27240556794E+02 -0.24548456284E+02  0.50528867938E+02  0.30000024585E+02 0.  0.
         12    1    1    2    0    0 -0.17563894205E+02  0.27240556794E+02  0.24548456284E+02  0.40659132062E+02  0.00000000000E+00 0. -1.
         11    1    3    3    0    0  0.46223677764E+01  0.25560907322E+01 -0.73654810074E+01  0.90636744438E+01  0.51100000000E-03 0. -1.
        -11    1    3    3    0    0  0.13366650521E+01 -0.55964139961E+01  0.42214205237E+01  0.71363095908E+01  0.51100000000E-03 0.  1.
         12    1    3    3    0    0  0.11604861376E+02 -0.24200233530E+02 -0.21404395801E+02  0.34328883904E+02  0.00000000000E+00 0. -1.
</event>
<event>
 7    1  0.2450552E-011  0.5052887E+02  0.7816164E-02  0.1300439E+00
        -11   -1    0    0    0    0  0.00000000000E+00  0.00000000000E+00  0.45593999997E+02  0.45594000000E+02  0.51100000000E-03 0.  1.
         11   -1    0    0    0    0 -0.00000000000E+00 -0.00000000000E+00 -0.45593999997E+02  0.45594000000E+02  0.51100000000E-03 0. -1.
    9900012    2    1    2    0    0  0.16294476277E+02 -0.28619497077E+02  0.23844901024E+02  0.50528869723E+02  0.30000030009E+02 0.  0.
         12    1    1    2    0    0 -0.16294476277E+02  0.28619497077E+02 -0.23844901024E+02  0.40659130277E+02  0.00000000000E+00 0. -1.
         11    1    3    3    0    0  0.83835674364E+01 -0.53080195704E+01 -0.79539389966E-01  0.99229834977E+01  0.51100000000E-03 0. -1.
        -11    1    3    3    0    0  0.14810605395E+02 -0.20654595016E+02  0.18527257390E+02  0.31451956921E+02  0.51100000000E-03 0.  1.
        -12    1    3    3    0    0 -0.68996965551E+01 -0.26568824900E+01  0.53971830238E+01  0.91539293045E+01  0.00000000000E+00 0.  1.
</event>
<event>
 7    1  0.2450552E-011  0.5052886E+02  0.7816164E-02  0.1300439E+00
        -11   -1    0    0    0    0  0.00000000000E+00  0.00000000000E+00  0.45593999997E+02  0.45594000000E+02  0.51100000000E-03 0.  1.
         11   -1    0    0    0    0 -0.00000000000E+00 -0.00000000000E+00 -0.45593999997E+02  0.45594000000E+02  0.51100000000E-03 0. -1.
    9900012    2    1    2    0    0 -0.31885642078E+02 -0.34733486882E+01  0.24988147919E+02  0.50528857630E+02  0.29999993252E+02 0.  0.
         12    1    1    2    0    0  0.31885642078E+02  0.34733486882E+01 -0.24988147919E+02  0.40659142370E+02  0.00000000000E+00 0. -1.
         11    1    3    3    0    0 -0.19399499193E+01  0.41517429381E+01 -0.25119941339E+01  0.52259439246E+01  0.51100000000E-03 0. -1.
        -11    1    3    3    0    0 -0.25448815849E+02 -0.60009697767E+01  0.11428774845E+02  0.28535429927E+02  0.51100000000E-03 0.  1.
        -12    1    3    3    0    0 -0.44968763099E+01 -0.16241218496E+01  0.16071367208E+02  0.16767483779E+02  0.00000000000E+00 0.  1.
</event>
<event>
 7    1  0.2450552E-011  0.5052885E+02  0.7816164E-02  0.1300439E+00
        -11   -1    0    0    0    0  0.00000000000E+00  0.00000000000E+00  0.45593999997E+02  0.45594000000E+02  0.51100000000E-03 0.  1.
         11   -1    0    0    0    0 -0.00000000000E+00 -0.00000000000E+00 -0.45593999997E+02  0.45594000000E+02  0.51100000000E-03 0. -1.
    9900012    2    1    2    0    0 -0.26397362809E+02 -0.12566953323E+02  0.28256274150E+02  0.50528854560E+02  0.29999983920E+02 0.  0.
         12    1    1    2    0    0  0.26397362809E+02  0.12566953323E+02 -0.28256274150E+02  0.40659145440E+02  0.00000000000E+00 0. -1.
         11    1    3    3    0    0 -0.54612197403E+01  0.52502590645E+01  0.59215268232E+00  0.75987358393E+01  0.51100000000E-03 0. -1.
        -11    1    3    3    0    0 -0.39171372002E+01 -0.28227323035E+01  0.17356788871E+02  0.18015823647E+02  0.51100000000E-03 0.  1.
        -12    1    3    3    0    0 -0.17019005868E+02 -0.14994480084E+02  0.10307332596E+02  0.24914295073E+02  0.00000000000E+00 0.  1.
</event>
<event>
 7    1  0.2450552E-011  0.5052887E+02  0.7816164E-02  0.1300439E+00
        -11   -1    0    0    0    0  0.00000000000E+00  0.00000000000E+00  0.45593999997E+02  0.45594000000E+02  0.51100000000E-03 0. -1.
         11   -1    0    0    0    0 -0.00000000000E+00 -0.00000000000E+00 -0.45593999997E+02  0.45594000000E+02  0.51100000000E-03 0.  1.
    9900012    2    1    2    0    0  0.34786172690E+02  0.97244894832E+01 -0.18668735821E+02  0.50528865685E+02  0.30000017736E+02 0.  0.
         12    1    1    2    0    0 -0.34786172690E+02 -0.97244894832E+01  0.18668735821E+02  0.40659134315E+02  0.00000000000E+00 0. -1.
         11    1    3    3    0    0  0.50829770858E+00  0.49302233650E+01 -0.90182232987E+01  0.10290472327E+02  0.51100000000E-03 0. -1.
        -11    1    3    3    0    0  0.13416492117E+02 -0.14169589318E+01 -0.12368767328E+02  0.18302907933E+02  0.51100000000E-03 0.  1.
        -12    1    3    3    0    0  0.20861382864E+02  0.62112250501E+01  0.27182548054E+01  0.21935485425E+02  0.00000000000E+00 0.  1.
</event>
<event>
 7    1  0.2450552E-011  0.5052887E+02  0.7816164E-02  0.1300439E+00
        -11   -1    0    0    0    0  0.00000000000E+00  0.00000000000E+00  0.45593999997E+02  0.45594000000E+02  0.51100000000E-03 0.  1.
         11   -1    0    0    0    0 -0.00000000000E+00 -0.00000000000E+00 -0.45593999997E+02  0.45594000000E+02  0.51100000000E-03 0. -1.
    9900012    2    1    2    0    0 -0.17560432024E+02  0.22055293647E+02  0.29297782143E+02  0.50528870777E+02  0.30000033214E+02 0.  0.
         12    1    1    2    0    0  0.17560432024E+02 -0.22055293647E+02 -0.29297782143E+02  0.40659129223E+02  0.00000000000E+00 0. -1.
         11    1    3    3    0    0 -0.14381981401E+02  0.20134177627E+02  0.14751074743E+02  0.28806608687E+02  0.51100000000E-03 0. -1.
        -11    1    3    3    0    0 -0.95650015873E+01  0.16103498378E+01  0.94945411818E+01  0.13573090823E+02  0.51100000000E-03 0.  1.
         12    1    3    3    0    0  0.63865509647E+01  0.31076618173E+00  0.50521662181E+01  0.81491712671E+01  0.00000000000E+00 0. -1.
</event>
<event>
 7    1  0.2450552E-011  0.5052887E+02  0.7816164E-02  0.1300439E+00
        -11   -1    0    0    0    0  0.00000000000E+00  0.00000000000E+00  0.45593999997E+02  0.45594000000E+02  0.51100000000E-03 0.  1.
         11   -1    0    0    0    0 -0.00000000000E+00 -0.00000000000E+00 -0.45593999997E+02  0.45594000000E+02  0.51100000000E-03 0. -1.
    9900012    2    1    2    0    0  0.96693046306E+01 -0.16129208027E+02  0.36048828593E+02  0.50528870072E+02  0.30000031070E+02 0.  0.
         12    1    1    2    0    0 -0.96693046306E+01  0.16129208027E+02 -0.36048828593E+02  0.40659129928E+02  0.00000000000E+00 0. -1.
         11    1    3    3    0    0  0.61831478302E+01 -0.81107716860E+01  0.21368506288E+02  0.23677605361E+02  0.51100000000E-03 0. -1.
        -11    1    3    3    0    0  0.64951771775E+01 -0.14310921614E+01  0.17772852686E+02  0.18976555120E+02  0.51100000000E-03 0.  1.
         12    1    3    3    0    0 -0.30090203771E+01 -0.65873441800E+01 -0.30925303813E+01  0.78747095905E+01  0.00000000000E+00 0. -1.
</event>
<event>
 7    1  0.2450552E-011  0.5052886E+02  0.7816164E-02  0.1300439E+00
        -11   -1    0    0    0    0  0.00000000000E+00  0.00000000000E+00  0.45593999997E+02  0.45594000000E+02  0.51100000000E-03 0.  1.
         11   -1    0    0    0    0 -0.00000000000E+00 -0.00000000000E+00 -0.45593999997E+02  0.45594000000E+02  0.51100000000E-03 0. -1.
    9900012    2    1    2    0    0 -0.22542773857E+02  0.32650227702E+02 -0.88854820803E+01  0.50528858175E+02  0.29999994908E+02 0.  0.
         12    1    1    2    0    0  0.22542773857E+02 -0.32650227702E+02  0.88854820803E+01  0.40659141825E+02  0.00000000000E+00 0. -1.
         11    1    3    3    0    0 -0.31843561980E+01  0.65360186733E+01 -0.63960247854E+01  0.96834290316E+01  0.51100000000E-03 0. -1.
        -11    1    3    3    0    0 -0.20408033345E+02  0.88357488133E+01 -0.63140466081E+01  0.23117644061E+02  0.51100000000E-03 0.  1.
        -12    1    3    3    0    0  0.10496156858E+01  0.17278460215E+02  0.38245893132E+01  0.17727785082E+02  0.00000000000E+00 0.  1.
</event>
<event>
 7    1  0.2450552E-011  0.5052887E+02  0.7816164E-02  0.1300439E+00
        -11   -1    0    0    0    0  0.00000000000E+00  0.00000000000E+00  0.45593999997E+02  0.45594000000E+02  0.51100000000E-03 0. -1.
         11   -1    0    0    0    0 -0.00000000000E+00 -0.00000000000E+00 -0.45593999997E+02  0.45594000000E+02  0.51100000000E-03 0.  1.
    9900012    2    1    2    0    0 -0.37350112402E+02  0.70431500371E+01 -0.14440502774E+02  0.50528868439E+02  0.30000026108E+02 0.  0.
         12    1    1    2    0    0  0.37350112402E+02 -0.70431500371E+01  0.14440502774E+02  0.40659131561E+02  0.00000000000E+00 0. -1.
         11    1    3    3    0    0 -0.40153946151E+01  0.75635253849E+01  0.40257315238E+01  0.94623900113E+01  0.51100000000E-03 0. -1.
        -11    1    3    3    0    0 -0.16137772426E+02  0.26961123776E+01 -0.16866361625E+02  0.23498316441E+02  0.51100000000E-03 0.  1.
         12    1    3    3    0    0 -0.17196945361E+02 -0.32164877254E+01 -0.15998726731E+01  0.17568161987E+02  0.00000000000E+00 0. -1.
</event>
<event>
 7    1  0.2450552E-011  0.5052888E+02  0.7816164E-02  0.1300439E+00
        -11   -1    0    0    0    0  0.00000000000E+00  0.00000000000E+00  0.45593999997E+02  0.45594000000E+02  0.51100000000E-03 0.  1.
         11   -1    0    0    0    0 -0.00000000000E+00 -0.00000000000E+00 -0.45593999997E+02  0.45594000000E+02  0.51100000000E-03 0. -1.
    9900012    2    1    2    0    0 -0.25444031913E+02  0.25127944863E+02  0.19348172299E+02  0.50528878707E+02  0.30000057317E+02 0.  0.
         12    1    1    2    0    0  0.25444031913E+02 -0.25127944863E+02 -0.19348172299E+02  0.40659121293E+02  0.00000000000E+00 0. -1.
         11    1    3    3    0    0 -0.52587632639E+00  0.11549566385E+02 -0.10167974648E+01  0.11606158147E+02  0.51100000000E-03 0. -1.
        -11    1    3    3    0    0  0.94303582929E+00  0.26122182793E+01  0.75554844339E+01  0.80497419962E+01  0.51100000000E-03 0.  1.
        -12    1    3    3    0    0 -0.25861191416E+02  0.10966160199E+02  0.12809485330E+02  0.30872978563E+02  0.00000000000E+00 0.  1.
</event>
<event>
 7    1  0.2450552E-011  0.5052887E+02  0.7816164E-02  0.1300439E+00
        -11   -1    0    0    0    0  0.00000000000E+00  0.00000000000E+00  0.45593999997E+02  0.45594000000E+02  0.51100000000E-03 0.  1.
         11   -1    0    0    0    0 -0.00000000000E+00 -0.00000000000E+00 -0.45593999997E+02  0.45594000000E+02  0.51100000000E-03 0. -1.
    9900012    2    1    2    0    0 -0.12133574760E+02  0.12972479932E+02  0.36573980797E+02  0.50528868880E+02  0.30000027448E+02 0.  0.
         12    1    1    2    0    0  0.12133574760E+02 -0.12972479932E+02 -0.36573980797E+02  0.40659131120E+02  0.00000000000E+00 0. -1.
         11    1    3    3    0    0  0.18264566209E+01  0.33791368220E+00 -0.13469465919E+01  0.22944269061E+01  0.51100000000E-03 0. -1.
        -11    1    3    3    0    0  0.15007035381E+01 -0.22760696303E+01  0.20215286922E+02  0.20398294773E+02  0.51100000000E-03 0.  1.
        -12    1    3    3    0    0 -0.15460734920E+02  0.14910635880E+02  0.17705640468E+02  0.27836147201E+02  0.00000000000E+00 0.  1.
</event>
<event>
 7    1  0.2450552E-011  0.5052895E+02  0.7816164E-02  0.1300438E+00
        -11   -1    0    0    0    0  0.00000000000E+00  0.00000000000E+00  0.45593999997E+02  0.45594000000E+02  0.51100000000E-03 0. -1.
         11   -1    0    0    0    0 -0.00000000000E+00 -0.00000000000E+00 -0.45593999997E+02  0.45594000000E+02  0.51100000000E-03 0.  1.
    9900012    2    1    2    0    0 -0.12882676754E+02  0.23822307314E+02 -0.30326430997E+02  0.50528952998E+02  0.30000283131E+02 0.  0.
         12    1    1    2    0    0  0.12882676754E+02 -0.23822307314E+02  0.30326430997E+02  0.40659047002E+02  0.00000000000E+00 0. -1.
         11    1    3    3    0    0 -0.17096945484E+02  0.13864986888E+01 -0.12440346505E+02  0.21189387555E+02  0.51100000000E-03 0.  1.
        -11    1    3    3    0    0  0.97989434585E+00  0.63033151850E+01 -0.26247025951E+01  0.68979010738E+01  0.51100000000E-03 0. -1.
        -12    1    3    3    0    0  0.32343743850E+01  0.16132493440E+02 -0.15261381897E+02  0.22441664369E+02  0.00000000000E+00 0.  1.
</event>
<event>
 7    1  0.2450552E-011  0.5052886E+02  0.7816164E-02  0.1300439E+00
        -11   -1    0    0    0    0  0.00000000000E+00  0.00000000000E+00  0.45593999997E+02  0.45594000000E+02  0.51100000000E-03 0.  1.
         11   -1    0    0    0    0 -0.00000000000E+00 -0.00000000000E+00 -0.45593999997E+02  0.45594000000E+02  0.51100000000E-03 0. -1.
    9900012    2    1    2    0    0  0.34989227070E+02  0.32080193108E+01  0.20460405236E+02  0.50528861036E+02  0.30000003606E+02 0.  0.
         12    1    1    2    0    0 -0.34989227070E+02 -0.32080193108E+01 -0.20460405236E+02  0.40659138964E+02  0.00000000000E+00 0. -1.
         11    1    3    3    0    0  0.98443443128E+01  0.12910323189E+02  0.12580603764E+02  0.20539210090E+02  0.51100000000E-03 0. -1.
        -11    1    3    3    0    0  0.17793864008E+00 -0.27157891908E+01 -0.44948459483E+00  0.27584796085E+01  0.51100000000E-03 0.  1.
        -12    1    3    3    0    0  0.24966944117E+02 -0.69865146879E+01  0.83292860668E+01  0.27231171338E+02  0.00000000000E+00 0.  1.
</event>
<event>
 7    1  0.2450552E-011  0.5052886E+02  0.7816164E-02  0.1300439E+00
        -11   -1    0    0    0    0  0.00000000000E+00  0.00000000000E+00  0.45593999997E+02  0.45594000000E+02  0.51100000000E-03 0. -1.
         11   -1    0    0    0    0 -0.00000000000E+00 -0.00000000000E+00 -0.45593999997E+02  0.45594000000E+02  0.51100000000E-03 0.  1.
    9900012    2    1    2    0    0  0.23859942061E+02  0.20038411854E+02 -0.26121467531E+02  0.50528857722E+02  0.29999993531E+02 0.  0.
         12    1    1    2    0    0 -0.23859942061E+02 -0.20038411854E+02  0.26121467531E+02  0.40659142278E+02  0.00000000000E+00 0. -1.
         11    1    3    3    0    0  0.74940902155E+01  0.85563956864E+01  0.14384294268E+01  0.11464832087E+02  0.51100000000E-03 0. -1.
        -11    1    3    3    0    0 -0.38876448355E+01  0.51378661001E+01 -0.58315969763E+01  0.86901653601E+01  0.51100000000E-03 0.  1.
        -12    1    3    3    0    0  0.20253496681E+02  0.63441500674E+01 -0.21728299982E+02  0.30373860275E+02  0.00000000000E+00 0.  1.
</event>
<event>
 7    1  0.2450552E-011  0.5052886E+02  0.7816164E-02  0.1300439E+00
        -11   -1    0    0    0    0  0.00000000000E+00  0.00000000000E+00  0.45593999997E+02  0.45594000000E+02  0.51100000000E-03 0. -1.
         11   -1    0    0    0    0 -0.00000000000E+00 -0.00000000000E+00 -0.45593999997E+02  0.45594000000E+02  0.51100000000E-03 0.  1.
    9900012    2    1    2    0    0  0.27381386605E+02 -0.24478344641E+01 -0.29957195241E+02  0.50528858683E+02  0.29999996452E+02 0.  0.
         12    1    1    2    0    0 -0.27381386605E+02  0.24478344641E+01  0.29957195241E+02  0.40659141317E+02  0.00000000000E+00 0. -1.
         11    1    3    3    0    0 -0.27115962203E+01 -0.13684280636E+01 -0.14375829582E+01  0.33603562981E+01  0.51100000000E-03 0. -1.
        -11    1    3    3    0    0  0.65720240724E+01  0.92966671393E+01 -0.54294809082E+01  0.12613436625E+02  0.51100000000E-03 0.  1.
         12    1    3    3    0    0  0.23520958752E+02 -0.10376073540E+02 -0.23090131375E+02  0.34555065759E+02  0.00000000000E+00 0. -1.
</event>
<event>
 7    1  0.2450552E-011  0.5052889E+02  0.7816164E-02  0.1300439E+00
        -11   -1    0    0    0    0  0.00000000000E+00  0.00000000000E+00  0.45593999997E+02  0.45594000000E+02  0.51100000000E-03 0.  1.
         11   -1    0    0    0    0 -0.00000000000E+00 -0.00000000000E+00 -0.45593999997E+02  0.45594000000E+02  0.51100000000E-03 0. -1.
    9900012    2    1    2    0    0 -0.36344655528E+02 -0.17180520882E+02  0.60875871887E+01  0.50528892767E+02  0.30000100055E+02 0.  0.
         12    1    1    2    0    0  0.36344655528E+02  0.17180520882E+02 -0.60875871887E+01  0.40659107233E+02  0.00000000000E+00 0. -1.
         11    1    3    3    0    0 -0.14110228603E+02 -0.26940962059E+00  0.37156105245E+01  0.14593727920E+02  0.51100000000E-03 0.  1.
        -11    1    3    3    0    0 -0.55880816091E+01 -0.12885459998E+02  0.99448770872E+01  0.17209367100E+02  0.51100000000E-03 0. -1.
         12    1    3    3    0    0 -0.16646345316E+02 -0.40256512629E+01 -0.75729004231E+01  0.18725797748E+02  0.00000000000E+00 0. -1.
</event>
<event>
 7    1  0.2450552E-011  0.5052886E+02  0.7816164E-02  0.1300439E+00
        -11   -1    0    0    0    0  0.00000000000E+00  0.00000000000E+00  0.45593999997E+02  0.45594000000E+02  0.51100000000E-03 0.  1.
         11   -1    0    0    0    0 -0.00000000000E+00 -0.00000000000E+00 -0.45593999997E+02  0.45594000000E+02  0.51100000000E-03 0. -1.
    9900012    2    1    2    0    0  0.10222508691E+02  0.39158182820E+02  0.39118159833E+01  0.50528864864E+02  0.30000015242E+02 0.  0.
         12    1    1    2    0    0 -0.10222508691E+02 -0.39158182820E+02 -0.39118159833E+01  0.40659135136E+02  0.00000000000E+00 0. -1.
         11    1    3    3    0    0 -0.17213278708E+00  0.90489241870E+01  0.47494719325E+01  0.10221063670E+02  0.51100000000E-03 0. -1.
        -11    1    3    3    0    0  0.60090579266E+01  0.31767852688E+02  0.51118311898E+01  0.32732797924E+02  0.51100000000E-03 0.  1.
         12    1    3    3    0    0  0.43855835516E+01 -0.16585940556E+01 -0.59494871390E+01  0.75750032704E+01  0.00000000000E+00 0. -1.
</event>
<event>
 7    1  0.2450552E-011  0.5052886E+02  0.7816164E-02  0.1300439E+00
        -11   -1    0    0    0    0  0.00000000000E+00  0.00000000000E+00  0.45593999997E+02  0.45594000000E+02  0.51100000000E-03 0. -1.
         11   -1    0    0    0    0 -0.00000000000E+00 -0.00000000000E+00 -0.45593999997E+02  0.45594000000E+02  0.51100000000E-03 0.  1.
    9900012    2    1    2    0    0 -0.34040113205E+02 -0.87353526165E+01  0.20448230410E+02  0.50528858110E+02  0.29999994711E+02 0.  0.
         12    1    1    2    0    0  0.34040113205E+02  0.87353526165E+01 -0.20448230410E+02  0.40659141890E+02  0.00000000000E+00 0. -1.
         11    1    3    3    0    0 -0.46166717796E+01 -0.45534075692E+01  0.11076584312E+02  0.12835026260E+02  0.51100000000E-03 0. -1.
        -11    1    3    3    0    0 -0.14760097946E+01 -0.65178619668E+01  0.67953045779E+01  0.95308600923E+01  0.51100000000E-03 0.  1.
        -12    1    3    3    0    0 -0.27947431630E+02  0.23359169195E+01  0.25763415201E+01  0.28162971758E+02  0.00000000000E+00 0.  1.
</event>
<event>
 7    1  0.2450552E-011  0.5052886E+02  0.7816164E-02  0.1300439E+00
        -11   -1    0    0    0    0  0.00000000000E+00  0.00000000000E+00  0.45593999997E+02  0.45594000000E+02  0.51100000000E-03 0.  1.
         11   -1    0    0    0    0 -0.00000000000E+00 -0.00000000000E+00 -0.45593999997E+02  0.45594000000E+02  0.51100000000E-03 0. -1.
    9900012    2    1    2    0    0  0.14082810988E+02 -0.30881341557E+02  0.22387117212E+02  0.50528857870E+02  0.29999993982E+02 0.  0.
         12    1    1    2    0    0 -0.14082810988E+02  0.30881341557E+02 -0.22387117212E+02  0.40659142130E+02  0.00000000000E+00 0. -1.
         11    1    3    3    0    0  0.94039215843E+01 -0.51026534362E+01  0.51941416000E+01  0.11893272068E+02  0.51100000000E-03 0.  1.
        -11    1    3    3    0    0  0.11730073414E+02 -0.55450716165E+01  0.45095246644E+01  0.13736020330E+02  0.51100000000E-03 0. -1.
        -12    1    3    3    0    0 -0.70511840106E+01 -0.20233616504E+02  0.12683450948E+02  0.24899565473E+02  0.00000000000E+00 0.  1.
</event>
<event>
 7    1  0.2450552E-011  0.5052886E+02  0.7816164E-02  0.1300439E+00
        -11   -1    0    0    0    0  0.00000000000E+00  0.00000000000E+00  0.45593999997E+02  0.45594000000E+02  0.51100000000E-03 0.  1.
         11   -1    0    0    0    0 -0.00000000000E+00 -0.00000000000E+00 -0.45593999997E+02  0.45594000000E+02  0.51100000000E-03 0. -1.
    9900012    2    1    2    0    0  0.66255257464E+01 -0.25161959288E+02  0.31243305430E+02  0.50528856861E+02  0.29999990914E+02 0.  0.
         12    1    1    2    0    0 -0.66255257464E+01  0.25161959288E+02 -0.31243305430E+02  0.40659143139E+02  0.00000000000E+00 0. -1.
         11    1    3    3    0    0 -0.66290511675E+00 -0.13278870532E+02  0.15561197904E+01  0.13386162813E+02  0.51100000000E-03 0. -1.
        -11    1    3    3    0    0  0.59988701427E+01  0.71025358891E+00  0.20841287075E+02  0.21699081786E+02  0.51100000000E-03 0.  1.
         12    1    3    3    0    0  0.12895607205E+01 -0.12593342345E+02  0.88458985647E+01  0.15443612261E+02  0.00000000000E+00 0. -1.
</event>
<event>
 7    1  0.2450552E-011  0.5052886E+02  0.7816164E-02  0.1300439E+00
        -11   -1    0    0    0    0  0.00000000000E+00  0.00000000000E+00  0.45593999997E+02  0.45594000000E+02  0.51100000000E-03 0.  1.
         11   -1    0    0    0    0 -0.00000000000E+00 -0.00000000000E+00 -0.45593999997E+02  0.45594000000E+02  0.51100000000E-03 0. -1.
    9900012    2    1    2    0    0 -0.34114431163E+02  0.18808969294E+02  0.11644479795E+02  0.50528860201E+02  0.30000001067E+02 0.  0.
         12    1    1    2    0    0  0.34114431163E+02 -0.18808969294E+02 -0.11644479795E+02  0.40659139799E+02  0.00000000000E+00 0. -1.
         11    1    3    3    0    0 -0.11461272512E+02  0.14776227064E+02  0.76176517331E+01  0.20192232963E+02  0.51100000000E-03 0. -1.
        -11    1    3    3    0    0 -0.65730024223E+01  0.32168507782E+01 -0.75433376632E+01  0.10509730403E+02  0.51100000000E-03 0.  1.
        -12    1    3    3    0    0 -0.16080156229E+02  0.81589145161E+00  0.11570165726E+02  0.19826896836E+02  0.00000000000E+00 0.  1.
</event>
<event>
 7    1  0.2450552E-011  0.5052891E+02  0.7816164E-02  0.1300439E+00
        -11   -1    0    0    0    0  0.00000000000E+00  0.00000000000E+00  0.45593999997E+02  0.45594000000E+02  0.51100000000E-03 0. -1.
         11   -1    0    0    0    0 -0.00000000000E+00 -0.00000000000E+00 -0.45593999997E+02  0.45594000000E+02  0.51100000000E-03 0.  1.
    9900012    2    1    2    0    0 -0.34312642630E+02 -0.21791962126E+02  0.95638242267E+00  0.50528908459E+02  0.30000147752E+02 0.  0.
         12    1    1    2    0    0  0.34312642630E+02  0.21791962126E+02 -0.95638242267E+00  0.40659091541E+02  0.00000000000E+00 0. -1.
         11    1    3    3    0    0  0.30136198481E+01 -0.42096221780E+01  0.52217426238E+01  0.73531911278E+01  0.51100000000E-03 0. -1.
        -11    1    3    3    0    0 -0.11178900091E+02 -0.70496784584E+01  0.39855145238E+01  0.13803988550E+02  0.51100000000E-03 0.  1.
         12    1    3    3    0    0 -0.26147362387E+02 -0.10532661490E+02 -0.82508747250E+01  0.29371728781E+02  0.00000000000E+00 0. -1.
</event>
<event>
 7    1  0.2450552E-011  0.5052886E+02  0.7816164E-02  0.1300439E+00
        -11   -1    0    0    0    0  0.00000000000E+00  0.00000000000E+00  0.45593999997E+02  0.45594000000E+02  0.51100000000E-03 0. -1.
         11   -1    0    0    0    0 -0.00000000000E+00 -0.00000000000E+00 -0.45593999997E+02  0.45594000000E+02  0.51100000000E-03 0.  1.
    9900012    2    1    2    0    0 -0.40513200854E+02  0.33440907214E+01  0.81435027696E+00  0.50528861389E+02  0.30000004678E+02 0.  0.
         12    1    1    2    0    0  0.40513200854E+02 -0.33440907214E+01 -0.81435027696E+00  0.40659138611E+02  0.00000000000E+00 0. -1.
         11    1    3    3    0    0 -0.34833877276E+01 -0.63165689356E+01  0.48712261987E+01  0.87041299462E+01  0.51100000000E-03 0. -1.
        -11    1    3    3    0    0  0.10770044682E+00  0.40553188090E+01 -0.90919701804E-01  0.40577674505E+01  0.51100000000E-03 0.  1.
        -12    1    3    3    0    0 -0.37137513574E+02  0.56053408480E+01 -0.39659562199E+01  0.37766963992E+02  0.00000000000E+00 0.  1.
</event>
<event>
 7    1  0.2450552E-011  0.5052885E+02  0.7816164E-02  0.1300439E+00
        -11   -1    0    0    0    0  0.00000000000E+00  0.00000000000E+00  0.45593999997E+02  0.45594000000E+02  0.51100000000E-03 0.  1.
         11   -1    0    0    0    0 -0.00000000000E+00 -0.00000000000E+00 -0.45593999997E+02  0.45594000000E+02  0.51100000000E-03 0. -1.
    9900012    2    1    2    0    0  0.38386783052E+02 -0.35735046491E+01 -0.12917086806E+02  0.50528853672E+02  0.29999981222E+02 0.  0.
         12    1    1    2    0    0 -0.38386783052E+02  0.35735046491E+01  0.12917086806E+02  0.40659146328E+02  0.00000000000E+00 0. -1.
         11    1    3    3    0    0 -0.21571203649E+01 -0.39749394199E+01 -0.41219735534E+01  0.61191484617E+01  0.51100000000E-03 0. -1.
        -11    1    3    3    0    0  0.72574776660E+01  0.63829393677E+01 -0.11159342679E+01  0.97292449140E+01  0.51100000000E-03 0.  1.
        -12    1    3    3    0    0  0.33286425751E+02 -0.59815045969E+01 -0.76791789852E+01  0.34680460297E+02  0.00000000000E+00 0.  1.
</event>
<event>
 7    1  0.2450552E-011  0.5052889E+02  0.7816164E-02  0.1300439E+00
        -11   -1    0    0    0    0  0.00000000000E+00  0.00000000000E+00  0.45593999997E+02  0.45594000000E+02  0.51100000000E-03 0.  1.
         11   -1    0    0    0    0 -0.00000000000E+00 -0.00000000000E+00 -0.45593999997E+02  0.45594000000E+02  0.51100000000E-03 0. -1.
    9900012    2    1    2    0    0 -0.20133734375E+02 -0.33571611385E+02  0.10988315545E+02  0.50528887499E+02  0.30000084040E+02 0.  0.
         12    1    1    2    0    0  0.20133734375E+02  0.33571611385E+02 -0.10988315545E+02  0.40659112501E+02  0.00000000000E+00 0. -1.
         11    1    3    3    0    0 -0.12947066687E+01 -0.15000009775E+02 -0.28158943052E+01  0.15316847574E+02  0.51100000000E-03 0. -1.
        -11    1    3    3    0    0 -0.17474176136E+02 -0.21402360168E+02  0.82582582381E+01  0.28837591470E+02  0.51100000000E-03 0.  1.
        -12    1    3    3    0    0 -0.13648515703E+01  0.28307585573E+01  0.55459516123E+01  0.63744484550E+01  0.00000000000E+00 0.  1.
</event>
<event>
 7    1  0.2450552E-011  0.5052888E+02  0.7816164E-02  0.1300439E+00
        -11   -1    0    0    0    0  0.00000000000E+00  0.00000000000E+00  0.45593999997E+02  0.45594000000E+02  0.51100000000E-03 0.  1.
         11   -1    0    0    0    0 -0.00000000000E+00 -0.00000000000E+00 -0.45593999997E+02  0.45594000000E+02  0.51100000000E-03 0. -1.
    9900012    2    1    2    0    0 -0.82531299934E+01  0.39526674301E+02  0.47635663764E+01  0.50528884163E+02  0.30000073902E+02 0.  0.
         12    1    1    2    0    0  0.82531299934E+01 -0.39526674301E+02 -0.47635663764E+01  0.40659115837E+02  0.00000000000E+00 0. -1.
         11    1    3    3    0    0  0.88411286949E+01  0.18670198613E+02  0.50268103515E+01  0.21260543159E+02  0.51100000000E-03 0. -1.
        -11    1    3    3    0    0 -0.32548978726E+01  0.11309883566E+02  0.29923255744E+01  0.12143386639E+02  0.51100000000E-03 0.  1.
         12    1    3    3    0    0 -0.13839360816E+02  0.95465921220E+01 -0.32555695495E+01  0.17124954366E+02  0.00000000000E+00 0. -1.
</event>
<event>
 7    1  0.2450552E-011  0.5052886E+02  0.7816164E-02  0.1300439E+00
        -11   -1    0    0    0    0  0.00000000000E+00  0.00000000000E+00  0.45593999997E+02  0.45594000000E+02  0.51100000000E-03 0. -1.
         11   -1    0    0    0    0 -0.00000000000E+00 -0.00000000000E+00 -0.45593999997E+02  0.45594000000E+02  0.51100000000E-03 0.  1.
    9900012    2    1    2    0    0 -0.31038939355E+02  0.59383529386E+01 -0.25582925293E+02  0.50528857628E+02  0.29999993245E+02 0.  0.
         12    1    1    2    0    0  0.31038939355E+02 -0.59383529386E+01  0.25582925293E+02  0.40659142372E+02  0.00000000000E+00 0. -1.
         11    1    3    3    0    0 -0.60332751937E+00  0.60763227689E+01 -0.71116709271E+01  0.93734500651E+01  0.51100000000E-03 0. -1.
        -11    1    3    3    0    0 -0.76992775974E+00  0.34904068630E+01 -0.91901033319E+01  0.98607164210E+01  0.51100000000E-03 0.  1.
        -12    1    3    3    0    0 -0.29665684076E+02 -0.36283766933E+01 -0.92811510337E+01  0.31294691142E+02  0.00000000000E+00 0.  1.
</event>
<event>
 7    1  0.2450552E-011  0.5052885E+02  0.7816164E-02  0.1300439E+00
        -11   -1    0    0    0    0  0.00000000000E+00  0.00000000000E+00  0.45593999997E+02  0.45594000000E+02  0.51100000000E-03 0.  1.
         11   -1    0    0    0    0 -0.00000000000E+00 -0.00000000000E+00 -0.45593999997E+02  0.45594000000E+02  0.51100000000E-03 0. -1.
    9900012    2    1    2    0    0 -0.33116643297E+02  0.22054638318E+02  0.83694102827E+01  0.50528853881E+02  0.29999981858E+02 0.  0.
         12    1    1    2    0    0  0.33116643297E+02 -0.22054638318E+02 -0.83694102827E+01  0.40659146119E+02  0.00000000000E+00 0. -1.
         11    1    3    3    0    0 -0.32791316335E+01  0.92841646219E+01  0.11410788211E+02  0.15071645725E+02  0.51100000000E-03 0.  1.
        -11    1    3    3    0    0 -0.18254745824E+02  0.23758805365E+01  0.32083275586E+01  0.18686195959E+02  0.51100000000E-03 0. -1.
        -12    1    3    3    0    0 -0.11582765839E+02  0.10394593160E+02 -0.62497054872E+01  0.16771012197E+02  0.00000000000E+00 0.  1.
</event>
<event>
 7    1  0.2450552E-011  0.5052886E+02  0.7816164E-02  0.1300439E+00
        -11   -1    0    0    0    0  0.00000000000E+00  0.00000000000E+00  0.45593999997E+02  0.45594000000E+02  0.51100000000E-03 0.  1.
         11   -1    0    0    0    0 -0.00000000000E+00 -0.00000000000E+00 -0.45593999997E+02  0.45594000000E+02  0.51100000000E-03 0. -1.
    9900012    2    1    2    0    0  0.16821590137E+02 -0.11072809171E+02  0.35321280457E+02  0.50528857722E+02  0.29999993531E+02 0.  0.
         12    1    1    2    0    0 -0.16821590137E+02  0.11072809171E+02 -0.35321280457E+02  0.40659142278E+02  0.00000000000E+00 0. -1.
         11    1    3    3    0    0  0.17116649569E+02 -0.74820538663E+01  0.14337818743E+02  0.23548542824E+02  0.51100000000E-03 0. -1.
        -11    1    3    3    0    0  0.51910833836E+01  0.54077512758E+00  0.19183089570E+02  0.19880410211E+02  0.51100000000E-03 0.  1.
         12    1    3    3    0    0 -0.54861428161E+01 -0.41315304325E+01  0.18003721434E+01  0.70999046872E+01  0.00000000000E+00 0. -1.
</event>
<event>
 7    1  0.2450552E-011  0.5052885E+02  0.7816164E-02  0.1300439E+00
        -11   -1    0    0    0    0  0.00000000000E+00  0.00000000000E+00  0.45593999997E+02  0.45594000000E+02  0.51100000000E-03 0.  1.
         11   -1    0    0    0    0 -0.00000000000E+00 -0.00000000000E+00 -0.45593999997E+02  0.45594000000E+02  0.51100000000E-03 0. -1.
    9900012    2    1    2    0    0 -0.35399787659E+02 -0.16584436317E+02  0.11179340637E+02  0.50528854026E+02  0.29999982297E+02 0.  0.
         12    1    1    2    0    0  0.35399787659E+02  0.16584436317E+02 -0.11179340637E+02  0.40659145974E+02  0.00000000000E+00 0. -1.
         11    1    3    3    0    0  0.26347644255E+01 -0.79326943320E+01 -0.98814811761E+00  0.84170101524E+01  0.51100000000E-03 0. -1.
        -11    1    3    3    0    0 -0.10170101994E+02  0.18904372918E+01  0.14239990756E+01  0.10441862925E+02  0.51100000000E-03 0.  1.
        -12    1    3    3    0    0 -0.27864450091E+02 -0.10542179277E+02  0.10743489679E+02  0.31669980948E+02  0.00000000000E+00 0.  1.
</event>
<event>
 7    1  0.2450552E-011  0.5052885E+02  0.7816164E-02  0.1300439E+00
        -11   -1    0    0    0    0  0.00000000000E+00  0.00000000000E+00  0.45593999997E+02  0.45594000000E+02  0.51100000000E-03 0. -1.
         11   -1    0    0    0    0 -0.00000000000E+00 -0.00000000000E+00 -0.45593999997E+02  0.45594000000E+02  0.51100000000E-03 0.  1.
    9900012    2    1    2    0    0  0.46824374801E+01 -0.30725927624E+02 -0.26213715424E+02  0.50528846966E+02  0.29999960838E+02 0.  0.
         12    1    1    2    0    0 -0.46824374801E+01  0.30725927624E+02  0.26213715424E+02  0.40659153034E+02  0.00000000000E+00 0. -1.
         11    1    3    3    0    0 -0.35324408023E+01 -0.77478068058E+01 -0.12445967142E+02  0.15080077808E+02  0.51100000000E-03 0.  1.
        -11    1    3    3    0    0  0.44944720175E+01  0.14805872333E+01 -0.91219449950E+01  0.10276297875E+02  0.51100000000E-03 0. -1.
        -12    1    3    3    0    0  0.37204062649E+01 -0.24458708051E+02 -0.46458032875E+01  0.25172471283E+02  0.00000000000E+00 0.  1.
</event>
<event>
 7    1  0.2450552E-011  0.5052887E+02  0.7816164E-02  0.1300439E+00
        -11   -1    0    0    0    0  0.00000000000E+00  0.00000000000E+00  0.45593999997E+02  0.45594000000E+02  0.51100000000E-03 0.  1.
         11   -1    0    0    0    0 -0.00000000000E+00 -0.00000000000E+00 -0.45593999997E+02  0.45594000000E+02  0.51100000000E-03 0. -1.
    9900012    2    1    2    0    0  0.28951165290E+01  0.30023731821E+01  0.40444642427E+02  0.50528867625E+02  0.30000023632E+02 0.  0.
         12    1    1    2    0    0 -0.28951165290E+01 -0.30023731821E+01 -0.40444642427E+02  0.40659132375E+02  0.00000000000E+00 0. -1.
         11    1    3    3    0    0  0.87734893709E+01  0.13648157303E+02  0.25260323032E+02  0.30022162371E+02  0.51100000000E-03 0.  1.
        -11    1    3    3    0    0 -0.13897530106E+00 -0.43567036665E+01  0.19618315698E+01  0.47800590312E+01  0.51100000000E-03 0. -1.
        -12    1    3    3    0    0 -0.57393975409E+01 -0.62890804546E+01  0.13222487826E+02  0.15726646222E+02  0.00000000000E+00 0.  1.
</event>
<event>
 7    1  0.2450552E-011  0.5052886E+02  0.7816164E-02  0.1300439E+00
        -11   -1    0    0    0    0  0.00000000000E+00  0.00000000000E+00  0.45593999997E+02  0.45594000000E+02  0.51100000000E-03 0. -1.
         11   -1    0    0    0    0 -0.00000000000E+00 -0.00000000000E+00 -0.45593999997E+02  0.45594000000E+02  0.51100000000E-03 0.  1.
    9900012    2    1    2    0    0 -0.33343757632E+02  0.35006334391E+01 -0.23002288441E+02  0.50528857350E+02  0.29999992402E+02 0.  0.
         12    1    1    2    0    0  0.33343757632E+02 -0.35006334391E+01  0.23002288441E+02  0.40659142650E+02  0.00000000000E+00 0. -1.
         11    1    3    3    0    0  0.50825590819E+01  0.38715486010E+00 -0.48159807669E+01  0.70125577869E+01  0.51100000000E-03 0. -1.
        -11    1    3    3    0    0 -0.19125412617E+02 -0.15990849079E+00 -0.45535994362E+01  0.19660677674E+02  0.51100000000E-03 0.  1.
        -12    1    3    3    0    0 -0.19300904096E+02  0.32733870698E+01 -0.13632708238E+02  0.23855621890E+02  0.00000000000E+00 0.  1.
</event>
<event>
 7    1  0.2450552E-011  0.5052880E+02  0.7816164E-02  0.1300439E+00
        -11   -1    0    0    0    0  0.00000000000E+00  0.00000000000E+00  0.45593999997E+02  0.45594000000E+02  0.51100000000E-03 0.  1.
         11   -1    0    0    0    0 -0.00000000000E+00 -0.00000000000E+00 -0.45593999997E+02  0.45594000000E+02  0.51100000000E-03 0. -1.
    9900012    2    1    2    0    0  0.29029816927E+02  0.47237807375E+01  0.28073585102E+02  0.50528799864E+02  0.29999817666E+02 0.  0.
         12    1    1    2    0    0 -0.29029816927E+02 -0.47237807375E+01 -0.28073585102E+02  0.40659200136E+02  0.00000000000E+00 0. -1.
         11    1    3    3    0    0  0.14790925933E+02  0.12655603620E+02  0.10665496397E+02  0.22196589976E+02  0.51100000000E-03 0. -1.
        -11    1    3    3    0    0  0.16409931731E+02 -0.28586736616E+01  0.11459417278E+02  0.20218212560E+02  0.51100000000E-03 0.  1.
         12    1    3    3    0    0 -0.21710407366E+01 -0.50731492203E+01  0.59486714263E+01  0.81139973274E+01  0.00000000000E+00 0. -1.
</event>
<event>
 7    1  0.2450552E-011  0.5052888E+02  0.7816164E-02  0.1300439E+00
        -11   -1    0    0    0    0  0.00000000000E+00  0.00000000000E+00  0.45593999997E+02  0.45594000000E+02  0.51100000000E-03 0.  1.
         11   -1    0    0    0    0 -0.00000000000E+00 -0.00000000000E+00 -0.45593999997E+02  0.45594000000E+02  0.51100000000E-03 0. -1.
    9900012    2    1    2    0    0 -0.19272979131E+02  0.22387561842E+01  0.35731002089E+02  0.50528877233E+02  0.30000052839E+02 0.  0.
         12    1    1    2    0    0  0.19272979131E+02 -0.22387561842E+01 -0.35731002089E+02  0.40659122767E+02  0.00000000000E+00 0. -1.
         11    1    3    3    0    0  0.26057780645E+01  0.58075769769E+01  0.79687071071E+01  0.10198937341E+02  0.51100000000E-03 0. -1.
        -11    1    3    3    0    0 -0.61159801463E+01  0.50761649524E+00 -0.19583538351E+01  0.64418970545E+01  0.51100000000E-03 0.  1.
        -12    1    3    3    0    0 -0.15762777049E+02 -0.40764372880E+01  0.29720648818E+02  0.33888042838E+02  0.00000000000E+00 0.  1.
</event>
<event>
 7    1  0.2450552E-011  0.5052886E+02  0.7816164E-02  0.1300439E+00
        -11   -1    0    0    0    0  0.00000000000E+00  0.00000000000E+00  0.45593999997E+02  0.45594000000E+02  0.51100000000E-03 0.  1.
         11   -1    0    0    0    0 -0.00000000000E+00 -0.00000000000E+00 -0.45593999997E+02  0.45594000000E+02  0.51100000000E-03 0. -1.
    9900012    2    1    2    0    0  0.39725301909E+02 -0.70410010408E+01  0.50487890266E+01  0.50528861076E+02  0.30000003725E+02 0.  0.
         12    1    1    2    0    0 -0.39725301909E+02  0.70410010408E+01 -0.50487890266E+01  0.40659138924E+02  0.00000000000E+00 0. -1.
         11    1    3    3    0    0  0.71624629574E+01 -0.10533080628E+02 -0.32996904581E+01  0.13158062947E+02  0.51100000000E-03 0. -1.
        -11    1    3    3    0    0  0.11359932410E+02  0.90268273619E+01  0.30812738845E+01  0.14833270900E+02  0.51100000000E-03 0.  1.
        -12    1    3    3    0    0  0.21202906542E+02 -0.55347477750E+01  0.52672056002E+01  0.22537527229E+02  0.00000000000E+00 0.  1.
</event>
<event>
 7    1  0.2450552E-011  0.5052886E+02  0.7816164E-02  0.1300439E+00
        -11   -1    0    0    0    0  0.00000000000E+00  0.00000000000E+00  0.45593999997E+02  0.45594000000E+02  0.51100000000E-03 0. -1.
         11   -1    0    0    0    0 -0.00000000000E+00 -0.00000000000E+00 -0.45593999997E+02  0.45594000000E+02  0.51100000000E-03 0.  1.
    9900012    2    1    2    0    0  0.19313118203E+02 -0.35411435689E+02 -0.51184985663E+01  0.50528864005E+02  0.30000012629E+02 0.  0.
         12    1    1    2    0    0 -0.19313118203E+02  0.35411435689E+02  0.51184985663E+01  0.40659135995E+02  0.00000000000E+00 0. -1.
         11    1    3    3    0    0 -0.43773444669E+01 -0.83079287967E+01  0.29437853121E+01  0.98411735935E+01  0.51100000000E-03 0. -1.
        -11    1    3    3    0    0  0.49115758757E+01 -0.16972653044E+02 -0.78876514521E+01  0.19349666008E+02  0.51100000000E-03 0.  1.
         12    1    3    3    0    0  0.18778886794E+02 -0.10130853848E+02 -0.17463242628E+00  0.21338024403E+02  0.00000000000E+00 0. -1.
</event>
<event>
 7    1  0.2450552E-011  0.5052886E+02  0.7816164E-02  0.1300439E+00
        -11   -1    0    0    0    0  0.00000000000E+00  0.00000000000E+00  0.45593999997E+02  0.45594000000E+02  0.51100000000E-03 0. -1.
         11   -1    0    0    0    0 -0.00000000000E+00 -0.00000000000E+00 -0.45593999997E+02  0.45594000000E+02  0.51100000000E-03 0.  1.
    9900012    2    1    2    0    0 -0.38288783794E+02  0.13678502950E+02 -0.18216328451E+00  0.50528860919E+02  0.30000003249E+02 0.  0.
         12    1    1    2    0    0  0.38288783794E+02 -0.13678502950E+02  0.18216328451E+00  0.40659139081E+02  0.00000000000E+00 0. -1.
         11    1    3    3    0    0 -0.56403991460E+01 -0.33636854092E+01  0.22973570353E+01  0.69574658940E+01  0.51100000000E-03 0. -1.
        -11    1    3    3    0    0 -0.10019134342E+02  0.14213393167E+02  0.71682482441E+01  0.18809236598E+02  0.51100000000E-03 0.  1.
        -12    1    3    3    0    0 -0.22629250306E+02  0.28287951922E+01 -0.96477685639E+01  0.24762158426E+02  0.00000000000E+00 0.  1.
</event>
<event>
 7    1  0.2450552E-011  0.5052886E+02  0.7816164E-02  0.1300439E+00
        -11   -1    0    0    0    0  0.00000000000E+00  0.00000000000E+00  0.45593999997E+02  0.45594000000E+02  0.51100000000E-03 0.  1.
         11   -1    0    0    0    0 -0.00000000000E+00 -0.00000000000E+00 -0.45593999997E+02  0.45594000000E+02  0.51100000000E-03 0. -1.
    9900012    2    1    2    0    0 -0.26199160702E+02 -0.74756846725E+01  0.30180851555E+02  0.50528859780E+02  0.29999999787E+02 0.  0.
         12    1    1    2    0    0  0.26199160702E+02  0.74756846725E+01 -0.30180851555E+02  0.40659140220E+02  0.00000000000E+00 0. -1.
         11    1    3    3    0    0 -0.30025911554E+02 -0.49374350210E+01  0.18264376878E+02  0.35489732208E+02  0.51100000000E-03 0.  1.
        -11    1    3    3    0    0  0.84970956207E+00 -0.46560765947E+01  0.96270313306E+01  0.10727571398E+02  0.51100000000E-03 0. -1.
        -12    1    3    3    0    0  0.29770412893E+01  0.21178269432E+01  0.22894433470E+01  0.43115561736E+01  0.00000000000E+00 0.  1.
</event>
<event>
 7    1  0.2450552E-011  0.5052886E+02  0.7816164E-02  0.1300439E+00
        -11   -1    0    0    0    0  0.00000000000E+00  0.00000000000E+00  0.45593999997E+02  0.45594000000E+02  0.51100000000E-03 0. -1.
         11   -1    0    0    0    0 -0.00000000000E+00 -0.00000000000E+00 -0.45593999997E+02  0.45594000000E+02  0.51100000000E-03 0.  1.
    9900012    2    1    2    0    0 -0.26639448281E+02 -0.76870916237E+01 -0.29739097759E+02  0.50528861816E+02  0.30000005975E+02 0.  0.
         12    1    1    2    0    0  0.26639448281E+02  0.76870916237E+01  0.29739097759E+02  0.40659138184E+02  0.00000000000E+00 0. -1.
         11    1    3    3    0    0 -0.15336438440E+02 -0.53183658507E+01 -0.35515252959E+01  0.16616398272E+02  0.51100000000E-03 0. -1.
        -11    1    3    3    0    0 -0.18557185704E+01 -0.78647316256E+01 -0.36546829440E+01  0.88687317379E+01  0.51100000000E-03 0.  1.
        -12    1    3    3    0    0 -0.94472912708E+01  0.54960058526E+01 -0.22532889519E+02  0.25043731806E+02  0.00000000000E+00 0.  1.
</event>
<event>
 7    1  0.2450552E-011  0.5052886E+02  0.7816164E-02  0.1300439E+00
        -11   -1    0    0    0    0  0.00000000000E+00  0.00000000000E+00  0.45593999997E+02  0.45594000000E+02  0.51100000000E-03 0.  1.
         11   -1    0    0    0    0 -0.00000000000E+00 -0.00000000000E+00 -0.45593999997E+02  0.45594000000E+02  0.51100000000E-03 0. -1.
    9900012    2    1    2    0    0 -0.84393594842E+01  0.28723361600E+02  0.27512023442E+02  0.50528859282E+02  0.29999998272E+02 0.  0.
         12    1    1    2    0    0  0.84393594842E+01 -0.28723361600E+02 -0.27512023442E+02  0.40659140718E+02  0.00000000000E+00 0. -1.
         11    1    3    3    0    0 -0.95064327023E+01  0.45449602676E+01  0.45608764085E+01  0.11481747273E+02  0.51100000000E-03 0. -1.
        -11    1    3    3    0    0 -0.14871471198E+01 -0.24999454343E+01  0.76546431907E+01  0.81887054147E+01  0.51100000000E-03 0.  1.
        -12    1    3    3    0    0  0.25542203378E+01  0.26678346766E+02  0.15296503843E+02  0.30858406594E+02  0.00000000000E+00 0.  1.
</event>
<event>
 7    1  0.2450552E-011  0.5052875E+02  0.7816164E-02  0.1300439E+00
        -11   -1    0    0    0    0  0.00000000000E+00  0.00000000000E+00  0.45593999997E+02  0.45594000000E+02  0.51100000000E-03 0. -1.
         11   -1    0    0    0    0 -0.00000000000E+00 -0.00000000000E+00 -0.45593999997E+02  0.45594000000E+02  0.51100000000E-03 0.  1.
    9900012    2    1    2    0    0 -0.26495603930E+02  0.18053397101E+02 -0.25004647800E+02  0.50528750301E+02  0.29999667012E+02 0.  0.
         12    1    1    2    0    0  0.26495603930E+02 -0.18053397101E+02  0.25004647800E+02  0.40659249699E+02  0.00000000000E+00 0. -1.
         11    1    3    3    0    0  0.34608144457E+01 -0.10541557481E+01  0.13456329218E+01  0.38599493766E+01  0.51100000000E-03 0. -1.
        -11    1    3    3    0    0 -0.10816310302E+02  0.12593138000E+02 -0.51685231731E+01  0.17386584636E+02  0.51100000000E-03 0.  1.
        -12    1    3    3    0    0 -0.19140108074E+02  0.65144148488E+01 -0.21181757549E+02  0.29282216288E+02  0.00000000000E+00 0.  1.
</event>
<event>
 7    1  0.2450552E-011  0.5052886E+02  0.7816164E-02  0.1300439E+00
        -11   -1    0    0    0    0  0.00000000000E+00  0.00000000000E+00  0.45593999997E+02  0.45594000000E+02  0.51100000000E-03 0.  1.
         11   -1    0    0    0    0 -0.00000000000E+00 -0.00000000000E+00 -0.45593999997E+02  0.45594000000E+02  0.51100000000E-03 0. -1.
    9900012    2    1    2    0    0  0.34841225232E+02 -0.20545600118E+02  0.41392442885E+01  0.50528855848E+02  0.29999987835E+02 0.  0.
         12    1    1    2    0    0 -0.34841225232E+02  0.20545600118E+02 -0.41392442885E+01  0.40659144152E+02  0.00000000000E+00 0. -1.
         11    1    3    3    0    0  0.20153432769E+01  0.41242059623E+01  0.14934157617E+01  0.48271082691E+01  0.51100000000E-03 0. -1.
        -11    1    3    3    0    0  0.10567525709E+02 -0.23858486807E+01 -0.68351428020E+01  0.12809529692E+02  0.51100000000E-03 0.  1.
         12    1    3    3    0    0  0.22258356246E+02 -0.22283957400E+02  0.94809713289E+01  0.32892217887E+02  0.00000000000E+00 0. -1.
</event>
<event>
 7    1  0.2450552E-011  0.5052887E+02  0.7816164E-02  0.1300439E+00
        -11   -1    0    0    0    0  0.00000000000E+00  0.00000000000E+00  0.45593999997E+02  0.45594000000E+02  0.51100000000E-03 0. -1.
         11   -1    0    0    0    0 -0.00000000000E+00 -0.00000000000E+00 -0.45593999997E+02  0.45594000000E+02  0.51100000000E-03 0.  1.
    9900012    2    1    2    0    0  0.26757240996E+02 -0.12490142803E+02 -0.27950161144E+02  0.50528866697E+02  0.30000020813E+02 0.  0.
         12    1    1    2    0    0 -0.26757240996E+02  0.12490142803E+02  0.27950161144E+02  0.40659133303E+02  0.00000000000E+00 0. -1.
         11    1    3    3    0    0  0.32121597054E+00  0.58299708638E+01 -0.35043524144E+00  0.58493200538E+01  0.51100000000E-03 0. -1.
        -11    1    3    3    0    0  0.93627160804E+01 -0.24748961252E-01 -0.11885663247E+02  0.15130434759E+02  0.51100000000E-03 0.  1.
         12    1    3    3    0    0  0.17073308945E+02 -0.18295364705E+02 -0.15714062655E+02  0.29549111884E+02  0.00000000000E+00 0. -1.
</event>
<event>
 7    1  0.2450552E-011  0.5052886E+02  0.7816164E-02  0.1300439E+00
        -11   -1    0    0    0    0  0.00000000000E+00  0.00000000000E+00  0.45593999997E+02  0.45594000000E+02  0.51100000000E-03 0.  1.
         11   -1    0    0    0    0 -0.00000000000E+00 -0.00000000000E+00 -0.45593999997E+02  0.45594000000E+02  0.51100000000E-03 0. -1.
    9900012    2    1    2    0    0  0.24468477761E+02  0.16003511815E+01  0.32432982583E+02  0.50528857276E+02  0.29999992177E+02 0.  0.
         12    1    1    2    0    0 -0.24468477761E+02 -0.16003511815E+01 -0.32432982583E+02  0.40659142724E+02  0.00000000000E+00 0. -1.
         11    1    3    3    0    0  0.10251705046E+02 -0.10234252750E+02  0.10368421111E+02  0.17814082696E+02  0.51100000000E-03 0. -1.
        -11    1    3    3    0    0  0.72941651287E+01 -0.59221458170E+00  0.15306821835E+02  0.16966271186E+02  0.51100000000E-03 0.  1.
         12    1    3    3    0    0  0.69226075858E+01  0.12426818513E+02  0.67577396372E+01  0.15748503394E+02  0.00000000000E+00 0. -1.
</event>
<event>
 7    1  0.2450552E-011  0.5052886E+02  0.7816164E-02  0.1300439E+00
        -11   -1    0    0    0    0  0.00000000000E+00  0.00000000000E+00  0.45593999997E+02  0.45594000000E+02  0.51100000000E-03 0.  1.
         11   -1    0    0    0    0 -0.00000000000E+00 -0.00000000000E+00 -0.45593999997E+02  0.45594000000E+02  0.51100000000E-03 0. -1.
    9900012    2    1    2    0    0 -0.26035629260E+02  0.13211606133E+02  0.28297793722E+02  0.50528860104E+02  0.30000000772E+02 0.  0.
         12    1    1    2    0    0  0.26035629260E+02 -0.13211606133E+02 -0.28297793722E+02  0.40659139896E+02  0.00000000000E+00 0. -1.
         11    1    3    3    0    0 -0.17646896362E+02  0.12569697756E+02  0.58509687707E+01  0.22442016146E+02  0.51100000000E-03 0. -1.
        -11    1    3    3    0    0 -0.12138284790E+02  0.26763472915E+01  0.18412981187E+02  0.22215730213E+02  0.51100000000E-03 0.  1.
         12    1    3    3    0    0  0.37495518917E+01 -0.20344389143E+01  0.40338437640E+01  0.58711137442E+01  0.00000000000E+00 0. -1.
</event>
<event>
 7    1  0.2450552E-011  0.5052887E+02  0.7816164E-02  0.1300439E+00
        -11   -1    0    0    0    0  0.00000000000E+00  0.00000000000E+00  0.45593999997E+02  0.45594000000E+02  0.51100000000E-03 0.  1.
         11   -1    0    0    0    0 -0.00000000000E+00 -0.00000000000E+00 -0.45593999997E+02  0.45594000000E+02  0.51100000000E-03 0. -1.
    9900012    2    1    2    0    0  0.30737197492E+02 -0.17090609783E+02 -0.20403436333E+02  0.50528874744E+02  0.30000045272E+02 0.  0.
         12    1    1    2    0    0 -0.30737197492E+02  0.17090609783E+02  0.20403436333E+02  0.40659125256E+02  0.00000000000E+00 0. -1.
         11    1    3    3    0    0  0.31726828594E+01  0.54295679349E+01  0.24394534092E+00  0.62933007299E+01  0.51100000000E-03 0. -1.
        -11    1    3    3    0    0  0.41190032637E+01 -0.93048715610E+01  0.22283594765E+00  0.10178235543E+02  0.51100000000E-03 0.  1.
         12    1    3    3    0    0  0.23445511369E+02 -0.13215306157E+02 -0.20870217621E+02  0.34057338471E+02  0.00000000000E+00 0. -1.
</event>
<event>
 7    1  0.2450552E-011  0.5052886E+02  0.7816164E-02  0.1300439E+00
        -11   -1    0    0    0    0  0.00000000000E+00  0.00000000000E+00  0.45593999997E+02  0.45594000000E+02  0.51100000000E-03 0.  1.
         11   -1    0    0    0    0 -0.00000000000E+00 -0.00000000000E+00 -0.45593999997E+02  0.45594000000E+02  0.51100000000E-03 0. -1.
    9900012    2    1    2    0    0  0.36922497498E+02 -0.43065664634E+01  0.16472661065E+02  0.50528857132E+02  0.29999991738E+02 0.  0.
         12    1    1    2    0    0 -0.36922497498E+02  0.43065664634E+01 -0.16472661065E+02  0.40659142868E+02  0.00000000000E+00 0. -1.
         11    1    3    3    0    0  0.11542482189E+02  0.74970144923E+01  0.37318747325E+01  0.14260470212E+02  0.51100000000E-03 0. -1.
        -11    1    3    3    0    0  0.15496299592E+02 -0.47548883022E+01 -0.29025673703E+01  0.16467214743E+02  0.51100000000E-03 0.  1.
        -12    1    3    3    0    0  0.98837157180E+01 -0.70486926535E+01  0.15643353702E+02  0.19801172177E+02  0.00000000000E+00 0.  1.
</event>
<event>
 7    1  0.2450552E-011  0.5052885E+02  0.7816164E-02  0.1300439E+00
        -11   -1    0    0    0    0  0.00000000000E+00  0.00000000000E+00  0.45593999997E+02  0.45594000000E+02  0.51100000000E-03 0.  1.
         11   -1    0    0    0    0 -0.00000000000E+00 -0.00000000000E+00 -0.45593999997E+02  0.45594000000E+02  0.51100000000E-03 0. -1.
    9900012    2    1    2    0    0 -0.25875708573E+02 -0.61955595546E+01  0.30744578355E+02  0.50528851576E+02  0.29999974850E+02 0.  0.
         12    1    1    2    0    0  0.25875708573E+02  0.61955595546E+01 -0.30744578355E+02  0.40659148424E+02  0.00000000000E+00 0. -1.
         11    1    3    3    0    0  0.36564439218E+01 -0.56274226691E+00  0.15808926034E+01  0.40231185288E+01  0.51100000000E-03 0. -1.
        -11    1    3    3    0    0 -0.97657433064E+01 -0.11087287172E+02  0.17545771844E+02  0.22937998801E+02  0.51100000000E-03 0.  1.
         12    1    3    3    0    0 -0.19766409188E+02  0.54544698839E+01  0.11617913908E+02  0.23567734246E+02  0.00000000000E+00 0. -1.
</event>
<event>
 7    1  0.2450552E-011  0.5052885E+02  0.7816164E-02  0.1300439E+00
        -11   -1    0    0    0    0  0.00000000000E+00  0.00000000000E+00  0.45593999997E+02  0.45594000000E+02  0.51100000000E-03 0.  1.
         11   -1    0    0    0    0 -0.00000000000E+00 -0.00000000000E+00 -0.45593999997E+02  0.45594000000E+02  0.51100000000E-03 0. -1.
    9900012    2    1    2    0    0 -0.20493838125E+02  0.25348911584E+02  0.24302298027E+02  0.50528850858E+02  0.29999972667E+02 0.  0.
         12    1    1    2    0    0  0.20493838125E+02 -0.25348911584E+02 -0.24302298027E+02  0.40659149142E+02  0.00000000000E+00 0. -1.
         11    1    3    3    0    0  0.31082447270E+01  0.83811750516E+01  0.93380663439E+01  0.12926900782E+02  0.51100000000E-03 0. -1.
        -11    1    3    3    0    0 -0.40651737825E+01  0.12706194939E+02  0.13450669100E+01  0.13408289710E+02  0.51100000000E-03 0.  1.
         12    1    3    3    0    0 -0.19536909069E+02  0.42615415940E+01  0.13619164773E+02  0.24193660365E+02  0.00000000000E+00 0. -1.
</event>
<event>
 7    1  0.2450552E-011  0.5052885E+02  0.7816164E-02  0.1300439E+00
        -11   -1    0    0    0    0  0.00000000000E+00  0.00000000000E+00  0.45593999997E+02  0.45594000000E+02  0.51100000000E-03 0. -1.
         11   -1    0    0    0    0 -0.00000000000E+00 -0.00000000000E+00 -0.45593999997E+02  0.45594000000E+02  0.51100000000E-03 0.  1.
    9900012    2    1    2    0    0  0.36505065414E+02 -0.34519547670E+01 -0.17567881625E+02  0.50528852722E+02  0.29999978333E+02 0.  0.
         12    1    1    2    0    0 -0.36505065414E+02  0.34519547670E+01  0.17567881625E+02  0.40659147278E+02  0.00000000000E+00 0. -1.
         11    1    3    3    0    0  0.78483351692E+01 -0.66477751822E+00 -0.15168488188E+02  0.17091557221E+02  0.51100000000E-03 0.  1.
        -11    1    3    3    0    0 -0.22450401116E+01  0.12608772592E+00  0.35542018103E+00  0.22764944506E+01  0.51100000000E-03 0. -1.
        -12    1    3    3    0    0  0.30901770357E+02 -0.29132649747E+01 -0.27548136181E+01  0.31160801050E+02  0.00000000000E+00 0.  1.
</event>
<event>
 7    1  0.2450552E-011  0.5052886E+02  0.7816164E-02  0.1300439E+00
        -11   -1    0    0    0    0  0.00000000000E+00  0.00000000000E+00  0.45593999997E+02  0.45594000000E+02  0.51100000000E-03 0.  1.
         11   -1    0    0    0    0 -0.00000000000E+00 -0.00000000000E+00 -0.45593999997E+02  0.45594000000E+02  0.51100000000E-03 0. -1.
    9900012    2    1    2    0    0  0.13163443017E+02 -0.32560260497E+02  0.20487037321E+02  0.50528862111E+02  0.30000006873E+02 0.  0.
         12    1    1    2    0    0 -0.13163443017E+02  0.32560260497E+02 -0.20487037321E+02  0.40659137889E+02  0.00000000000E+00 0. -1.
         11    1    3    3    0    0  0.28199954290E+01 -0.10823731053E+01  0.15635138409E+01  0.34012470582E+01  0.51100000000E-03 0.  1.
        -11    1    3    3    0    0 -0.29143701191E+01 -0.29417864955E+02  0.14994563606E+02  0.33147266399E+02  0.51100000000E-03 0. -1.
         12    1    3    3    0    0  0.13257817707E+02 -0.20600224365E+01  0.39289598736E+01  0.13980348654E+02  0.00000000000E+00 0. -1.
</event>
<event>
 7    1  0.2450552E-011  0.5052886E+02  0.7816164E-02  0.1300439E+00
        -11   -1    0    0    0    0  0.00000000000E+00  0.00000000000E+00  0.45593999997E+02  0.45594000000E+02  0.51100000000E-03 0. -1.
         11   -1    0    0    0    0 -0.00000000000E+00 -0.00000000000E+00 -0.45593999997E+02  0.45594000000E+02  0.51100000000E-03 0.  1.
    9900012    2    1    2    0    0 -0.13380804195E+02 -0.25242688736E+02 -0.28929682797E+02  0.50528858319E+02  0.29999995347E+02 0.  0.
         12    1    1    2    0    0  0.13380804195E+02  0.25242688736E+02  0.28929682797E+02  0.40659141681E+02  0.00000000000E+00 0. -1.
         11    1    3    3    0    0 -0.27559425358E+00  0.46948681748E+01 -0.29221563642E+01  0.55368526664E+01  0.51100000000E-03 0. -1.
        -11    1    3    3    0    0  0.28900869895E+01 -0.12274641659E+02 -0.11672674587E+02  0.17183444443E+02  0.51100000000E-03 0.  1.
         12    1    3    3    0    0 -0.15995296931E+02 -0.17662915252E+02 -0.14334851845E+02  0.27808561209E+02  0.00000000000E+00 0. -1.
</event>
<event>
 7    1  0.2450552E-011  0.5052885E+02  0.7816164E-02  0.1300439E+00
        -11   -1    0    0    0    0  0.00000000000E+00  0.00000000000E+00  0.45593999997E+02  0.45594000000E+02  0.51100000000E-03 0.  1.
         11   -1    0    0    0    0 -0.00000000000E+00 -0.00000000000E+00 -0.45593999997E+02  0.45594000000E+02  0.51100000000E-03 0. -1.
    9900012    2    1    2    0    0 -0.13542778373E+02 -0.20310730816E+02  0.32515129307E+02  0.50528852614E+02  0.29999978004E+02 0.  0.
         12    1    1    2    0    0  0.13542778373E+02  0.20310730816E+02 -0.32515129307E+02  0.40659147386E+02  0.00000000000E+00 0. -1.
         11    1    3    3    0    0 -0.50564011951E+01 -0.20600561124E+02  0.17557271975E+02  0.27535579005E+02  0.51100000000E-03 0. -1.
        -11    1    3    3    0    0 -0.11894790214E+02 -0.26894074851E+01  0.13600433068E+02  0.18267203584E+02  0.51100000000E-03 0.  1.
        -12    1    3    3    0    0  0.34084130359E+01  0.29792377933E+01  0.13574242642E+01  0.47260700255E+01  0.00000000000E+00 0.  1.
</event>
<event>
 7    1  0.2450552E-011  0.5052885E+02  0.7816164E-02  0.1300439E+00
        -11   -1    0    0    0    0  0.00000000000E+00  0.00000000000E+00  0.45593999997E+02  0.45594000000E+02  0.51100000000E-03 0.  1.
         11   -1    0    0    0    0 -0.00000000000E+00 -0.00000000000E+00 -0.45593999997E+02  0.45594000000E+02  0.51100000000E-03 0. -1.
    9900012    2    1    2    0    0 -0.71832321985E+01  0.87439786222E+01  0.39052659221E+02  0.50528853683E+02  0.29999981256E+02 0.  0.
         12    1    1    2    0    0  0.71832321985E+01 -0.87439786222E+01 -0.39052659221E+02  0.40659146317E+02  0.00000000000E+00 0. -1.
         11    1    3    3    0    0  0.68500943758E+01  0.32371481123E+01  0.15191026049E+02  0.16975576383E+02  0.51100000000E-03 0. -1.
        -11    1    3    3    0    0 -0.49681075871E+01 -0.59603401325E+01  0.35609751270E+01  0.85374640034E+01  0.51100000000E-03 0.  1.
        -12    1    3    3    0    0 -0.90652189872E+01  0.11467170642E+02  0.20300658046E+02  0.25015813297E+02  0.00000000000E+00 0.  1.
</event>
<event>
 7    1  0.2450552E-011  0.5052886E+02  0.7816164E-02  0.1300439E+00
        -11   -1    0    0    0    0  0.00000000000E+00  0.00000000000E+00  0.45593999997E+02  0.45594000000E+02  0.51100000000E-03 0. -1.
         11   -1    0    0    0    0 -0.00000000000E+00 -0.00000000000E+00 -0.45593999997E+02  0.45594000000E+02  0.51100000000E-03 0.  1.
    9900012    2    1    2    0    0  0.33027694294E+02  0.12174994727E+02 -0.20349605638E+02  0.50528861585E+02  0.30000005275E+02 0.  0.
         12    1    1    2    0    0 -0.33027694294E+02 -0.12174994727E+02  0.20349605638E+02  0.40659138415E+02  0.00000000000E+00 0. -1.
         11    1    3    3    0    0  0.93873904299E+01  0.11086808531E+01  0.36598362337E+01  0.10136403397E+02  0.51100000000E-03 0. -1.
        -11    1    3    3    0    0  0.11272699712E+02 -0.47608385891E+01 -0.71798365752E+01  0.14187649431E+02  0.51100000000E-03 0.  1.
         12    1    3    3    0    0  0.12367604153E+02  0.15827152463E+02 -0.16829605296E+02  0.26204808757E+02  0.00000000000E+00 0. -1.
</event>
<event>
 7    1  0.2450552E-011  0.5052886E+02  0.7816164E-02  0.1300439E+00
        -11   -1    0    0    0    0  0.00000000000E+00  0.00000000000E+00  0.45593999997E+02  0.45594000000E+02  0.51100000000E-03 0.  1.
         11   -1    0    0    0    0 -0.00000000000E+00 -0.00000000000E+00 -0.45593999997E+02  0.45594000000E+02  0.51100000000E-03 0. -1.
    9900012    2    1    2    0    0 -0.31576235475E+01 -0.43496072579E+01  0.40302307885E+02  0.50528859692E+02  0.29999999519E+02 0.  0.
         12    1    1    2    0    0  0.31576235475E+01  0.43496072579E+01 -0.40302307885E+02  0.40659140308E+02  0.00000000000E+00 0. -1.
         11    1    3    3    0    0  0.44922673303E+01  0.82006732678E+01  0.61764947029E+01  0.11206274800E+02  0.51100000000E-03 0.  1.
        -11    1    3    3    0    0 -0.20505406991E+01 -0.43411712186E+01  0.12264030993E+01  0.49552547392E+01  0.51100000000E-03 0. -1.
        -12    1    3    3    0    0 -0.55993501788E+01 -0.82091093070E+01  0.32899410083E+02  0.34367330153E+02  0.00000000000E+00 0.  1.
</event>
<event>
 7    1  0.2450552E-011  0.5052885E+02  0.7816164E-02  0.1300439E+00
        -11   -1    0    0    0    0  0.00000000000E+00  0.00000000000E+00  0.45593999997E+02  0.45594000000E+02  0.51100000000E-03 0.  1.
         11   -1    0    0    0    0 -0.00000000000E+00 -0.00000000000E+00 -0.45593999997E+02  0.45594000000E+02  0.51100000000E-03 0. -1.
    9900012    2    1    2    0    0 -0.35599909059E+02  0.52025078511E+01  0.18940604944E+02  0.50528854306E+02  0.29999983148E+02 0.  0.
         12    1    1    2    0    0  0.35599909059E+02 -0.52025078511E+01 -0.18940604944E+02  0.40659145694E+02  0.00000000000E+00 0. -1.
         11    1    3    3    0    0  0.41537189488E+00  0.84641680341E+01 -0.94607185906E+00  0.85269998560E+01  0.51100000000E-03 0. -1.
        -11    1    3    3    0    0 -0.81014385499E+01  0.15387194944E+01  0.19408700566E+01  0.84715961364E+01  0.51100000000E-03 0.  1.
         12    1    3    3    0    0 -0.27913842404E+02 -0.48003796774E+01  0.17945806747E+02  0.33530258314E+02  0.00000000000E+00 0. -1.
</event>
<event>
 7    1  0.2450552E-011  0.5052886E+02  0.7816164E-02  0.1300439E+00
        -11   -1    0    0    0    0  0.00000000000E+00  0.00000000000E+00  0.45593999997E+02  0.45594000000E+02  0.51100000000E-03 0. -1.
         11   -1    0    0    0    0 -0.00000000000E+00 -0.00000000000E+00 -0.45593999997E+02  0.45594000000E+02  0.51100000000E-03 0.  1.
    9900012    2    1    2    0    0  0.14558275186E+02  0.15500052905E+02 -0.34655018822E+02  0.50528863929E+02  0.30000012400E+02 0.  0.
         12    1    1    2    0    0 -0.14558275186E+02 -0.15500052905E+02  0.34655018822E+02  0.40659136071E+02  0.00000000000E+00 0. -1.
         11    1    3    3    0    0  0.50912462681E+01  0.85796363448E+01 -0.18890755882E+02  0.21363323862E+02  0.51100000000E-03 0. -1.
        -11    1    3    3    0    0 -0.24066589376E+01 -0.35445111974E+01 -0.12216001565E+02  0.12945511244E+02  0.51100000000E-03 0.  1.
         12    1    3    3    0    0  0.11873687855E+02  0.10464927758E+02 -0.35482613755E+01  0.16220028824E+02  0.00000000000E+00 0. -1.
</event>
<event>
 7    1  0.2450552E-011  0.5052886E+02  0.7816164E-02  0.1300439E+00
        -11   -1    0    0    0    0  0.00000000000E+00  0.00000000000E+00  0.45593999997E+02  0.45594000000E+02  0.51100000000E-03 0.  1.
         11   -1    0    0    0    0 -0.00000000000E+00 -0.00000000000E+00 -0.45593999997E+02  0.45594000000E+02  0.51100000000E-03 0. -1.
    9900012    2    1    2    0    0 -0.26848075017E+02 -0.24040954918E+02  0.18824955166E+02  0.50528861021E+02  0.30000003561E+02 0.  0.
         12    1    1    2    0    0  0.26848075017E+02  0.24040954918E+02 -0.18824955166E+02  0.40659138979E+02  0.00000000000E+00 0. -1.
         11    1    3    3    0    0 -0.17306962733E+02 -0.62803842586E+01 -0.28204213728E+01  0.18626029165E+02  0.51100000000E-03 0. -1.
        -11    1    3    3    0    0  0.17549583068E+01  0.60669040948E+00  0.20554375003E+01  0.27699775252E+01  0.51100000000E-03 0.  1.
        -12    1    3    3    0    0 -0.11296070591E+02 -0.18367261068E+02  0.19589939038E+02  0.29132854331E+02  0.00000000000E+00 0.  1.
</event>
<event>
 7    1  0.2450552E-011  0.5052886E+02  0.7816164E-02  0.1300439E+00
        -11   -1    0    0    0    0  0.00000000000E+00  0.00000000000E+00  0.45593999997E+02  0.45594000000E+02  0.51100000000E-03 0.  1.
         11   -1    0    0    0    0 -0.00000000000E+00 -0.00000000000E+00 -0.45593999997E+02  0.45594000000E+02  0.51100000000E-03 0. -1.
    9900012    2    1    2    0    0 -0.15741319954E+02 -0.23615511827E+02  0.29115016014E+02  0.50528859450E+02  0.29999998785E+02 0.  0.
         12    1    1    2    0    0  0.15741319954E+02  0.23615511827E+02 -0.29115016014E+02  0.40659140550E+02  0.00000000000E+00 0. -1.
         11    1    3    3    0    0 -0.41285751893E+01 -0.14857707628E+02  0.23619924427E+02  0.28208109459E+02  0.51100000000E-03 0. -1.
        -11    1    3    3    0    0 -0.17185969716E+01 -0.11205417224E+02  0.17958304602E+01  0.11477802839E+02  0.51100000000E-03 0.  1.
         12    1    3    3    0    0 -0.98941477928E+01  0.24476130240E+01  0.36992611263E+01  0.10842947152E+02  0.00000000000E+00 0. -1.
</event>
<event>
 7    1  0.2450552E-011  0.5052887E+02  0.7816164E-02  0.1300439E+00
        -11   -1    0    0    0    0  0.00000000000E+00  0.00000000000E+00  0.45593999997E+02  0.45594000000E+02  0.51100000000E-03 0. -1.
         11   -1    0    0    0    0 -0.00000000000E+00 -0.00000000000E+00 -0.45593999997E+02  0.45594000000E+02  0.51100000000E-03 0.  1.
    9900012    2    1    2    0    0 -0.83195981000E+01  0.29244303561E+02 -0.26994815294E+02  0.50528867495E+02  0.30000023238E+02 0.  0.
         12    1    1    2    0    0  0.83195981000E+01 -0.29244303561E+02  0.26994815294E+02  0.40659132505E+02  0.00000000000E+00 0. -1.
         11    1    3    3    0    0  0.48299533949E+01  0.52378479977E+01 -0.15015308100E+02  0.16619957251E+02  0.51100000000E-03 0. -1.
        -11    1    3    3    0    0 -0.90953451202E+01  0.17524903174E+02 -0.15869044884E+02  0.25331287371E+02  0.51100000000E-03 0.  1.
         12    1    3    3    0    0 -0.40542063747E+01  0.64815523895E+01  0.38895376893E+01  0.85776228725E+01  0.00000000000E+00 0. -1.
</event>
<event>
 7    1  0.2450552E-011  0.5052886E+02  0.7816164E-02  0.1300439E+00
        -11   -1    0    0    0    0  0.00000000000E+00  0.00000000000E+00  0.45593999997E+02  0.45594000000E+02  0.51100000000E-03 0. -1.
         11   -1    0    0    0    0 -0.00000000000E+00 -0.00000000000E+00 -0.45593999997E+02  0.45594000000E+02  0.51100000000E-03 0.  1.
    9900012    2    1    2    0    0 -0.39542079027E+02  0.27055742260E+01 -0.90702618407E+01  0.50528858402E+02  0.29999995598E+02 0.  0.
         12    1    1    2    0    0  0.39542079027E+02 -0.27055742260E+01  0.90702618407E+01  0.40659141598E+02  0.00000000000E+00 0. -1.
         11    1    3    3    0    0 -0.15908885239E+02  0.91659878701E+01 -0.33951524753E+00  0.18363638911E+02  0.51100000000E-03 0. -1.
        -11    1    3    3    0    0 -0.85230289354E+00  0.45219426497E+00 -0.82988260451E+01  0.83547240448E+01  0.51100000000E-03 0.  1.
        -12    1    3    3    0    0 -0.22780890894E+02 -0.69126079090E+01 -0.43192054807E+00  0.23810495446E+02  0.00000000000E+00 0.  1.
</event>
<event>
 7    1  0.2450552E-011  0.5052884E+02  0.7816164E-02  0.1300439E+00
        -11   -1    0    0    0    0  0.00000000000E+00  0.00000000000E+00  0.45593999997E+02  0.45594000000E+02  0.51100000000E-03 0.  1.
         11   -1    0    0    0    0 -0.00000000000E+00 -0.00000000000E+00 -0.45593999997E+02  0.45594000000E+02  0.51100000000E-03 0. -1.
    9900012    2    1    2    0    0 -0.29407540492E+02 -0.27664465747E+02  0.48000891623E+01  0.50528844096E+02  0.29999952114E+02 0.  0.
         12    1    1    2    0    0  0.29407540492E+02  0.27664465747E+02 -0.48000891623E+01  0.40659155904E+02  0.00000000000E+00 0. -1.
         11    1    3    3    0    0  0.13704479653E+01 -0.28751044661E+00  0.53609943691E+00  0.14993974623E+01  0.51100000000E-03 0. -1.
        -11    1    3    3    0    0 -0.26000430447E+02 -0.12779156088E+02 -0.72128284067E+01  0.29855554050E+02  0.51100000000E-03 0.  1.
        -12    1    3    3    0    0 -0.47775580107E+01 -0.14597799212E+02  0.11476818132E+02  0.19173892584E+02  0.00000000000E+00 0.  1.
</event>
<event>
 7    1  0.2450552E-011  0.5052886E+02  0.7816164E-02  0.1300439E+00
        -11   -1    0    0    0    0  0.00000000000E+00  0.00000000000E+00  0.45593999997E+02  0.45594000000E+02  0.51100000000E-03 0.  1.
         11   -1    0    0    0    0 -0.00000000000E+00 -0.00000000000E+00 -0.45593999997E+02  0.45594000000E+02  0.51100000000E-03 0. -1.
    9900012    2    1    2    0    0 -0.36507097584E+02  0.13028893985E+02  0.12273759139E+02  0.50528863070E+02  0.30000009789E+02 0.  0.
         12    1    1    2    0    0  0.36507097584E+02 -0.13028893985E+02 -0.12273759139E+02  0.40659136930E+02  0.00000000000E+00 0. -1.
         11    1    3    3    0    0 -0.10396417520E+01  0.26366142170E+01 -0.33817348998E+01  0.44123373279E+01  0.51100000000E-03 0. -1.
        -11    1    3    3    0    0 -0.31021905602E+02  0.16985278438E+02  0.11839623902E+02  0.37296581683E+02  0.51100000000E-03 0.  1.
         12    1    3    3    0    0 -0.44455502299E+01 -0.65929986707E+01  0.38158701364E+01  0.88199440597E+01  0.00000000000E+00 0. -1.
</event>
<event>
 7    1  0.2450552E-011  0.5052887E+02  0.7816164E-02  0.1300439E+00
        -11   -1    0    0    0    0  0.00000000000E+00  0.00000000000E+00  0.45593999997E+02  0.45594000000E+02  0.51100000000E-03 0. -1.
         11   -1    0    0    0    0 -0.00000000000E+00 -0.00000000000E+00 -0.45593999997E+02  0.45594000000E+02  0.51100000000E-03 0.  1.
    9900012    2    1    2    0    0  0.31955286820E+02  0.17736644541E+02 -0.17816734679E+02  0.50528868800E+02  0.30000027204E+02 0.  0.
         12    1    1    2    0    0 -0.31955286820E+02 -0.17736644541E+02  0.17816734679E+02  0.40659131200E+02  0.00000000000E+00 0. -1.
         11    1    3    3    0    0 -0.15598628395E+01 -0.16936093692E+01  0.21272711079E+01  0.31347675194E+01  0.51100000000E-03 0. -1.
        -11    1    3    3    0    0  0.92042025372E+01  0.75231471378E+01  0.25967011526E+01  0.12167906325E+02  0.51100000000E-03 0.  1.
        -12    1    3    3    0    0  0.24310947123E+02  0.11907106772E+02 -0.22540706940E+02  0.35226194955E+02  0.00000000000E+00 0.  1.
</event>
<event>
 7    1  0.2450552E-011  0.5052887E+02  0.7816164E-02  0.1300439E+00
        -11   -1    0    0    0    0  0.00000000000E+00  0.00000000000E+00  0.45593999997E+02  0.45594000000E+02  0.51100000000E-03 0.  1.
         11   -1    0    0    0    0 -0.00000000000E+00 -0.00000000000E+00 -0.45593999997E+02  0.45594000000E+02  0.51100000000E-03 0. -1.
    9900012    2    1    2    0    0  0.10201178047E+02  0.30375363311E+02  0.25028747648E+02  0.50528868939E+02  0.30000027627E+02 0.  0.
         12    1    1    2    0    0 -0.10201178047E+02 -0.30375363311E+02 -0.25028747648E+02  0.40659131061E+02  0.00000000000E+00 0. -1.
         11    1    3    3    0    0 -0.55464657286E+01  0.35854471088E+01 -0.16624110483E+00  0.66065383837E+01  0.51100000000E-03 0. -1.
        -11    1    3    3    0    0  0.30081989694E+01  0.21675943285E+02  0.18468662405E+02  0.28635419844E+02  0.51100000000E-03 0.  1.
        -12    1    3    3    0    0  0.12739444806E+02  0.51139729170E+01  0.67263263480E+01  0.15286910712E+02  0.00000000000E+00 0.  1.
</event>
<event>
 7    1  0.2450552E-011  0.5052890E+02  0.7816164E-02  0.1300439E+00
        -11   -1    0    0    0    0  0.00000000000E+00  0.00000000000E+00  0.45593999997E+02  0.45594000000E+02  0.51100000000E-03 0. -1.
         11   -1    0    0    0    0 -0.00000000000E+00 -0.00000000000E+00 -0.45593999997E+02  0.45594000000E+02  0.51100000000E-03 0.  1.
    9900012    2    1    2    0    0 -0.23826690292E+02 -0.49722668575E+01 -0.32568817255E+02  0.50528899354E+02  0.30000120076E+02 0.  0.
         12    1    1    2    0    0  0.23826690292E+02  0.49722668575E+01  0.32568817255E+02  0.40659100646E+02  0.00000000000E+00 0. -1.
         11    1    3    3    0    0  0.93211381639E+00  0.10359698783E+01 -0.12772082490E+01  0.18903256142E+01  0.51100000000E-03 0. -1.
        -11    1    3    3    0    0 -0.11101349211E+02  0.10793724707E+02 -0.14818523546E+02  0.21432057477E+02  0.51100000000E-03 0.  1.
         12    1    3    3    0    0 -0.13657454898E+02 -0.16801961443E+02 -0.16473085460E+02  0.27206516263E+02  0.00000000000E+00 0. -1.
</event>
<event>
 7    1  0.2450552E-011  0.5052887E+02  0.7816164E-02  0.1300439E+00
        -11   -1    0    0    0    0  0.00000000000E+00  0.00000000000E+00  0.45593999997E+02  0.45594000000E+02  0.51100000000E-03 0. -1.
         11   -1    0    0    0    0 -0.00000000000E+00 -0.00000000000E+00 -0.45593999997E+02  0.45594000000E+02  0.51100000000E-03 0.  1.
    9900012    2    1    2    0    0 -0.21032044785E+01 -0.37050500816E+02 -0.16613311907E+02  0.50528865573E+02  0.30000017396E+02 0.  0.
         12    1    1    2    0    0  0.21032044785E+01  0.37050500816E+02  0.16613311907E+02  0.40659134427E+02  0.00000000000E+00 0. -1.
         11    1    3    3    0    0  0.22232054024E+01 -0.23799259843E+01  0.44663056132E+00  0.32872738053E+01  0.51100000000E-03 0. -1.
        -11    1    3    3    0    0 -0.14140320581E+02 -0.21749798279E+02 -0.36616945113E+01  0.26199435076E+02  0.51100000000E-03 0.  1.
        -12    1    3    3    0    0  0.98139107002E+01 -0.12920776553E+02 -0.13398247957E+02  0.21042156692E+02  0.00000000000E+00 0.  1.
</event>
<event>
 7    1  0.2450552E-011  0.5052886E+02  0.7816164E-02  0.1300439E+00
        -11   -1    0    0    0    0  0.00000000000E+00  0.00000000000E+00  0.45593999997E+02  0.45594000000E+02  0.51100000000E-03 0.  1.
         11   -1    0    0    0    0 -0.00000000000E+00 -0.00000000000E+00 -0.45593999997E+02  0.45594000000E+02  0.51100000000E-03 0. -1.
    9900012    2    1    2    0    0  0.36018198162E+02  0.18403063250E+02 -0.41451497281E+01  0.50528860780E+02  0.30000002827E+02 0.  0.
         12    1    1    2    0    0 -0.36018198162E+02 -0.18403063250E+02  0.41451497281E+01  0.40659139220E+02  0.00000000000E+00 0. -1.
         11    1    3    3    0    0  0.58540428214E+01 -0.33399872930E+01  0.36404727154E+01  0.76601810896E+01  0.51100000000E-03 0. -1.
        -11    1    3    3    0    0  0.22498993124E+00  0.62631618660E+01  0.36797454275E+01  0.72676229747E+01  0.51100000000E-03 0.  1.
        -12    1    3    3    0    0  0.29939165410E+02  0.15479888676E+02 -0.11465367871E+02  0.35601056716E+02  0.00000000000E+00 0.  1.
</event>
<event>
 7    1  0.2450552E-011  0.5052884E+02  0.7816164E-02  0.1300439E+00
        -11   -1    0    0    0    0  0.00000000000E+00  0.00000000000E+00  0.45593999997E+02  0.45594000000E+02  0.51100000000E-03 0.  1.
         11   -1    0    0    0    0 -0.00000000000E+00 -0.00000000000E+00 -0.45593999997E+02  0.45594000000E+02  0.51100000000E-03 0. -1.
    9900012    2    1    2    0    0  0.33276059563E+02 -0.65391935280E+01  0.22430123487E+02  0.50528835822E+02  0.29999926963E+02 0.  0.
         12    1    1    2    0    0 -0.33276059563E+02  0.65391935280E+01 -0.22430123487E+02  0.40659164178E+02  0.00000000000E+00 0. -1.
         11    1    3    3    0    0  0.12275990550E+02 -0.10962141362E+02  0.11803972482E+02  0.20253450418E+02  0.51100000000E-03 0. -1.
        -11    1    3    3    0    0  0.17502743906E+02 -0.10875079512E+01  0.14439647175E+02  0.22716340564E+02  0.51100000000E-03 0.  1.
        -12    1    3    3    0    0  0.34973251060E+01  0.55104557847E+01 -0.38134961697E+01  0.75590448398E+01  0.00000000000E+00 0.  1.
</event>
<event>
 7    1  0.2450552E-011  0.5052887E+02  0.7816164E-02  0.1300439E+00
        -11   -1    0    0    0    0  0.00000000000E+00  0.00000000000E+00  0.45593999997E+02  0.45594000000E+02  0.51100000000E-03 0.  1.
         11   -1    0    0    0    0 -0.00000000000E+00 -0.00000000000E+00 -0.45593999997E+02  0.45594000000E+02  0.51100000000E-03 0. -1.
    9900012    2    1    2    0    0  0.53993511264E+01 -0.36795576264E+02  0.16434647944E+02  0.50528867223E+02  0.30000022410E+02 0.  0.
         12    1    1    2    0    0 -0.53993511264E+01  0.36795576264E+02 -0.16434647944E+02  0.40659132777E+02  0.00000000000E+00 0. -1.
         11    1    3    3    0    0  0.51881596276E+01  0.14006458660E+01  0.20517625259E+01  0.57522638054E+01  0.51100000000E-03 0. -1.
        -11    1    3    3    0    0 -0.45210968337E+01 -0.55928092903E+01 -0.26804369635E+01  0.76749315902E+01  0.51100000000E-03 0.  1.
        -12    1    3    3    0    0  0.47322883325E+01 -0.32603412840E+02  0.17063322381E+02  0.37101671827E+02  0.00000000000E+00 0.  1.
</event>
<event>
 7    1  0.2450552E-011  0.5052885E+02  0.7816164E-02  0.1300439E+00
        -11   -1    0    0    0    0  0.00000000000E+00  0.00000000000E+00  0.45593999997E+02  0.45594000000E+02  0.51100000000E-03 0.  1.
         11   -1    0    0    0    0 -0.00000000000E+00 -0.00000000000E+00 -0.45593999997E+02  0.45594000000E+02  0.51100000000E-03 0. -1.
    9900012    2    1    2    0    0 -0.25497920831E+02  0.18839292887E+02  0.25457875622E+02  0.50528851529E+02  0.29999974707E+02 0.  0.
         12    1    1    2    0    0  0.25497920831E+02 -0.18839292887E+02 -0.25457875622E+02  0.40659148471E+02  0.00000000000E+00 0. -1.
         11    1    3    3    0    0  0.41113626136E+01  0.21996897237E+01 -0.69322940753E+00  0.47140751684E+01  0.51100000000E-03 0. -1.
        -11    1    3    3    0    0 -0.22036881794E+01  0.90793927681E-02  0.93810060312E+01  0.96363685300E+01  0.51100000000E-03 0.  1.
         12    1    3    3    0    0 -0.27405595265E+02  0.16630523771E+02  0.16770098998E+02  0.36178407831E+02  0.00000000000E+00 0. -1.
</event>
<event>
 7    1  0.2450552E-011  0.5052886E+02  0.7816164E-02  0.1300439E+00
        -11   -1    0    0    0    0  0.00000000000E+00  0.00000000000E+00  0.45593999997E+02  0.45594000000E+02  0.51100000000E-03 0.  1.
         11   -1    0    0    0    0 -0.00000000000E+00 -0.00000000000E+00 -0.45593999997E+02  0.45594000000E+02  0.51100000000E-03 0. -1.
    9900012    2    1    2    0    0  0.20499796530E+02 -0.66612710125E+01  0.34475372174E+02  0.50528862333E+02  0.30000007547E+02 0.  0.
         12    1    1    2    0    0 -0.20499796530E+02  0.66612710125E+01 -0.34475372174E+02  0.40659137667E+02  0.00000000000E+00 0. -1.
         11    1    3    3    0    0  0.12694066085E+02  0.45753748006E+01  0.20052874383E+01  0.13641647493E+02  0.51100000000E-03 0. -1.
        -11    1    3    3    0    0  0.10227737070E+02 -0.65649791069E+01  0.24288608937E+02  0.27159567018E+02  0.51100000000E-03 0.  1.
        -12    1    3    3    0    0 -0.24220066253E+01 -0.46716667062E+01  0.81814757989E+01  0.97276478222E+01  0.00000000000E+00 0.  1.
</event>
<event>
 7    1  0.2450552E-011  0.5052886E+02  0.7816164E-02  0.1300439E+00
        -11   -1    0    0    0    0  0.00000000000E+00  0.00000000000E+00  0.45593999997E+02  0.45594000000E+02  0.51100000000E-03 0.  1.
         11   -1    0    0    0    0 -0.00000000000E+00 -0.00000000000E+00 -0.45593999997E+02  0.45594000000E+02  0.51100000000E-03 0. -1.
    9900012    2    1    2    0    0  0.36168793510E+02 -0.35505418185E+01  0.18231226839E+02  0.50528860766E+02  0.30000002785E+02 0.  0.
         12    1    1    2    0    0 -0.36168793510E+02  0.35505418185E+01 -0.18231226839E+02  0.40659139234E+02  0.00000000000E+00 0. -1.
         11    1    3    3    0    0  0.13703692864E+01  0.11601910931E+01  0.14755551608E+01  0.23240522041E+01  0.51100000000E-03 0. -1.
        -11    1    3    3    0    0  0.25464485333E+02  0.81889161468E+00  0.24126831303E+02  0.35088667483E+02  0.51100000000E-03 0.  1.
         12    1    3    3    0    0  0.93339388907E+01 -0.55296245263E+01 -0.73711596242E+01  0.13116141080E+02  0.00000000000E+00 0. -1.
</event>
<event>
 7    1  0.2450552E-011  0.5052886E+02  0.7816164E-02  0.1300439E+00
        -11   -1    0    0    0    0  0.00000000000E+00  0.00000000000E+00  0.45593999997E+02  0.45594000000E+02  0.51100000000E-03 0.  1.
         11   -1    0    0    0    0 -0.00000000000E+00 -0.00000000000E+00 -0.45593999997E+02  0.45594000000E+02  0.51100000000E-03 0. -1.
    9900012    2    1    2    0    0  0.29836892223E+02  0.20823383636E+02  0.18146970583E+02  0.50528856072E+02  0.29999988518E+02 0.  0.
         12    1    1    2    0    0 -0.29836892223E+02 -0.20823383636E+02 -0.18146970583E+02  0.40659143928E+02  0.00000000000E+00 0. -1.
         11    1    3    3    0    0 -0.22610070667E+01 -0.27547093177E+00 -0.92280136490E+00  0.24575597266E+01  0.51100000000E-03 0. -1.
        -11    1    3    3    0    0  0.20271514918E+02  0.59115728457E+01  0.20114357272E+00  0.21116852738E+02  0.51100000000E-03 0.  1.
        -12    1    3    3    0    0  0.11826384372E+02  0.15187281722E+02  0.18868628375E+02  0.26954443608E+02  0.00000000000E+00 0.  1.
</event>
<event>
 7    1  0.2450552E-011  0.5052886E+02  0.7816164E-02  0.1300439E+00
        -11   -1    0    0    0    0  0.00000000000E+00  0.00000000000E+00  0.45593999997E+02  0.45594000000E+02  0.51100000000E-03 0.  1.
         11   -1    0    0    0    0 -0.00000000000E+00 -0.00000000000E+00 -0.45593999997E+02  0.45594000000E+02  0.51100000000E-03 0. -1.
    9900012    2    1    2    0    0 -0.16670919137E+02 -0.30033424989E+02  0.21754063824E+02  0.50528862597E+02  0.30000008351E+02 0.  0.
         12    1    1    2    0    0  0.16670919137E+02  0.30033424989E+02 -0.21754063824E+02  0.40659137403E+02  0.00000000000E+00 0. -1.
         11    1    3    3    0    0  0.18320465447E+01  0.14452363954E+01  0.57248873910E+01  0.61821872085E+01  0.51100000000E-03 0. -1.
        -11    1    3    3    0    0 -0.14023209646E+01 -0.15508218868E+02  0.13862680851E+02  0.20848148052E+02  0.51100000000E-03 0.  1.
         12    1    3    3    0    0 -0.17100644717E+02 -0.15970442516E+02  0.21664955823E+01  0.23498527337E+02  0.00000000000E+00 0. -1.
</event>
<event>
 7    1  0.2699376E-011  0.5052886E+02  0.7816164E-02  0.1300439E+00
        -11   -1    0    0    0    0  0.00000000000E+00  0.00000000000E+00  0.45593999997E+02  0.45594000000E+02  0.51100000000E-03 0. -1.
         11   -1    0    0    0    0 -0.00000000000E+00 -0.00000000000E+00 -0.45593999997E+02  0.45594000000E+02  0.51100000000E-03 0.  1.
    9900012    2    1    2    0    0 -0.31164450580E+02 -0.22088945702E+02  0.13929144945E+02  0.50528861039E+02  0.30000003614E+02 0.  0.
         12    1    1    2    0    0  0.31164450580E+02  0.22088945702E+02 -0.13929144945E+02  0.40659138961E+02  0.00000000000E+00 0. -1.
         11    1    3    3    0    0 -0.10715284845E+02 -0.19144920676E+02  0.24590291289E+01  0.22076959518E+02  0.51100000000E-03 0. -1.
        -11    1    3    3    0    0 -0.16629427076E+02 -0.86370435221E+01  0.10633086990E+02  0.21545275697E+02  0.51100000000E-03 0.  1.
         12    1    3    3    0    0 -0.38197386586E+01  0.56930184966E+01  0.83702882645E+00  0.69066258244E+01  0.00000000000E+00 0. -1.
</event>
<event>
 7    1  0.2450552E-011  0.5052886E+02  0.7816164E-02  0.1300439E+00
        -11   -1    0    0    0    0  0.00000000000E+00  0.00000000000E+00  0.45593999997E+02  0.45594000000E+02  0.51100000000E-03 0.  1.
         11   -1    0    0    0    0 -0.00000000000E+00 -0.00000000000E+00 -0.45593999997E+02  0.45594000000E+02  0.51100000000E-03 0. -1.
    9900012    2    1    2    0    0  0.12065200785E+02  0.27309889002E+02  0.27600119466E+02  0.50528859554E+02  0.29999999100E+02 0.  0.
         12    1    1    2    0    0 -0.12065200785E+02 -0.27309889002E+02 -0.27600119466E+02  0.40659140446E+02  0.00000000000E+00 0. -1.
         11    1    3    3    0    0  0.83117495607E+01  0.22696112528E+02  0.12622718125E+02  0.27267778014E+02  0.51100000000E-03 0. -1.
        -11    1    3    3    0    0  0.36496448095E+01  0.97708294098E+01  0.14792182447E+02  0.18099659566E+02  0.51100000000E-03 0.  1.
         12    1    3    3    0    0  0.10380641528E+00 -0.51570529362E+01  0.18521889288E+00  0.51614219743E+01  0.00000000000E+00 0. -1.
</event>
<event>
 7    1  0.3245506E-011  0.5052886E+02  0.7816164E-02  0.1300439E+00
        -11   -1    0    0    0    0  0.00000000000E+00  0.00000000000E+00  0.45593999997E+02  0.45594000000E+02  0.51100000000E-03 0. -1.
         11   -1    0    0    0    0 -0.00000000000E+00 -0.00000000000E+00 -0.45593999997E+02  0.45594000000E+02  0.51100000000E-03 0.  1.
    9900012    2    1    2    0    0  0.24371555527E+02 -0.26674736925E+02 -0.18645411119E+02  0.50528860011E+02  0.30000000490E+02 0.  0.
         12    1    1    2    0    0 -0.24371555527E+02  0.26674736925E+02  0.18645411119E+02  0.40659139989E+02  0.00000000000E+00 0. -1.
         11    1    3    3    0    0  0.22047199316E+01 -0.62088381558E+01  0.59303978456E+01  0.88645406023E+01  0.51100000000E-03 0. -1.
        -11    1    3    3    0    0  0.39735502887E+01 -0.14112424686E+01 -0.11507776554E+02  0.12256003781E+02  0.51100000000E-03 0.  1.
        -12    1    3    3    0    0  0.18193285307E+02 -0.19054656301E+02 -0.13068032410E+02  0.29408315628E+02  0.00000000000E+00 0.  1.
</event>
<event>
 7    1  0.2450552E-011  0.5052886E+02  0.7816164E-02  0.1300439E+00
        -11   -1    0    0    0    0  0.00000000000E+00  0.00000000000E+00  0.45593999997E+02  0.45594000000E+02  0.51100000000E-03 0.  1.
         11   -1    0    0    0    0 -0.00000000000E+00 -0.00000000000E+00 -0.45593999997E+02  0.45594000000E+02  0.51100000000E-03 0. -1.
    9900012    2    1    2    0    0  0.62922040485E+01 -0.31380442691E+02  0.25076716569E+02  0.50528859218E+02  0.29999998079E+02 0.  0.
         12    1    1    2    0    0 -0.62922040485E+01  0.31380442691E+02 -0.25076716569E+02  0.40659140782E+02  0.00000000000E+00 0. -1.
         11    1    3    3    0    0 -0.31192344253E+01 -0.27762264963E+02  0.25046733271E+02  0.37520818582E+02  0.51100000000E-03 0.  1.
        -11    1    3    3    0    0  0.14361704772E+01 -0.38551671600E+01 -0.22774438357E+01  0.47023026441E+01  0.51100000000E-03 0. -1.
        -12    1    3    3    0    0  0.79752679966E+01  0.23698943232E+00  0.23074271334E+01  0.83057379915E+01  0.00000000000E+00 0.  1.
</event>
<event>
 7    1  0.2450552E-011  0.5052885E+02  0.7816164E-02  0.1300439E+00
        -11   -1    0    0    0    0  0.00000000000E+00  0.00000000000E+00  0.45593999997E+02  0.45594000000E+02  0.51100000000E-03 0.  1.
         11   -1    0    0    0    0 -0.00000000000E+00 -0.00000000000E+00 -0.45593999997E+02  0.45594000000E+02  0.51100000000E-03 0. -1.
    9900012    2    1    2    0    0 -0.28581691854E+02  0.28424573223E+02  0.53194636212E+01  0.50528853854E+02  0.29999981775E+02 0.  0.
         12    1    1    2    0    0  0.28581691854E+02 -0.28424573223E+02 -0.53194636212E+01  0.40659146146E+02  0.00000000000E+00 0. -1.
         11    1    3    3    0    0 -0.27124771791E+01  0.71306977747E+01 -0.34863990359E+01  0.83880487421E+01  0.51100000000E-03 0. -1.
        -11    1    3    3    0    0 -0.27161459405E+02  0.24774195494E+02  0.10237802516E+02  0.38161737906E+02  0.51100000000E-03 0.  1.
         12    1    3    3    0    0  0.12922447304E+01 -0.34803200462E+01 -0.14319398594E+01  0.39790672058E+01  0.00000000000E+00 0. -1.
</event>
<event>
 7    1  0.2450552E-011  0.5052886E+02  0.7816164E-02  0.1300439E+00
        -11   -1    0    0    0    0  0.00000000000E+00  0.00000000000E+00  0.45593999997E+02  0.45594000000E+02  0.51100000000E-03 0. -1.
         11   -1    0    0    0    0 -0.00000000000E+00 -0.00000000000E+00 -0.45593999997E+02  0.45594000000E+02  0.51100000000E-03 0.  1.
    9900012    2    1    2    0    0  0.14586446843E+02  0.29770922912E+02 -0.23539181735E+02  0.50528863766E+02  0.30000011902E+02 0.  0.
         12    1    1    2    0    0 -0.14586446843E+02 -0.29770922912E+02  0.23539181735E+02  0.40659136234E+02  0.00000000000E+00 0. -1.
         11    1    3    3    0    0  0.22344210212E+01  0.20954012818E+02 -0.27480990359E+01  0.21251243235E+02  0.51100000000E-03 0. -1.
        -11    1    3    3    0    0  0.59488094185E+01  0.11652204759E+02 -0.16527646290E+02  0.21079025153E+02  0.51100000000E-03 0.  1.
        -12    1    3    3    0    0  0.64032164038E+01 -0.28352946644E+01 -0.42634364094E+01  0.81985953776E+01  0.00000000000E+00 0.  1.
</event>
<event>
 7    1  0.2450552E-011  0.5052880E+02  0.7816164E-02  0.1300439E+00
        -11   -1    0    0    0    0  0.00000000000E+00  0.00000000000E+00  0.45593999997E+02  0.45594000000E+02  0.51100000000E-03 0. -1.
         11   -1    0    0    0    0 -0.00000000000E+00 -0.00000000000E+00 -0.45593999997E+02  0.45594000000E+02  0.51100000000E-03 0.  1.
    9900012    2    1    2    0    0  0.92878208090E+00 -0.32249173502E+02 -0.24744666159E+02  0.50528802627E+02  0.29999826063E+02 0.  0.
         12    1    1    2    0    0 -0.92878208090E+00  0.32249173502E+02  0.24744666159E+02  0.40659197373E+02  0.00000000000E+00 0. -1.
         11    1    3    3    0    0  0.44540254479E+01 -0.98809720993E+01  0.24595243772E+01  0.11114009751E+02  0.51100000000E-03 0. -1.
        -11    1    3    3    0    0  0.11456049691E+01 -0.21397875042E+02 -0.14577319050E+02  0.25916784099E+02  0.51100000000E-03 0.  1.
        -12    1    3    3    0    0 -0.46708483361E+01 -0.97032636100E+00 -0.12626871486E+02  0.13498008777E+02  0.00000000000E+00 0.  1.
</event>
<event>
 7    1  0.2450552E-011  0.5052884E+02  0.7816164E-02  0.1300439E+00
        -11   -1    0    0    0    0  0.00000000000E+00  0.00000000000E+00  0.45593999997E+02  0.45594000000E+02  0.51100000000E-03 0.  1.
         11   -1    0    0    0    0 -0.00000000000E+00 -0.00000000000E+00 -0.45593999997E+02  0.45594000000E+02  0.51100000000E-03 0. -1.
    9900012    2    1    2    0    0  0.85201731798E+01  0.39677858444E+02  0.24983220095E+01  0.50528838491E+02  0.29999935078E+02 0.  0.
         12    1    1    2    0    0 -0.85201731798E+01 -0.39677858444E+02 -0.24983220095E+01  0.40659161509E+02  0.00000000000E+00 0. -1.
         11    1    3    3    0    0 -0.42405840594E+01  0.14879796985E+02  0.12827378982E+01  0.15525344706E+02  0.51100000000E-03 0. -1.
        -11    1    3    3    0    0  0.14025113380E+02  0.28073708594E+02  0.18451478218E+01  0.31436308471E+02  0.51100000000E-03 0.  1.
         12    1    3    3    0    0 -0.12643561408E+01 -0.32756471345E+01 -0.62956371054E+00  0.35671853142E+01  0.00000000000E+00 0. -1.
</event>
<event>
 7    1  0.2450552E-011  0.5052885E+02  0.7816164E-02  0.1300439E+00
        -11   -1    0    0    0    0  0.00000000000E+00  0.00000000000E+00  0.45593999997E+02  0.45594000000E+02  0.51100000000E-03 0.  1.
         11   -1    0    0    0    0 -0.00000000000E+00 -0.00000000000E+00 -0.45593999997E+02  0.45594000000E+02  0.51100000000E-03 0. -1.
    9900012    2    1    2    0    0 -0.22093172612E+02 -0.16022523447E+02  0.30138634132E+02  0.50528846037E+02  0.29999958013E+02 0.  0.
         12    1    1    2    0    0  0.22093172612E+02  0.16022523447E+02 -0.30138634132E+02  0.40659153963E+02  0.00000000000E+00 0. -1.
         11    1    3    3    0    0 -0.12722531425E+02 -0.33052035179E+01 -0.23662121087E+01  0.13356127289E+02  0.51100000000E-03 0. -1.
        -11    1    3    3    0    0 -0.46855577369E+01 -0.53185858766E+01  0.60933874974E+01  0.93472551312E+01  0.51100000000E-03 0.  1.
        -12    1    3    3    0    0 -0.46850834501E+01 -0.73987340526E+01  0.26411458743E+02  0.27825463616E+02  0.00000000000E+00 0.  1.
</event>
<event>
 7    1  0.2450552E-011  0.5052886E+02  0.7816164E-02  0.1300439E+00
        -11   -1    0    0    0    0  0.00000000000E+00  0.00000000000E+00  0.45593999997E+02  0.45594000000E+02  0.51100000000E-03 0.  1.
         11   -1    0    0    0    0 -0.00000000000E+00 -0.00000000000E+00 -0.45593999997E+02  0.45594000000E+02  0.51100000000E-03 0. -1.
    9900012    2    1    2    0    0  0.38311459118E+02  0.86618918155E+01  0.10505673734E+02  0.50528862649E+02  0.30000008507E+02 0.  0.
         12    1    1    2    0    0 -0.38311459118E+02 -0.86618918155E+01 -0.10505673734E+02  0.40659137351E+02  0.00000000000E+00 0. -1.
         11    1    3    3    0    0  0.95122811849E-01  0.67334122960E+01 -0.66567366756E+00  0.67669055846E+01  0.51100000000E-03 0. -1.
        -11    1    3    3    0    0  0.70210115508E+01 -0.48824869153E+01  0.79385916903E+01  0.11668526898E+02  0.51100000000E-03 0.  1.
         12    1    3    3    0    0  0.31195324755E+02  0.68109664348E+01  0.32327557113E+01  0.32093430166E+02  0.00000000000E+00 0. -1.
</event>
<event>
 7    1  0.2450552E-011  0.5052886E+02  0.7816164E-02  0.1300439E+00
        -11   -1    0    0    0    0  0.00000000000E+00  0.00000000000E+00  0.45593999997E+02  0.45594000000E+02  0.51100000000E-03 0.  1.
         11   -1    0    0    0    0 -0.00000000000E+00 -0.00000000000E+00 -0.45593999997E+02  0.45594000000E+02  0.51100000000E-03 0. -1.
    9900012    2    1    2    0    0 -0.21751022267E+02  0.18256537527E+02  0.29099102765E+02  0.50528856946E+02  0.29999991174E+02 0.  0.
         12    1    1    2    0    0  0.21751022267E+02 -0.18256537527E+02 -0.29099102765E+02  0.40659143054E+02  0.00000000000E+00 0. -1.
         11    1    3    3    0    0  0.49314902891E+01  0.76247006206E+01  0.47694181635E+01  0.10256851657E+02  0.51100000000E-03 0. -1.
        -11    1    3    3    0    0 -0.11452581536E+02  0.87852484805E+01  0.19354204366E+02  0.24143890358E+02  0.51100000000E-03 0.  1.
         12    1    3    3    0    0 -0.15229931020E+02  0.18465884264E+01  0.49754802357E+01  0.16128114932E+02  0.00000000000E+00 0. -1.
</event>
<event>
 7    1  0.2450552E-011  0.5052886E+02  0.7816164E-02  0.1300439E+00
        -11   -1    0    0    0    0  0.00000000000E+00  0.00000000000E+00  0.45593999997E+02  0.45594000000E+02  0.51100000000E-03 0. -1.
         11   -1    0    0    0    0 -0.00000000000E+00 -0.00000000000E+00 -0.45593999997E+02  0.45594000000E+02  0.51100000000E-03 0.  1.
    9900012    2    1    2    0    0 -0.34704066451E+02 -0.23242467339E+01 -0.21056859928E+02  0.50528859562E+02  0.29999999125E+02 0.  0.
         12    1    1    2    0    0  0.34704066451E+02  0.23242467339E+01  0.21056859928E+02  0.40659140438E+02  0.00000000000E+00 0. -1.
         11    1    3    3    0    0 -0.13065365375E+01 -0.53977691979E+01 -0.90123405622E+00  0.56262930178E+01  0.51100000000E-03 0. -1.
        -11    1    3    3    0    0 -0.24806250191E+02 -0.32051364912E+01 -0.36690037679E+01  0.25280121388E+02  0.51100000000E-03 0.  1.
        -12    1    3    3    0    0 -0.85912797228E+01  0.62786589552E+01 -0.16486622103E+02  0.19622445157E+02  0.00000000000E+00 0.  1.
</event>
<event>
 7    1  0.2450552E-011  0.5052887E+02  0.7816164E-02  0.1300439E+00
        -11   -1    0    0    0    0  0.00000000000E+00  0.00000000000E+00  0.45593999997E+02  0.45594000000E+02  0.51100000000E-03 0.  1.
         11   -1    0    0    0    0 -0.00000000000E+00 -0.00000000000E+00 -0.45593999997E+02  0.45594000000E+02  0.51100000000E-03 0. -1.
    9900012    2    1    2    0    0  0.25955964578E+02  0.10636162374E+02  0.29433401871E+02  0.50528865812E+02  0.30000018123E+02 0.  0.
         12    1    1    2    0    0 -0.25955964578E+02 -0.10636162374E+02 -0.29433401871E+02  0.40659134188E+02  0.00000000000E+00 0. -1.
         11    1    3    3    0    0  0.22405118755E+01  0.61262223676E+01  0.63996036059E+01  0.91381300349E+01  0.51100000000E-03 0. -1.
        -11    1    3    3    0    0 -0.33512089728E+01 -0.19787211435E+01 -0.16133488825E+01  0.42129364843E+01  0.51100000000E-03 0.  1.
        -12    1    3    3    0    0  0.27066661676E+02  0.64886611496E+01  0.24647147147E+02  0.37177799293E+02  0.00000000000E+00 0.  1.
</event>
<event>
 7    1  0.2450552E-011  0.5052886E+02  0.7816164E-02  0.1300439E+00
        -11   -1    0    0    0    0  0.00000000000E+00  0.00000000000E+00  0.45593999997E+02  0.45594000000E+02  0.51100000000E-03 0.  1.
         11   -1    0    0    0    0 -0.00000000000E+00 -0.00000000000E+00 -0.45593999997E+02  0.45594000000E+02  0.51100000000E-03 0. -1.
    9900012    2    1    2    0    0 -0.25471456805E+02 -0.25859101737E+02  0.18321494044E+02  0.50528863285E+02  0.30000010441E+02 0.  0.
         12    1    1    2    0    0  0.25471456805E+02  0.25859101737E+02 -0.18321494044E+02  0.40659136715E+02  0.00000000000E+00 0. -1.
         11    1    3    3    0    0 -0.17625582351E+02 -0.18167085156E+02  0.93627245152E+01  0.26988233490E+02  0.51100000000E-03 0.  1.
        -11    1    3    3    0    0 -0.11225998651E+02 -0.35489256373E+01 -0.14264797853E+01  0.11859711789E+02  0.51100000000E-03 0. -1.
         12    1    3    3    0    0  0.33801241966E+01 -0.41430909434E+01  0.10385249314E+02  0.11680918006E+02  0.00000000000E+00 0. -1.
</event>
<event>
 7    1  0.2450552E-011  0.5052886E+02  0.7816164E-02  0.1300439E+00
        -11   -1    0    0    0    0  0.00000000000E+00  0.00000000000E+00  0.45593999997E+02  0.45594000000E+02  0.51100000000E-03 0.  1.
         11   -1    0    0    0    0 -0.00000000000E+00 -0.00000000000E+00 -0.45593999997E+02  0.45594000000E+02  0.51100000000E-03 0. -1.
    9900012    2    1    2    0    0 -0.40370996562E+02  0.25122619274E+00  0.48255040854E+01  0.50528856285E+02  0.29999989163E+02 0.  0.
         12    1    1    2    0    0  0.40370996562E+02 -0.25122619274E+00 -0.48255040854E+01  0.40659143715E+02  0.00000000000E+00 0. -1.
         11    1    3    3    0    0  0.20147165712E+01 -0.22224406354E+01 -0.11889177964E+01  0.32267400000E+01  0.51100000000E-03 0. -1.
        -11    1    3    3    0    0 -0.15442301354E+02 -0.22568918273E+01 -0.68852094830E+01  0.17057676914E+02  0.51100000000E-03 0.  1.
        -12    1    3    3    0    0 -0.26943411779E+02  0.47305586554E+01  0.12899631365E+02  0.30244439371E+02  0.00000000000E+00 0.  1.
</event>
<event>
 7    1  0.2450552E-011  0.5052886E+02  0.7816164E-02  0.1300439E+00
        -11   -1    0    0    0    0  0.00000000000E+00  0.00000000000E+00  0.45593999997E+02  0.45594000000E+02  0.51100000000E-03 0.  1.
         11   -1    0    0    0    0 -0.00000000000E+00 -0.00000000000E+00 -0.45593999997E+02  0.45594000000E+02  0.51100000000E-03 0. -1.
    9900012    2    1    2    0    0 -0.16755784122E+02 -0.46788613274E+01  0.36749394842E+02  0.50528855074E+02  0.29999985483E+02 0.  0.
         12    1    1    2    0    0  0.16755784122E+02  0.46788613274E+01 -0.36749394842E+02  0.40659144926E+02  0.00000000000E+00 0. -1.
         11    1    3    3    0    0  0.26605973458E+01 -0.24335743799E+00 -0.34587878162E+01  0.43704936217E+01  0.51100000000E-03 0. -1.
        -11    1    3    3    0    0 -0.14827470168E+02 -0.72075537702E+01  0.24248034628E+02  0.29321832932E+02  0.51100000000E-03 0.  1.
        -12    1    3    3    0    0 -0.45889113001E+01  0.27720498807E+01  0.15960148030E+02  0.16836528520E+02  0.00000000000E+00 0.  1.
</event>
<event>
 7    1  0.2450552E-011  0.5052886E+02  0.7816164E-02  0.1300439E+00
        -11   -1    0    0    0    0  0.00000000000E+00  0.00000000000E+00  0.45593999997E+02  0.45594000000E+02  0.51100000000E-03 0. -1.
         11   -1    0    0    0    0 -0.00000000000E+00 -0.00000000000E+00 -0.45593999997E+02  0.45594000000E+02  0.51100000000E-03 0.  1.
    9900012    2    1    2    0    0 -0.36322588398E+01  0.31915138244E+02 -0.24927816410E+02  0.50528863457E+02  0.30000010964E+02 0.  0.
         12    1    1    2    0    0  0.36322588398E+01 -0.31915138244E+02  0.24927816410E+02  0.40659136543E+02  0.00000000000E+00 0. -1.
         11    1    3    3    0    0 -0.69225707568E+01  0.19590755533E+02 -0.20465267150E+02  0.29164136333E+02  0.51100000000E-03 0.  1.
        -11    1    3    3    0    0  0.50730043054E+01  0.87420557048E+01 -0.10206626505E+02  0.14364335540E+02  0.51100000000E-03 0. -1.
         12    1    3    3    0    0 -0.17826923884E+01  0.35823270066E+01  0.57440772453E+01  0.70003915843E+01  0.00000000000E+00 0. -1.
</event>
<event>
 7    1  0.2450552E-011  0.5052885E+02  0.7816164E-02  0.1300439E+00
        -11   -1    0    0    0    0  0.00000000000E+00  0.00000000000E+00  0.45593999997E+02  0.45594000000E+02  0.51100000000E-03 0.  1.
         11   -1    0    0    0    0 -0.00000000000E+00 -0.00000000000E+00 -0.45593999997E+02  0.45594000000E+02  0.51100000000E-03 0. -1.
    9900012    2    1    2    0    0  0.36886587117E+02 -0.35489748355E+01  0.16731734431E+02  0.50528850125E+02  0.29999970439E+02 0.  0.
         12    1    1    2    0    0 -0.36886587117E+02  0.35489748355E+01 -0.16731734431E+02  0.40659149875E+02  0.00000000000E+00 0. -1.
         11    1    3    3    0    0  0.18820392167E+02 -0.68516505489E+00 -0.39759698701E+01  0.19247985587E+02  0.51100000000E-03 0. -1.
        -11    1    3    3    0    0  0.15516295888E+02 -0.80280350465E+01  0.13643832969E+02  0.22166618216E+02  0.51100000000E-03 0.  1.
        -12    1    3    3    0    0  0.25498990617E+01  0.51642252659E+01  0.70638713320E+01  0.91142463219E+01  0.00000000000E+00 0.  1.
</event>
<event>
 7    1  0.2450552E-011  0.5052886E+02  0.7816164E-02  0.1300439E+00
        -11   -1    0    0    0    0  0.00000000000E+00  0.00000000000E+00  0.45593999997E+02  0.45594000000E+02  0.51100000000E-03 0. -1.
         11   -1    0    0    0    0 -0.00000000000E+00 -0.00000000000E+00 -0.45593999997E+02  0.45594000000E+02  0.51100000000E-03 0.  1.
    9900012    2    1    2    0    0 -0.22605965963E+02  0.33195197200E+02 -0.63415216797E+01  0.50528859435E+02  0.29999998738E+02 0.  0.
         12    1    1    2    0    0  0.22605965963E+02 -0.33195197200E+02  0.63415216797E+01  0.40659140565E+02  0.00000000000E+00 0. -1.
         11    1    3    3    0    0 -0.96653522592E+01 -0.74711311203E-01  0.19782006644E+01  0.98659968682E+01  0.51100000000E-03 0. -1.
        -11    1    3    3    0    0 -0.40764744835E+00  0.11513551979E+02  0.46248386814E+01  0.12414394416E+02  0.51100000000E-03 0.  1.
        -12    1    3    3    0    0 -0.12532966255E+02  0.21756356532E+02 -0.12944561025E+02  0.28248468151E+02  0.00000000000E+00 0.  1.
</event>
<event>
 7    1  0.2450552E-011  0.5052888E+02  0.7816164E-02  0.1300439E+00
        -11   -1    0    0    0    0  0.00000000000E+00  0.00000000000E+00  0.45593999997E+02  0.45594000000E+02  0.51100000000E-03 0.  1.
         11   -1    0    0    0    0 -0.00000000000E+00 -0.00000000000E+00 -0.45593999997E+02  0.45594000000E+02  0.51100000000E-03 0. -1.
    9900012    2    1    2    0    0 -0.10657404996E+01 -0.38193715586E+02  0.13902101784E+02  0.50528878673E+02  0.30000057215E+02 0.  0.
         12    1    1    2    0    0  0.10657404996E+01  0.38193715586E+02 -0.13902101784E+02  0.40659121327E+02  0.00000000000E+00 0. -1.
         11    1    3    3    0    0 -0.13979613985E+01 -0.12076574303E+02 -0.13981122183E+01  0.12237346976E+02  0.51100000000E-03 0. -1.
        -11    1    3    3    0    0  0.26276696631E+01 -0.27263463606E+02  0.52108923104E+01  0.27881077716E+02  0.51100000000E-03 0.  1.
         12    1    3    3    0    0 -0.22954487642E+01  0.11463223236E+01  0.10089321692E+02  0.10410453981E+02  0.00000000000E+00 0. -1.
</event>
<event>
 7    1  0.2450552E-011  0.5052887E+02  0.7816164E-02  0.1300439E+00
        -11   -1    0    0    0    0  0.00000000000E+00  0.00000000000E+00  0.45593999997E+02  0.45594000000E+02  0.51100000000E-03 0. -1.
         11   -1    0    0    0    0 -0.00000000000E+00 -0.00000000000E+00 -0.45593999997E+02  0.45594000000E+02  0.51100000000E-03 0.  1.
    9900012    2    1    2    0    0  0.84147094805E+01 -0.25839508004E+02 -0.30243636992E+02  0.50528867102E+02  0.30000022043E+02 0.  0.
         12    1    1    2    0    0 -0.84147094805E+01  0.25839508004E+02  0.30243636992E+02  0.40659132898E+02  0.00000000000E+00 0. -1.
         11    1    3    3    0    0  0.12991001544E+02 -0.17387991260E+02 -0.18442448321E+02  0.28482139342E+02  0.51100000000E-03 0. -1.
        -11    1    3    3    0    0 -0.58268242706E+00 -0.24648556002E+01 -0.14228319455E+02  0.14451993175E+02  0.51100000000E-03 0.  1.
         12    1    3    3    0    0 -0.39936096363E+01 -0.59866611437E+01  0.24271307842E+01  0.75947345852E+01  0.00000000000E+00 0. -1.
</event>
<event>
 7    1  0.2450552E-011  0.5052886E+02  0.7816164E-02  0.1300439E+00
        -11   -1    0    0    0    0  0.00000000000E+00  0.00000000000E+00  0.45593999997E+02  0.45594000000E+02  0.51100000000E-03 0.  1.
         11   -1    0    0    0    0 -0.00000000000E+00 -0.00000000000E+00 -0.45593999997E+02  0.45594000000E+02  0.51100000000E-03 0. -1.
    9900012    2    1    2    0    0 -0.17032379240E+02  0.10841916741E+02  0.35291875456E+02  0.50528861121E+02  0.30000003863E+02 0.  0.
         12    1    1    2    0    0  0.17032379240E+02 -0.10841916741E+02 -0.35291875456E+02  0.40659138879E+02  0.00000000000E+00 0. -1.
         11    1    3    3    0    0 -0.12943093563E+02  0.10332206942E+02  0.17410612657E+02  0.24029307202E+02  0.51100000000E-03 0. -1.
        -11    1    3    3    0    0 -0.97760960398E+01 -0.23617513152E+01  0.17416729680E+02  0.20111996322E+02  0.51100000000E-03 0.  1.
        -12    1    3    3    0    0  0.56868103625E+01  0.28714611150E+01  0.46453311860E+00  0.63875575968E+01  0.00000000000E+00 0.  1.
</event>
<event>
 7    1  0.2450552E-011  0.5052886E+02  0.7816164E-02  0.1300439E+00
        -11   -1    0    0    0    0  0.00000000000E+00  0.00000000000E+00  0.45593999997E+02  0.45594000000E+02  0.51100000000E-03 0. -1.
         11   -1    0    0    0    0 -0.00000000000E+00 -0.00000000000E+00 -0.45593999997E+02  0.45594000000E+02  0.51100000000E-03 0.  1.
    9900012    2    1    2    0    0 -0.10050544979E+02  0.79242458011E+01 -0.38592208020E+02  0.50528860243E+02  0.30000001196E+02 0.  0.
         12    1    1    2    0    0  0.10050544979E+02 -0.79242458011E+01  0.38592208020E+02  0.40659139757E+02  0.00000000000E+00 0. -1.
         11    1    3    3    0    0  0.19110202632E+01  0.14857237000E+01  0.58983658708E+00  0.24914415144E+01  0.51100000000E-03 0. -1.
        -11    1    3    3    0    0  0.49136259807E+01 -0.27328978314E+01 -0.20449723048E+02  0.21208574300E+02  0.51100000000E-03 0.  1.
        -12    1    3    3    0    0 -0.16875191223E+02  0.91714199325E+01 -0.18732321559E+02  0.26828844429E+02  0.00000000000E+00 0.  1.
</event>
<event>
 7    1  0.2450552E-011  0.5052886E+02  0.7816164E-02  0.1300439E+00
        -11   -1    0    0    0    0  0.00000000000E+00  0.00000000000E+00  0.45593999997E+02  0.45594000000E+02  0.51100000000E-03 0.  1.
         11   -1    0    0    0    0 -0.00000000000E+00 -0.00000000000E+00 -0.45593999997E+02  0.45594000000E+02  0.51100000000E-03 0. -1.
    9900012    2    1    2    0    0  0.34132223716E+02 -0.92070269672E+01  0.20084517015E+02  0.50528857546E+02  0.29999992997E+02 0.  0.
         12    1    1    2    0    0 -0.34132223716E+02  0.92070269672E+01 -0.20084517015E+02  0.40659142454E+02  0.00000000000E+00 0. -1.
         11    1    3    3    0    0  0.18282529897E+01  0.12433260219E+01 -0.42918150348E+01  0.48278406296E+01  0.51100000000E-03 0. -1.
        -11    1    3    3    0    0  0.48881375162E+01  0.47760390742E+01  0.72726711241E+01  0.99797887331E+01  0.51100000000E-03 0.  1.
        -12    1    3    3    0    0  0.27415833210E+02 -0.15226392063E+02  0.17103660925E+02  0.35721228183E+02  0.00000000000E+00 0.  1.
</event>
<event>
 7    1  0.2450552E-011  0.5052886E+02  0.7816164E-02  0.1300439E+00
        -11   -1    0    0    0    0  0.00000000000E+00  0.00000000000E+00  0.45593999997E+02  0.45594000000E+02  0.51100000000E-03 0.  1.
         11   -1    0    0    0    0 -0.00000000000E+00 -0.00000000000E+00 -0.45593999997E+02  0.45594000000E+02  0.51100000000E-03 0. -1.
    9900012    2    1    2    0    0  0.25472702999E+02  0.24832329145E+02  0.19689156223E+02  0.50528855375E+02  0.29999986398E+02 0.  0.
         12    1    1    2    0    0 -0.25472702999E+02 -0.24832329145E+02 -0.19689156223E+02  0.40659144625E+02  0.00000000000E+00 0. -1.
         11    1    3    3    0    0 -0.38476273414E+01 -0.19730564411E+01  0.88112918615E+00  0.44128875787E+01  0.51100000000E-03 0. -1.
        -11    1    3    3    0    0  0.61885036311E+01  0.35830380293E+01 -0.18313554261E+01  0.73817072327E+01  0.51100000000E-03 0.  1.
        -12    1    3    3    0    0  0.23131826709E+02  0.23222347557E+02  0.20639382463E+02  0.38734260564E+02  0.00000000000E+00 0.  1.
</event>
<event>
 7    1  0.2450552E-011  0.5052886E+02  0.7816164E-02  0.1300439E+00
        -11   -1    0    0    0    0  0.00000000000E+00  0.00000000000E+00  0.45593999997E+02  0.45594000000E+02  0.51100000000E-03 0. -1.
         11   -1    0    0    0    0 -0.00000000000E+00 -0.00000000000E+00 -0.45593999997E+02  0.45594000000E+02  0.51100000000E-03 0.  1.
    9900012    2    1    2    0    0  0.16946647569E+02 -0.33484365953E+02 -0.15645261809E+02  0.50528857804E+02  0.29999993780E+02 0.  0.
         12    1    1    2    0    0 -0.16946647569E+02  0.33484365953E+02  0.15645261809E+02  0.40659142196E+02  0.00000000000E+00 0. -1.
         11    1    3    3    0    0  0.11798127173E+02 -0.16634943223E+02 -0.29493829222E+01  0.20606212672E+02  0.51100000000E-03 0. -1.
        -11    1    3    3    0    0 -0.18021658623E+01 -0.16283309271E+02 -0.15360229080E+02  0.22457306167E+02  0.51100000000E-03 0.  1.
         12    1    3    3    0    0  0.69506862580E+01 -0.56611345844E+00  0.26643501933E+01  0.74653389647E+01  0.00000000000E+00 0. -1.
</event>
<event>
 7    1  0.2450552E-011  0.5052885E+02  0.7816164E-02  0.1300439E+00
        -11   -1    0    0    0    0  0.00000000000E+00  0.00000000000E+00  0.45593999997E+02  0.45594000000E+02  0.51100000000E-03 0.  1.
         11   -1    0    0    0    0 -0.00000000000E+00 -0.00000000000E+00 -0.45593999997E+02  0.45594000000E+02  0.51100000000E-03 0. -1.
    9900012    2    1    2    0    0  0.84286627980E+01  0.39613624784E+02 -0.35894937923E+01  0.50528854771E+02  0.29999984563E+02 0.  0.
         12    1    1    2    0    0 -0.84286627980E+01 -0.39613624784E+02  0.35894937923E+01  0.40659145229E+02  0.00000000000E+00 0. -1.
         11    1    3    3    0    0  0.62917899506E+01  0.15257890449E+02 -0.34621276770E+01  0.16863456646E+02  0.51100000000E-03 0. -1.
        -11    1    3    3    0    0  0.61496980966E+01  0.20563702867E+02  0.87765775904E+01  0.23188638958E+02  0.51100000000E-03 0.  1.
         12    1    3    3    0    0 -0.40128252493E+01  0.37920314680E+01 -0.89039437057E+01  0.10476759167E+02  0.00000000000E+00 0. -1.
</event>
<event>
 7    1  0.2450552E-011  0.5052885E+02  0.7816164E-02  0.1300439E+00
        -11   -1    0    0    0    0  0.00000000000E+00  0.00000000000E+00  0.45593999997E+02  0.45594000000E+02  0.51100000000E-03 0.  1.
         11   -1    0    0    0    0 -0.00000000000E+00 -0.00000000000E+00 -0.45593999997E+02  0.45594000000E+02  0.51100000000E-03 0. -1.
    9900012    2    1    2    0    0  0.16866806412E+01  0.33053611269E+01  0.40489454161E+02  0.50528853402E+02  0.29999980402E+02 0.  0.
         12    1    1    2    0    0 -0.16866806412E+01 -0.33053611269E+01 -0.40489454161E+02  0.40659146598E+02  0.00000000000E+00 0. -1.
         11    1    3    3    0    0 -0.37149085258E+01  0.49222843809E+01  0.69700446010E+01  0.93065004638E+01  0.51100000000E-03 0. -1.
        -11    1    3    3    0    0 -0.58002844579E+01 -0.32399499867E+01  0.27718474574E+02  0.28503585892E+02  0.51100000000E-03 0.  1.
        -12    1    3    3    0    0  0.11201873625E+02  0.16230267328E+01  0.58009349860E+01  0.12718767047E+02  0.00000000000E+00 0.  1.
</event>
<event>
 7    1  0.2450552E-011  0.5052888E+02  0.7816164E-02  0.1300439E+00
        -11   -1    0    0    0    0  0.00000000000E+00  0.00000000000E+00  0.45593999997E+02  0.45594000000E+02  0.51100000000E-03 0.  1.
         11   -1    0    0    0    0 -0.00000000000E+00 -0.00000000000E+00 -0.45593999997E+02  0.45594000000E+02  0.51100000000E-03 0. -1.
    9900012    2    1    2    0    0  0.38461251291E+02  0.43224081024E+01  0.12458442050E+02  0.50528882437E+02  0.30000068655E+02 0.  0.
         12    1    1    2    0    0 -0.38461251291E+02 -0.43224081024E+01 -0.12458442050E+02  0.40659117563E+02  0.00000000000E+00 0. -1.
         11    1    3    3    0    0  0.18327788494E+02 -0.29655795912E+01  0.26477293114E+01  0.18754011948E+02  0.51100000000E-03 0. -1.
        -11    1    3    3    0    0  0.23179801635E+02  0.47023702845E+01  0.12698141274E+02  0.26845079292E+02  0.51100000000E-03 0.  1.
        -12    1    3    3    0    0 -0.30463388372E+01  0.25856174091E+01 -0.28874285355E+01  0.49297911969E+01  0.00000000000E+00 0.  1.
</event>
<event>
 7    1  0.2450552E-011  0.5052886E+02  0.7816164E-02  0.1300439E+00
        -11   -1    0    0    0    0  0.00000000000E+00  0.00000000000E+00  0.45593999997E+02  0.45594000000E+02  0.51100000000E-03 0.  1.
         11   -1    0    0    0    0 -0.00000000000E+00 -0.00000000000E+00 -0.45593999997E+02  0.45594000000E+02  0.51100000000E-03 0. -1.
    9900012    2    1    2    0    0  0.45009145468E+01  0.31105624852E+02  0.25794336645E+02  0.50528856721E+02  0.29999990491E+02 0.  0.
         12    1    1    2    0    0 -0.45009145468E+01 -0.31105624852E+02 -0.25794336645E+02  0.40659143279E+02  0.00000000000E+00 0. -1.
         11    1    3    3    0    0  0.55435139770E+01  0.19885503802E+02  0.11624951598E+02  0.23691840548E+02  0.51100000000E-03 0. -1.
        -11    1    3    3    0    0  0.41731612595E+01  0.86488018120E+01 -0.18635148378E+01  0.97821130382E+01  0.51100000000E-03 0.  1.
        -12    1    3    3    0    0 -0.52157606897E+01  0.25713192379E+01  0.16032899886E+02  0.17054903135E+02  0.00000000000E+00 0.  1.
</event>
<event>
 7    1  0.2450552E-011  0.5052886E+02  0.7816164E-02  0.1300439E+00
        -11   -1    0    0    0    0  0.00000000000E+00  0.00000000000E+00  0.45593999997E+02  0.45594000000E+02  0.51100000000E-03 0.  1.
         11   -1    0    0    0    0 -0.00000000000E+00 -0.00000000000E+00 -0.45593999997E+02  0.45594000000E+02  0.51100000000E-03 0. -1.
    9900012    2    1    2    0    0 -0.13892010641E+02  0.10785481490E+02  0.36658573339E+02  0.50528861177E+02  0.30000004032E+02 0.  0.
         12    1    1    2    0    0  0.13892010641E+02 -0.10785481490E+02 -0.36658573339E+02  0.40659138823E+02  0.00000000000E+00 0. -1.
         11    1    3    3    0    0 -0.35114969916E+01 -0.34774393723E+01  0.20298028003E+01  0.53425925710E+01  0.51100000000E-03 0. -1.
        -11    1    3    3    0    0 -0.17319141311E+02  0.11822328844E+02  0.20871408384E+02  0.29586074482E+02  0.51100000000E-03 0.  1.
        -12    1    3    3    0    0  0.69386276621E+01  0.24405920177E+01  0.13757362155E+02  0.15600194123E+02  0.00000000000E+00 0.  1.
</event>
<event>
 7    1  0.2450552E-011  0.5052885E+02  0.7816164E-02  0.1300439E+00
        -11   -1    0    0    0    0  0.00000000000E+00  0.00000000000E+00  0.45593999997E+02  0.45594000000E+02  0.51100000000E-03 0.  1.
         11   -1    0    0    0    0 -0.00000000000E+00 -0.00000000000E+00 -0.45593999997E+02  0.45594000000E+02  0.51100000000E-03 0. -1.
    9900012    2    1    2    0    0  0.96189098910E+01 -0.19282873618E+02  0.34479175995E+02  0.50528853185E+02  0.29999979740E+02 0.  0.
         12    1    1    2    0    0 -0.96189098910E+01  0.19282873618E+02 -0.34479175995E+02  0.40659146815E+02  0.00000000000E+00 0. -1.
         11    1    3    3    0    0  0.14771659107E+02 -0.41621355162E+01  0.14808702574E+02  0.21326578653E+02  0.51100000000E-03 0. -1.
        -11    1    3    3    0    0  0.28319561738E+01 -0.11590769726E+02  0.70575518712E+01  0.13862718251E+02  0.51100000000E-03 0.  1.
         12    1    3    3    0    0 -0.79847053899E+01 -0.35299683750E+01  0.12612921550E+02  0.15339556281E+02  0.00000000000E+00 0. -1.
</event>
<event>
 7    1  0.2450552E-011  0.5052886E+02  0.7816164E-02  0.1300439E+00
        -11   -1    0    0    0    0  0.00000000000E+00  0.00000000000E+00  0.45593999997E+02  0.45594000000E+02  0.51100000000E-03 0.  1.
         11   -1    0    0    0    0 -0.00000000000E+00 -0.00000000000E+00 -0.45593999997E+02  0.45594000000E+02  0.51100000000E-03 0. -1.
    9900012    2    1    2    0    0  0.34121131124E+01  0.22587135620E+02  0.33635462063E+02  0.50528861794E+02  0.30000005910E+02 0.  0.
         12    1    1    2    0    0 -0.34121131124E+01 -0.22587135620E+02 -0.33635462063E+02  0.40659138206E+02  0.00000000000E+00 0. -1.
         11    1    3    3    0    0 -0.10210633009E+02  0.70941194714E+01  0.15797743633E+02  0.20103538537E+02  0.51100000000E-03 0. -1.
        -11    1    3    3    0    0 -0.98130139448E+00  0.70821381116E+01  0.23211522004E+01  0.75171391138E+01  0.51100000000E-03 0.  1.
        -12    1    3    3    0    0  0.14604047516E+02  0.84108780370E+01  0.15516566230E+02  0.22908184144E+02  0.00000000000E+00 0.  1.
</event>
<event>
 7    1  0.2450552E-011  0.5052883E+02  0.7816164E-02  0.1300439E+00
        -11   -1    0    0    0    0  0.00000000000E+00  0.00000000000E+00  0.45593999997E+02  0.45594000000E+02  0.51100000000E-03 0. -1.
         11   -1    0    0    0    0 -0.00000000000E+00 -0.00000000000E+00 -0.45593999997E+02  0.45594000000E+02  0.51100000000E-03 0.  1.
    9900012    2    1    2    0    0  0.17268601634E+02 -0.20261155935E+02 -0.30731887534E+02  0.50528831862E+02  0.29999914929E+02 0.  0.
         12    1    1    2    0    0 -0.17268601634E+02  0.20261155935E+02  0.30731887534E+02  0.40659168138E+02  0.00000000000E+00 0. -1.
         11    1    3    3    0    0 -0.43787859797E+01 -0.55901781978E+01 -0.32258345426E+01  0.77993504663E+01  0.51100000000E-03 0. -1.
        -11    1    3    3    0    0  0.79631697409E+01 -0.15913139928E+02 -0.97909431955E+01  0.20310161585E+02  0.51100000000E-03 0.  1.
         12    1    3    3    0    0  0.13684217873E+02  0.12421621908E+01 -0.17715109796E+02  0.22419319811E+02  0.00000000000E+00 0. -1.
</event>
<event>
 7    1  0.2450552E-011  0.5052884E+02  0.7816164E-02  0.1300439E+00
        -11   -1    0    0    0    0  0.00000000000E+00  0.00000000000E+00  0.45593999997E+02  0.45594000000E+02  0.51100000000E-03 0.  1.
         11   -1    0    0    0    0 -0.00000000000E+00 -0.00000000000E+00 -0.45593999997E+02  0.45594000000E+02  0.51100000000E-03 0. -1.
    9900012    2    1    2    0    0  0.14277844648E+02 -0.15585865685E+02  0.34733146301E+02  0.50528837331E+02  0.29999931552E+02 0.  0.
         12    1    1    2    0    0 -0.14277844648E+02  0.15585865685E+02 -0.34733146301E+02  0.40659162669E+02  0.00000000000E+00 0. -1.
         11    1    3    3    0    0  0.17210721128E+01  0.20194980051E+01 -0.27103180000E+00  0.26671932640E+01  0.51100000000E-03 0. -1.
        -11    1    3    3    0    0  0.94321001469E+01 -0.77236956752E+00  0.27656721149E+02  0.29231067256E+02  0.51100000000E-03 0.  1.
        -12    1    3    3    0    0  0.31246723879E+01 -0.16832994123E+02  0.73474569525E+01  0.18630576812E+02  0.00000000000E+00 0.  1.
</event>
<event>
 7    1  0.2450552E-011  0.5052886E+02  0.7816164E-02  0.1300439E+00
        -11   -1    0    0    0    0  0.00000000000E+00  0.00000000000E+00  0.45593999997E+02  0.45594000000E+02  0.51100000000E-03 0.  1.
         11   -1    0    0    0    0 -0.00000000000E+00 -0.00000000000E+00 -0.45593999997E+02  0.45594000000E+02  0.51100000000E-03 0. -1.
    9900012    2    1    2    0    0  0.37077169435E+02  0.15053871642E+00  0.16686105557E+02  0.50528864817E+02  0.30000015097E+02 0.  0.
         12    1    1    2    0    0 -0.37077169435E+02 -0.15053871642E+00 -0.16686105557E+02  0.40659135183E+02  0.00000000000E+00 0. -1.
         11    1    3    3    0    0 -0.24699400763E+01  0.91019816378E+00  0.93893950658E+01  0.97514001375E+01  0.51100000000E-03 0. -1.
        -11    1    3    3    0    0  0.11604738259E+02  0.26077580141E+01  0.99223608283E+00  0.11935446561E+02  0.51100000000E-03 0.  1.
        -12    1    3    3    0    0  0.27942371252E+02 -0.33674174614E+01  0.63044744080E+01  0.28842018118E+02  0.00000000000E+00 0.  1.
</event>
<event>
 7    1  0.2450552E-011  0.5052886E+02  0.7816164E-02  0.1300439E+00
        -11   -1    0    0    0    0  0.00000000000E+00  0.00000000000E+00  0.45593999997E+02  0.45594000000E+02  0.51100000000E-03 0. -1.
         11   -1    0    0    0    0 -0.00000000000E+00 -0.00000000000E+00 -0.45593999997E+02  0.45594000000E+02  0.51100000000E-03 0.  1.
    9900012    2    1    2    0    0  0.38118014703E+00  0.33223240840E+02  0.23435805039E+02  0.50528856034E+02  0.29999988400E+02 0.  0.
         12    1    1    2    0    0 -0.38118014703E+00 -0.33223240840E+02 -0.23435805039E+02  0.40659143966E+02  0.00000000000E+00 0. -1.
         11    1    3    3    0    0  0.69036454872E+01  0.28926505941E+02  0.82791488262E+01  0.30869845684E+02  0.51100000000E-03 0.  1.
        -11    1    3    3    0    0  0.74922469839E+00  0.35101860019E+01  0.10227410899E+02  0.10838942632E+02  0.51100000000E-03 0. -1.
        -12    1    3    3    0    0 -0.72716900386E+01  0.78654889704E+00  0.49292453140E+01  0.88200677180E+01  0.00000000000E+00 0.  1.
</event>
<event>
 7    1  0.2450552E-011  0.5052885E+02  0.7816164E-02  0.1300439E+00
        -11   -1    0    0    0    0  0.00000000000E+00  0.00000000000E+00  0.45593999997E+02  0.45594000000E+02  0.51100000000E-03 0.  1.
         11   -1    0    0    0    0 -0.00000000000E+00 -0.00000000000E+00 -0.45593999997E+02  0.45594000000E+02  0.51100000000E-03 0. -1.
    9900012    2    1    2    0    0  0.15042677676E+02 -0.63910327435E+00  0.37768720367E+02  0.50528845522E+02  0.29999956450E+02 0.  0.
         12    1    1    2    0    0 -0.15042677676E+02  0.63910327435E+00 -0.37768720367E+02  0.40659154478E+02  0.00000000000E+00 0. -1.
         11    1    3    3    0    0  0.48632787596E+01 -0.33229716535E+01 -0.26337939300E+01  0.64521695290E+01  0.51100000000E-03 0. -1.
        -11    1    3    3    0    0  0.86034451958E+01  0.31932047559E+01  0.97872096404E+01  0.13416605333E+02  0.51100000000E-03 0.  1.
        -12    1    3    3    0    0  0.15759537202E+01 -0.50933637682E+00  0.30615304657E+02  0.30660070661E+02  0.00000000000E+00 0.  1.
</event>
<event>
 7    1  0.2450552E-011  0.5052886E+02  0.7816164E-02  0.1300439E+00
        -11   -1    0    0    0    0  0.00000000000E+00  0.00000000000E+00  0.45593999997E+02  0.45594000000E+02  0.51100000000E-03 0. -1.
         11   -1    0    0    0    0 -0.00000000000E+00 -0.00000000000E+00 -0.45593999997E+02  0.45594000000E+02  0.51100000000E-03 0.  1.
    9900012    2    1    2    0    0 -0.24960506059E+02 -0.23933999009E+02 -0.21384636448E+02  0.50528857765E+02  0.29999993661E+02 0.  0.
         12    1    1    2    0    0  0.24960506059E+02  0.23933999009E+02  0.21384636448E+02  0.40659142235E+02  0.00000000000E+00 0. -1.
         11    1    3    3    0    0 -0.99793453855E+01 -0.20685524015E+02 -0.42830188646E+00  0.22970887682E+02  0.51100000000E-03 0. -1.
        -11    1    3    3    0    0 -0.11398460686E+02 -0.21001614755E+01 -0.80427258300E+01  0.14107481110E+02  0.51100000000E-03 0.  1.
        -12    1    3    3    0    0 -0.35826999870E+01 -0.11483135186E+01 -0.12913608731E+02  0.13450488973E+02  0.00000000000E+00 0.  1.
</event>
<event>
 7    1  0.2450552E-011  0.5052899E+02  0.7816164E-02  0.1300438E+00
        -11   -1    0    0    0    0  0.00000000000E+00  0.00000000000E+00  0.45593999997E+02  0.45594000000E+02  0.51100000000E-03 0.  1.
         11   -1    0    0    0    0 -0.00000000000E+00 -0.00000000000E+00 -0.45593999997E+02  0.45594000000E+02  0.51100000000E-03 0. -1.
    9900012    2    1    2    0    0 -0.19192344723E+02  0.15137844361E+02  0.32490839889E+02  0.50528989872E+02  0.30000395212E+02 0.  0.
         12    1    1    2    0    0  0.19192344723E+02 -0.15137844361E+02 -0.32490839889E+02  0.40659010128E+02  0.00000000000E+00 0. -1.
         11    1    3    3    0    0 -0.78026169258E+01  0.22101443602E+01 -0.81903055747E+00  0.81508515076E+01  0.51100000000E-03 0. -1.
        -11    1    3    3    0    0 -0.12055845872E+01 -0.52083375341E+01  0.57667920969E+01  0.78635936706E+01  0.51100000000E-03 0.  1.
        -12    1    3    3    0    0 -0.10184143210E+02  0.18136037535E+02  0.27543078350E+02  0.34514544694E+02  0.00000000000E+00 0.  1.
</event>
<event>
 7    1  0.2450552E-011  0.5052887E+02  0.7816164E-02  0.1300439E+00
        -11   -1    0    0    0    0  0.00000000000E+00  0.00000000000E+00  0.45593999997E+02  0.45594000000E+02  0.51100000000E-03 0.  1.
         11   -1    0    0    0    0 -0.00000000000E+00 -0.00000000000E+00 -0.45593999997E+02  0.45594000000E+02  0.51100000000E-03 0. -1.
    9900012    2    1    2    0    0 -0.97499910832E+01  0.39166463977E+02  0.49082423383E+01  0.50528867331E+02  0.30000022739E+02 0.  0.
         12    1    1    2    0    0  0.97499910832E+01 -0.39166463977E+02 -0.49082423383E+01  0.40659132669E+02  0.00000000000E+00 0. -1.
         11    1    3    3    0    0  0.26273280889E+00  0.17887880739E+02  0.24641485056E+01  0.18058719057E+02  0.51100000000E-03 0. -1.
        -11    1    3    3    0    0 -0.98029538979E+01  0.15099986212E+02 -0.84937741773E+01  0.19906071656E+02  0.51100000000E-03 0.  1.
        -12    1    3    3    0    0 -0.20976999422E+00  0.61785970248E+01  0.10937868010E+02  0.12564076617E+02  0.00000000000E+00 0.  1.
</event>
<event>
 7    1  0.2450552E-011  0.5052886E+02  0.7816164E-02  0.1300439E+00
        -11   -1    0    0    0    0  0.00000000000E+00  0.00000000000E+00  0.45593999997E+02  0.45594000000E+02  0.51100000000E-03 0. -1.
         11   -1    0    0    0    0 -0.00000000000E+00 -0.00000000000E+00 -0.45593999997E+02  0.45594000000E+02  0.51100000000E-03 0.  1.
    9900012    2    1    2    0    0 -0.25683102051E+02 -0.10942762901E+02 -0.29560108166E+02  0.50528858523E+02  0.29999995965E+02 0.  0.
         12    1    1    2    0    0  0.25683102051E+02  0.10942762901E+02  0.29560108166E+02  0.40659141477E+02  0.00000000000E+00 0. -1.
         11    1    3    3    0    0  0.80289247601E+00  0.47042825854E+00  0.87668064451E+00  0.12784788962E+01  0.51100000000E-03 0. -1.
        -11    1    3    3    0    0 -0.31444997952E+01  0.69822347311E+01 -0.15645953643E+01  0.78158454256E+01  0.51100000000E-03 0.  1.
        -12    1    3    3    0    0 -0.23341494732E+02 -0.18395425890E+02 -0.28872193447E+02  0.41434534201E+02  0.00000000000E+00 0.  1.
</event>
<event>
 7    1  0.2450552E-011  0.5052887E+02  0.7816164E-02  0.1300439E+00
        -11   -1    0    0    0    0  0.00000000000E+00  0.00000000000E+00  0.45593999997E+02  0.45594000000E+02  0.51100000000E-03 0. -1.
         11   -1    0    0    0    0 -0.00000000000E+00 -0.00000000000E+00 -0.45593999997E+02  0.45594000000E+02  0.51100000000E-03 0.  1.
    9900012    2    1    2    0    0 -0.21511411104E+02  0.31766935033E+02  0.13464256881E+02  0.50528865941E+02  0.30000018515E+02 0.  0.
         12    1    1    2    0    0  0.21511411104E+02 -0.31766935033E+02 -0.13464256881E+02  0.40659134059E+02  0.00000000000E+00 0. -1.
         11    1    3    3    0    0 -0.45033124056E+01  0.16581020391E+02  0.16645824719E+02  0.23922657475E+02  0.51100000000E-03 0. -1.
        -11    1    3    3    0    0 -0.99549682787E+01  0.58587242440E+01  0.47359833942E+01  0.12484213318E+02  0.51100000000E-03 0.  1.
        -12    1    3    3    0    0 -0.70531304200E+01  0.93271903975E+01 -0.79175512327E+01  0.14121995148E+02  0.00000000000E+00 0.  1.
</event>
<event>
 7    1  0.2450552E-011  0.5052887E+02  0.7816164E-02  0.1300439E+00
        -11   -1    0    0    0    0  0.00000000000E+00  0.00000000000E+00  0.45593999997E+02  0.45594000000E+02  0.51100000000E-03 0.  1.
         11   -1    0    0    0    0 -0.00000000000E+00 -0.00000000000E+00 -0.45593999997E+02  0.45594000000E+02  0.51100000000E-03 0. -1.
    9900012    2    1    2    0    0  0.16556581309E+01 -0.26622471459E+02  0.30686602002E+02  0.50528871469E+02  0.30000035317E+02 0.  0.
         12    1    1    2    0    0 -0.16556581309E+01  0.26622471459E+02 -0.30686602002E+02  0.40659128531E+02  0.00000000000E+00 0. -1.
         11    1    3    3    0    0  0.12676911720E+01 -0.10200321250E+01 -0.11026781218E+01  0.19655548186E+01  0.51100000000E-03 0. -1.
        -11    1    3    3    0    0 -0.41465267381E+01 -0.17339727212E+02  0.27583765839E+01  0.18040744592E+02  0.51100000000E-03 0.  1.
         12    1    3    3    0    0  0.45344936970E+01 -0.82627121218E+01  0.29030903540E+02  0.30522572058E+02  0.00000000000E+00 0. -1.
</event>
<event>
 7    1  0.2450552E-011  0.5052885E+02  0.7816164E-02  0.1300439E+00
        -11   -1    0    0    0    0  0.00000000000E+00  0.00000000000E+00  0.45593999997E+02  0.45594000000E+02  0.51100000000E-03 0.  1.
         11   -1    0    0    0    0 -0.00000000000E+00 -0.00000000000E+00 -0.45593999997E+02  0.45594000000E+02  0.51100000000E-03 0. -1.
    9900012    2    1    2    0    0 -0.12537073771E+02 -0.25351205442E+02  0.29211373462E+02  0.50528853727E+02  0.29999981388E+02 0.  0.
         12    1    1    2    0    0  0.12537073771E+02  0.25351205442E+02 -0.29211373462E+02  0.40659146273E+02  0.00000000000E+00 0. -1.
         11    1    3    3    0    0  0.56853033514E+01 -0.89602524418E+01  0.60867124301E+01  0.12233432326E+02  0.51100000000E-03 0. -1.
        -11    1    3    3    0    0 -0.67714520092E+01 -0.17743595504E+02  0.14644372632E+02  0.23982189095E+02  0.51100000000E-03 0.  1.
         12    1    3    3    0    0 -0.11450925113E+02  0.13526425038E+01  0.84802884004E+01  0.14313232306E+02  0.00000000000E+00 0. -1.
</event>
<event>
 7    1  0.2450552E-011  0.5052889E+02  0.7816164E-02  0.1300439E+00
        -11   -1    0    0    0    0  0.00000000000E+00  0.00000000000E+00  0.45593999997E+02  0.45594000000E+02  0.51100000000E-03 0. -1.
         11   -1    0    0    0    0 -0.00000000000E+00 -0.00000000000E+00 -0.45593999997E+02  0.45594000000E+02  0.51100000000E-03 0.  1.
    9900012    2    1    2    0    0  0.17993531529E+02 -0.20751400762E+02 -0.29979589331E+02  0.50528885561E+02  0.30000078152E+02 0.  0.
         12    1    1    2    0    0 -0.17993531529E+02  0.20751400762E+02  0.29979589331E+02  0.40659114439E+02  0.00000000000E+00 0. -1.
         11    1    3    3    0    0 -0.55611248173E+01 -0.95335549526E+00 -0.50728904692E+01  0.75874379014E+01  0.51100000000E-03 0. -1.
        -11    1    3    3    0    0  0.68661173709E+01 -0.11760386761E+02 -0.24594023196E+01  0.13838313646E+02  0.51100000000E-03 0.  1.
        -12    1    3    3    0    0  0.16688538975E+02 -0.80376585052E+01 -0.22447296542E+02  0.29103134014E+02  0.00000000000E+00 0.  1.
</event>
<event>
 7    1  0.2450552E-011  0.5052886E+02  0.7816164E-02  0.1300439E+00
        -11   -1    0    0    0    0  0.00000000000E+00  0.00000000000E+00  0.45593999997E+02  0.45594000000E+02  0.51100000000E-03 0.  1.
         11   -1    0    0    0    0 -0.00000000000E+00 -0.00000000000E+00 -0.45593999997E+02  0.45594000000E+02  0.51100000000E-03 0. -1.
    9900012    2    1    2    0    0 -0.24800387499E+02  0.30404454169E+02  0.10661882338E+02  0.50528858489E+02  0.29999995864E+02 0.  0.
         12    1    1    2    0    0  0.24800387499E+02 -0.30404454169E+02 -0.10661882338E+02  0.40659141511E+02  0.00000000000E+00 0. -1.
         11    1    3    3    0    0 -0.17864560120E+02  0.10038597053E+02  0.11520451236E+02  0.23508226986E+02  0.51100000000E-03 0. -1.
        -11    1    3    3    0    0 -0.11914743005E+02  0.13519795624E+02  0.18922386800E+01  0.18119783168E+02  0.51100000000E-03 0.  1.
         12    1    3    3    0    0  0.49789156257E+01  0.68460614922E+01 -0.27508075778E+01  0.89008483356E+01  0.00000000000E+00 0. -1.
</event>
<event>
 7    1  0.2450552E-011  0.5052886E+02  0.7816164E-02  0.1300439E+00
        -11   -1    0    0    0    0  0.00000000000E+00  0.00000000000E+00  0.45593999997E+02  0.45594000000E+02  0.51100000000E-03 0.  1.
         11   -1    0    0    0    0 -0.00000000000E+00 -0.00000000000E+00 -0.45593999997E+02  0.45594000000E+02  0.51100000000E-03 0. -1.
    9900012    2    1    2    0    0  0.26682956895E+02 -0.21915742763E+02  0.21468247768E+02  0.50528860415E+02  0.30000001718E+02 0.  0.
         12    1    1    2    0    0 -0.26682956895E+02  0.21915742763E+02 -0.21468247768E+02  0.40659139585E+02  0.00000000000E+00 0. -1.
         11    1    3    3    0    0  0.62597812670E+01 -0.84442686404E+01  0.13735147807E+02  0.17295803535E+02  0.51100000000E-03 0. -1.
        -11    1    3    3    0    0 -0.13011346623E+01 -0.10280401939E+02  0.23588917332E+01  0.10627510805E+02  0.51100000000E-03 0.  1.
         12    1    3    3    0    0  0.21724310291E+02 -0.31910721839E+01  0.53742082281E+01  0.22605546075E+02  0.00000000000E+00 0. -1.
</event>
<event>
 7    1  0.2450552E-011  0.5052883E+02  0.7816164E-02  0.1300439E+00
        -11   -1    0    0    0    0  0.00000000000E+00  0.00000000000E+00  0.45593999997E+02  0.45594000000E+02  0.51100000000E-03 0.  1.
         11   -1    0    0    0    0 -0.00000000000E+00 -0.00000000000E+00 -0.45593999997E+02  0.45594000000E+02  0.51100000000E-03 0. -1.
    9900012    2    1    2    0    0  0.21067981979E+02  0.61040134121E+01  0.34235208357E+02  0.50528827165E+02  0.29999900650E+02 0.  0.
         12    1    1    2    0    0 -0.21067981979E+02 -0.61040134121E+01 -0.34235208357E+02  0.40659172835E+02  0.00000000000E+00 0. -1.
         11    1    3    3    0    0 -0.46603190489E+01  0.34039100703E+01  0.54083416065E+01  0.79091931699E+01  0.51100000000E-03 0. -1.
        -11    1    3    3    0    0  0.55903889211E+01  0.53217532170E+01  0.18046528190E+02  0.19627803890E+02  0.51100000000E-03 0.  1.
         12    1    3    3    0    0  0.20137912107E+02 -0.26216498752E+01  0.10780338560E+02  0.22991830105E+02  0.00000000000E+00 0. -1.
</event>
<event>
 7    1  0.2450552E-011  0.5052886E+02  0.7816164E-02  0.1300439E+00
        -11   -1    0    0    0    0  0.00000000000E+00  0.00000000000E+00  0.45593999997E+02  0.45594000000E+02  0.51100000000E-03 0. -1.
         11   -1    0    0    0    0 -0.00000000000E+00 -0.00000000000E+00 -0.45593999997E+02  0.45594000000E+02  0.51100000000E-03 0.  1.
    9900012    2    1    2    0    0  0.11656469652E+02  0.35801843563E+02 -0.15346677858E+02  0.50528858241E+02  0.29999995110E+02 0.  0.
         12    1    1    2    0    0 -0.11656469652E+02 -0.35801843563E+02  0.15346677858E+02  0.40659141759E+02  0.00000000000E+00 0. -1.
         11    1    3    3    0    0 -0.68364600220E+00 -0.18581494691E+00  0.12404735422E+01  0.14285215857E+01  0.51100000000E-03 0. -1.
        -11    1    3    3    0    0 -0.25933551440E+01  0.18089072361E+02 -0.18126552635E+02  0.25739307304E+02  0.51100000000E-03 0.  1.
        -12    1    3    3    0    0  0.14933470798E+02  0.17898586149E+02  0.15394012343E+01  0.23361029351E+02  0.00000000000E+00 0.  1.
</event>
<event>
 7    1  0.2450552E-011  0.5052886E+02  0.7816164E-02  0.1300439E+00
        -11   -1    0    0    0    0  0.00000000000E+00  0.00000000000E+00  0.45593999997E+02  0.45594000000E+02  0.51100000000E-03 0. -1.
         11   -1    0    0    0    0 -0.00000000000E+00 -0.00000000000E+00 -0.45593999997E+02  0.45594000000E+02  0.51100000000E-03 0.  1.
    9900012    2    1    2    0    0 -0.10266762434E+02 -0.26578710926E+02 -0.29005712797E+02  0.50528860065E+02  0.30000000654E+02 0.  0.
         12    1    1    2    0    0  0.10266762434E+02  0.26578710926E+02  0.29005712797E+02  0.40659139935E+02  0.00000000000E+00 0. -1.
         11    1    3    3    0    0 -0.35504768063E+01 -0.15178416705E+02 -0.21341385902E+01  0.15733555447E+02  0.51100000000E-03 0. -1.
        -11    1    3    3    0    0 -0.10127930465E+02 -0.93299120395E+01 -0.89233913931E+01  0.16408813132E+02  0.51100000000E-03 0.  1.
         12    1    3    3    0    0  0.34116448375E+01 -0.20703821816E+01 -0.17948182814E+02  0.18386491487E+02  0.00000000000E+00 0. -1.
</event>
<event>
 7    1  0.2450552E-011  0.5052886E+02  0.7816164E-02  0.1300439E+00
        -11   -1    0    0    0    0  0.00000000000E+00  0.00000000000E+00  0.45593999997E+02  0.45594000000E+02  0.51100000000E-03 0. -1.
         11   -1    0    0    0    0 -0.00000000000E+00 -0.00000000000E+00 -0.45593999997E+02  0.45594000000E+02  0.51100000000E-03 0.  1.
    9900012    2    1    2    0    0  0.96156951322E+01  0.64517046822E+01 -0.38975375916E+02  0.50528855715E+02  0.29999987431E+02 0.  0.
         12    1    1    2    0    0 -0.96156951322E+01 -0.64517046822E+01  0.38975375916E+02  0.40659144285E+02  0.00000000000E+00 0. -1.
         11    1    3    3    0    0  0.67045054771E+01  0.64134767956E+01 -0.61091777569E+01  0.11108786227E+02  0.51100000000E-03 0. -1.
        -11    1    3    3    0    0  0.32046199939E+01 -0.52600321117E+01 -0.31570560991E-01  0.61594256293E+01  0.51100000000E-03 0.  1.
         12    1    3    3    0    0 -0.29343033883E+00  0.52982599984E+01 -0.32834627599E+02  0.33260643859E+02  0.00000000000E+00 0. -1.
</event>
<event>
 7    1  0.2450552E-011  0.5052885E+02  0.7816164E-02  0.1300439E+00
        -11   -1    0    0    0    0  0.00000000000E+00  0.00000000000E+00  0.45593999997E+02  0.45594000000E+02  0.51100000000E-03 0.  1.
         11   -1    0    0    0    0 -0.00000000000E+00 -0.00000000000E+00 -0.45593999997E+02  0.45594000000E+02  0.51100000000E-03 0. -1.
    9900012    2    1    2    0    0  0.19579655988E+02  0.29751322734E+02  0.19612803958E+02  0.50528853279E+02  0.29999980025E+02 0.  0.
         12    1    1    2    0    0 -0.19579655988E+02 -0.29751322734E+02 -0.19612803958E+02  0.40659146721E+02  0.00000000000E+00 0. -1.
         11    1    3    3    0    0  0.70603278432E+01  0.81149121913E+01  0.99281642164E+01  0.14637912218E+02  0.51100000000E-03 0. -1.
        -11    1    3    3    0    0  0.91925522451E+01  0.20313497618E+02  0.16805516776E+02  0.27920719845E+02  0.51100000000E-03 0.  1.
         12    1    3    3    0    0  0.33267758992E+01  0.13229129247E+01 -0.71208770348E+01  0.79702212162E+01  0.00000000000E+00 0. -1.
</event>
<event>
 7    1  0.2450552E-011  0.5052887E+02  0.7816164E-02  0.1300439E+00
        -11   -1    0    0    0    0  0.00000000000E+00  0.00000000000E+00  0.45593999997E+02  0.45594000000E+02  0.51100000000E-03 0.  1.
         11   -1    0    0    0    0 -0.00000000000E+00 -0.00000000000E+00 -0.45593999997E+02  0.45594000000E+02  0.51100000000E-03 0. -1.
    9900012    2    1    2    0    0  0.13171337513E+02 -0.22748909516E+02  0.31018835225E+02  0.50528866281E+02  0.30000019547E+02 0.  0.
         12    1    1    2    0    0 -0.13171337513E+02  0.22748909516E+02 -0.31018835225E+02  0.40659133719E+02  0.00000000000E+00 0. -1.
         11    1    3    3    0    0 -0.28024300121E+01 -0.28203196533E+01  0.13133424339E+01  0.41872049781E+01  0.51100000000E-03 0. -1.
        -11    1    3    3    0    0  0.93956951114E+01  0.42557516165E+01  0.65442162507E+01  0.12215452306E+02  0.51100000000E-03 0.  1.
        -12    1    3    3    0    0  0.65780724134E+01 -0.24184341480E+02  0.23161276541E+02  0.34126208997E+02  0.00000000000E+00 0.  1.
</event>
<event>
 7    1  0.2450552E-011  0.5052886E+02  0.7816164E-02  0.1300439E+00
        -11   -1    0    0    0    0  0.00000000000E+00  0.00000000000E+00  0.45593999997E+02  0.45594000000E+02  0.51100000000E-03 0.  1.
         11   -1    0    0    0    0 -0.00000000000E+00 -0.00000000000E+00 -0.45593999997E+02  0.45594000000E+02  0.51100000000E-03 0. -1.
    9900012    2    1    2    0    0 -0.45874814804E+01  0.27957624451E+02  0.29163197932E+02  0.50528857548E+02  0.29999993003E+02 0.  0.
         12    1    1    2    0    0  0.45874814804E+01 -0.27957624451E+02 -0.29163197932E+02  0.40659142452E+02  0.00000000000E+00 0. -1.
         11    1    3    3    0    0 -0.18478167880E+01  0.14581906155E+02  0.21634868475E+02  0.26155572029E+02  0.51100000000E-03 0.  1.
        -11    1    3    3    0    0 -0.83808943163E+01  0.37409394617E+01  0.93030691849E+01  0.13068324840E+02  0.51100000000E-03 0. -1.
         12    1    3    3    0    0  0.56412296239E+01  0.96347788341E+01 -0.17747397274E+01  0.11304960679E+02  0.00000000000E+00 0. -1.
</event>
<event>
 7    1  0.2450552E-011  0.5052887E+02  0.7816164E-02  0.1300439E+00
        -11   -1    0    0    0    0  0.00000000000E+00  0.00000000000E+00  0.45593999997E+02  0.45594000000E+02  0.51100000000E-03 0.  1.
         11   -1    0    0    0    0 -0.00000000000E+00 -0.00000000000E+00 -0.45593999997E+02  0.45594000000E+02  0.51100000000E-03 0. -1.
    9900012    2    1    2    0    0 -0.12836708889E+02 -0.19264944855E+02  0.33425230188E+02  0.50528865621E+02  0.30000017541E+02 0.  0.
         12    1    1    2    0    0  0.12836708889E+02  0.19264944855E+02 -0.33425230188E+02  0.40659134379E+02  0.00000000000E+00 0. -1.
         11    1    3    3    0    0 -0.52624995715E+01 -0.18657973168E+02  0.14308110697E+02  0.24094312533E+02  0.51100000000E-03 0. -1.
        -11    1    3    3    0    0 -0.58319376900E+01 -0.60191872776E+01  0.18978980344E+02  0.20747139752E+02  0.51100000000E-03 0.  1.
         12    1    3    3    0    0 -0.17422716272E+01  0.54122155912E+01  0.13813914713E+00  0.56874133358E+01  0.00000000000E+00 0. -1.
</event>
<event>
 7    1  0.2450552E-011  0.5052885E+02  0.7816164E-02  0.1300439E+00
        -11   -1    0    0    0    0  0.00000000000E+00  0.00000000000E+00  0.45593999997E+02  0.45594000000E+02  0.51100000000E-03 0.  1.
         11   -1    0    0    0    0 -0.00000000000E+00 -0.00000000000E+00 -0.45593999997E+02  0.45594000000E+02  0.51100000000E-03 0. -1.
    9900012    2    1    2    0    0  0.64157935945E+00 -0.30286253063E+02  0.27120058113E+02  0.50528852189E+02  0.29999976714E+02 0.  0.
         12    1    1    2    0    0 -0.64157935945E+00  0.30286253063E+02 -0.27120058113E+02  0.40659147811E+02  0.00000000000E+00 0. -1.
         11    1    3    3    0    0  0.58256693436E+01 -0.13948676262E+02  0.38994555914E+01  0.15611205813E+02  0.51100000000E-03 0. -1.
        -11    1    3    3    0    0 -0.27271388844E+01 -0.18262310311E+02  0.25185814765E+02  0.31229385681E+02  0.51100000000E-03 0.  1.
         12    1    3    3    0    0 -0.24569510998E+01  0.19247335103E+01 -0.19652122434E+01  0.36882606949E+01  0.00000000000E+00 0. -1.
</event>
<event>
 7    1  0.2450552E-011  0.5052886E+02  0.7816164E-02  0.1300439E+00
        -11   -1    0    0    0    0  0.00000000000E+00  0.00000000000E+00  0.45593999997E+02  0.45594000000E+02  0.51100000000E-03 0.  1.
         11   -1    0    0    0    0 -0.00000000000E+00 -0.00000000000E+00 -0.45593999997E+02  0.45594000000E+02  0.51100000000E-03 0. -1.
    9900012    2    1    2    0    0  0.17339274499E+02  0.65546683756E+01  0.36187727743E+02  0.50528858877E+02  0.29999997043E+02 0.  0.
         12    1    1    2    0    0 -0.17339274499E+02 -0.65546683756E+01 -0.36187727743E+02  0.40659141123E+02  0.00000000000E+00 0. -1.
         11    1    3    3    0    0  0.10726210234E+02 -0.30734661065E+01  0.19990405335E+02  0.22893538075E+02  0.51100000000E-03 0. -1.
        -11    1    3    3    0    0  0.12697952645E+02  0.83855911217E+01  0.14887282298E+02  0.21288196596E+02  0.51100000000E-03 0.  1.
         12    1    3    3    0    0 -0.60848883797E+01  0.12425433604E+01  0.13100401098E+01  0.63471242059E+01  0.00000000000E+00 0. -1.
</event>
<event>
 7    1  0.2450552E-011  0.5052886E+02  0.7816164E-02  0.1300439E+00
        -11   -1    0    0    0    0  0.00000000000E+00  0.00000000000E+00  0.45593999997E+02  0.45594000000E+02  0.51100000000E-03 0. -1.
         11   -1    0    0    0    0 -0.00000000000E+00 -0.00000000000E+00 -0.45593999997E+02  0.45594000000E+02  0.51100000000E-03 0.  1.
    9900012    2    1    2    0    0 -0.14074790418E+02 -0.24667564176E+02 -0.29096005645E+02  0.50528855983E+02  0.29999988246E+02 0.  0.
         12    1    1    2    0    0  0.14074790418E+02  0.24667564176E+02  0.29096005645E+02  0.40659144017E+02  0.00000000000E+00 0. -1.
         11    1    3    3    0    0  0.27788635711E+01 -0.31039909794E+00 -0.84431148969E+01  0.88940777920E+01  0.51100000000E-03 0. -1.
        -11    1    3    3    0    0 -0.23909893797E+01 -0.21039614909E+02 -0.10341027514E+02  0.23565209018E+02  0.51100000000E-03 0.  1.
         12    1    3    3    0    0 -0.14462664610E+02 -0.33175501689E+01 -0.10311863234E+02  0.18069569173E+02  0.00000000000E+00 0. -1.
</event>
<event>
 7    1  0.2450552E-011  0.5052886E+02  0.7816164E-02  0.1300439E+00
        -11   -1    0    0    0    0  0.00000000000E+00  0.00000000000E+00  0.45593999997E+02  0.45594000000E+02  0.51100000000E-03 0.  1.
         11   -1    0    0    0    0 -0.00000000000E+00 -0.00000000000E+00 -0.45593999997E+02  0.45594000000E+02  0.51100000000E-03 0. -1.
    9900012    2    1    2    0    0  0.23564539767E+02  0.23582433022E+01  0.33050219384E+02  0.50528857765E+02  0.29999993663E+02 0.  0.
         12    1    1    2    0    0 -0.23564539767E+02 -0.23582433022E+01 -0.33050219384E+02  0.40659142235E+02  0.00000000000E+00 0. -1.
         11    1    3    3    0    0 -0.66127650548E+00 -0.35548204001E+01  0.20283043171E+01  0.41458477249E+01  0.51100000000E-03 0. -1.
        -11    1    3    3    0    0  0.28646256072E+01  0.58577715852E+01 -0.22037521150E+01  0.68830292357E+01  0.51100000000E-03 0.  1.
        -12    1    3    3    0    0  0.21361190665E+02  0.55292117138E-01  0.33225667182E+02  0.39499980805E+02  0.00000000000E+00 0.  1.
</event>
<event>
 7    1  0.2450552E-011  0.5052886E+02  0.7816164E-02  0.1300439E+00
        -11   -1    0    0    0    0  0.00000000000E+00  0.00000000000E+00  0.45593999997E+02  0.45594000000E+02  0.51100000000E-03 0. -1.
         11   -1    0    0    0    0 -0.00000000000E+00 -0.00000000000E+00 -0.45593999997E+02  0.45594000000E+02  0.51100000000E-03 0.  1.
    9900012    2    1    2    0    0 -0.23117878475E+01  0.32632261389E+02 -0.24144494272E+02  0.50528862650E+02  0.30000008510E+02 0.  0.
         12    1    1    2    0    0  0.23117878475E+01 -0.32632261389E+02  0.24144494272E+02  0.40659137350E+02  0.00000000000E+00 0. -1.
         11    1    3    3    0    0  0.39481525687E+01  0.73595164885E+00 -0.17019818529E+01  0.43619119688E+01  0.51100000000E-03 0. -1.
        -11    1    3    3    0    0 -0.63399328194E+01  0.44573156081E+00  0.16296822976E+01  0.65611957318E+01  0.51100000000E-03 0.  1.
        -12    1    3    3    0    0  0.79992403201E-01  0.31450578179E+02 -0.24072194717E+02  0.39605754949E+02  0.00000000000E+00 0.  1.
</event>
<event>
 7    1  0.2450552E-011  0.5052885E+02  0.7816164E-02  0.1300439E+00
        -11   -1    0    0    0    0  0.00000000000E+00  0.00000000000E+00  0.45593999997E+02  0.45594000000E+02  0.51100000000E-03 0. -1.
         11   -1    0    0    0    0 -0.00000000000E+00 -0.00000000000E+00 -0.45593999997E+02  0.45594000000E+02  0.51100000000E-03 0.  1.
    9900012    2    1    2    0    0 -0.25219547874E+02  0.30519565650E+02 -0.92572629089E+01  0.50528850980E+02  0.29999973039E+02 0.  0.
         12    1    1    2    0    0  0.25219547874E+02 -0.30519565650E+02  0.92572629089E+01  0.40659149020E+02  0.00000000000E+00 0. -1.
         11    1    3    3    0    0 -0.80651884993E+01 -0.43421217607E+00 -0.32287367582E+01  0.86983071374E+01  0.51100000000E-03 0.  1.
        -11    1    3    3    0    0  0.44667544893E+01  0.11359408801E+02 -0.21724886244E+01  0.12397893815E+02  0.51100000000E-03 0. -1.
         12    1    3    3    0    0 -0.21621113864E+02  0.19594369025E+02 -0.38560375264E+01  0.29432650028E+02  0.00000000000E+00 0. -1.
</event>
