<event>
 7    1  0.1813014E-010  0.4778727E+02  0.7816164E-02  0.1312668E+00
        -11   -1    0    0    0    0  0.00000000000E+00  0.00000000000E+00  0.45593999997E+02  0.45594000000E+02  0.51100000000E-03 0.  1.
         11   -1    0    0    0    0 -0.00000000000E+00 -0.00000000000E+00 -0.45593999997E+02  0.45594000000E+02  0.51100000000E-03 0. -1.
    9900012    2    1    2    0    0  0.32615145060E+02  0.99705835795E+01  0.26841447361E+02  0.47787268202E+02  0.19999987040E+02 0.  0.
         12    1    1    2    0    0 -0.32615145060E+02 -0.99705835795E+01 -0.26841447361E+02  0.43400731798E+02  0.00000000000E+00 0. -1.
         11    1    3    3    0    0  0.20684210369E+02  0.10781269280E+01  0.20911319851E+02  0.29432672567E+02  0.51100000000E-03 0. -1.
        -11    1    3    3    0    0 -0.46673335196E+00  0.26605049778E+01  0.32436575547E+01  0.42210711143E+01  0.51100000000E-03 0.  1.
         12    1    3    3    0    0  0.12397668043E+02  0.62319516737E+01  0.26864699552E+01  0.14133524521E+02  0.00000000000E+00 0. -1.
</event>
<event>
 7    1  0.1813014E-010  0.4778727E+02  0.7816164E-02  0.1312668E+00
        -11   -1    0    0    0    0  0.00000000000E+00  0.00000000000E+00  0.45593999997E+02  0.45594000000E+02  0.51100000000E-03 0.  1.
         11   -1    0    0    0    0 -0.00000000000E+00 -0.00000000000E+00 -0.45593999997E+02  0.45594000000E+02  0.51100000000E-03 0. -1.
    9900012    2    1    2    0    0 -0.15296800960E+02  0.80158681164E+01  0.39816791995E+02  0.47787272056E+02  0.20000004612E+02 0.  0.
         12    1    1    2    0    0  0.15296800960E+02 -0.80158681164E+01 -0.39816791995E+02  0.43400727944E+02  0.00000000000E+00 0. -1.
         11    1    3    3    0    0  0.17944826449E+01  0.15284333163E+01  0.70417027531E-01  0.23582271273E+01  0.51100000000E-03 0. -1.
        -11    1    3    3    0    0 -0.44085803367E+01  0.10500927834E+01  0.15067666527E+01  0.47758372507E+01  0.51100000000E-03 0.  1.
        -12    1    3    3    0    0 -0.12682703269E+02  0.54373420167E+01  0.38239608315E+02  0.40653207678E+02  0.00000000000E+00 0.  1.
</event>
<event>
 7    1  0.1813014E-010  0.4778725E+02  0.7816164E-02  0.1312668E+00
        -11   -1    0    0    0    0  0.00000000000E+00  0.00000000000E+00  0.45593999997E+02  0.45594000000E+02  0.51100000000E-03 0.  1.
         11   -1    0    0    0    0 -0.00000000000E+00 -0.00000000000E+00 -0.45593999997E+02  0.45594000000E+02  0.51100000000E-03 0. -1.
    9900012    2    1    2    0    0 -0.25395917168E+02  0.31589279170E+02 -0.15517400712E+02  0.47787252401E+02  0.19999914996E+02 0.  0.
         12    1    1    2    0    0  0.25395917168E+02 -0.31589279170E+02  0.15517400712E+02  0.43400747599E+02  0.00000000000E+00 0. -1.
         11    1    3    3    0    0  0.72754645669E+00 -0.19067888435E+00 -0.26034948214E+00  0.79590476663E+00  0.51100000000E-03 0. -1.
        -11    1    3    3    0    0 -0.11859207677E+02  0.18559160644E+02  0.39239635231E+00  0.22028100819E+02  0.51100000000E-03 0.  1.
         12    1    3    3    0    0 -0.14264255948E+02  0.13220797411E+02 -0.15649447582E+02  0.24963246815E+02  0.00000000000E+00 0. -1.
</event>
<event>
 7    1  0.1813014E-010  0.4778727E+02  0.7816164E-02  0.1312668E+00
        -11   -1    0    0    0    0  0.00000000000E+00  0.00000000000E+00  0.45593999997E+02  0.45594000000E+02  0.51100000000E-03 0.  1.
         11   -1    0    0    0    0 -0.00000000000E+00 -0.00000000000E+00 -0.45593999997E+02  0.45594000000E+02  0.51100000000E-03 0. -1.
    9900012    2    1    2    0    0  0.18982397567E+02  0.14586384438E+02  0.36201232617E+02  0.47787271074E+02  0.20000000134E+02 0.  0.
         12    1    1    2    0    0 -0.18982397567E+02 -0.14586384438E+02 -0.36201232617E+02  0.43400728926E+02  0.00000000000E+00 0. -1.
         11    1    3    3    0    0  0.55674182244E+01  0.65854944059E+01  0.23788567791E+02  0.25303376060E+02  0.51100000000E-03 0. -1.
        -11    1    3    3    0    0  0.92442755697E+01  0.25730921863E+00  0.94011417342E+01  0.13187278150E+02  0.51100000000E-03 0.  1.
        -12    1    3    3    0    0  0.41707037729E+01  0.77435808131E+01  0.30115230916E+01  0.92966168633E+01  0.00000000000E+00 0.  1.
</event>
<event>
 7    1  0.1813014E-010  0.4778727E+02  0.7816164E-02  0.1312668E+00
        -11   -1    0    0    0    0  0.00000000000E+00  0.00000000000E+00  0.45593999997E+02  0.45594000000E+02  0.51100000000E-03 0.  1.
         11   -1    0    0    0    0 -0.00000000000E+00 -0.00000000000E+00 -0.45593999997E+02  0.45594000000E+02  0.51100000000E-03 0. -1.
    9900012    2    1    2    0    0 -0.13113567906E+02  0.33833472519E+02  0.23810788346E+02  0.47787272269E+02  0.20000005583E+02 0.  0.
         12    1    1    2    0    0  0.13113567906E+02 -0.33833472519E+02 -0.23810788346E+02  0.43400727731E+02  0.00000000000E+00 0. -1.
         11    1    3    3    0    0 -0.90358656620E+01  0.15478248322E+02  0.83612205330E+01  0.19777083922E+02  0.51100000000E-03 0. -1.
        -11    1    3    3    0    0 -0.56904108093E+01  0.19754052391E+02  0.15691501386E+02  0.25861681636E+02  0.51100000000E-03 0.  1.
         12    1    3    3    0    0  0.16127085657E+01 -0.13988281937E+01 -0.24193357349E+00  0.21485067110E+01  0.00000000000E+00 0. -1.
</event>
<event>
 7    1  0.1813014E-010  0.4778727E+02  0.7816164E-02  0.1312668E+00
        -11   -1    0    0    0    0  0.00000000000E+00  0.00000000000E+00  0.45593999997E+02  0.45594000000E+02  0.51100000000E-03 0. -1.
         11   -1    0    0    0    0 -0.00000000000E+00 -0.00000000000E+00 -0.45593999997E+02  0.45594000000E+02  0.51100000000E-03 0.  1.
    9900012    2    1    2    0    0 -0.13215069314E+01  0.14237909122E+02 -0.40977539914E+02  0.47787271733E+02  0.20000003137E+02 0.  0.
         12    1    1    2    0    0  0.13215069314E+01 -0.14237909122E+02  0.40977539914E+02  0.43400728267E+02  0.00000000000E+00 0. -1.
         11    1    3    3    0    0  0.10258598322E+01  0.74818643697E+00 -0.12668073803E+01  0.17935920773E+01  0.51100000000E-03 0.  1.
        -11    1    3    3    0    0 -0.27712681177E+01  0.12008884010E+01 -0.30452219636E+02  0.30601629711E+02  0.51100000000E-03 0. -1.
         12    1    3    3    0    0  0.42390135417E+00  0.12288834284E+02 -0.92585128976E+01  0.15392049944E+02  0.00000000000E+00 0. -1.
</event>
<event>
 7    1  0.1813014E-010  0.4778727E+02  0.7816164E-02  0.1312668E+00
        -11   -1    0    0    0    0  0.00000000000E+00  0.00000000000E+00  0.45593999997E+02  0.45594000000E+02  0.51100000000E-03 0.  1.
         11   -1    0    0    0    0 -0.00000000000E+00 -0.00000000000E+00 -0.45593999997E+02  0.45594000000E+02  0.51100000000E-03 0. -1.
    9900012    2    1    2    0    0  0.99045487000E+00 -0.32006492778E+02  0.29295506539E+02  0.47787270926E+02  0.19999999461E+02 0.  0.
         12    1    1    2    0    0 -0.99045487000E+00  0.32006492778E+02 -0.29295506539E+02  0.43400729074E+02  0.00000000000E+00 0. -1.
         11    1    3    3    0    0  0.58542277831E+01 -0.67661120159E+01  0.12730421530E+02  0.15560073501E+02  0.51100000000E-03 0. -1.
        -11    1    3    3    0    0 -0.45342523526E+01 -0.37972031916E+01  0.55828749396E+01  0.81330614978E+01  0.51100000000E-03 0.  1.
        -12    1    3    3    0    0 -0.32952056055E+00 -0.21443177570E+02  0.10982210069E+02  0.24094135928E+02  0.00000000000E+00 0.  1.
</event>
<event>
 7    1  0.1813014E-010  0.4778727E+02  0.7816164E-02  0.1312668E+00
        -11   -1    0    0    0    0  0.00000000000E+00  0.00000000000E+00  0.45593999997E+02  0.45594000000E+02  0.51100000000E-03 0.  1.
         11   -1    0    0    0    0 -0.00000000000E+00 -0.00000000000E+00 -0.45593999997E+02  0.45594000000E+02  0.51100000000E-03 0. -1.
    9900012    2    1    2    0    0  0.79763199256E+01 -0.22083356773E+01  0.42604282915E+02  0.47787270182E+02  0.19999996067E+02 0.  0.
         12    1    1    2    0    0 -0.79763199256E+01  0.22083356773E+01 -0.42604282915E+02  0.43400729818E+02  0.00000000000E+00 0. -1.
         11    1    3    3    0    0 -0.12291584848E+01 -0.42514036412E+01  0.18817745976E+02  0.19331136216E+02  0.51100000000E-03 0. -1.
        -11    1    3    3    0    0  0.61236959507E+01 -0.38583606039E+01  0.57938199399E+01  0.92711891580E+01  0.51100000000E-03 0.  1.
         12    1    3    3    0    0  0.30817824596E+01  0.59014285679E+01  0.17992716999E+02  0.19184944808E+02  0.00000000000E+00 0. -1.
</event>
<event>
 7    1  0.1813014E-010  0.4778727E+02  0.7816164E-02  0.1312668E+00
        -11   -1    0    0    0    0  0.00000000000E+00  0.00000000000E+00  0.45593999997E+02  0.45594000000E+02  0.51100000000E-03 0. -1.
         11   -1    0    0    0    0 -0.00000000000E+00 -0.00000000000E+00 -0.45593999997E+02  0.45594000000E+02  0.51100000000E-03 0.  1.
    9900012    2    1    2    0    0 -0.24773614533E+01 -0.40200122220E+02 -0.16168980565E+02  0.47787273292E+02  0.20000010248E+02 0.  0.
         12    1    1    2    0    0  0.24773614533E+01  0.40200122220E+02  0.16168980565E+02  0.43400726708E+02  0.00000000000E+00 0. -1.
         11    1    3    3    0    0 -0.27515332570E+01 -0.26299803870E+01 -0.26475577203E+01  0.46365174694E+01  0.51100000000E-03 0. -1.
        -11    1    3    3    0    0  0.71569912898E+01 -0.25503905114E+02 -0.53166045841E+01  0.27017364508E+02  0.51100000000E-03 0.  1.
        -12    1    3    3    0    0 -0.68828194860E+01 -0.12066236719E+02 -0.82048182603E+01  0.16133391315E+02  0.00000000000E+00 0.  1.
</event>
<event>
 7    1  0.1813014E-010  0.4778727E+02  0.7816164E-02  0.1312668E+00
        -11   -1    0    0    0    0  0.00000000000E+00  0.00000000000E+00  0.45593999997E+02  0.45594000000E+02  0.51100000000E-03 0.  1.
         11   -1    0    0    0    0 -0.00000000000E+00 -0.00000000000E+00 -0.45593999997E+02  0.45594000000E+02  0.51100000000E-03 0. -1.
    9900012    2    1    2    0    0 -0.20203620257E+02 -0.87728832979E+01  0.37396167320E+02  0.47787273243E+02  0.20000010022E+02 0.  0.
         12    1    1    2    0    0  0.20203620257E+02  0.87728832979E+01 -0.37396167320E+02  0.43400726757E+02  0.00000000000E+00 0. -1.
         11    1    3    3    0    0 -0.43384100074E+01 -0.10098167911E+02  0.13649140779E+02  0.17524093152E+02  0.51100000000E-03 0. -1.
        -11    1    3    3    0    0 -0.14548989743E+02 -0.21337928380E+01  0.21077074926E+02  0.25699596536E+02  0.51100000000E-03 0.  1.
        -12    1    3    3    0    0 -0.13162205063E+01  0.34590774507E+01  0.26699516154E+01  0.45635835546E+01  0.00000000000E+00 0.  1.
</event>
<event>
 7    1  0.1813014E-010  0.4778727E+02  0.7816164E-02  0.1312668E+00
        -11   -1    0    0    0    0  0.00000000000E+00  0.00000000000E+00  0.45593999997E+02  0.45594000000E+02  0.51100000000E-03 0.  1.
         11   -1    0    0    0    0 -0.00000000000E+00 -0.00000000000E+00 -0.45593999997E+02  0.45594000000E+02  0.51100000000E-03 0. -1.
    9900012    2    1    2    0    0  0.39600339444E+02  0.17735704426E+02 -0.93872371034E+00  0.47787270769E+02  0.19999998743E+02 0.  0.
         12    1    1    2    0    0 -0.39600339444E+02 -0.17735704426E+02  0.93872371034E+00  0.43400729231E+02  0.00000000000E+00 0. -1.
         11    1    3    3    0    0  0.11149706567E+02  0.71049784927E+01 -0.23996443410E+01  0.13437074427E+02  0.51100000000E-03 0.  1.
        -11    1    3    3    0    0  0.19732136015E+01  0.30386291633E+01  0.54233657971E+01  0.65222493006E+01  0.51100000000E-03 0. -1.
         12    1    3    3    0    0  0.26477419276E+02  0.75920967696E+01 -0.39624451664E+01  0.27827947042E+02  0.00000000000E+00 0. -1.
</event>
<event>
 7    1  0.1813014E-010  0.4778727E+02  0.7816164E-02  0.1312668E+00
        -11   -1    0    0    0    0  0.00000000000E+00  0.00000000000E+00  0.45593999997E+02  0.45594000000E+02  0.51100000000E-03 0.  1.
         11   -1    0    0    0    0 -0.00000000000E+00 -0.00000000000E+00 -0.45593999997E+02  0.45594000000E+02  0.51100000000E-03 0. -1.
    9900012    2    1    2    0    0  0.29794880584E+02 -0.30978809543E+02  0.60167714343E+01  0.47787273183E+02  0.20000009752E+02 0.  0.
         12    1    1    2    0    0 -0.29794880584E+02  0.30978809543E+02 -0.60167714343E+01  0.43400726817E+02  0.00000000000E+00 0. -1.
         11    1    3    3    0    0  0.10645473162E+02 -0.27895731608E+01  0.88444936322E+00  0.11040383517E+02  0.51100000000E-03 0. -1.
        -11    1    3    3    0    0 -0.83131377629E+00 -0.66921457902E+01  0.28122983055E+01  0.73064984700E+01  0.51100000000E-03 0.  1.
         12    1    3    3    0    0  0.19980721198E+02 -0.21497090592E+02  0.23200237656E+01  0.29440391196E+02  0.00000000000E+00 0. -1.
</event>
<event>
 7    1  0.1813014E-010  0.4778727E+02  0.7816164E-02  0.1312668E+00
        -11   -1    0    0    0    0  0.00000000000E+00  0.00000000000E+00  0.45593999997E+02  0.45594000000E+02  0.51100000000E-03 0.  1.
         11   -1    0    0    0    0 -0.00000000000E+00 -0.00000000000E+00 -0.45593999997E+02  0.45594000000E+02  0.51100000000E-03 0. -1.
    9900012    2    1    2    0    0 -0.57919818388E+01  0.75455939677E+01  0.42345485662E+02  0.47787271919E+02  0.20000003989E+02 0.  0.
         12    1    1    2    0    0  0.57919818388E+01 -0.75455939677E+01 -0.42345485662E+02  0.43400728081E+02  0.00000000000E+00 0. -1.
         11    1    3    3    0    0  0.60294857182E+01 -0.71748964530E+00  0.72910543728E+01  0.94883593706E+01  0.51100000000E-03 0. -1.
        -11    1    3    3    0    0 -0.74270059096E+00 -0.79954448004E+00  0.30594527995E+01  0.32482498729E+01  0.51100000000E-03 0.  1.
        -12    1    3    3    0    0 -0.11078766966E+02  0.90626280931E+01  0.31994978490E+02  0.35050662676E+02  0.00000000000E+00 0.  1.
</event>
<event>
 7    1  0.1813014E-010  0.4778727E+02  0.7816164E-02  0.1312668E+00
        -11   -1    0    0    0    0  0.00000000000E+00  0.00000000000E+00  0.45593999997E+02  0.45594000000E+02  0.51100000000E-03 0. -1.
         11   -1    0    0    0    0 -0.00000000000E+00 -0.00000000000E+00 -0.45593999997E+02  0.45594000000E+02  0.51100000000E-03 0.  1.
    9900012    2    1    2    0    0 -0.39673296252E+02  0.17588422654E+02  0.54766939114E+00  0.47787274330E+02  0.20000014980E+02 0.  0.
         12    1    1    2    0    0  0.39673296252E+02 -0.17588422654E+02 -0.54766939114E+00  0.43400725670E+02  0.00000000000E+00 0. -1.
         11    1    3    3    0    0 -0.44405249698E+01  0.30478960662E+01 -0.30007699297E+01  0.61654320911E+01  0.51100000000E-03 0. -1.
        -11    1    3    3    0    0 -0.34609331441E+02  0.12932295992E+02  0.71467839769E+01  0.37631457903E+02  0.51100000000E-03 0.  1.
        -12    1    3    3    0    0 -0.62343984078E+00  0.16082305961E+01 -0.35983446561E+01  0.39903843360E+01  0.00000000000E+00 0.  1.
</event>
<event>
 7    1  0.1813014E-010  0.4778727E+02  0.7816164E-02  0.1312668E+00
        -11   -1    0    0    0    0  0.00000000000E+00  0.00000000000E+00  0.45593999997E+02  0.45594000000E+02  0.51100000000E-03 0.  1.
         11   -1    0    0    0    0 -0.00000000000E+00 -0.00000000000E+00 -0.45593999997E+02  0.45594000000E+02  0.51100000000E-03 0. -1.
    9900012    2    1    2    0    0  0.10823571463E+02  0.12621580270E+02  0.40089514460E+02  0.47787272387E+02  0.20000006119E+02 0.  0.
         12    1    1    2    0    0 -0.10823571463E+02 -0.12621580270E+02 -0.40089514460E+02  0.43400727613E+02  0.00000000000E+00 0. -1.
         11    1    3    3    0    0  0.70115817852E+01  0.21587708584E+01  0.53622091843E+01  0.90871259674E+01  0.51100000000E-03 0. -1.
        -11    1    3    3    0    0  0.71584633458E+01  0.11391905644E+02  0.29512600436E+02  0.32434745203E+02  0.51100000000E-03 0.  1.
        -12    1    3    3    0    0 -0.33464736684E+01 -0.92909623235E+00  0.52147048405E+01  0.62654012159E+01  0.00000000000E+00 0.  1.
</event>
<event>
 7    1  0.1813014E-010  0.4778727E+02  0.7816164E-02  0.1312668E+00
        -11   -1    0    0    0    0  0.00000000000E+00  0.00000000000E+00  0.45593999997E+02  0.45594000000E+02  0.51100000000E-03 0. -1.
         11   -1    0    0    0    0 -0.00000000000E+00 -0.00000000000E+00 -0.45593999997E+02  0.45594000000E+02  0.51100000000E-03 0.  1.
    9900012    2    1    2    0    0  0.28842174527E+02  0.26758716214E+02  0.18322764727E+02  0.47787266918E+02  0.19999981184E+02 0.  0.
         12    1    1    2    0    0 -0.28842174527E+02 -0.26758716214E+02 -0.18322764727E+02  0.43400733082E+02  0.00000000000E+00 0. -1.
         11    1    3    3    0    0  0.42165767272E+01  0.12490977356E+01 -0.49635816021E+00  0.44256226832E+01  0.51100000000E-03 0. -1.
        -11    1    3    3    0    0  0.14404904084E+02  0.24570032157E+02  0.16210853643E+02  0.32771626721E+02  0.51100000000E-03 0.  1.
        -12    1    3    3    0    0  0.10220693716E+02  0.93958632158E+00  0.26082692443E+01  0.10590017513E+02  0.00000000000E+00 0.  1.
</event>
<event>
 7    1  0.1813014E-010  0.4778727E+02  0.7816164E-02  0.1312668E+00
        -11   -1    0    0    0    0  0.00000000000E+00  0.00000000000E+00  0.45593999997E+02  0.45594000000E+02  0.51100000000E-03 0.  1.
         11   -1    0    0    0    0 -0.00000000000E+00 -0.00000000000E+00 -0.45593999997E+02  0.45594000000E+02  0.51100000000E-03 0. -1.
    9900012    2    1    2    0    0 -0.14683440975E+02  0.89437274147E+01  0.39850089548E+02  0.47787270329E+02  0.19999996739E+02 0.  0.
         12    1    1    2    0    0  0.14683440975E+02 -0.89437274147E+01 -0.39850089548E+02  0.43400729671E+02  0.00000000000E+00 0. -1.
         11    1    3    3    0    0 -0.55518874454E+01  0.12292335944E+02  0.16481567935E+02  0.21297113866E+02  0.51100000000E-03 0. -1.
        -11    1    3    3    0    0 -0.83469228115E+01  0.67684434543E+00  0.15644513844E+02  0.17744859886E+02  0.51100000000E-03 0.  1.
         12    1    3    3    0    0 -0.78463071832E+00 -0.40254528742E+01  0.77240077692E+01  0.87452965773E+01  0.00000000000E+00 0. -1.
</event>
<event>
 7    1  0.1813014E-010  0.4778727E+02  0.7816164E-02  0.1312668E+00
        -11   -1    0    0    0    0  0.00000000000E+00  0.00000000000E+00  0.45593999997E+02  0.45594000000E+02  0.51100000000E-03 0. -1.
         11   -1    0    0    0    0 -0.00000000000E+00 -0.00000000000E+00 -0.45593999997E+02  0.45594000000E+02  0.51100000000E-03 0.  1.
    9900012    2    1    2    0    0  0.18144516392E+02  0.35274105887E+02  0.17610715363E+02  0.47787270549E+02  0.19999997743E+02 0.  0.
         12    1    1    2    0    0 -0.18144516392E+02 -0.35274105887E+02 -0.17610715363E+02  0.43400729451E+02  0.00000000000E+00 0. -1.
         11    1    3    3    0    0  0.32606086126E+01  0.17846818773E+02  0.60952937668E+01  0.19138785625E+02  0.51100000000E-03 0.  1.
        -11    1    3    3    0    0  0.73966582882E+01  0.55875105405E+01 -0.16601723450E+01  0.94173775728E+01  0.51100000000E-03 0. -1.
         12    1    3    3    0    0  0.74872494913E+01  0.11839776574E+02  0.13175593941E+02  0.19231107352E+02  0.00000000000E+00 0. -1.
</event>
<event>
 7    1  0.1813014E-010  0.4778727E+02  0.7816164E-02  0.1312668E+00
        -11   -1    0    0    0    0  0.00000000000E+00  0.00000000000E+00  0.45593999997E+02  0.45594000000E+02  0.51100000000E-03 0. -1.
         11   -1    0    0    0    0 -0.00000000000E+00 -0.00000000000E+00 -0.45593999997E+02  0.45594000000E+02  0.51100000000E-03 0.  1.
    9900012    2    1    2    0    0  0.32585186355E+02 -0.22498813158E+02 -0.17766040873E+02  0.47787272223E+02  0.20000005374E+02 0.  0.
         12    1    1    2    0    0 -0.32585186355E+02  0.22498813158E+02  0.17766040873E+02  0.43400727777E+02  0.00000000000E+00 0. -1.
         11    1    3    3    0    0  0.60946769024E+01 -0.40160217409E+01 -0.79686408817E+01  0.10806144314E+02  0.51100000000E-03 0. -1.
        -11    1    3    3    0    0  0.28053245023E+02 -0.18883631111E+02 -0.10193798992E+02  0.35319819060E+02  0.51100000000E-03 0.  1.
         12    1    3    3    0    0 -0.15627355711E+01  0.40083969408E+00  0.39639900068E+00  0.16613088494E+01  0.00000000000E+00 0. -1.
</event>
<event>
 7    1  0.1813014E-010  0.4778728E+02  0.7816164E-02  0.1312668E+00
        -11   -1    0    0    0    0  0.00000000000E+00  0.00000000000E+00  0.45593999997E+02  0.45594000000E+02  0.51100000000E-03 0.  1.
         11   -1    0    0    0    0 -0.00000000000E+00 -0.00000000000E+00 -0.45593999997E+02  0.45594000000E+02  0.51100000000E-03 0. -1.
    9900012    2    1    2    0    0  0.30996266397E+02 -0.24030358673E+02  0.18584834597E+02  0.47787277131E+02  0.20000027753E+02 0.  0.
         12    1    1    2    0    0 -0.30996266397E+02  0.24030358673E+02 -0.18584834597E+02  0.43400722869E+02  0.00000000000E+00 0. -1.
         11    1    3    3    0    0  0.48321589809E+01  0.14608036984E+01  0.58020666272E+01  0.76907532316E+01  0.51100000000E-03 0. -1.
        -11    1    3    3    0    0  0.13881626084E+02 -0.13105630354E+02  0.12175514577E+02  0.22642885089E+02  0.51100000000E-03 0.  1.
         12    1    3    3    0    0  0.12282481332E+02 -0.12385532018E+02  0.60725339286E+00  0.17453638811E+02  0.00000000000E+00 0. -1.
</event>
<event>
 7    1  0.1813014E-010  0.4778728E+02  0.7816164E-02  0.1312668E+00
        -11   -1    0    0    0    0  0.00000000000E+00  0.00000000000E+00  0.45593999997E+02  0.45594000000E+02  0.51100000000E-03 0.  1.
         11   -1    0    0    0    0 -0.00000000000E+00 -0.00000000000E+00 -0.45593999997E+02  0.45594000000E+02  0.51100000000E-03 0. -1.
    9900012    2    1    2    0    0  0.20887822346E+02 -0.35621146687E+02  0.13358712222E+02  0.47787281044E+02  0.20000045591E+02 0.  0.
         12    1    1    2    0    0 -0.20887822346E+02  0.35621146687E+02 -0.13358712222E+02  0.43400718956E+02  0.00000000000E+00 0. -1.
         11    1    3    3    0    0  0.33244378868E+01 -0.57329839840E+01 -0.23942029001E+01  0.70463607921E+01  0.51100000000E-03 0. -1.
        -11    1    3    3    0    0  0.73639413049E+01 -0.25097022993E+02  0.12645488506E+02  0.29051619136E+02  0.51100000000E-03 0.  1.
         12    1    3    3    0    0  0.10199443154E+02 -0.47911397106E+01  0.31074266170E+01  0.11689301115E+02  0.00000000000E+00 0. -1.
</event>
<event>
 7    1  0.1813014E-010  0.4778727E+02  0.7816164E-02  0.1312668E+00
        -11   -1    0    0    0    0  0.00000000000E+00  0.00000000000E+00  0.45593999997E+02  0.45594000000E+02  0.51100000000E-03 0. -1.
         11   -1    0    0    0    0 -0.00000000000E+00 -0.00000000000E+00 -0.45593999997E+02  0.45594000000E+02  0.51100000000E-03 0.  1.
    9900012    2    1    2    0    0  0.25857811065E+02  0.34327062655E+02  0.60539050813E+01  0.47787269703E+02  0.19999993883E+02 0.  0.
         12    1    1    2    0    0 -0.25857811065E+02 -0.34327062655E+02 -0.60539050813E+01  0.43400730297E+02  0.00000000000E+00 0. -1.
         11    1    3    3    0    0 -0.27624999627E+01  0.30944813492E+01 -0.63100930021E+00  0.41958781992E+01  0.51100000000E-03 0. -1.
        -11    1    3    3    0    0  0.10608844532E+02  0.17318338016E+02  0.27797931251E+01  0.20498772256E+02  0.51100000000E-03 0.  1.
        -12    1    3    3    0    0  0.18011466496E+02  0.13914243290E+02  0.39051212565E+01  0.23092619247E+02  0.00000000000E+00 0.  1.
</event>
<event>
 7    1  0.1813014E-010  0.4778727E+02  0.7816164E-02  0.1312668E+00
        -11   -1    0    0    0    0  0.00000000000E+00  0.00000000000E+00  0.45593999997E+02  0.45594000000E+02  0.51100000000E-03 0.  1.
         11   -1    0    0    0    0 -0.00000000000E+00 -0.00000000000E+00 -0.45593999997E+02  0.45594000000E+02  0.51100000000E-03 0. -1.
    9900012    2    1    2    0    0  0.19017350036E+02 -0.16111964495E+02  0.35529824174E+02  0.47787269498E+02  0.19999992949E+02 0.  0.
         12    1    1    2    0    0 -0.19017350036E+02  0.16111964495E+02 -0.35529824174E+02  0.43400730502E+02  0.00000000000E+00 0. -1.
         11    1    3    3    0    0  0.24735498305E+01 -0.98599004329E+01  0.10770728604E+02  0.14810289674E+02  0.51100000000E-03 0. -1.
        -11    1    3    3    0    0  0.19884479909E+01  0.36642155041E+01  0.46106506334E+01  0.62159874676E+01  0.51100000000E-03 0.  1.
         12    1    3    3    0    0  0.14555352215E+02 -0.99162795667E+01  0.20148444936E+02  0.26760992356E+02  0.00000000000E+00 0. -1.
</event>
<event>
 7    1  0.1813014E-010  0.4778727E+02  0.7816164E-02  0.1312668E+00
        -11   -1    0    0    0    0  0.00000000000E+00  0.00000000000E+00  0.45593999997E+02  0.45594000000E+02  0.51100000000E-03 0.  1.
         11   -1    0    0    0    0 -0.00000000000E+00 -0.00000000000E+00 -0.45593999997E+02  0.45594000000E+02  0.51100000000E-03 0. -1.
    9900012    2    1    2    0    0  0.11866876619E+02  0.41746433897E+02  0.18831288849E+00  0.47787274597E+02  0.20000016196E+02 0.  0.
         12    1    1    2    0    0 -0.11866876619E+02 -0.41746433897E+02 -0.18831288849E+00  0.43400725403E+02  0.00000000000E+00 0. -1.
         11    1    3    3    0    0  0.55966120368E+01  0.28859822219E+01 -0.24289539441E+01  0.67491315885E+01  0.51100000000E-03 0. -1.
        -11    1    3    3    0    0 -0.30379802020E+01  0.10861025804E+02  0.24038487676E+01  0.11531248605E+02  0.51100000000E-03 0.  1.
         12    1    3    3    0    0  0.93082447842E+01  0.27999425871E+02  0.21341806500E+00  0.29506894403E+02  0.00000000000E+00 0. -1.
</event>
<event>
 7    1  0.1813014E-010  0.4778727E+02  0.7816164E-02  0.1312668E+00
        -11   -1    0    0    0    0  0.00000000000E+00  0.00000000000E+00  0.45593999997E+02  0.45594000000E+02  0.51100000000E-03 0.  1.
         11   -1    0    0    0    0 -0.00000000000E+00 -0.00000000000E+00 -0.45593999997E+02  0.45594000000E+02  0.51100000000E-03 0. -1.
    9900012    2    1    2    0    0 -0.23854727952E+01  0.40087529861E+02 -0.16459745430E+02  0.47787265554E+02  0.19999974965E+02 0.  0.
         12    1    1    2    0    0  0.23854727952E+01 -0.40087529861E+02  0.16459745430E+02  0.43400734446E+02  0.00000000000E+00 0. -1.
         11    1    3    3    0    0 -0.23973689113E+01 -0.10786242243E+00  0.10455003361E+01  0.26176484128E+01  0.51100000000E-03 0. -1.
        -11    1    3    3    0    0 -0.39971662224E+00  0.40691231716E+02 -0.17853158832E+02  0.44437274810E+02  0.51100000000E-03 0.  1.
        -12    1    3    3    0    0  0.41161273830E+00 -0.49583943262E+00  0.34791306511E+00  0.73234233126E+00  0.00000000000E+00 0.  1.
</event>
<event>
 7    1  0.1813014E-010  0.4778727E+02  0.7816164E-02  0.1312668E+00
        -11   -1    0    0    0    0  0.00000000000E+00  0.00000000000E+00  0.45593999997E+02  0.45594000000E+02  0.51100000000E-03 0.  1.
         11   -1    0    0    0    0 -0.00000000000E+00 -0.00000000000E+00 -0.45593999997E+02  0.45594000000E+02  0.51100000000E-03 0. -1.
    9900012    2    1    2    0    0  0.24018736368E+02 -0.16544695965E+02  0.32140268730E+02  0.47787268032E+02  0.19999986266E+02 0.  0.
         12    1    1    2    0    0 -0.24018736368E+02  0.16544695965E+02 -0.32140268730E+02  0.43400731968E+02  0.00000000000E+00 0. -1.
         11    1    3    3    0    0 -0.26772944140E+00 -0.46461657650E+00 -0.66412852149E+00  0.85358922857E+00  0.51100000000E-03 0. -1.
        -11    1    3    3    0    0  0.20033171397E+02 -0.85652972736E+01  0.31349518503E+02  0.38177016439E+02  0.51100000000E-03 0.  1.
        -12    1    3    3    0    0  0.42532944122E+01 -0.75147821146E+01  0.14548787493E+01  0.87566623643E+01  0.00000000000E+00 0.  1.
</event>
<event>
 7    1  0.1813014E-010  0.4778727E+02  0.7816164E-02  0.1312668E+00
        -11   -1    0    0    0    0  0.00000000000E+00  0.00000000000E+00  0.45593999997E+02  0.45594000000E+02  0.51100000000E-03 0.  1.
         11   -1    0    0    0    0 -0.00000000000E+00 -0.00000000000E+00 -0.45593999997E+02  0.45594000000E+02  0.51100000000E-03 0. -1.
    9900012    2    1    2    0    0  0.10713197883E+01  0.16629008466E+02  0.40074327118E+02  0.47787270252E+02  0.19999996387E+02 0.  0.
         12    1    1    2    0    0 -0.10713197883E+01 -0.16629008466E+02 -0.40074327118E+02  0.43400729748E+02  0.00000000000E+00 0. -1.
         11    1    3    3    0    0  0.43939376216E+01  0.88976604732E+01  0.25049830003E+02  0.26943812520E+02  0.51100000000E-03 0. -1.
        -11    1    3    3    0    0  0.12244190008E+01  0.80861366508E+01  0.13929671250E+02  0.16153035294E+02  0.51100000000E-03 0.  1.
        -12    1    3    3    0    0 -0.45470368341E+01 -0.35478865766E+00  0.10948258658E+01  0.46904224371E+01  0.00000000000E+00 0.  1.
</event>
<event>
 7    1  0.1813014E-010  0.4778727E+02  0.7816164E-02  0.1312668E+00
        -11   -1    0    0    0    0  0.00000000000E+00  0.00000000000E+00  0.45593999997E+02  0.45594000000E+02  0.51100000000E-03 0.  1.
         11   -1    0    0    0    0 -0.00000000000E+00 -0.00000000000E+00 -0.45593999997E+02  0.45594000000E+02  0.51100000000E-03 0. -1.
    9900012    2    1    2    0    0  0.29862126175E+02  0.31379010659E+02  0.26896652195E+01  0.47787272027E+02  0.20000004478E+02 0.  0.
         12    1    1    2    0    0 -0.29862126175E+02 -0.31379010659E+02 -0.26896652195E+01  0.43400727973E+02  0.00000000000E+00 0. -1.
         11    1    3    3    0    0 -0.92897201945E+00  0.66831191267E+01  0.10635597867E+00  0.67482132546E+01  0.51100000000E-03 0. -1.
        -11    1    3    3    0    0  0.18797246050E+02  0.18699897126E+02 -0.26461603108E+01  0.26646290102E+02  0.51100000000E-03 0.  1.
        -12    1    3    3    0    0  0.11993852145E+02  0.59959944066E+01  0.52294695516E+01  0.14392768670E+02  0.00000000000E+00 0.  1.
</event>
<event>
 7    1  0.1813014E-010  0.4778727E+02  0.7816164E-02  0.1312668E+00
        -11   -1    0    0    0    0  0.00000000000E+00  0.00000000000E+00  0.45593999997E+02  0.45594000000E+02  0.51100000000E-03 0. -1.
         11   -1    0    0    0    0 -0.00000000000E+00 -0.00000000000E+00 -0.45593999997E+02  0.45594000000E+02  0.51100000000E-03 0.  1.
    9900012    2    1    2    0    0  0.12924546364E+02  0.20647667891E+02 -0.35920096763E+02  0.47787269136E+02  0.19999991297E+02 0.  0.
         12    1    1    2    0    0 -0.12924546364E+02 -0.20647667891E+02  0.35920096763E+02  0.43400730864E+02  0.00000000000E+00 0. -1.
         11    1    3    3    0    0  0.73759871034E+01  0.10958736727E+02 -0.13986315483E+02  0.19238402154E+02  0.51100000000E-03 0. -1.
        -11    1    3    3    0    0  0.56056633296E+01  0.13404004527E+02 -0.18102044236E+02  0.23211523097E+02  0.51100000000E-03 0.  1.
         12    1    3    3    0    0 -0.57104069313E-01 -0.37150733621E+01 -0.38317370446E+01  0.53373438843E+01  0.00000000000E+00 0. -1.
</event>
<event>
 7    1  0.1813014E-010  0.4778727E+02  0.7816164E-02  0.1312668E+00
        -11   -1    0    0    0    0  0.00000000000E+00  0.00000000000E+00  0.45593999997E+02  0.45594000000E+02  0.51100000000E-03 0.  1.
         11   -1    0    0    0    0 -0.00000000000E+00 -0.00000000000E+00 -0.45593999997E+02  0.45594000000E+02  0.51100000000E-03 0. -1.
    9900012    2    1    2    0    0  0.19320611466E+02 -0.38499545058E+02  0.53030701959E+01  0.47787267857E+02  0.19999985466E+02 0.  0.
         12    1    1    2    0    0 -0.19320611466E+02  0.38499545058E+02 -0.53030701959E+01  0.43400732143E+02  0.00000000000E+00 0. -1.
         11    1    3    3    0    0  0.12204741414E+02 -0.34642767453E+02  0.51363808909E+01  0.37087187258E+02  0.51100000000E-03 0. -1.
        -11    1    3    3    0    0 -0.12757300195E+01  0.16924473094E+00 -0.47212371921E+00  0.13707778554E+01  0.51100000000E-03 0.  1.
        -12    1    3    3    0    0  0.83916000710E+01 -0.40260223359E+01  0.63881302418E+00  0.93293027435E+01  0.00000000000E+00 0.  1.
</event>
<event>
 7    1  0.1813014E-010  0.4778727E+02  0.7816164E-02  0.1312668E+00
        -11   -1    0    0    0    0  0.00000000000E+00  0.00000000000E+00  0.45593999997E+02  0.45594000000E+02  0.51100000000E-03 0. -1.
         11   -1    0    0    0    0 -0.00000000000E+00 -0.00000000000E+00 -0.45593999997E+02  0.45594000000E+02  0.51100000000E-03 0.  1.
    9900012    2    1    2    0    0 -0.25693262857E+02 -0.34268865760E+02  0.70088650704E+01  0.47787272976E+02  0.20000008805E+02 0.  0.
         12    1    1    2    0    0  0.25693262857E+02  0.34268865760E+02 -0.70088650704E+01  0.43400727024E+02  0.00000000000E+00 0. -1.
         11    1    3    3    0    0 -0.41463685476E+01 -0.47829593870E+01  0.44624613469E+01  0.77448456514E+01  0.51100000000E-03 0. -1.
        -11    1    3    3    0    0 -0.15386882779E+02 -0.28959398034E+02 -0.11966446941E+01  0.32815161967E+02  0.51100000000E-03 0.  1.
        -12    1    3    3    0    0 -0.61600115300E+01 -0.52650833841E+00  0.37430484176E+01  0.72272653567E+01  0.00000000000E+00 0.  1.
</event>
<event>
 7    1  0.1813014E-010  0.4778727E+02  0.7816164E-02  0.1312668E+00
        -11   -1    0    0    0    0  0.00000000000E+00  0.00000000000E+00  0.45593999997E+02  0.45594000000E+02  0.51100000000E-03 0. -1.
         11   -1    0    0    0    0 -0.00000000000E+00 -0.00000000000E+00 -0.45593999997E+02  0.45594000000E+02  0.51100000000E-03 0.  1.
    9900012    2    1    2    0    0 -0.14975118016E+02 -0.40593916649E+02  0.33915905174E+01  0.47787272878E+02  0.20000008360E+02 0.  0.
         12    1    1    2    0    0  0.14975118016E+02  0.40593916649E+02 -0.33915905174E+01  0.43400727122E+02  0.00000000000E+00 0. -1.
         11    1    3    3    0    0 -0.21890168670E+01 -0.14702874751E+02 -0.57693612589E+01  0.15945276742E+02  0.51100000000E-03 0. -1.
        -11    1    3    3    0    0 -0.53846976147E+01 -0.24973989068E+01  0.22840565615E+01  0.63599437371E+01  0.51100000000E-03 0.  1.
        -12    1    3    3    0    0 -0.74014035339E+01 -0.23393642991E+02  0.68768952148E+01  0.25482052399E+02  0.00000000000E+00 0.  1.
</event>
<event>
 7    1  0.1813014E-010  0.4778727E+02  0.7816164E-02  0.1312668E+00
        -11   -1    0    0    0    0  0.00000000000E+00  0.00000000000E+00  0.45593999997E+02  0.45594000000E+02  0.51100000000E-03 0.  1.
         11   -1    0    0    0    0 -0.00000000000E+00 -0.00000000000E+00 -0.45593999997E+02  0.45594000000E+02  0.51100000000E-03 0. -1.
    9900012    2    1    2    0    0 -0.31370108052E+02 -0.28432562391E+01  0.29857253100E+02  0.47787270191E+02  0.19999996109E+02 0.  0.
         12    1    1    2    0    0  0.31370108052E+02  0.28432562391E+01 -0.29857253100E+02  0.43400729809E+02  0.00000000000E+00 0. -1.
         11    1    3    3    0    0 -0.24107933527E+02 -0.92215840574E+01  0.18959108969E+02  0.32026206216E+02  0.51100000000E-03 0. -1.
        -11    1    3    3    0    0 -0.65926353100E+01  0.32613971625E+01  0.45268156199E+01  0.86366435437E+01  0.51100000000E-03 0.  1.
         12    1    3    3    0    0 -0.66953921562E+00  0.31169306558E+01  0.63713285118E+01  0.71244204311E+01  0.00000000000E+00 0. -1.
</event>
<event>
 7    1  0.1813014E-010  0.4778728E+02  0.7816164E-02  0.1312668E+00
        -11   -1    0    0    0    0  0.00000000000E+00  0.00000000000E+00  0.45593999997E+02  0.45594000000E+02  0.51100000000E-03 0.  1.
         11   -1    0    0    0    0 -0.00000000000E+00 -0.00000000000E+00 -0.45593999997E+02  0.45594000000E+02  0.51100000000E-03 0. -1.
    9900012    2    1    2    0    0  0.83350601153E+01  0.37876523728E+02  0.19481229318E+02  0.47787279123E+02  0.20000036835E+02 0.  0.
         12    1    1    2    0    0 -0.83350601153E+01 -0.37876523728E+02 -0.19481229318E+02  0.43400720877E+02  0.00000000000E+00 0. -1.
         11    1    3    3    0    0  0.11307822775E+02  0.14175284442E+02  0.24677212750E+01  0.18300141898E+02  0.51100000000E-03 0. -1.
        -11    1    3    3    0    0 -0.25227808975E+01  0.94423450894E+01  0.60446793574E+01  0.11491755873E+02  0.51100000000E-03 0.  1.
        -12    1    3    3    0    0 -0.44998176216E+00  0.14258894197E+02  0.10968828686E+02  0.17995381353E+02  0.00000000000E+00 0.  1.
</event>
<event>
 7    1  0.1813014E-010  0.4778727E+02  0.7816164E-02  0.1312668E+00
        -11   -1    0    0    0    0  0.00000000000E+00  0.00000000000E+00  0.45593999997E+02  0.45594000000E+02  0.51100000000E-03 0.  1.
         11   -1    0    0    0    0 -0.00000000000E+00 -0.00000000000E+00 -0.45593999997E+02  0.45594000000E+02  0.51100000000E-03 0. -1.
    9900012    2    1    2    0    0  0.95675994301E+00  0.10328068600E+02  0.42143077901E+02  0.47787269527E+02  0.19999993083E+02 0.  0.
         12    1    1    2    0    0 -0.95675994301E+00 -0.10328068600E+02 -0.42143077901E+02  0.43400730473E+02  0.00000000000E+00 0. -1.
         11    1    3    3    0    0  0.33381440756E+00  0.77376299681E+01  0.72820061849E+01  0.10630614466E+02  0.51100000000E-03 0. -1.
        -11    1    3    3    0    0  0.31840165515E+01 -0.33378163056E+01  0.59262817775E+01  0.75099796975E+01  0.51100000000E-03 0.  1.
         12    1    3    3    0    0 -0.25610710160E+01  0.59282549378E+01  0.28934789938E+02  0.29646675364E+02  0.00000000000E+00 0. -1.
</event>
<event>
 7    1  0.1813014E-010  0.4778727E+02  0.7816164E-02  0.1312668E+00
        -11   -1    0    0    0    0  0.00000000000E+00  0.00000000000E+00  0.45593999997E+02  0.45594000000E+02  0.51100000000E-03 0.  1.
         11   -1    0    0    0    0 -0.00000000000E+00 -0.00000000000E+00 -0.45593999997E+02  0.45594000000E+02  0.51100000000E-03 0. -1.
    9900012    2    1    2    0    0  0.80576713851E+01 -0.41151584490E+02  0.11191266472E+02  0.47787269367E+02  0.19999992353E+02 0.  0.
         12    1    1    2    0    0 -0.80576713851E+01  0.41151584490E+02 -0.11191266472E+02  0.43400730633E+02  0.00000000000E+00 0. -1.
         11    1    3    3    0    0  0.28597050552E+01 -0.24327580924E+02  0.21325639648E+01  0.24587739546E+02  0.51100000000E-03 0. -1.
        -11    1    3    3    0    0  0.73935263910E+01 -0.15964420965E+02  0.10448955635E+02  0.20462346966E+02  0.51100000000E-03 0.  1.
        -12    1    3    3    0    0 -0.21955600611E+01 -0.85958260120E+00 -0.13902531272E+01  0.27371828561E+01  0.00000000000E+00 0.  1.
</event>
<event>
 7    1  0.1813014E-010  0.4778727E+02  0.7816164E-02  0.1312668E+00
        -11   -1    0    0    0    0  0.00000000000E+00  0.00000000000E+00  0.45593999997E+02  0.45594000000E+02  0.51100000000E-03 0. -1.
         11   -1    0    0    0    0 -0.00000000000E+00 -0.00000000000E+00 -0.45593999997E+02  0.45594000000E+02  0.51100000000E-03 0.  1.
    9900012    2    1    2    0    0  0.17266298007E+02 -0.25748086750E+02 -0.30373246984E+02  0.47787272466E+02  0.20000006482E+02 0.  0.
         12    1    1    2    0    0 -0.17266298007E+02  0.25748086750E+02  0.30373246984E+02  0.43400727534E+02  0.00000000000E+00 0. -1.
         11    1    3    3    0    0  0.21981385349E+01 -0.74764372309E+00  0.14016505470E+00  0.23260332454E+01  0.51100000000E-03 0. -1.
        -11    1    3    3    0    0  0.17008920602E+02 -0.17105840313E+02 -0.16386538696E+02  0.29162163903E+02  0.51100000000E-03 0.  1.
        -12    1    3    3    0    0 -0.19407611292E+01 -0.78946027137E+01 -0.14126873343E+02  0.16299075318E+02  0.00000000000E+00 0.  1.
</event>
<event>
 7    1  0.1813014E-010  0.4778727E+02  0.7816164E-02  0.1312668E+00
        -11   -1    0    0    0    0  0.00000000000E+00  0.00000000000E+00  0.45593999997E+02  0.45594000000E+02  0.51100000000E-03 0.  1.
         11   -1    0    0    0    0 -0.00000000000E+00 -0.00000000000E+00 -0.45593999997E+02  0.45594000000E+02  0.51100000000E-03 0. -1.
    9900012    2    1    2    0    0  0.20433491970E+02  0.57446453560E+01  0.37856234233E+02  0.47787274031E+02  0.20000013615E+02 0.  0.
         12    1    1    2    0    0 -0.20433491970E+02 -0.57446453560E+01 -0.37856234233E+02  0.43400725969E+02  0.00000000000E+00 0. -1.
         11    1    3    3    0    0  0.45422843312E+01 -0.36379152735E+01  0.20333886582E+01  0.61645311403E+01  0.51100000000E-03 0. -1.
        -11    1    3    3    0    0  0.67921922475E+01  0.68686404252E+01  0.90594512291E+01  0.13243328647E+02  0.51100000000E-03 0.  1.
        -12    1    3    3    0    0  0.90990153912E+01  0.25139202044E+01  0.26763394346E+02  0.28379414243E+02  0.00000000000E+00 0.  1.
</event>
<event>
 7    1  0.1813014E-010  0.4778723E+02  0.7816164E-02  0.1312668E+00
        -11   -1    0    0    0    0  0.00000000000E+00  0.00000000000E+00  0.45593999997E+02  0.45594000000E+02  0.51100000000E-03 0.  1.
         11   -1    0    0    0    0 -0.00000000000E+00 -0.00000000000E+00 -0.45593999997E+02  0.45594000000E+02  0.51100000000E-03 0. -1.
    9900012    2    1    2    0    0  0.26598348790E+02 -0.28388697566E+02  0.19241521642E+02  0.47787234304E+02  0.19999832486E+02 0.  0.
         12    1    1    2    0    0 -0.26598348790E+02  0.28388697566E+02 -0.19241521642E+02  0.43400765696E+02  0.00000000000E+00 0. -1.
         11    1    3    3    0    0 -0.56803092532E+00 -0.40981659336E+01 -0.10945154035E+01  0.42796714104E+01  0.51100000000E-03 0. -1.
        -11    1    3    3    0    0  0.20104477288E+02 -0.18884642917E+02  0.88232989198E+01  0.28959805753E+02  0.51100000000E-03 0.  1.
         12    1    3    3    0    0  0.70619024274E+01 -0.54058887158E+01  0.11512738125E+02  0.14547757141E+02  0.00000000000E+00 0. -1.
</event>
<event>
 7    1  0.1813014E-010  0.4778727E+02  0.7816164E-02  0.1312668E+00
        -11   -1    0    0    0    0  0.00000000000E+00  0.00000000000E+00  0.45593999997E+02  0.45594000000E+02  0.51100000000E-03 0.  1.
         11   -1    0    0    0    0 -0.00000000000E+00 -0.00000000000E+00 -0.45593999997E+02  0.45594000000E+02  0.51100000000E-03 0. -1.
    9900012    2    1    2    0    0 -0.35456773150E+02  0.16553340950E+02  0.18773046563E+02  0.47787272632E+02  0.20000007241E+02 0.  0.
         12    1    1    2    0    0  0.35456773150E+02 -0.16553340950E+02 -0.18773046563E+02  0.43400727368E+02  0.00000000000E+00 0. -1.
         11    1    3    3    0    0 -0.51407415820E+01  0.15324466099E+01  0.96434059338E+01  0.11034985043E+02  0.51100000000E-03 0. -1.
        -11    1    3    3    0    0 -0.15145001726E+02  0.13003173942E+02  0.76473640286E+01  0.21376056387E+02  0.51100000000E-03 0.  1.
        -12    1    3    3    0    0 -0.15171029842E+02  0.20177203980E+01  0.14822766004E+01  0.15376231202E+02  0.00000000000E+00 0.  1.
</event>
<event>
 7    1  0.1813014E-010  0.4778727E+02  0.7816164E-02  0.1312668E+00
        -11   -1    0    0    0    0  0.00000000000E+00  0.00000000000E+00  0.45593999997E+02  0.45594000000E+02  0.51100000000E-03 0. -1.
         11   -1    0    0    0    0 -0.00000000000E+00 -0.00000000000E+00 -0.45593999997E+02  0.45594000000E+02  0.51100000000E-03 0.  1.
    9900012    2    1    2    0    0 -0.74699935249E+01  0.30213233240E+02 -0.30248690724E+02  0.47787267788E+02  0.19999985152E+02 0.  0.
         12    1    1    2    0    0  0.74699935249E+01 -0.30213233240E+02  0.30248690724E+02  0.43400732212E+02  0.00000000000E+00 0. -1.
         11    1    3    3    0    0  0.19962510913E+01  0.10617506520E+02 -0.99093204388E+01  0.14659846348E+02  0.51100000000E-03 0.  1.
        -11    1    3    3    0    0 -0.63351857750E+01  0.94324236724E+01 -0.19359612608E+02  0.22447712483E+02  0.51100000000E-03 0. -1.
         12    1    3    3    0    0 -0.31310588413E+01  0.10163303048E+02 -0.97975767703E+00  0.10679708957E+02  0.00000000000E+00 0. -1.
</event>
<event>
 7    1  0.1813014E-010  0.4778727E+02  0.7816164E-02  0.1312668E+00
        -11   -1    0    0    0    0  0.00000000000E+00  0.00000000000E+00  0.45593999997E+02  0.45594000000E+02  0.51100000000E-03 0.  1.
         11   -1    0    0    0    0 -0.00000000000E+00 -0.00000000000E+00 -0.45593999997E+02  0.45594000000E+02  0.51100000000E-03 0. -1.
    9900012    2    1    2    0    0 -0.28544592263E+00 -0.12761304354E+02  0.41481214385E+02  0.47787268266E+02  0.19999987331E+02 0.  0.
         12    1    1    2    0    0  0.28544592263E+00  0.12761304354E+02 -0.41481214385E+02  0.43400731734E+02  0.00000000000E+00 0. -1.
         11    1    3    3    0    0 -0.80584511439E+00 -0.19958481191E+01 -0.10658663367E-01  0.21524195528E+01  0.51100000000E-03 0. -1.
        -11    1    3    3    0    0 -0.10173320745E+01  0.39494325731E+01  0.69578047104E+01  0.80649878393E+01  0.51100000000E-03 0.  1.
        -12    1    3    3    0    0  0.15377312663E+01 -0.14714888808E+02  0.34534068338E+02  0.37569860874E+02  0.00000000000E+00 0.  1.
</event>
<event>
 7    1  0.1813014E-010  0.4778727E+02  0.7816164E-02  0.1312668E+00
        -11   -1    0    0    0    0  0.00000000000E+00  0.00000000000E+00  0.45593999997E+02  0.45594000000E+02  0.51100000000E-03 0.  1.
         11   -1    0    0    0    0 -0.00000000000E+00 -0.00000000000E+00 -0.45593999997E+02  0.45594000000E+02  0.51100000000E-03 0. -1.
    9900012    2    1    2    0    0 -0.19495142036E+02  0.23833096946E+02  0.30586699816E+02  0.47787270989E+02  0.19999999746E+02 0.  0.
         12    1    1    2    0    0  0.19495142036E+02 -0.23833096946E+02 -0.30586699816E+02  0.43400729011E+02  0.00000000000E+00 0. -1.
         11    1    3    3    0    0 -0.26484111453E+01  0.36208322290E+01  0.11106536520E+02  0.11978299602E+02  0.51100000000E-03 0. -1.
        -11    1    3    3    0    0 -0.16736312458E+02  0.15604800049E+02  0.20895587871E+02  0.30987731960E+02  0.51100000000E-03 0.  1.
         12    1    3    3    0    0 -0.11041843297E+00  0.46074646675E+01 -0.14154245740E+01  0.48212394275E+01  0.00000000000E+00 0. -1.
</event>
<event>
 7    1  0.1813014E-010  0.4778727E+02  0.7816164E-02  0.1312668E+00
        -11   -1    0    0    0    0  0.00000000000E+00  0.00000000000E+00  0.45593999997E+02  0.45594000000E+02  0.51100000000E-03 0.  1.
         11   -1    0    0    0    0 -0.00000000000E+00 -0.00000000000E+00 -0.45593999997E+02  0.45594000000E+02  0.51100000000E-03 0. -1.
    9900012    2    1    2    0    0 -0.21065020699E+02  0.10429414837E+02  0.36484456607E+02  0.47787269997E+02  0.19999995224E+02 0.  0.
         12    1    1    2    0    0  0.21065020699E+02 -0.10429414837E+02 -0.36484456607E+02  0.43400730003E+02  0.00000000000E+00 0. -1.
         11    1    3    3    0    0 -0.32383017649E+01  0.55239554340E+01  0.51567253286E+01  0.82214657046E+01  0.51100000000E-03 0. -1.
        -11    1    3    3    0    0 -0.44025434682E+01  0.81840823212E+01  0.71800081527E+01  0.11743683824E+02  0.51100000000E-03 0.  1.
        -12    1    3    3    0    0 -0.13424175466E+02 -0.32786229180E+01  0.24147723125E+02  0.27822120468E+02  0.00000000000E+00 0.  1.
</event>
<event>
 7    1  0.1813014E-010  0.4778727E+02  0.7816164E-02  0.1312668E+00
        -11   -1    0    0    0    0  0.00000000000E+00  0.00000000000E+00  0.45593999997E+02  0.45594000000E+02  0.51100000000E-03 0.  1.
         11   -1    0    0    0    0 -0.00000000000E+00 -0.00000000000E+00 -0.45593999997E+02  0.45594000000E+02  0.51100000000E-03 0. -1.
    9900012    2    1    2    0    0 -0.63931256913E+01 -0.32129248827E+02  0.28468622305E+02  0.47787272561E+02  0.20000006917E+02 0.  0.
         12    1    1    2    0    0  0.63931256913E+01  0.32129248827E+02 -0.28468622305E+02  0.43400727439E+02  0.00000000000E+00 0. -1.
         11    1    3    3    0    0 -0.95669821788E+01 -0.13987098333E+02  0.18395867848E+02  0.25011477804E+02  0.51100000000E-03 0. -1.
        -11    1    3    3    0    0 -0.98692547292E-01 -0.16606937092E+02  0.69645595625E+01  0.18008475503E+02  0.51100000000E-03 0.  1.
        -12    1    3    3    0    0  0.32725490347E+01 -0.15352134023E+01  0.31081948937E+01  0.47673192543E+01  0.00000000000E+00 0.  1.
</event>
<event>
 7    1  0.1813014E-010  0.4778727E+02  0.7816164E-02  0.1312668E+00
        -11   -1    0    0    0    0  0.00000000000E+00  0.00000000000E+00  0.45593999997E+02  0.45594000000E+02  0.51100000000E-03 0. -1.
         11   -1    0    0    0    0 -0.00000000000E+00 -0.00000000000E+00 -0.45593999997E+02  0.45594000000E+02  0.51100000000E-03 0.  1.
    9900012    2    1    2    0    0 -0.17169346047E+02 -0.24274667087E+02  0.31616089513E+02  0.47787273947E+02  0.20000013232E+02 0.  0.
         12    1    1    2    0    0  0.17169346047E+02  0.24274667087E+02 -0.31616089513E+02  0.43400726053E+02  0.00000000000E+00 0. -1.
         11    1    3    3    0    0 -0.71534162068E+01 -0.10605663306E+02  0.17506648055E+02  0.21682577890E+02  0.51100000000E-03 0. -1.
        -11    1    3    3    0    0 -0.99228076173E+01 -0.18799570630E+01  0.54435448992E+01  0.11472947786E+02  0.51100000000E-03 0.  1.
        -12    1    3    3    0    0 -0.93122222475E-01 -0.11789046719E+02  0.86658965594E+01  0.14631748271E+02  0.00000000000E+00 0.  1.
</event>
<event>
 7    1  0.1813014E-010  0.4778727E+02  0.7816164E-02  0.1312668E+00
        -11   -1    0    0    0    0  0.00000000000E+00  0.00000000000E+00  0.45593999997E+02  0.45594000000E+02  0.51100000000E-03 0. -1.
         11   -1    0    0    0    0 -0.00000000000E+00 -0.00000000000E+00 -0.45593999997E+02  0.45594000000E+02  0.51100000000E-03 0.  1.
    9900012    2    1    2    0    0  0.43479883620E+01  0.40603587571E+02 -0.14699206287E+02  0.47787274293E+02  0.20000014810E+02 0.  0.
         12    1    1    2    0    0 -0.43479883620E+01 -0.40603587571E+02  0.14699206287E+02  0.43400725707E+02  0.00000000000E+00 0. -1.
         11    1    3    3    0    0  0.96268994169E+00  0.64898697008E+01  0.17945542841E+01  0.68018825333E+01  0.51100000000E-03 0. -1.
        -11    1    3    3    0    0  0.27713958923E+01  0.98031899004E+01 -0.12845752743E+02  0.16395015438E+02  0.51100000000E-03 0.  1.
         12    1    3    3    0    0  0.61390252809E+00  0.24310527970E+02 -0.36480078280E+01  0.24590376321E+02  0.00000000000E+00 0. -1.
</event>
<event>
 7    1  0.1813014E-010  0.4778727E+02  0.7816164E-02  0.1312668E+00
        -11   -1    0    0    0    0  0.00000000000E+00  0.00000000000E+00  0.45593999997E+02  0.45594000000E+02  0.51100000000E-03 0.  1.
         11   -1    0    0    0    0 -0.00000000000E+00 -0.00000000000E+00 -0.45593999997E+02  0.45594000000E+02  0.51100000000E-03 0. -1.
    9900012    2    1    2    0    0 -0.33014546551E+02 -0.13280858957E+02  0.24845153929E+02  0.47787272213E+02  0.20000005329E+02 0.  0.
         12    1    1    2    0    0  0.33014546551E+02  0.13280858957E+02 -0.24845153929E+02  0.43400727787E+02  0.00000000000E+00 0. -1.
         11    1    3    3    0    0 -0.53553669822E+01  0.59258045960E+00  0.62348516650E+01  0.82404176266E+01  0.51100000000E-03 0. -1.
        -11    1    3    3    0    0 -0.19641997770E+01  0.33741531231E+01  0.27238183977E+01  0.47604807516E+01  0.51100000000E-03 0.  1.
         12    1    3    3    0    0 -0.25694979792E+02 -0.17247592540E+02  0.15886483867E+02  0.34786373835E+02  0.00000000000E+00 0. -1.
</event>
<event>
 7    1  0.1813014E-010  0.4778727E+02  0.7816164E-02  0.1312668E+00
        -11   -1    0    0    0    0  0.00000000000E+00  0.00000000000E+00  0.45593999997E+02  0.45594000000E+02  0.51100000000E-03 0.  1.
         11   -1    0    0    0    0 -0.00000000000E+00 -0.00000000000E+00 -0.45593999997E+02  0.45594000000E+02  0.51100000000E-03 0. -1.
    9900012    2    1    2    0    0  0.13354016548E+02  0.41207650115E+02 -0.26876653356E+01  0.47787265779E+02  0.19999975992E+02 0.  0.
         12    1    1    2    0    0 -0.13354016548E+02 -0.41207650115E+02  0.26876653356E+01  0.43400734221E+02  0.00000000000E+00 0. -1.
         11    1    3    3    0    0  0.29356684974E+01  0.26532133977E+02 -0.66584803250E+01  0.27511954555E+02  0.51100000000E-03 0. -1.
        -11    1    3    3    0    0  0.86496023198E+01  0.13568881771E+02  0.34849156237E+00  0.16095080598E+02  0.51100000000E-03 0.  1.
         12    1    3    3    0    0  0.17687457305E+01  0.11066343666E+01  0.36223234270E+01  0.41802306265E+01  0.00000000000E+00 0. -1.
</event>
<event>
 7    1  0.1813014E-010  0.4778727E+02  0.7816164E-02  0.1312668E+00
        -11   -1    0    0    0    0  0.00000000000E+00  0.00000000000E+00  0.45593999997E+02  0.45594000000E+02  0.51100000000E-03 0.  1.
         11   -1    0    0    0    0 -0.00000000000E+00 -0.00000000000E+00 -0.45593999997E+02  0.45594000000E+02  0.51100000000E-03 0. -1.
    9900012    2    1    2    0    0 -0.22063975574E+01  0.23646577332E+02  0.36326218537E+02  0.47787274627E+02  0.20000016334E+02 0.  0.
         12    1    1    2    0    0  0.22063975574E+01 -0.23646577332E+02 -0.36326218537E+02  0.43400725373E+02  0.00000000000E+00 0. -1.
         11    1    3    3    0    0  0.74450748499E+00 -0.28508911443E+01  0.82681420895E+01  0.87774737587E+01  0.51100000000E-03 0.  1.
        -11    1    3    3    0    0 -0.31564646101E+00  0.11143229309E+02  0.14958679562E+02  0.18655650260E+02  0.51100000000E-03 0. -1.
        -12    1    3    3    0    0 -0.26352585814E+01  0.15354239168E+02  0.13099396885E+02  0.20354150608E+02  0.00000000000E+00 0.  1.
</event>
<event>
 7    1  0.1813014E-010  0.4778727E+02  0.7816164E-02  0.1312668E+00
        -11   -1    0    0    0    0  0.00000000000E+00  0.00000000000E+00  0.45593999997E+02  0.45594000000E+02  0.51100000000E-03 0.  1.
         11   -1    0    0    0    0 -0.00000000000E+00 -0.00000000000E+00 -0.45593999997E+02  0.45594000000E+02  0.51100000000E-03 0. -1.
    9900012    2    1    2    0    0  0.35810185608E+02  0.61629036086E+00  0.24512737341E+02  0.47787268451E+02  0.19999988174E+02 0.  0.
         12    1    1    2    0    0 -0.35810185608E+02 -0.61629036086E+00 -0.24512737341E+02  0.43400731549E+02  0.00000000000E+00 0. -1.
         11    1    3    3    0    0  0.13315942050E+01 -0.30428457157E+01 -0.10123478617E+01  0.34723049450E+01  0.51100000000E-03 0. -1.
        -11    1    3    3    0    0  0.28505507721E+02  0.68583370098E+01  0.22147774193E+02  0.36744042496E+02  0.51100000000E-03 0.  1.
        -12    1    3    3    0    0  0.59730836820E+01 -0.31992009332E+01  0.33773110099E+01  0.75709210100E+01  0.00000000000E+00 0.  1.
</event>
<event>
 7    1  0.1813014E-010  0.4778727E+02  0.7816164E-02  0.1312668E+00
        -11   -1    0    0    0    0  0.00000000000E+00  0.00000000000E+00  0.45593999997E+02  0.45594000000E+02  0.51100000000E-03 0.  1.
         11   -1    0    0    0    0 -0.00000000000E+00 -0.00000000000E+00 -0.45593999997E+02  0.45594000000E+02  0.51100000000E-03 0. -1.
    9900012    2    1    2    0    0 -0.40707015512E+02 -0.98620700441E+01  0.11371101673E+02  0.47787268546E+02  0.19999988609E+02 0.  0.
         12    1    1    2    0    0  0.40707015512E+02  0.98620700441E+01 -0.11371101673E+02  0.43400731454E+02  0.00000000000E+00 0. -1.
         11    1    3    3    0    0 -0.11058736019E+02 -0.89181210795E+01 -0.79084251051E+00  0.14228631630E+02  0.51100000000E-03 0. -1.
        -11    1    3    3    0    0 -0.25451712598E+02 -0.40258414025E+01  0.82856277904E+01  0.27067484208E+02  0.51100000000E-03 0.  1.
         12    1    3    3    0    0 -0.41965668947E+01  0.30818924378E+01  0.38763163933E+01  0.64911527082E+01  0.00000000000E+00 0. -1.
</event>
<event>
 7    1  0.1813014E-010  0.4778727E+02  0.7816164E-02  0.1312668E+00
        -11   -1    0    0    0    0  0.00000000000E+00  0.00000000000E+00  0.45593999997E+02  0.45594000000E+02  0.51100000000E-03 0.  1.
         11   -1    0    0    0    0 -0.00000000000E+00 -0.00000000000E+00 -0.45593999997E+02  0.45594000000E+02  0.51100000000E-03 0. -1.
    9900012    2    1    2    0    0  0.64940538187E+01  0.68114548493E+01  0.42368084455E+02  0.47787271520E+02  0.20000002170E+02 0.  0.
         12    1    1    2    0    0 -0.64940538187E+01 -0.68114548493E+01 -0.42368084455E+02  0.43400728480E+02  0.00000000000E+00 0. -1.
         11    1    3    3    0    0 -0.28215527419E+01  0.71975961332E+01  0.70258071972E+01  0.10446459544E+02  0.51100000000E-03 0. -1.
        -11    1    3    3    0    0  0.11980320706E+01 -0.32228494993E+01  0.92697091490E+01  0.98868370930E+01  0.51100000000E-03 0.  1.
        -12    1    3    3    0    0  0.81175744900E+01  0.28367082154E+01  0.26072568109E+02  0.27453974883E+02  0.00000000000E+00 0.  1.
</event>
<event>
 7    1  0.1813014E-010  0.4778727E+02  0.7816164E-02  0.1312668E+00
        -11   -1    0    0    0    0  0.00000000000E+00  0.00000000000E+00  0.45593999997E+02  0.45594000000E+02  0.51100000000E-03 0.  1.
         11   -1    0    0    0    0 -0.00000000000E+00 -0.00000000000E+00 -0.45593999997E+02  0.45594000000E+02  0.51100000000E-03 0. -1.
    9900012    2    1    2    0    0 -0.90826720158E+01 -0.19252863982E+02  0.37821369571E+02  0.47787266150E+02  0.19999977684E+02 0.  0.
         12    1    1    2    0    0  0.90826720158E+01  0.19252863982E+02 -0.37821369571E+02  0.43400733850E+02  0.00000000000E+00 0. -1.
         11    1    3    3    0    0 -0.96249035402E+01 -0.72609451934E+01  0.16906645270E+02  0.20765229298E+02  0.51100000000E-03 0. -1.
        -11    1    3    3    0    0  0.87660263595E+00  0.15695951158E+01 -0.31800546607E+00  0.18257022611E+01  0.51100000000E-03 0.  1.
        -12    1    3    3    0    0 -0.33437111159E+00 -0.13561513905E+02  0.21232729767E+02  0.25196334590E+02  0.00000000000E+00 0.  1.
</event>
<event>
 7    1  0.1813014E-010  0.4778727E+02  0.7816164E-02  0.1312668E+00
        -11   -1    0    0    0    0  0.00000000000E+00  0.00000000000E+00  0.45593999997E+02  0.45594000000E+02  0.51100000000E-03 0.  1.
         11   -1    0    0    0    0 -0.00000000000E+00 -0.00000000000E+00 -0.45593999997E+02  0.45594000000E+02  0.51100000000E-03 0. -1.
    9900012    2    1    2    0    0 -0.11876355507E+01  0.20971402042E+02  0.37979115257E+02  0.47787269850E+02  0.19999994555E+02 0.  0.
         12    1    1    2    0    0  0.11876355507E+01 -0.20971402042E+02 -0.37979115257E+02  0.43400730150E+02  0.00000000000E+00 0. -1.
         11    1    3    3    0    0  0.22820709606E+01  0.63773729755E+01  0.17531302489E+01  0.69965848718E+01  0.51100000000E-03 0. -1.
        -11    1    3    3    0    0 -0.55853623804E+01  0.23186900723E+01  0.89083210214E+01  0.10767115689E+02  0.51100000000E-03 0.  1.
         12    1    3    3    0    0  0.21156558691E+01  0.12275338994E+02  0.27317663987E+02  0.30023569290E+02  0.00000000000E+00 0. -1.
</event>
<event>
 7    1  0.1813014E-010  0.4778727E+02  0.7816164E-02  0.1312668E+00
        -11   -1    0    0    0    0  0.00000000000E+00  0.00000000000E+00  0.45593999997E+02  0.45594000000E+02  0.51100000000E-03 0.  1.
         11   -1    0    0    0    0 -0.00000000000E+00 -0.00000000000E+00 -0.45593999997E+02  0.45594000000E+02  0.51100000000E-03 0. -1.
    9900012    2    1    2    0    0 -0.18661530266E+02 -0.14738678728E+02  0.36306223122E+02  0.47787271897E+02  0.20000003886E+02 0.  0.
         12    1    1    2    0    0  0.18661530266E+02  0.14738678728E+02 -0.36306223122E+02  0.43400728103E+02  0.00000000000E+00 0. -1.
         11    1    3    3    0    0 -0.13715938227E+02 -0.43066742828E+01  0.66527249081E+01  0.15840869730E+02  0.51100000000E-03 0. -1.
        -11    1    3    3    0    0 -0.36595851193E+01 -0.51255312832E+01  0.18180053923E+02  0.19240010267E+02  0.51100000000E-03 0.  1.
        -12    1    3    3    0    0 -0.12860069198E+01 -0.53064731621E+01  0.11473444291E+02  0.12706391900E+02  0.00000000000E+00 0.  1.
</event>
<event>
 7    1  0.1813014E-010  0.4778727E+02  0.7816164E-02  0.1312668E+00
        -11   -1    0    0    0    0  0.00000000000E+00  0.00000000000E+00  0.45593999997E+02  0.45594000000E+02  0.51100000000E-03 0.  1.
         11   -1    0    0    0    0 -0.00000000000E+00 -0.00000000000E+00 -0.45593999997E+02  0.45594000000E+02  0.51100000000E-03 0. -1.
    9900012    2    1    2    0    0  0.22625318238E+02  0.43447444983E+00  0.37034163057E+02  0.47787273892E+02  0.20000012982E+02 0.  0.
         12    1    1    2    0    0 -0.22625318238E+02 -0.43447444983E+00 -0.37034163057E+02  0.43400726108E+02  0.00000000000E+00 0. -1.
         11    1    3    3    0    0  0.97747130455E+01 -0.53665225399E+01  0.17487823570E+02  0.20740505123E+02  0.51100000000E-03 0.  1.
        -11    1    3    3    0    0  0.39633028395E+01  0.43270465602E+00 -0.92516346668E+00  0.40927900531E+01  0.51100000000E-03 0. -1.
         12    1    3    3    0    0  0.88873023530E+01  0.53682923337E+01  0.20471502954E+02  0.22953978716E+02  0.00000000000E+00 0. -1.
</event>
<event>
 7    1  0.1813014E-010  0.4778727E+02  0.7816164E-02  0.1312668E+00
        -11   -1    0    0    0    0  0.00000000000E+00  0.00000000000E+00  0.45593999997E+02  0.45594000000E+02  0.51100000000E-03 0. -1.
         11   -1    0    0    0    0 -0.00000000000E+00 -0.00000000000E+00 -0.45593999997E+02  0.45594000000E+02  0.51100000000E-03 0.  1.
    9900012    2    1    2    0    0 -0.28781449149E+02 -0.28385866926E+02 -0.15795369428E+02  0.47787274757E+02  0.20000016928E+02 0.  0.
         12    1    1    2    0    0  0.28781449149E+02  0.28385866926E+02  0.15795369428E+02  0.43400725243E+02  0.00000000000E+00 0. -1.
         11    1    3    3    0    0 -0.25255015166E+02 -0.20971768740E+02 -0.18466916271E+02  0.37665074962E+02  0.51100000000E-03 0. -1.
        -11    1    3    3    0    0 -0.18290282246E+01 -0.65168328921E+01 -0.77477354444E-01  0.67690810448E+01  0.51100000000E-03 0.  1.
         12    1    3    3    0    0 -0.16974057582E+01 -0.89726529348E+00  0.27490241971E+01  0.33531187499E+01  0.00000000000E+00 0. -1.
</event>
<event>
 7    1  0.1813014E-010  0.4778728E+02  0.7816164E-02  0.1312668E+00
        -11   -1    0    0    0    0  0.00000000000E+00  0.00000000000E+00  0.45593999997E+02  0.45594000000E+02  0.51100000000E-03 0.  1.
         11   -1    0    0    0    0 -0.00000000000E+00 -0.00000000000E+00 -0.45593999997E+02  0.45594000000E+02  0.51100000000E-03 0. -1.
    9900012    2    1    2    0    0 -0.17326332554E+02  0.24137162465E+02  0.31635714011E+02  0.47787276358E+02  0.20000024226E+02 0.  0.
         12    1    1    2    0    0  0.17326332554E+02 -0.24137162465E+02 -0.31635714011E+02  0.43400723642E+02  0.00000000000E+00 0. -1.
         11    1    3    3    0    0 -0.10023280288E+01  0.10807795537E+02  0.39186850046E+01  0.11539895938E+02  0.51100000000E-03 0. -1.
        -11    1    3    3    0    0 -0.71943759296E+00  0.22203032332E+01  0.96077982468E+01  0.98872202519E+01  0.51100000000E-03 0.  1.
        -12    1    3    3    0    0 -0.15604566933E+02  0.11109063695E+02  0.18109230760E+02  0.26360160168E+02  0.00000000000E+00 0.  1.
</event>
<event>
 7    1  0.1813014E-010  0.4778727E+02  0.7816164E-02  0.1312668E+00
        -11   -1    0    0    0    0  0.00000000000E+00  0.00000000000E+00  0.45593999997E+02  0.45594000000E+02  0.51100000000E-03 0.  1.
         11   -1    0    0    0    0 -0.00000000000E+00 -0.00000000000E+00 -0.45593999997E+02  0.45594000000E+02  0.51100000000E-03 0. -1.
    9900012    2    1    2    0    0 -0.15829093300E+02 -0.24765080742E+02  0.31933592779E+02  0.47787265367E+02  0.19999974116E+02 0.  0.
         12    1    1    2    0    0  0.15829093300E+02  0.24765080742E+02 -0.31933592779E+02  0.43400734633E+02  0.00000000000E+00 0. -1.
         11    1    3    3    0    0  0.13567140851E+01  0.26715906424E+00  0.46588171780E+01  0.48596939033E+01  0.51100000000E-03 0. -1.
        -11    1    3    3    0    0 -0.13012821064E+02 -0.74554741339E+01  0.10835486615E+02  0.18502037105E+02  0.51100000000E-03 0.  1.
        -12    1    3    3    0    0 -0.41729863215E+01 -0.17576765672E+02  0.16439288987E+02  0.24425534359E+02  0.00000000000E+00 0.  1.
</event>
<event>
 7    1  0.1813014E-010  0.4778727E+02  0.7816164E-02  0.1312668E+00
        -11   -1    0    0    0    0  0.00000000000E+00  0.00000000000E+00  0.45593999997E+02  0.45594000000E+02  0.51100000000E-03 0. -1.
         11   -1    0    0    0    0 -0.00000000000E+00 -0.00000000000E+00 -0.45593999997E+02  0.45594000000E+02  0.51100000000E-03 0.  1.
    9900012    2    1    2    0    0  0.14643202258E+02  0.90848832847E+01  0.39832961514E+02  0.47787270748E+02  0.19999998648E+02 0.  0.
         12    1    1    2    0    0 -0.14643202258E+02 -0.90848832847E+01 -0.39832961514E+02  0.43400729252E+02  0.00000000000E+00 0. -1.
         11    1    3    3    0    0  0.50858191896E+01  0.56175271531E+00  0.32190308152E+01  0.60451040184E+01  0.51100000000E-03 0. -1.
        -11    1    3    3    0    0  0.56331557939E+01 -0.46585023950E+00  0.23837145998E+01  0.61344564713E+01  0.51100000000E-03 0.  1.
         12    1    3    3    0    0  0.39242272746E+01  0.89889808089E+01  0.34230216099E+02  0.35607710258E+02  0.00000000000E+00 0. -1.
</event>
<event>
 7    1  0.1813014E-010  0.4778727E+02  0.7816164E-02  0.1312668E+00
        -11   -1    0    0    0    0  0.00000000000E+00  0.00000000000E+00  0.45593999997E+02  0.45594000000E+02  0.51100000000E-03 0.  1.
         11   -1    0    0    0    0 -0.00000000000E+00 -0.00000000000E+00 -0.45593999997E+02  0.45594000000E+02  0.51100000000E-03 0. -1.
    9900012    2    1    2    0    0 -0.32308037269E+02  0.36802024961E+01  0.28744913395E+02  0.47787271796E+02  0.20000003427E+02 0.  0.
         12    1    1    2    0    0  0.32308037269E+02 -0.36802024961E+01 -0.28744913395E+02  0.43400728204E+02  0.00000000000E+00 0. -1.
         11    1    3    3    0    0 -0.20895737298E+02  0.46842837503E+01  0.14331797885E+02  0.25767708132E+02  0.51100000000E-03 0. -1.
        -11    1    3    3    0    0 -0.94938965360E+01 -0.42807517742E+01  0.14913407077E+02  0.18189794339E+02  0.51100000000E-03 0.  1.
         12    1    3    3    0    0 -0.19184034348E+01  0.32766705200E+01 -0.50029156710E+00  0.38297693256E+01  0.00000000000E+00 0. -1.
</event>
<event>
 7    1  0.1813014E-010  0.4778728E+02  0.7816164E-02  0.1312668E+00
        -11   -1    0    0    0    0  0.00000000000E+00  0.00000000000E+00  0.45593999997E+02  0.45594000000E+02  0.51100000000E-03 0.  1.
         11   -1    0    0    0    0 -0.00000000000E+00 -0.00000000000E+00 -0.45593999997E+02  0.45594000000E+02  0.51100000000E-03 0. -1.
    9900012    2    1    2    0    0  0.42495605190E+02 -0.88170708306E+01  0.72208657947E-01  0.47787280967E+02  0.20000045242E+02 0.  0.
         12    1    1    2    0    0 -0.42495605190E+02  0.88170708306E+01 -0.72208657947E-01  0.43400719033E+02  0.00000000000E+00 0. -1.
         11    1    3    3    0    0  0.16241144226E+02 -0.12046450539E+02  0.22488731438E+01  0.20345740759E+02  0.51100000000E-03 0. -1.
        -11    1    3    3    0    0  0.16880704837E+02  0.14713775641E+01  0.19368897181E+01  0.17055048805E+02  0.51100000000E-03 0.  1.
         12    1    3    3    0    0  0.93737561269E+01  0.17580021443E+01 -0.41135542040E+01  0.10386491403E+02  0.00000000000E+00 0. -1.
</event>
<event>
 7    1  0.1813014E-010  0.4778727E+02  0.7816164E-02  0.1312668E+00
        -11   -1    0    0    0    0  0.00000000000E+00  0.00000000000E+00  0.45593999997E+02  0.45594000000E+02  0.51100000000E-03 0.  1.
         11   -1    0    0    0    0 -0.00000000000E+00 -0.00000000000E+00 -0.45593999997E+02  0.45594000000E+02  0.51100000000E-03 0. -1.
    9900012    2    1    2    0    0 -0.31864511949E+02 -0.26463230497E+02  0.12960468203E+02  0.47787269290E+02  0.19999992000E+02 0.  0.
         12    1    1    2    0    0  0.31864511949E+02  0.26463230497E+02 -0.12960468203E+02  0.43400730710E+02  0.00000000000E+00 0. -1.
         11    1    3    3    0    0 -0.19593210599E+02 -0.10814737713E+02  0.13307837071E+02  0.26037491837E+02  0.51100000000E-03 0. -1.
        -11    1    3    3    0    0  0.92012707537E+00 -0.12800683905E+01 -0.15452743201E+01  0.22075058108E+01  0.51100000000E-03 0.  1.
        -12    1    3    3    0    0 -0.13191428425E+02 -0.14368424394E+02  0.11979054525E+01  0.19542271642E+02  0.00000000000E+00 0.  1.
</event>
<event>
 7    1  0.1858127E-010  0.4778727E+02  0.7816164E-02  0.1312668E+00
        -11   -1    0    0    0    0  0.00000000000E+00  0.00000000000E+00  0.45593999997E+02  0.45594000000E+02  0.51100000000E-03 0.  1.
         11   -1    0    0    0    0 -0.00000000000E+00 -0.00000000000E+00 -0.45593999997E+02  0.45594000000E+02  0.51100000000E-03 0. -1.
    9900012    2    1    2    0    0  0.25002940185E+02  0.81161932925E+01  0.34534093836E+02  0.47787271336E+02  0.20000001331E+02 0.  0.
         12    1    1    2    0    0 -0.25002940185E+02 -0.81161932925E+01 -0.34534093836E+02  0.43400728664E+02  0.00000000000E+00 0. -1.
         11    1    3    3    0    0  0.13939085353E+02  0.93616440204E+01  0.78007798353E+01  0.18514606275E+02  0.51100000000E-03 0. -1.
        -11    1    3    3    0    0  0.54280577654E+01  0.15269956587E+01  0.12184412421E+02  0.13425923922E+02  0.51100000000E-03 0.  1.
         12    1    3    3    0    0  0.56357970664E+01 -0.27724463866E+01  0.14548901580E+02  0.15846741139E+02  0.00000000000E+00 0. -1.
</event>
<event>
 7    1  0.1813014E-010  0.4778727E+02  0.7816164E-02  0.1312668E+00
        -11   -1    0    0    0    0  0.00000000000E+00  0.00000000000E+00  0.45593999997E+02  0.45594000000E+02  0.51100000000E-03 0.  1.
         11   -1    0    0    0    0 -0.00000000000E+00 -0.00000000000E+00 -0.45593999997E+02  0.45594000000E+02  0.51100000000E-03 0. -1.
    9900012    2    1    2    0    0  0.21594847550E+02  0.37633474365E+02  0.10037321365E+01  0.47787270609E+02  0.19999998013E+02 0.  0.
         12    1    1    2    0    0 -0.21594847550E+02 -0.37633474365E+02 -0.10037321365E+01  0.43400729391E+02  0.00000000000E+00 0. -1.
         11    1    3    3    0    0  0.29503560779E+01  0.50102209151E+01 -0.65980986759E+01  0.87944198787E+01  0.51100000000E-03 0. -1.
        -11    1    3    3    0    0  0.42166128539E+01  0.14214507902E+02  0.22117029045E+01  0.14990786799E+02  0.51100000000E-03 0.  1.
        -12    1    3    3    0    0  0.14427878618E+02  0.18408745548E+02  0.53901279079E+01  0.24002063931E+02  0.00000000000E+00 0.  1.
</event>
<event>
 7    1  0.1813014E-010  0.4778727E+02  0.7816164E-02  0.1312668E+00
        -11   -1    0    0    0    0  0.00000000000E+00  0.00000000000E+00  0.45593999997E+02  0.45594000000E+02  0.51100000000E-03 0. -1.
         11   -1    0    0    0    0 -0.00000000000E+00 -0.00000000000E+00 -0.45593999997E+02  0.45594000000E+02  0.51100000000E-03 0.  1.
    9900012    2    1    2    0    0  0.49504226446E+01 -0.30815146966E+02 -0.30158633702E+02  0.47787272430E+02  0.20000006315E+02 0.  0.
         12    1    1    2    0    0 -0.49504226446E+01  0.30815146966E+02  0.30158633702E+02  0.43400727570E+02  0.00000000000E+00 0. -1.
         11    1    3    3    0    0 -0.12560629513E+01 -0.11008833850E+02 -0.91424158823E+01  0.14365092596E+02  0.51100000000E-03 0. -1.
        -11    1    3    3    0    0  0.10643371719E+02 -0.81916990981E+01 -0.92820953479E+01  0.16326132119E+02  0.51100000000E-03 0.  1.
        -12    1    3    3    0    0 -0.44368861235E+01 -0.11614614017E+02 -0.11734122472E+02  0.17096047714E+02  0.00000000000E+00 0.  1.
</event>
<event>
 7    1  0.1813014E-010  0.4778727E+02  0.7816164E-02  0.1312668E+00
        -11   -1    0    0    0    0  0.00000000000E+00  0.00000000000E+00  0.45593999997E+02  0.45594000000E+02  0.51100000000E-03 0.  1.
         11   -1    0    0    0    0 -0.00000000000E+00 -0.00000000000E+00 -0.45593999997E+02  0.45594000000E+02  0.51100000000E-03 0. -1.
    9900012    2    1    2    0    0  0.56740451832E+01 -0.42612446161E+02  0.59672317547E+01  0.47787271764E+02  0.20000003281E+02 0.  0.
         12    1    1    2    0    0 -0.56740451832E+01  0.42612446161E+02 -0.59672317547E+01  0.43400728236E+02  0.00000000000E+00 0. -1.
         11    1    3    3    0    0 -0.42715875867E+01 -0.22877819722E+01  0.30972185185E+01  0.57509277230E+01  0.51100000000E-03 0. -1.
        -11    1    3    3    0    0  0.11924058796E+01 -0.15402329003E+02  0.22734573447E+01  0.15614806405E+02  0.51100000000E-03 0.  1.
         12    1    3    3    0    0  0.87532268902E+01 -0.24922335187E+02  0.59655589155E+00  0.26421537636E+02  0.00000000000E+00 0. -1.
</event>
<event>
 7    1  0.1813014E-010  0.4778727E+02  0.7816164E-02  0.1312668E+00
        -11   -1    0    0    0    0  0.00000000000E+00  0.00000000000E+00  0.45593999997E+02  0.45594000000E+02  0.51100000000E-03 0.  1.
         11   -1    0    0    0    0 -0.00000000000E+00 -0.00000000000E+00 -0.45593999997E+02  0.45594000000E+02  0.51100000000E-03 0. -1.
    9900012    2    1    2    0    0 -0.27461318929E+02 -0.31796490284E+02  0.10884970174E+02  0.47787269506E+02  0.19999992987E+02 0.  0.
         12    1    1    2    0    0  0.27461318929E+02  0.31796490284E+02 -0.10884970174E+02  0.43400730494E+02  0.00000000000E+00 0. -1.
         11    1    3    3    0    0  0.10970350883E+01 -0.30682818290E+01  0.29409799488E+01  0.43894421841E+01  0.51100000000E-03 0. -1.
        -11    1    3    3    0    0 -0.93384799625E+00  0.40852104763E+00 -0.18120275233E+01  0.20790395698E+01  0.51100000000E-03 0.  1.
        -12    1    3    3    0    0 -0.27624506021E+02 -0.29136729503E+02  0.97560177489E+01  0.41318787752E+02  0.00000000000E+00 0.  1.
</event>
<event>
 7    1  0.1813014E-010  0.4778727E+02  0.7816164E-02  0.1312668E+00
        -11   -1    0    0    0    0  0.00000000000E+00  0.00000000000E+00  0.45593999997E+02  0.45594000000E+02  0.51100000000E-03 0. -1.
         11   -1    0    0    0    0 -0.00000000000E+00 -0.00000000000E+00 -0.45593999997E+02  0.45594000000E+02  0.51100000000E-03 0.  1.
    9900012    2    1    2    0    0  0.29739235532E+01 -0.25932876269E+02  0.34673692099E+02  0.47787271704E+02  0.20000003006E+02 0.  0.
         12    1    1    2    0    0 -0.29739235532E+01  0.25932876269E+02 -0.34673692099E+02  0.43400728296E+02  0.00000000000E+00 0. -1.
         11    1    3    3    0    0  0.38813441628E+01 -0.15668780019E+02  0.18666141776E+02  0.24677932427E+02  0.51100000000E-03 0. -1.
        -11    1    3    3    0    0  0.37720043651E+00 -0.15051939162E+01  0.13930074827E+02  0.14016236079E+02  0.51100000000E-03 0.  1.
        -12    1    3    3    0    0 -0.12846210462E+01 -0.87589023339E+01  0.20774754962E+01  0.90931031978E+01  0.00000000000E+00 0.  1.
</event>
<event>
 7    1  0.1813014E-010  0.4778727E+02  0.7816164E-02  0.1312668E+00
        -11   -1    0    0    0    0  0.00000000000E+00  0.00000000000E+00  0.45593999997E+02  0.45594000000E+02  0.51100000000E-03 0. -1.
         11   -1    0    0    0    0 -0.00000000000E+00 -0.00000000000E+00 -0.45593999997E+02  0.45594000000E+02  0.51100000000E-03 0.  1.
    9900012    2    1    2    0    0 -0.60891378239E+01  0.38727980272E+02 -0.18619593954E+02  0.47787270347E+02  0.19999996822E+02 0.  0.
         12    1    1    2    0    0  0.60891378239E+01 -0.38727980272E+02  0.18619593954E+02  0.43400729653E+02  0.00000000000E+00 0. -1.
         11    1    3    3    0    0  0.33884820566E+01  0.24607383865E+00  0.23466742755E+00  0.34055002635E+01  0.51100000000E-03 0. -1.
        -11    1    3    3    0    0 -0.60124231480E+01  0.14952984375E+02 -0.50798642777E+01  0.16898106260E+02  0.51100000000E-03 0.  1.
        -12    1    3    3    0    0 -0.34651967326E+01  0.23528922058E+02 -0.13774397104E+02  0.27483663824E+02  0.00000000000E+00 0.  1.
</event>
<event>
 7    1  0.1813014E-010  0.4778727E+02  0.7816164E-02  0.1312668E+00
        -11   -1    0    0    0    0  0.00000000000E+00  0.00000000000E+00  0.45593999997E+02  0.45594000000E+02  0.51100000000E-03 0.  1.
         11   -1    0    0    0    0 -0.00000000000E+00 -0.00000000000E+00 -0.45593999997E+02  0.45594000000E+02  0.51100000000E-03 0. -1.
    9900012    2    1    2    0    0  0.29391324984E+02 -0.55471229582E+01  0.31448414231E+02  0.47787270569E+02  0.19999997834E+02 0.  0.
         12    1    1    2    0    0 -0.29391324984E+02  0.55471229582E+01 -0.31448414231E+02  0.43400729431E+02  0.00000000000E+00 0. -1.
         11    1    3    3    0    0 -0.14361954416E+00  0.55374895941E+00  0.60174432436E+01  0.60445750831E+01  0.51100000000E-03 0. -1.
        -11    1    3    3    0    0  0.29457880746E+02 -0.49501943407E+01  0.26673955506E+02  0.40047110565E+02  0.51100000000E-03 0.  1.
        -12    1    3    3    0    0  0.77063782946E-01 -0.11506775768E+01 -0.12429845183E+01  0.16955849212E+01  0.00000000000E+00 0.  1.
</event>
<event>
 7    1  0.1813014E-010  0.4778727E+02  0.7816164E-02  0.1312668E+00
        -11   -1    0    0    0    0  0.00000000000E+00  0.00000000000E+00  0.45593999997E+02  0.45594000000E+02  0.51100000000E-03 0.  1.
         11   -1    0    0    0    0 -0.00000000000E+00 -0.00000000000E+00 -0.45593999997E+02  0.45594000000E+02  0.51100000000E-03 0. -1.
    9900012    2    1    2    0    0 -0.23087964625E+02  0.14569631099E+02  0.33738625924E+02  0.47787272585E+02  0.20000007026E+02 0.  0.
         12    1    1    2    0    0  0.23087964625E+02 -0.14569631099E+02 -0.33738625924E+02  0.43400727415E+02  0.00000000000E+00 0. -1.
         11    1    3    3    0    0 -0.66301698037E+01  0.10252622393E+02  0.15823419900E+02  0.19986396252E+02  0.51100000000E-03 0. -1.
        -11    1    3    3    0    0 -0.18116271873E+02  0.20757841595E+01  0.16812576476E+02  0.24802639265E+02  0.51100000000E-03 0.  1.
         12    1    3    3    0    0  0.16584770520E+01  0.22412245468E+01  0.11026295480E+01  0.29982370689E+01  0.00000000000E+00 0. -1.
</event>
<event>
 7    1  0.1813014E-010  0.4778726E+02  0.7816164E-02  0.1312668E+00
        -11   -1    0    0    0    0  0.00000000000E+00  0.00000000000E+00  0.45593999997E+02  0.45594000000E+02  0.51100000000E-03 0.  1.
         11   -1    0    0    0    0 -0.00000000000E+00 -0.00000000000E+00 -0.45593999997E+02  0.45594000000E+02  0.51100000000E-03 0. -1.
    9900012    2    1    2    0    0  0.97020561777E-01 -0.87160056743E+01  0.42516423276E+02  0.47787257886E+02  0.19999940005E+02 0.  0.
         12    1    1    2    0    0 -0.97020561777E-01  0.87160056743E+01 -0.42516423276E+02  0.43400742114E+02  0.00000000000E+00 0. -1.
         11    1    3    3    0    0  0.65114554818E+00  0.18492308453E+01  0.56611241629E+01  0.59909909274E+01  0.51100000000E-03 0. -1.
        -11    1    3    3    0    0 -0.67607124953E+00 -0.55217625100E+01  0.10798214206E+01  0.56668287527E+01  0.51100000000E-03 0.  1.
        -12    1    3    3    0    0  0.12194626313E+00 -0.50434740096E+01  0.35775477692E+02  0.36129438206E+02  0.00000000000E+00 0.  1.
</event>
<event>
 7    1  0.1813014E-010  0.4778729E+02  0.7816164E-02  0.1312668E+00
        -11   -1    0    0    0    0  0.00000000000E+00  0.00000000000E+00  0.45593999997E+02  0.45594000000E+02  0.51100000000E-03 0.  1.
         11   -1    0    0    0    0 -0.00000000000E+00 -0.00000000000E+00 -0.45593999997E+02  0.45594000000E+02  0.51100000000E-03 0. -1.
    9900012    2    1    2    0    0 -0.40708477798E+02  0.15029595433E+02 -0.74367432179E+00  0.47787286239E+02  0.20000069276E+02 0.  0.
         12    1    1    2    0    0  0.40708477798E+02 -0.15029595433E+02  0.74367432179E+00  0.43400713761E+02  0.00000000000E+00 0. -1.
         11    1    3    3    0    0 -0.22704631397E+02  0.19370566344E+01  0.25360616249E+01  0.22927801554E+02  0.51100000000E-03 0. -1.
        -11    1    3    3    0    0 -0.10851747265E+02  0.10153328913E+02  0.26749794580E+01  0.15099868280E+02  0.51100000000E-03 0.  1.
         12    1    3    3    0    0 -0.71520991361E+01  0.29392098851E+01 -0.59547154047E+01  0.97596164040E+01  0.00000000000E+00 0. -1.
</event>
<event>
 7    1  0.1813014E-010  0.4778727E+02  0.7816164E-02  0.1312668E+00
        -11   -1    0    0    0    0  0.00000000000E+00  0.00000000000E+00  0.45593999997E+02  0.45594000000E+02  0.51100000000E-03 0.  1.
         11   -1    0    0    0    0 -0.00000000000E+00 -0.00000000000E+00 -0.45593999997E+02  0.45594000000E+02  0.51100000000E-03 0. -1.
    9900012    2    1    2    0    0 -0.31173085605E+01  0.12691353296E+02  0.41386418909E+02  0.47787265775E+02  0.19999975977E+02 0.  0.
         12    1    1    2    0    0  0.31173085605E+01 -0.12691353296E+02 -0.41386418909E+02  0.43400734225E+02  0.00000000000E+00 0. -1.
         11    1    3    3    0    0 -0.48361089101E+01 -0.25921649314E+00  0.48113028214E+01  0.68266959564E+01  0.51100000000E-03 0. -1.
        -11    1    3    3    0    0 -0.48142842884E+00 -0.25385839999E+01  0.76660441670E+01  0.80897722767E+01  0.51100000000E-03 0.  1.
        -12    1    3    3    0    0  0.22002287784E+01  0.15489153789E+02  0.28909071920E+02  0.32870797542E+02  0.00000000000E+00 0.  1.
</event>
<event>
 7    1  0.1813014E-010  0.4778726E+02  0.7816164E-02  0.1312668E+00
        -11   -1    0    0    0    0  0.00000000000E+00  0.00000000000E+00  0.45593999997E+02  0.45594000000E+02  0.51100000000E-03 0. -1.
         11   -1    0    0    0    0 -0.00000000000E+00 -0.00000000000E+00 -0.45593999997E+02  0.45594000000E+02  0.51100000000E-03 0.  1.
    9900012    2    1    2    0    0 -0.40936465343E+02 -0.65210126656E+01 -0.12857150017E+02  0.47787261441E+02  0.19999956213E+02 0.  0.
         12    1    1    2    0    0  0.40936465343E+02  0.65210126656E+01  0.12857150017E+02  0.43400738559E+02  0.00000000000E+00 0. -1.
         11    1    3    3    0    0 -0.18778337243E+02 -0.49219249821E+01 -0.20859920154E+01  0.19524411850E+02  0.51100000000E-03 0. -1.
        -11    1    3    3    0    0 -0.11636522269E+01 -0.46252198791E+01 -0.31876161848E+01  0.57365183376E+01  0.51100000000E-03 0.  1.
        -12    1    3    3    0    0 -0.20994475873E+02  0.30261321956E+01 -0.75835418170E+01  0.22526331253E+02  0.00000000000E+00 0.  1.
</event>
<event>
 7    1  0.2463644E-010  0.4778727E+02  0.7816164E-02  0.1312668E+00
        -11   -1    0    0    0    0  0.00000000000E+00  0.00000000000E+00  0.45593999997E+02  0.45594000000E+02  0.51100000000E-03 0. -1.
         11   -1    0    0    0    0 -0.00000000000E+00 -0.00000000000E+00 -0.45593999997E+02  0.45594000000E+02  0.51100000000E-03 0.  1.
    9900012    2    1    2    0    0 -0.23512012539E+01  0.11920311980E+02 -0.41665346859E+02  0.47787272887E+02  0.20000008403E+02 0.  0.
         12    1    1    2    0    0  0.23512012539E+01 -0.11920311980E+02  0.41665346859E+02  0.43400727113E+02  0.00000000000E+00 0. -1.
         11    1    3    3    0    0  0.95283456086E+00 -0.32939427793E+01 -0.75138406182E+01  0.82592828884E+01  0.51100000000E-03 0. -1.
        -11    1    3    3    0    0  0.68348272356E+00  0.11308051377E+02 -0.31243450770E+02  0.33233904237E+02  0.51100000000E-03 0.  1.
         12    1    3    3    0    0 -0.39875185383E+01  0.39062033823E+01 -0.29080554706E+01  0.62940857618E+01  0.00000000000E+00 0. -1.
</event>
<event>
 7    1  0.1813014E-010  0.4778727E+02  0.7816164E-02  0.1312668E+00
        -11   -1    0    0    0    0  0.00000000000E+00  0.00000000000E+00  0.45593999997E+02  0.45594000000E+02  0.51100000000E-03 0.  1.
         11   -1    0    0    0    0 -0.00000000000E+00 -0.00000000000E+00 -0.45593999997E+02  0.45594000000E+02  0.51100000000E-03 0. -1.
    9900012    2    1    2    0    0 -0.21163557765E+01 -0.42531359068E+02  0.83802091304E+01  0.47787269925E+02  0.19999994897E+02 0.  0.
         12    1    1    2    0    0  0.21163557765E+01  0.42531359068E+02 -0.83802091304E+01  0.43400730075E+02  0.00000000000E+00 0. -1.
         11    1    3    3    0    0 -0.20193842838E+00 -0.21364373093E+00 -0.21020966803E+00  0.36140163015E+00  0.51100000000E-03 0. -1.
        -11    1    3    3    0    0  0.85283536856E+01 -0.20405512828E+02  0.16385684589E+01  0.22176624568E+02  0.51100000000E-03 0.  1.
         12    1    3    3    0    0 -0.10442771034E+02 -0.21912202509E+02  0.69518503395E+01  0.25249243727E+02  0.00000000000E+00 0. -1.
</event>
<event>
 7    1  0.1813014E-010  0.4778727E+02  0.7816164E-02  0.1312668E+00
        -11   -1    0    0    0    0  0.00000000000E+00  0.00000000000E+00  0.45593999997E+02  0.45594000000E+02  0.51100000000E-03 0. -1.
         11   -1    0    0    0    0 -0.00000000000E+00 -0.00000000000E+00 -0.45593999997E+02  0.45594000000E+02  0.51100000000E-03 0.  1.
    9900012    2    1    2    0    0  0.34178529356E+02 -0.11441351338E+02 -0.24177408606E+02  0.47787268713E+02  0.19999989368E+02 0.  0.
         12    1    1    2    0    0 -0.34178529356E+02  0.11441351338E+02  0.24177408606E+02  0.43400731287E+02  0.00000000000E+00 0. -1.
         11    1    3    3    0    0  0.16743403359E+02 -0.35679880547E+00 -0.81520039061E+01  0.18625896740E+02  0.51100000000E-03 0. -1.
        -11    1    3    3    0    0 -0.97075469489E-01  0.21827902364E+00 -0.60224255429E+01  0.60271617748E+01  0.51100000000E-03 0.  1.
        -12    1    3    3    0    0  0.17532201467E+02 -0.11302831556E+02 -0.10002979157E+02  0.23134210198E+02  0.00000000000E+00 0.  1.
</event>
<event>
 7    1  0.1813014E-010  0.4778727E+02  0.7816164E-02  0.1312668E+00
        -11   -1    0    0    0    0  0.00000000000E+00  0.00000000000E+00  0.45593999997E+02  0.45594000000E+02  0.51100000000E-03 0.  1.
         11   -1    0    0    0    0 -0.00000000000E+00 -0.00000000000E+00 -0.45593999997E+02  0.45594000000E+02  0.51100000000E-03 0. -1.
    9900012    2    1    2    0    0 -0.33718334091E+02  0.23970385488E+02  0.13119369055E+02  0.47787270989E+02  0.19999999745E+02 0.  0.
         12    1    1    2    0    0  0.33718334091E+02 -0.23970385488E+02 -0.13119369055E+02  0.43400729011E+02  0.00000000000E+00 0. -1.
         11    1    3    3    0    0 -0.10793506369E+01  0.26395746824E+01 -0.36692032666E+01  0.46470856646E+01  0.51100000000E-03 0. -1.
        -11    1    3    3    0    0 -0.13233565449E+02  0.43178041340E+01  0.63902817565E+01  0.15316866136E+02  0.51100000000E-03 0.  1.
         12    1    3    3    0    0 -0.19405418005E+02  0.17013006672E+02  0.10398290565E+02  0.27823319188E+02  0.00000000000E+00 0. -1.
</event>
<event>
 7    1  0.1813014E-010  0.4778727E+02  0.7816164E-02  0.1312668E+00
        -11   -1    0    0    0    0  0.00000000000E+00  0.00000000000E+00  0.45593999997E+02  0.45594000000E+02  0.51100000000E-03 0.  1.
         11   -1    0    0    0    0 -0.00000000000E+00 -0.00000000000E+00 -0.45593999997E+02  0.45594000000E+02  0.51100000000E-03 0. -1.
    9900012    2    1    2    0    0  0.25115579122E+02  0.35006694864E+02 -0.52309227841E+01  0.47787267828E+02  0.19999985333E+02 0.  0.
         12    1    1    2    0    0 -0.25115579122E+02 -0.35006694864E+02  0.52309227841E+01  0.43400732172E+02  0.00000000000E+00 0. -1.
         11    1    3    3    0    0  0.12192152554E+01  0.78839277757E+01  0.22185480549E+01  0.82803839732E+01  0.51100000000E-03 0. -1.
        -11    1    3    3    0    0  0.93764964288E+01  0.21078092460E+02 -0.45536855832E+01  0.23514691572E+02  0.51100000000E-03 0.  1.
         12    1    3    3    0    0  0.14519867438E+02  0.60446746277E+01 -0.28957852558E+01  0.15992192283E+02  0.00000000000E+00 0. -1.
</event>
<event>
 7    1  0.1813014E-010  0.4778727E+02  0.7816164E-02  0.1312668E+00
        -11   -1    0    0    0    0  0.00000000000E+00  0.00000000000E+00  0.45593999997E+02  0.45594000000E+02  0.51100000000E-03 0.  1.
         11   -1    0    0    0    0 -0.00000000000E+00 -0.00000000000E+00 -0.45593999997E+02  0.45594000000E+02  0.51100000000E-03 0. -1.
    9900012    2    1    2    0    0  0.32077391110E+00  0.73360241582E+01  0.42775033529E+02  0.47787266829E+02  0.19999980779E+02 0.  0.
         12    1    1    2    0    0 -0.32077391110E+00 -0.73360241582E+01 -0.42775033529E+02  0.43400733171E+02  0.00000000000E+00 0. -1.
         11    1    3    3    0    0 -0.30681722673E+01  0.20820262461E+01  0.31059289735E+02  0.31279833655E+02  0.51100000000E-03 0.  1.
        -11    1    3    3    0    0  0.27517742972E+01 -0.25779794575E+01  0.38756854754E+01  0.54073263293E+01  0.51100000000E-03 0. -1.
         12    1    3    3    0    0  0.63717188117E+00  0.78319773697E+01  0.78400583188E+01  0.11100106845E+02  0.00000000000E+00 0. -1.
</event>
<event>
 7    1  0.1813014E-010  0.4778727E+02  0.7816164E-02  0.1312668E+00
        -11   -1    0    0    0    0  0.00000000000E+00  0.00000000000E+00  0.45593999997E+02  0.45594000000E+02  0.51100000000E-03 0.  1.
         11   -1    0    0    0    0 -0.00000000000E+00 -0.00000000000E+00 -0.45593999997E+02  0.45594000000E+02  0.51100000000E-03 0. -1.
    9900012    2    1    2    0    0  0.90294692617E+01 -0.15465342905E+02  0.39533722734E+02  0.47787269827E+02  0.19999994450E+02 0.  0.
         12    1    1    2    0    0 -0.90294692617E+01  0.15465342905E+02 -0.39533722734E+02  0.43400730173E+02  0.00000000000E+00 0. -1.
         11    1    3    3    0    0  0.79369662007E+01  0.27174434619E+00  0.15797194844E+02  0.17681081490E+02  0.51100000000E-03 0. -1.
        -11    1    3    3    0    0  0.52570733886E+01 -0.10126835071E+02  0.13008504856E+02  0.17303491209E+02  0.51100000000E-03 0.  1.
        -12    1    3    3    0    0 -0.41645703275E+01 -0.56102521798E+01  0.10728023034E+02  0.12802697128E+02  0.00000000000E+00 0.  1.
</event>
<event>
 7    1  0.1813014E-010  0.4778727E+02  0.7816164E-02  0.1312668E+00
        -11   -1    0    0    0    0  0.00000000000E+00  0.00000000000E+00  0.45593999997E+02  0.45594000000E+02  0.51100000000E-03 0.  1.
         11   -1    0    0    0    0 -0.00000000000E+00 -0.00000000000E+00 -0.45593999997E+02  0.45594000000E+02  0.51100000000E-03 0. -1.
    9900012    2    1    2    0    0 -0.24929696550E+02 -0.88869087679E+01  0.34397042723E+02  0.47787268835E+02  0.19999989928E+02 0.  0.
         12    1    1    2    0    0  0.24929696550E+02  0.88869087679E+01 -0.34397042723E+02  0.43400731165E+02  0.00000000000E+00 0. -1.
         11    1    3    3    0    0 -0.10747025398E+02  0.69053582884E+00  0.16630411668E+02  0.19812773333E+02  0.51100000000E-03 0. -1.
        -11    1    3    3    0    0 -0.10135735468E+02 -0.11269185169E+02  0.18061253383E+02  0.23578306595E+02  0.51100000000E-03 0.  1.
        -12    1    3    3    0    0 -0.40469356834E+01  0.16917405723E+01 -0.29462232800E+00  0.43961889070E+01  0.00000000000E+00 0.  1.
</event>
<event>
 7    1  0.1813014E-010  0.4778727E+02  0.7816164E-02  0.1312668E+00
        -11   -1    0    0    0    0  0.00000000000E+00  0.00000000000E+00  0.45593999997E+02  0.45594000000E+02  0.51100000000E-03 0.  1.
         11   -1    0    0    0    0 -0.00000000000E+00 -0.00000000000E+00 -0.45593999997E+02  0.45594000000E+02  0.51100000000E-03 0. -1.
    9900012    2    1    2    0    0 -0.28995811689E+02  0.34172205332E+01  0.32112124717E+02  0.47787273676E+02  0.20000011996E+02 0.  0.
         12    1    1    2    0    0  0.28995811689E+02 -0.34172205332E+01 -0.32112124717E+02  0.43400726324E+02  0.00000000000E+00 0. -1.
         11    1    3    3    0    0 -0.27160212002E+01 -0.59563214349E-01 -0.15581714015E+01  0.31318073558E+01  0.51100000000E-03 0. -1.
        -11    1    3    3    0    0 -0.89840893062E+01  0.64389906950E+01  0.18035310574E+02  0.21152940448E+02  0.51100000000E-03 0.  1.
         12    1    3    3    0    0 -0.17295701182E+02 -0.29622069475E+01  0.15634985545E+02  0.23502525872E+02  0.00000000000E+00 0. -1.
</event>
<event>
 7    1  0.1813014E-010  0.4778727E+02  0.7816164E-02  0.1312668E+00
        -11   -1    0    0    0    0  0.00000000000E+00  0.00000000000E+00  0.45593999997E+02  0.45594000000E+02  0.51100000000E-03 0.  1.
         11   -1    0    0    0    0 -0.00000000000E+00 -0.00000000000E+00 -0.45593999997E+02  0.45594000000E+02  0.51100000000E-03 0. -1.
    9900012    2    1    2    0    0 -0.20413241593E+02 -0.34158534246E+02  0.17323901746E+02  0.47787268833E+02  0.19999989916E+02 0.  0.
         12    1    1    2    0    0  0.20413241593E+02  0.34158534246E+02 -0.17323901746E+02  0.43400731167E+02  0.00000000000E+00 0. -1.
         11    1    3    3    0    0  0.29102053799E+01 -0.43411146194E+01  0.12339581451E+00  0.52277909560E+01  0.51100000000E-03 0. -1.
        -11    1    3    3    0    0 -0.92136577047E+01 -0.11419532213E+02  0.19357801889E+01  0.14800150319E+02  0.51100000000E-03 0.  1.
        -12    1    3    3    0    0 -0.14109789268E+02 -0.18397887414E+02  0.15264725743E+02  0.27759327558E+02  0.00000000000E+00 0.  1.
</event>
<event>
 7    1  0.1813014E-010  0.4778727E+02  0.7816164E-02  0.1312668E+00
        -11   -1    0    0    0    0  0.00000000000E+00  0.00000000000E+00  0.45593999997E+02  0.45594000000E+02  0.51100000000E-03 0. -1.
         11   -1    0    0    0    0 -0.00000000000E+00 -0.00000000000E+00 -0.45593999997E+02  0.45594000000E+02  0.51100000000E-03 0.  1.
    9900012    2    1    2    0    0  0.13824064355E+01  0.22279547753E+02 -0.37220072609E+02  0.47787273040E+02  0.20000009100E+02 0.  0.
         12    1    1    2    0    0 -0.13824064355E+01 -0.22279547753E+02  0.37220072609E+02  0.43400726960E+02  0.00000000000E+00 0. -1.
         11    1    3    3    0    0  0.75268441587E+00  0.86859200000E+01 -0.42475092674E+01  0.96980964789E+01  0.51100000000E-03 0. -1.
        -11    1    3    3    0    0 -0.31294907269E+01  0.15036035066E+01 -0.86881573158E+00  0.35790189649E+01  0.51100000000E-03 0.  1.
        -12    1    3    3    0    0  0.37592127465E+01  0.12090024246E+02 -0.32103747610E+02  0.34510157597E+02  0.00000000000E+00 0.  1.
</event>
<event>
 7    1  0.1813014E-010  0.4778727E+02  0.7816164E-02  0.1312668E+00
        -11   -1    0    0    0    0  0.00000000000E+00  0.00000000000E+00  0.45593999997E+02  0.45594000000E+02  0.51100000000E-03 0.  1.
         11   -1    0    0    0    0 -0.00000000000E+00 -0.00000000000E+00 -0.45593999997E+02  0.45594000000E+02  0.51100000000E-03 0. -1.
    9900012    2    1    2    0    0 -0.55420494543E+01 -0.41130143353E+02  0.12697252875E+02  0.47787271492E+02  0.20000002042E+02 0.  0.
         12    1    1    2    0    0  0.55420494543E+01  0.41130143353E+02 -0.12697252875E+02  0.43400728508E+02  0.00000000000E+00 0. -1.
         11    1    3    3    0    0 -0.58056534718E+01 -0.13195200903E+02  0.69415169122E+01  0.16000112387E+02  0.51100000000E-03 0. -1.
        -11    1    3    3    0    0  0.69722544637E+01 -0.13463445521E+02  0.43558251275E+01  0.15774977350E+02  0.51100000000E-03 0.  1.
        -12    1    3    3    0    0 -0.67086504462E+01 -0.14471496930E+02  0.13999108357E+01  0.16012181755E+02  0.00000000000E+00 0.  1.
</event>
<event>
 7    1  0.1813014E-010  0.4778727E+02  0.7816164E-02  0.1312668E+00
        -11   -1    0    0    0    0  0.00000000000E+00  0.00000000000E+00  0.45593999997E+02  0.45594000000E+02  0.51100000000E-03 0.  1.
         11   -1    0    0    0    0 -0.00000000000E+00 -0.00000000000E+00 -0.45593999997E+02  0.45594000000E+02  0.51100000000E-03 0. -1.
    9900012    2    1    2    0    0  0.33052057860E+02  0.27371076464E+02  0.64814508611E+01  0.47787267738E+02  0.19999984926E+02 0.  0.
         12    1    1    2    0    0 -0.33052057860E+02 -0.27371076464E+02 -0.64814508611E+01  0.43400732262E+02  0.00000000000E+00 0. -1.
         11    1    3    3    0    0  0.10837922375E+02  0.40766447725E+00  0.68602925493E+00  0.10867262219E+02  0.51100000000E-03 0. -1.
        -11    1    3    3    0    0  0.21528964878E+02  0.25859584921E+02  0.29323176241E+01  0.33775922606E+02  0.51100000000E-03 0.  1.
        -12    1    3    3    0    0  0.68517060682E+00  0.11038270657E+01  0.28631039820E+01  0.31440829129E+01  0.00000000000E+00 0.  1.
</event>
<event>
 7    1  0.2645302E-010  0.4778726E+02  0.7816164E-02  0.1312668E+00
        -11   -1    0    0    0    0  0.00000000000E+00  0.00000000000E+00  0.45593999997E+02  0.45594000000E+02  0.51100000000E-03 0. -1.
         11   -1    0    0    0    0 -0.00000000000E+00 -0.00000000000E+00 -0.45593999997E+02  0.45594000000E+02  0.51100000000E-03 0.  1.
    9900012    2    1    2    0    0  0.11426562585E+02 -0.31875683092E+02  0.27147722338E+02  0.47787258840E+02  0.19999944355E+02 0.  0.
         12    1    1    2    0    0 -0.11426562585E+02  0.31875683092E+02 -0.27147722338E+02  0.43400741160E+02  0.00000000000E+00 0. -1.
         11    1    3    3    0    0  0.55100305651E+01 -0.18693548204E+02  0.76152712143E+01  0.20923707540E+02  0.51100000000E-03 0. -1.
        -11    1    3    3    0    0  0.70392459785E+01 -0.14764072151E+02  0.18393683737E+02  0.24614150648E+02  0.51100000000E-03 0.  1.
         12    1    3    3    0    0 -0.11227139584E+01  0.15819372625E+01  0.11387673859E+01  0.22494006522E+01  0.00000000000E+00 0. -1.
</event>
<event>
 7    1  0.1813014E-010  0.4778727E+02  0.7816164E-02  0.1312668E+00
        -11   -1    0    0    0    0  0.00000000000E+00  0.00000000000E+00  0.45593999997E+02  0.45594000000E+02  0.51100000000E-03 0. -1.
         11   -1    0    0    0    0 -0.00000000000E+00 -0.00000000000E+00 -0.45593999997E+02  0.45594000000E+02  0.51100000000E-03 0.  1.
    9900012    2    1    2    0    0  0.25428482564E+02 -0.16791343819E+02  0.30904146218E+02  0.47787271824E+02  0.20000003555E+02 0.  0.
         12    1    1    2    0    0 -0.25428482564E+02  0.16791343819E+02 -0.30904146218E+02  0.43400728176E+02  0.00000000000E+00 0. -1.
         11    1    3    3    0    0  0.99049127712E+01  0.12034160367E+01  0.77315633188E+01  0.12622700930E+02  0.51100000000E-03 0. -1.
        -11    1    3    3    0    0  0.14175044027E+02 -0.16600235990E+02  0.24500091723E+02  0.32813933059E+02  0.51100000000E-03 0.  1.
         12    1    3    3    0    0  0.13485257665E+01 -0.13945238647E+01 -0.13275088242E+01  0.23506378348E+01  0.00000000000E+00 0. -1.
</event>
<event>
 7    1  0.1813014E-010  0.4778728E+02  0.7816164E-02  0.1312668E+00
        -11   -1    0    0    0    0  0.00000000000E+00  0.00000000000E+00  0.45593999997E+02  0.45594000000E+02  0.51100000000E-03 0. -1.
         11   -1    0    0    0    0 -0.00000000000E+00 -0.00000000000E+00 -0.45593999997E+02  0.45594000000E+02  0.51100000000E-03 0.  1.
    9900012    2    1    2    0    0 -0.10906771019E+02  0.25407537241E+02 -0.33453283630E+02  0.47787276638E+02  0.20000025502E+02 0.  0.
         12    1    1    2    0    0  0.10906771019E+02 -0.25407537241E+02  0.33453283630E+02  0.43400723362E+02  0.00000000000E+00 0. -1.
         11    1    3    3    0    0 -0.10086340008E+02  0.57602731785E+01 -0.71826655151E+01  0.13656708462E+02  0.51100000000E-03 0. -1.
        -11    1    3    3    0    0 -0.47982634549E+01  0.13442591203E+02 -0.19134546472E+02  0.23871687402E+02  0.51100000000E-03 0.  1.
        -12    1    3    3    0    0  0.39778324444E+01  0.62046728593E+01 -0.71360716430E+01  0.10258880774E+02  0.00000000000E+00 0.  1.
</event>
<event>
 7    1  0.1813014E-010  0.4778727E+02  0.7816164E-02  0.1312668E+00
        -11   -1    0    0    0    0  0.00000000000E+00  0.00000000000E+00  0.45593999997E+02  0.45594000000E+02  0.51100000000E-03 0.  1.
         11   -1    0    0    0    0 -0.00000000000E+00 -0.00000000000E+00 -0.45593999997E+02  0.45594000000E+02  0.51100000000E-03 0. -1.
    9900012    2    1    2    0    0 -0.21524695073E+02  0.37524334540E+02  0.34978999835E+01  0.47787268612E+02  0.19999988912E+02 0.  0.
         12    1    1    2    0    0  0.21524695073E+02 -0.37524334540E+02 -0.34978999835E+01  0.43400731388E+02  0.00000000000E+00 0. -1.
         11    1    3    3    0    0 -0.71925012475E+00  0.12718874398E+02  0.27554603157E+01  0.13033788724E+02  0.51100000000E-03 0. -1.
        -11    1    3    3    0    0 -0.16787982078E+02  0.25632299368E+02  0.80705196451E+00  0.30651304153E+02  0.51100000000E-03 0.  1.
         12    1    3    3    0    0 -0.40174628698E+01 -0.82683922543E+00 -0.64612296782E-01  0.41021757353E+01  0.00000000000E+00 0. -1.
</event>
<event>
 7    1  0.2145955E-010  0.4778727E+02  0.7816164E-02  0.1312668E+00
        -11   -1    0    0    0    0  0.00000000000E+00  0.00000000000E+00  0.45593999997E+02  0.45594000000E+02  0.51100000000E-03 0. -1.
         11   -1    0    0    0    0 -0.00000000000E+00 -0.00000000000E+00 -0.45593999997E+02  0.45594000000E+02  0.51100000000E-03 0.  1.
    9900012    2    1    2    0    0 -0.14937894355E+02 -0.40173966416E+02 -0.68216539793E+01  0.47787271569E+02  0.20000002390E+02 0.  0.
         12    1    1    2    0    0  0.14937894355E+02  0.40173966416E+02  0.68216539793E+01  0.43400728431E+02  0.00000000000E+00 0. -1.
         11    1    3    3    0    0 -0.56803953361E+01 -0.14548652787E+02  0.63801829233E+01  0.16871186191E+02  0.51100000000E-03 0. -1.
        -11    1    3    3    0    0 -0.55329688351E+01 -0.15249086729E+02 -0.43972678421E+01  0.16807270895E+02  0.51100000000E-03 0.  1.
         12    1    3    3    0    0 -0.37245301837E+01 -0.10376226900E+02 -0.88045690605E+01  0.14108814483E+02  0.00000000000E+00 0. -1.
</event>
<event>
 7    1  0.1813014E-010  0.4778727E+02  0.7816164E-02  0.1312668E+00
        -11   -1    0    0    0    0  0.00000000000E+00  0.00000000000E+00  0.45593999997E+02  0.45594000000E+02  0.51100000000E-03 0.  1.
         11   -1    0    0    0    0 -0.00000000000E+00 -0.00000000000E+00 -0.45593999997E+02  0.45594000000E+02  0.51100000000E-03 0. -1.
    9900012    2    1    2    0    0 -0.23366987874E+02 -0.27631482209E+01  0.36468783902E+02  0.47787270632E+02  0.19999998120E+02 0.  0.
         12    1    1    2    0    0  0.23366987874E+02  0.27631482209E+01 -0.36468783902E+02  0.43400729368E+02  0.00000000000E+00 0. -1.
         11    1    3    3    0    0 -0.63578961869E+01  0.12865650370E+01  0.54112657453E+00  0.65092942589E+01  0.51100000000E-03 0. -1.
        -11    1    3    3    0    0 -0.92985767773E+00 -0.39258975011E-02  0.12730970617E+02  0.12764884011E+02  0.51100000000E-03 0.  1.
         12    1    3    3    0    0 -0.16079234009E+02 -0.40457873604E+01  0.23196686711E+02  0.28513092362E+02  0.00000000000E+00 0. -1.
</event>
<event>
 7    1  0.2463275E-010  0.4778727E+02  0.7816164E-02  0.1312668E+00
        -11   -1    0    0    0    0  0.00000000000E+00  0.00000000000E+00  0.45593999997E+02  0.45594000000E+02  0.51100000000E-03 0.  1.
         11   -1    0    0    0    0 -0.00000000000E+00 -0.00000000000E+00 -0.45593999997E+02  0.45594000000E+02  0.51100000000E-03 0. -1.
    9900012    2    1    2    0    0 -0.11181945494E+02  0.30352735466E+02  0.28936119518E+02  0.47787268807E+02  0.19999989799E+02 0.  0.
         12    1    1    2    0    0  0.11181945494E+02 -0.30352735466E+02 -0.28936119518E+02  0.43400731193E+02  0.00000000000E+00 0. -1.
         11    1    3    3    0    0 -0.51976678150E+01  0.96072277708E+01  0.17301945388E+02  0.20461473325E+02  0.51100000000E-03 0. -1.
        -11    1    3    3    0    0 -0.87096505674E+01  0.19192427202E+02  0.11854340805E+02  0.24181246268E+02  0.51100000000E-03 0.  1.
         12    1    3    3    0    0  0.27253728880E+01  0.15530804929E+01 -0.22016667405E+00  0.31445492142E+01  0.00000000000E+00 0. -1.
</event>
<event>
 7    1  0.1813014E-010  0.4778727E+02  0.7816164E-02  0.1312668E+00
        -11   -1    0    0    0    0  0.00000000000E+00  0.00000000000E+00  0.45593999997E+02  0.45594000000E+02  0.51100000000E-03 0.  1.
         11   -1    0    0    0    0 -0.00000000000E+00 -0.00000000000E+00 -0.45593999997E+02  0.45594000000E+02  0.51100000000E-03 0. -1.
    9900012    2    1    2    0    0 -0.29639961117E+02 -0.31683148689E+02  0.11287640952E+01  0.47787270579E+02  0.19999997876E+02 0.  0.
         12    1    1    2    0    0  0.29639961117E+02  0.31683148689E+02 -0.11287640952E+01  0.43400729421E+02  0.00000000000E+00 0. -1.
         11    1    3    3    0    0  0.10170622219E+00 -0.50129230522E+01 -0.27504307319E+01  0.57187945544E+01  0.51100000000E-03 0. -1.
        -11    1    3    3    0    0 -0.47391023387E+01 -0.11589581345E+02  0.29052198489E+01  0.12853707222E+02  0.51100000000E-03 0.  1.
         12    1    3    3    0    0 -0.25002565001E+02 -0.15080644293E+02  0.97397497817E+00  0.29214768802E+02  0.00000000000E+00 0. -1.
</event>
<event>
 7    1  0.1813014E-010  0.4778727E+02  0.7816164E-02  0.1312668E+00
        -11   -1    0    0    0    0  0.00000000000E+00  0.00000000000E+00  0.45593999997E+02  0.45594000000E+02  0.51100000000E-03 0.  1.
         11   -1    0    0    0    0 -0.00000000000E+00 -0.00000000000E+00 -0.45593999997E+02  0.45594000000E+02  0.51100000000E-03 0. -1.
    9900012    2    1    2    0    0  0.40352970425E+02  0.10410612130E+02  0.12119408347E+02  0.47787272751E+02  0.20000007783E+02 0.  0.
         12    1    1    2    0    0 -0.40352970425E+02 -0.10410612130E+02 -0.12119408347E+02  0.43400727249E+02  0.00000000000E+00 0. -1.
         11    1    3    3    0    0  0.12280367405E+02  0.58100609975E+01  0.13151022397E+01  0.13648945987E+02  0.51100000000E-03 0. -1.
        -11    1    3    3    0    0  0.23927253898E+02 -0.64182036374E-01  0.29527539339E+01  0.24108843906E+02  0.51100000000E-03 0.  1.
         12    1    3    3    0    0  0.41453491221E+01  0.46647331688E+01  0.78515521731E+01  0.10029482858E+02  0.00000000000E+00 0. -1.
</event>
<event>
 7    1  0.1813014E-010  0.4778727E+02  0.7816164E-02  0.1312668E+00
        -11   -1    0    0    0    0  0.00000000000E+00  0.00000000000E+00  0.45593999997E+02  0.45594000000E+02  0.51100000000E-03 0.  1.
         11   -1    0    0    0    0 -0.00000000000E+00 -0.00000000000E+00 -0.45593999997E+02  0.45594000000E+02  0.51100000000E-03 0. -1.
    9900012    2    1    2    0    0  0.34837344061E+02  0.21124639516E+02  0.14957681212E+02  0.47787272320E+02  0.20000005818E+02 0.  0.
         12    1    1    2    0    0 -0.34837344061E+02 -0.21124639516E+02 -0.14957681212E+02  0.43400727680E+02  0.00000000000E+00 0. -1.
         11    1    3    3    0    0  0.62332182172E+01  0.49685406086E+01  0.32987327541E+01  0.86267631918E+01  0.51100000000E-03 0. -1.
        -11    1    3    3    0    0  0.15143364020E+02  0.15487774015E+02  0.13551923542E+02  0.25550875714E+02  0.51100000000E-03 0.  1.
         12    1    3    3    0    0  0.13460761823E+02  0.66832489249E+00 -0.18929750841E+01  0.13609633415E+02  0.00000000000E+00 0. -1.
</event>
<event>
 7    1  0.1813014E-010  0.4778727E+02  0.7816164E-02  0.1312668E+00
        -11   -1    0    0    0    0  0.00000000000E+00  0.00000000000E+00  0.45593999997E+02  0.45594000000E+02  0.51100000000E-03 0.  1.
         11   -1    0    0    0    0 -0.00000000000E+00 -0.00000000000E+00 -0.45593999997E+02  0.45594000000E+02  0.51100000000E-03 0. -1.
    9900012    2    1    2    0    0  0.85085030430E+01  0.38129827646E+02 -0.18903559644E+02  0.47787274804E+02  0.20000017141E+02 0.  0.
         12    1    1    2    0    0 -0.85085030430E+01 -0.38129827646E+02  0.18903559644E+02  0.43400725196E+02  0.00000000000E+00 0. -1.
         11    1    3    3    0    0 -0.55338510649E+01  0.91956024952E+01 -0.91784682317E+01  0.14121858667E+02  0.51100000000E-03 0. -1.
        -11    1    3    3    0    0  0.48720220535E+01  0.12269791341E+02 -0.43413632970E+01  0.13897187269E+02  0.51100000000E-03 0.  1.
         12    1    3    3    0    0  0.91703320545E+01  0.16664433810E+02 -0.53837281149E+01  0.19768228869E+02  0.00000000000E+00 0. -1.
</event>
<event>
 7    1  0.1813014E-010  0.4778727E+02  0.7816164E-02  0.1312668E+00
        -11   -1    0    0    0    0  0.00000000000E+00  0.00000000000E+00  0.45593999997E+02  0.45594000000E+02  0.51100000000E-03 0.  1.
         11   -1    0    0    0    0 -0.00000000000E+00 -0.00000000000E+00 -0.45593999997E+02  0.45594000000E+02  0.51100000000E-03 0. -1.
    9900012    2    1    2    0    0 -0.10141366306E+02  0.67464426217E+01  0.41656468921E+02  0.47787271878E+02  0.20000003799E+02 0.  0.
         12    1    1    2    0    0  0.10141366306E+02 -0.67464426217E+01 -0.41656468921E+02  0.43400728122E+02  0.00000000000E+00 0. -1.
         11    1    3    3    0    0 -0.13916015562E+01 -0.16418111362E+01  0.23851103077E+02  0.23948010710E+02  0.51100000000E-03 0. -1.
        -11    1    3    3    0    0 -0.53840406575E+01  0.84298703326E+01  0.17862934292E+02  0.20472787534E+02  0.51100000000E-03 0.  1.
        -12    1    3    3    0    0 -0.33657240924E+01 -0.41616574671E-01 -0.57568448083E-01  0.33664736345E+01  0.00000000000E+00 0.  1.
</event>
<event>
 7    1  0.1813014E-010  0.4778728E+02  0.7816164E-02  0.1312668E+00
        -11   -1    0    0    0    0  0.00000000000E+00  0.00000000000E+00  0.45593999997E+02  0.45594000000E+02  0.51100000000E-03 0. -1.
         11   -1    0    0    0    0 -0.00000000000E+00 -0.00000000000E+00 -0.45593999997E+02  0.45594000000E+02  0.51100000000E-03 0.  1.
    9900012    2    1    2    0    0 -0.18775086516E+02  0.38807086729E+02 -0.50128830972E+01  0.47787275916E+02  0.20000022211E+02 0.  0.
         12    1    1    2    0    0  0.18775086516E+02 -0.38807086729E+02  0.50128830972E+01  0.43400724084E+02  0.00000000000E+00 0. -1.
         11    1    3    3    0    0 -0.21840053622E+01 -0.13791986899E+01  0.31160020672E+00  0.26017615952E+01  0.51100000000E-03 0. -1.
        -11    1    3    3    0    0 -0.51741986780E+01  0.22683299235E+02  0.11897872663E+01  0.23296351434E+02  0.51100000000E-03 0.  1.
        -12    1    3    3    0    0 -0.11416882475E+02  0.17502986184E+02 -0.65142705703E+01  0.21889162887E+02  0.00000000000E+00 0.  1.
</event>
<event>
 7    1  0.1813014E-010  0.4778727E+02  0.7816164E-02  0.1312668E+00
        -11   -1    0    0    0    0  0.00000000000E+00  0.00000000000E+00  0.45593999997E+02  0.45594000000E+02  0.51100000000E-03 0. -1.
         11   -1    0    0    0    0 -0.00000000000E+00 -0.00000000000E+00 -0.45593999997E+02  0.45594000000E+02  0.51100000000E-03 0.  1.
    9900012    2    1    2    0    0  0.28810396543E+02  0.31557667873E+02 -0.75959213759E+01  0.47787269913E+02  0.19999994843E+02 0.  0.
         12    1    1    2    0    0 -0.28810396543E+02 -0.31557667873E+02  0.75959213759E+01  0.43400730087E+02  0.00000000000E+00 0. -1.
         11    1    3    3    0    0  0.82407011566E+01  0.33480525010E+01  0.20204824039E+01  0.91214560519E+01  0.51100000000E-03 0. -1.
        -11    1    3    3    0    0  0.21720942907E+02  0.21822775828E+02 -0.93179163856E+01  0.32169185126E+02  0.51100000000E-03 0.  1.
         12    1    3    3    0    0 -0.11512475206E+01  0.63868395434E+01 -0.29848739426E+00  0.64966287358E+01  0.00000000000E+00 0. -1.
</event>
<event>
 7    1  0.1813014E-010  0.4778726E+02  0.7816164E-02  0.1312668E+00
        -11   -1    0    0    0    0  0.00000000000E+00  0.00000000000E+00  0.45593999997E+02  0.45594000000E+02  0.51100000000E-03 0.  1.
         11   -1    0    0    0    0 -0.00000000000E+00 -0.00000000000E+00 -0.45593999997E+02  0.45594000000E+02  0.51100000000E-03 0. -1.
    9900012    2    1    2    0    0 -0.36970762543E+02 -0.57874344105E+01  0.21983911668E+02  0.47787262077E+02  0.19999959112E+02 0.  0.
         12    1    1    2    0    0  0.36970762543E+02  0.57874344105E+01 -0.21983911668E+02  0.43400737923E+02  0.00000000000E+00 0. -1.
         11    1    3    3    0    0 -0.26163564684E+01 -0.37906838701E+01  0.69759160624E+01  0.83593068219E+01  0.51100000000E-03 0. -1.
        -11    1    3    3    0    0 -0.16235895250E+02 -0.41200527187E+01  0.16782673950E+01  0.16834361012E+02  0.51100000000E-03 0.  1.
         12    1    3    3    0    0 -0.18118510825E+02  0.21233021783E+01  0.13329728210E+02  0.22593594243E+02  0.00000000000E+00 0. -1.
</event>
<event>
 7    1  0.1813014E-010  0.4778730E+02  0.7816164E-02  0.1312668E+00
        -11   -1    0    0    0    0  0.00000000000E+00  0.00000000000E+00  0.45593999997E+02  0.45594000000E+02  0.51100000000E-03 0. -1.
         11   -1    0    0    0    0 -0.00000000000E+00 -0.00000000000E+00 -0.45593999997E+02  0.45594000000E+02  0.51100000000E-03 0.  1.
    9900012    2    1    2    0    0 -0.33998331275E+02  0.24556400417E+00 -0.26975425495E+02  0.47787304017E+02  0.20000150334E+02 0.  0.
         12    1    1    2    0    0  0.33998331275E+02 -0.24556400417E+00  0.26975425495E+02  0.43400695983E+02  0.00000000000E+00 0. -1.
         11    1    3    3    0    0 -0.22819941520E+02  0.49217632738E-01 -0.19647151256E+02  0.30112500828E+02  0.51100000000E-03 0. -1.
        -11    1    3    3    0    0 -0.11030094703E+02 -0.12488546378E+01 -0.95896953418E+00  0.11141914104E+02  0.51100000000E-03 0.  1.
         12    1    3    3    0    0 -0.14829505201E+00  0.14452010092E+01 -0.63693047045E+01  0.65328890851E+01  0.00000000000E+00 0. -1.
</event>
<event>
 7    1  0.3536712E-010  0.4778727E+02  0.7816164E-02  0.1312668E+00
        -11   -1    0    0    0    0  0.00000000000E+00  0.00000000000E+00  0.45593999997E+02  0.45594000000E+02  0.51100000000E-03 0. -1.
         11   -1    0    0    0    0 -0.00000000000E+00 -0.00000000000E+00 -0.45593999997E+02  0.45594000000E+02  0.51100000000E-03 0.  1.
    9900012    2    1    2    0    0  0.34703743901E+02 -0.12219168721E+02 -0.23020979976E+02  0.47787269084E+02  0.19999991060E+02 0.  0.
         12    1    1    2    0    0 -0.34703743901E+02  0.12219168721E+02  0.23020979976E+02  0.43400730916E+02  0.00000000000E+00 0. -1.
         11    1    3    3    0    0 -0.95336580951E+00  0.11784481655E+01 -0.13123534681E+01  0.20049733993E+01  0.51100000000E-03 0. -1.
        -11    1    3    3    0    0  0.16813764055E+02 -0.10494472225E+02 -0.17076779453E+02  0.26162052781E+02  0.51100000000E-03 0.  1.
         12    1    3    3    0    0  0.18843345656E+02 -0.29031446620E+01 -0.46318470545E+01  0.19620242903E+02  0.00000000000E+00 0. -1.
</event>
<event>
 7    1  0.1813014E-010  0.4778726E+02  0.7816164E-02  0.1312668E+00
        -11   -1    0    0    0    0  0.00000000000E+00  0.00000000000E+00  0.45593999997E+02  0.45594000000E+02  0.51100000000E-03 0. -1.
         11   -1    0    0    0    0 -0.00000000000E+00 -0.00000000000E+00 -0.45593999997E+02  0.45594000000E+02  0.51100000000E-03 0.  1.
    9900012    2    1    2    0    0 -0.27573653761E+02  0.37671834983E+01  0.33303539787E+02  0.47787264804E+02  0.19999971545E+02 0.  0.
         12    1    1    2    0    0  0.27573653761E+02 -0.37671834983E+01 -0.33303539787E+02  0.43400735196E+02  0.00000000000E+00 0. -1.
         11    1    3    3    0    0 -0.28298465737E+01 -0.52972799879E+01  0.28304703168E+01  0.66393350101E+01  0.51100000000E-03 0. -1.
        -11    1    3    3    0    0 -0.13874601982E+02  0.16747240434E+01  0.19699727368E+02  0.24153437424E+02  0.51100000000E-03 0.  1.
        -12    1    3    3    0    0 -0.10869205206E+02  0.73897394428E+01  0.10773342102E+02  0.16994492370E+02  0.00000000000E+00 0.  1.
</event>
<event>
 7    1  0.1813014E-010  0.4778727E+02  0.7816164E-02  0.1312668E+00
        -11   -1    0    0    0    0  0.00000000000E+00  0.00000000000E+00  0.45593999997E+02  0.45594000000E+02  0.51100000000E-03 0.  1.
         11   -1    0    0    0    0 -0.00000000000E+00 -0.00000000000E+00 -0.45593999997E+02  0.45594000000E+02  0.51100000000E-03 0. -1.
    9900012    2    1    2    0    0 -0.42022209819E+02  0.29986294326E+01  0.10429080978E+02  0.47787266981E+02  0.19999981473E+02 0.  0.
         12    1    1    2    0    0  0.42022209819E+02 -0.29986294326E+01 -0.10429080978E+02  0.43400733019E+02  0.00000000000E+00 0. -1.
         11    1    3    3    0    0 -0.28155463086E+02  0.34470411500E+01  0.28998633958E+00  0.28367169168E+02  0.51100000000E-03 0. -1.
        -11    1    3    3    0    0 -0.41661519991E+01  0.41033275257E+01  0.36256817761E+01  0.68803842818E+01  0.51100000000E-03 0.  1.
         12    1    3    3    0    0 -0.97005947338E+01 -0.45517392431E+01  0.65134128623E+01  0.12539713531E+02  0.00000000000E+00 0. -1.
</event>
<event>
 7    1  0.1813014E-010  0.4778727E+02  0.7816164E-02  0.1312668E+00
        -11   -1    0    0    0    0  0.00000000000E+00  0.00000000000E+00  0.45593999997E+02  0.45594000000E+02  0.51100000000E-03 0.  1.
         11   -1    0    0    0    0 -0.00000000000E+00 -0.00000000000E+00 -0.45593999997E+02  0.45594000000E+02  0.51100000000E-03 0. -1.
    9900012    2    1    2    0    0  0.17425787706E+02  0.17832664712E+02  0.35524093735E+02  0.47787271393E+02  0.20000001589E+02 0.  0.
         12    1    1    2    0    0 -0.17425787706E+02 -0.17832664712E+02 -0.35524093735E+02  0.43400728607E+02  0.00000000000E+00 0. -1.
         11    1    3    3    0    0  0.51357681011E+01  0.15245652171E+01  0.12796056759E+01  0.55079764012E+01  0.51100000000E-03 0. -1.
        -11    1    3    3    0    0 -0.44832946460E+00 -0.13218780414E+01 -0.32812809260E+00  0.14338860385E+01  0.51100000000E-03 0.  1.
        -12    1    3    3    0    0  0.12738349070E+02  0.17629977537E+02  0.34572616152E+02  0.40845408953E+02  0.00000000000E+00 0.  1.
</event>
<event>
 7    1  0.1813014E-010  0.4778727E+02  0.7816164E-02  0.1312668E+00
        -11   -1    0    0    0    0  0.00000000000E+00  0.00000000000E+00  0.45593999997E+02  0.45594000000E+02  0.51100000000E-03 0.  1.
         11   -1    0    0    0    0 -0.00000000000E+00 -0.00000000000E+00 -0.45593999997E+02  0.45594000000E+02  0.51100000000E-03 0. -1.
    9900012    2    1    2    0    0 -0.15980621597E+02  0.30037648523E+01  0.40239537579E+02  0.47787271268E+02  0.20000001018E+02 0.  0.
         12    1    1    2    0    0  0.15980621597E+02 -0.30037648523E+01 -0.40239537579E+02  0.43400728732E+02  0.00000000000E+00 0. -1.
         11    1    3    3    0    0 -0.55543598451E+01 -0.27510920036E+01  0.50328448920E+01  0.79842938617E+01  0.51100000000E-03 0. -1.
        -11    1    3    3    0    0  0.14273158184E+01  0.38338436223E+01  0.20064273109E+02  0.20477076037E+02  0.51100000000E-03 0.  1.
        -12    1    3    3    0    0 -0.11853577570E+02  0.19210132335E+01  0.15142419578E+02  0.19325901369E+02  0.00000000000E+00 0.  1.
</event>
<event>
 7    1  0.1813014E-010  0.4778727E+02  0.7816164E-02  0.1312668E+00
        -11   -1    0    0    0    0  0.00000000000E+00  0.00000000000E+00  0.45593999997E+02  0.45594000000E+02  0.51100000000E-03 0.  1.
         11   -1    0    0    0    0 -0.00000000000E+00 -0.00000000000E+00 -0.45593999997E+02  0.45594000000E+02  0.51100000000E-03 0. -1.
    9900012    2    1    2    0    0  0.99380049460E+01 -0.40478220537E+02 -0.12098481635E+02  0.47787268001E+02  0.19999986123E+02 0.  0.
         12    1    1    2    0    0 -0.99380049460E+01  0.40478220537E+02  0.12098481635E+02  0.43400731999E+02  0.00000000000E+00 0. -1.
         11    1    3    3    0    0  0.25792772321E+01 -0.47051006123E+01  0.28069216671E+01  0.60555307214E+01  0.51100000000E-03 0. -1.
        -11    1    3    3    0    0  0.56086546922E+01 -0.74544009541E+01  0.69209077617E+00  0.93543621346E+01  0.51100000000E-03 0.  1.
        -12    1    3    3    0    0  0.17500730217E+01 -0.28318718971E+02 -0.15597494078E+02  0.32377375145E+02  0.00000000000E+00 0.  1.
</event>
<event>
 7    1  0.1813014E-010  0.4778728E+02  0.7816164E-02  0.1312668E+00
        -11   -1    0    0    0    0  0.00000000000E+00  0.00000000000E+00  0.45593999997E+02  0.45594000000E+02  0.51100000000E-03 0. -1.
         11   -1    0    0    0    0 -0.00000000000E+00 -0.00000000000E+00 -0.45593999997E+02  0.45594000000E+02  0.51100000000E-03 0.  1.
    9900012    2    1    2    0    0 -0.34989490287E+01  0.41183465168E+02  0.13240179782E+02  0.47787276410E+02  0.20000024462E+02 0.  0.
         12    1    1    2    0    0  0.34989490287E+01 -0.41183465168E+02 -0.13240179782E+02  0.43400723590E+02  0.00000000000E+00 0. -1.
         11    1    3    3    0    0 -0.48472727595E+01  0.24111295750E+02  0.61224126541E+01  0.25344320328E+02  0.51100000000E-03 0. -1.
        -11    1    3    3    0    0 -0.49155259320E+01  0.12326395550E+02  0.31482939658E+01  0.13638701463E+02  0.51100000000E-03 0.  1.
         12    1    3    3    0    0  0.62638496629E+01  0.47457738685E+01  0.39694731616E+01  0.88042546187E+01  0.00000000000E+00 0. -1.
</event>
<event>
 7    1  0.1813014E-010  0.4778727E+02  0.7816164E-02  0.1312668E+00
        -11   -1    0    0    0    0  0.00000000000E+00  0.00000000000E+00  0.45593999997E+02  0.45594000000E+02  0.51100000000E-03 0. -1.
         11   -1    0    0    0    0 -0.00000000000E+00 -0.00000000000E+00 -0.45593999997E+02  0.45594000000E+02  0.51100000000E-03 0.  1.
    9900012    2    1    2    0    0 -0.38966562203E+02  0.52903919942E+01 -0.18364149073E+02  0.47787272028E+02  0.20000004484E+02 0.  0.
         12    1    1    2    0    0  0.38966562203E+02 -0.52903919942E+01  0.18364149073E+02  0.43400727972E+02  0.00000000000E+00 0. -1.
         11    1    3    3    0    0 -0.37206550271E+01  0.45888911986E+00  0.38577622439E+01  0.53792362698E+01  0.51100000000E-03 0. -1.
        -11    1    3    3    0    0 -0.16612849994E+02  0.22768462054E+01 -0.68323292931E+01  0.18106671074E+02  0.51100000000E-03 0.  1.
        -12    1    3    3    0    0 -0.18633057182E+02  0.25546566689E+01 -0.15389582024E+02  0.24301364684E+02  0.00000000000E+00 0.  1.
</event>
<event>
 7    1  0.1816548E-010  0.4778728E+02  0.7816164E-02  0.1312668E+00
        -11   -1    0    0    0    0  0.00000000000E+00  0.00000000000E+00  0.45593999997E+02  0.45594000000E+02  0.51100000000E-03 0. -1.
         11   -1    0    0    0    0 -0.00000000000E+00 -0.00000000000E+00 -0.45593999997E+02  0.45594000000E+02  0.51100000000E-03 0.  1.
    9900012    2    1    2    0    0 -0.93876649164E+01  0.36792190518E+02 -0.21019729593E+02  0.47787279178E+02  0.20000037084E+02 0.  0.
         12    1    1    2    0    0  0.93876649164E+01 -0.36792190518E+02  0.21019729593E+02  0.43400720822E+02  0.00000000000E+00 0. -1.
         11    1    3    3    0    0 -0.12281726254E+02  0.27071723825E+02 -0.20565420373E+02  0.36147690742E+02  0.51100000000E-03 0. -1.
        -11    1    3    3    0    0  0.17876277640E+01  0.81786564981E+01 -0.26085034033E+01  0.87687128704E+01  0.51100000000E-03 0.  1.
         12    1    3    3    0    0  0.11064335734E+01  0.15418101952E+01  0.21541941834E+01  0.28708755651E+01  0.00000000000E+00 0. -1.
</event>
<event>
 7    1  0.1813014E-010  0.4778727E+02  0.7816164E-02  0.1312668E+00
        -11   -1    0    0    0    0  0.00000000000E+00  0.00000000000E+00  0.45593999997E+02  0.45594000000E+02  0.51100000000E-03 0.  1.
         11   -1    0    0    0    0 -0.00000000000E+00 -0.00000000000E+00 -0.45593999997E+02  0.45594000000E+02  0.51100000000E-03 0. -1.
    9900012    2    1    2    0    0  0.29208277660E+02 -0.28808732411E+02  0.14161806233E+02  0.47787270712E+02  0.19999998483E+02 0.  0.
         12    1    1    2    0    0 -0.29208277660E+02  0.28808732411E+02 -0.14161806233E+02  0.43400729288E+02  0.00000000000E+00 0. -1.
         11    1    3    3    0    0  0.22306621618E+01  0.10431668789E+01  0.28695621585E+01  0.37813275526E+01  0.51100000000E-03 0. -1.
        -11    1    3    3    0    0  0.23359783429E+01 -0.45674740763E+01 -0.29702464392E+01  0.59279826608E+01  0.51100000000E-03 0.  1.
        -12    1    3    3    0    0  0.24641637155E+02 -0.25284425213E+02  0.14262490514E+02  0.38077960498E+02  0.00000000000E+00 0.  1.
</event>
<event>
 7    1  0.1813014E-010  0.4778727E+02  0.7816164E-02  0.1312668E+00
        -11   -1    0    0    0    0  0.00000000000E+00  0.00000000000E+00  0.45593999997E+02  0.45594000000E+02  0.51100000000E-03 0.  1.
         11   -1    0    0    0    0 -0.00000000000E+00 -0.00000000000E+00 -0.45593999997E+02  0.45594000000E+02  0.51100000000E-03 0. -1.
    9900012    2    1    2    0    0  0.16152306156E+02  0.26369057956E+02  0.30453230905E+02  0.47787268621E+02  0.19999988952E+02 0.  0.
         12    1    1    2    0    0 -0.16152306156E+02 -0.26369057956E+02 -0.30453230905E+02  0.43400731379E+02  0.00000000000E+00 0. -1.
         11    1    3    3    0    0 -0.99285598147E+00  0.94738823225E+01  0.74866743614E+01  0.12115713042E+02  0.51100000000E-03 0. -1.
        -11    1    3    3    0    0  0.94078683610E+01  0.79030816392E+01  0.19952049421E+02  0.23431836523E+02  0.51100000000E-03 0.  1.
         12    1    3    3    0    0  0.77372937766E+01  0.89920939939E+01  0.30145071229E+01  0.12239719056E+02  0.00000000000E+00 0. -1.
</event>
<event>
 7    1  0.1813014E-010  0.4778727E+02  0.7816164E-02  0.1312668E+00
        -11   -1    0    0    0    0  0.00000000000E+00  0.00000000000E+00  0.45593999997E+02  0.45594000000E+02  0.51100000000E-03 0.  1.
         11   -1    0    0    0    0 -0.00000000000E+00 -0.00000000000E+00 -0.45593999997E+02  0.45594000000E+02  0.51100000000E-03 0. -1.
    9900012    2    1    2    0    0  0.40907029102E+02 -0.14347276901E+02  0.20961473449E+01  0.47787271687E+02  0.20000002930E+02 0.  0.
         12    1    1    2    0    0 -0.40907029102E+02  0.14347276901E+02 -0.20961473449E+01  0.43400728313E+02  0.00000000000E+00 0. -1.
         11    1    3    3    0    0  0.39730092139E+01 -0.49690064025E+01 -0.86047033535E+00  0.64199872509E+01  0.51100000000E-03 0. -1.
        -11    1    3    3    0    0  0.76261271386E+01 -0.89867694668E+01 -0.81774944905E+00  0.11814760049E+02  0.51100000000E-03 0.  1.
        -12    1    3    3    0    0  0.29307892749E+02 -0.39150103177E+00  0.37743671293E+01  0.29552524388E+02  0.00000000000E+00 0.  1.
</event>
<event>
 7    1  0.1813014E-010  0.4778726E+02  0.7816164E-02  0.1312668E+00
        -11   -1    0    0    0    0  0.00000000000E+00  0.00000000000E+00  0.45593999997E+02  0.45594000000E+02  0.51100000000E-03 0. -1.
         11   -1    0    0    0    0 -0.00000000000E+00 -0.00000000000E+00 -0.45593999997E+02  0.45594000000E+02  0.51100000000E-03 0.  1.
    9900012    2    1    2    0    0 -0.12786865425E+02 -0.90756992406E+01 -0.40469145700E+02  0.47787262705E+02  0.19999961976E+02 0.  0.
         12    1    1    2    0    0  0.12786865425E+02  0.90756992406E+01  0.40469145700E+02  0.43400737295E+02  0.00000000000E+00 0. -1.
         11    1    3    3    0    0  0.19594520115E+01 -0.39420525334E+01 -0.10805977996E+02  0.11668264270E+02  0.51100000000E-03 0. -1.
        -11    1    3    3    0    0 -0.70596613325E+01  0.40647218669E+01 -0.15915323420E+02  0.17878990514E+02  0.51100000000E-03 0.  1.
         12    1    3    3    0    0 -0.76866561042E+01 -0.91983685742E+01 -0.13747844284E+02  0.18240007921E+02  0.00000000000E+00 0. -1.
</event>
<event>
 7    1  0.1813014E-010  0.4778727E+02  0.7816164E-02  0.1312668E+00
        -11   -1    0    0    0    0  0.00000000000E+00  0.00000000000E+00  0.45593999997E+02  0.45594000000E+02  0.51100000000E-03 0. -1.
         11   -1    0    0    0    0 -0.00000000000E+00 -0.00000000000E+00 -0.45593999997E+02  0.45594000000E+02  0.51100000000E-03 0.  1.
    9900012    2    1    2    0    0 -0.99770480861E+01 -0.33019121242E+02 -0.26340457118E+02  0.47787268010E+02  0.19999986165E+02 0.  0.
         12    1    1    2    0    0  0.99770480861E+01  0.33019121242E+02  0.26340457118E+02  0.43400731990E+02  0.00000000000E+00 0. -1.
         11    1    3    3    0    0 -0.32152563807E+01  0.46262963240E+00 -0.43037862191E+01  0.53920752824E+01  0.51100000000E-03 0. -1.
        -11    1    3    3    0    0 -0.39927831768E+01 -0.19779097127E+02 -0.19740210972E+02  0.28228193887E+02  0.51100000000E-03 0.  1.
        -12    1    3    3    0    0 -0.27690085286E+01 -0.13702653747E+02 -0.22964599264E+01  0.14166998840E+02  0.00000000000E+00 0.  1.
</event>
<event>
 7    1  0.1813014E-010  0.4778727E+02  0.7816164E-02  0.1312668E+00
        -11   -1    0    0    0    0  0.00000000000E+00  0.00000000000E+00  0.45593999997E+02  0.45594000000E+02  0.51100000000E-03 0. -1.
         11   -1    0    0    0    0 -0.00000000000E+00 -0.00000000000E+00 -0.45593999997E+02  0.45594000000E+02  0.51100000000E-03 0.  1.
    9900012    2    1    2    0    0 -0.20294365270E+01 -0.24533914478E+02 -0.35743417658E+02  0.47787268692E+02  0.19999989274E+02 0.  0.
         12    1    1    2    0    0  0.20294365270E+01  0.24533914478E+02  0.35743417658E+02  0.43400731308E+02  0.00000000000E+00 0. -1.
         11    1    3    3    0    0 -0.24926287008E+01 -0.58182837297E+01 -0.19956032881E+01  0.66368709603E+01  0.51100000000E-03 0. -1.
        -11    1    3    3    0    0  0.14974336197E+01 -0.20981866798E+02 -0.29625947204E+02  0.36334250918E+02  0.51100000000E-03 0.  1.
         12    1    3    3    0    0 -0.10342414459E+01  0.22662360497E+01 -0.41218671653E+01  0.48161468135E+01  0.00000000000E+00 0. -1.
</event>
<event>
 7    1  0.1813014E-010  0.4778728E+02  0.7816164E-02  0.1312668E+00
        -11   -1    0    0    0    0  0.00000000000E+00  0.00000000000E+00  0.45593999997E+02  0.45594000000E+02  0.51100000000E-03 0.  1.
         11   -1    0    0    0    0 -0.00000000000E+00 -0.00000000000E+00 -0.45593999997E+02  0.45594000000E+02  0.51100000000E-03 0. -1.
    9900012    2    1    2    0    0  0.14144165404E+02  0.40000578283E+02  0.91388580626E+01  0.47787281059E+02  0.20000045658E+02 0.  0.
         12    1    1    2    0    0 -0.14144165404E+02 -0.40000578283E+02 -0.91388580626E+01  0.43400718941E+02  0.00000000000E+00 0. -1.
         11    1    3    3    0    0 -0.27156848413E+00  0.23650743579E+01  0.33490650731E+01  0.41089613389E+01  0.51100000000E-03 0. -1.
        -11    1    3    3    0    0  0.50187946385E+01  0.20052405390E+02  0.10511729784E+02  0.23190164399E+02  0.51100000000E-03 0.  1.
         12    1    3    3    0    0  0.93969392492E+01  0.17583098535E+02 -0.47219367942E+01  0.20488155321E+02  0.00000000000E+00 0. -1.
</event>
<event>
 7    1  0.1813014E-010  0.4778727E+02  0.7816164E-02  0.1312668E+00
        -11   -1    0    0    0    0  0.00000000000E+00  0.00000000000E+00  0.45593999997E+02  0.45594000000E+02  0.51100000000E-03 0. -1.
         11   -1    0    0    0    0 -0.00000000000E+00 -0.00000000000E+00 -0.45593999997E+02  0.45594000000E+02  0.51100000000E-03 0.  1.
    9900012    2    1    2    0    0 -0.12006473837E+02  0.41248409836E+02  0.61673786152E+01  0.47787270894E+02  0.19999999314E+02 0.  0.
         12    1    1    2    0    0  0.12006473837E+02 -0.41248409836E+02 -0.61673786152E+01  0.43400729106E+02  0.00000000000E+00 0. -1.
         11    1    3    3    0    0 -0.23099250343E+00  0.20673129197E+02  0.36475498861E+01  0.20993719269E+02  0.51100000000E-03 0. -1.
        -11    1    3    3    0    0 -0.95921801098E+01  0.19434556002E+02 -0.18767173106E+01  0.21753941123E+02  0.51100000000E-03 0.  1.
         12    1    3    3    0    0 -0.21833012237E+01  0.11407246368E+01  0.43965460396E+01  0.50396105017E+01  0.00000000000E+00 0. -1.
</event>
<event>
 7    1  0.1813014E-010  0.4778727E+02  0.7816164E-02  0.1312668E+00
        -11   -1    0    0    0    0  0.00000000000E+00  0.00000000000E+00  0.45593999997E+02  0.45594000000E+02  0.51100000000E-03 0.  1.
         11   -1    0    0    0    0 -0.00000000000E+00 -0.00000000000E+00 -0.45593999997E+02  0.45594000000E+02  0.51100000000E-03 0. -1.
    9900012    2    1    2    0    0 -0.29871121758E+02  0.26883089764E+02  0.16390202899E+02  0.47787272110E+02  0.20000004856E+02 0.  0.
         12    1    1    2    0    0  0.29871121758E+02 -0.26883089764E+02 -0.16390202899E+02  0.43400727890E+02  0.00000000000E+00 0. -1.
         11    1    3    3    0    0 -0.24205887666E+02  0.25133541336E+02  0.20298050225E+02  0.40368685153E+02  0.51100000000E-03 0.  1.
        -11    1    3    3    0    0 -0.28060139843E+00  0.23049502723E+00 -0.11006818265E+01  0.11590366028E+01  0.51100000000E-03 0. -1.
         12    1    3    3    0    0 -0.53846326940E+01  0.15190534007E+01 -0.28071655001E+01  0.62595503535E+01  0.00000000000E+00 0. -1.
</event>
<event>
 7    1  0.1813014E-010  0.4778726E+02  0.7816164E-02  0.1312668E+00
        -11   -1    0    0    0    0  0.00000000000E+00  0.00000000000E+00  0.45593999997E+02  0.45594000000E+02  0.51100000000E-03 0. -1.
         11   -1    0    0    0    0 -0.00000000000E+00 -0.00000000000E+00 -0.45593999997E+02  0.45594000000E+02  0.51100000000E-03 0.  1.
    9900012    2    1    2    0    0  0.36888766473E+02  0.18808017768E+01  0.22788278561E+02  0.47787260986E+02  0.19999954138E+02 0.  0.
         12    1    1    2    0    0 -0.36888766473E+02 -0.18808017768E+01 -0.22788278561E+02  0.43400739014E+02  0.00000000000E+00 0. -1.
         11    1    3    3    0    0  0.19124983622E+02  0.26340783734E+01  0.10407425433E+02  0.21932119638E+02  0.51100000000E-03 0. -1.
        -11    1    3    3    0    0  0.21341531107E+01 -0.54581193009E+01  0.97156718195E+00  0.59405066158E+01  0.51100000000E-03 0.  1.
         12    1    3    3    0    0  0.15629629741E+02  0.47048427043E+01  0.11409285946E+02  0.19914634732E+02  0.00000000000E+00 0. -1.
</event>
<event>
 7    1  0.1813014E-010  0.4778727E+02  0.7816164E-02  0.1312668E+00
        -11   -1    0    0    0    0  0.00000000000E+00  0.00000000000E+00  0.45593999997E+02  0.45594000000E+02  0.51100000000E-03 0.  1.
         11   -1    0    0    0    0 -0.00000000000E+00 -0.00000000000E+00 -0.45593999997E+02  0.45594000000E+02  0.51100000000E-03 0. -1.
    9900012    2    1    2    0    0 -0.22094038105E+02 -0.21971781763E+02  0.30211215303E+02  0.47787271392E+02  0.20000001585E+02 0.  0.
         12    1    1    2    0    0  0.22094038105E+02  0.21971781763E+02 -0.30211215303E+02  0.43400728608E+02  0.00000000000E+00 0. -1.
         11    1    3    3    0    0 -0.59059332366E+01 -0.26469479807E+01 -0.17017620359E+01  0.66919634858E+01  0.51100000000E-03 0. -1.
        -11    1    3    3    0    0 -0.86837779668E+01 -0.10712288781E+02  0.12722638697E+02  0.18762373687E+02  0.51100000000E-03 0.  1.
        -12    1    3    3    0    0 -0.75043269018E+01 -0.86125450016E+01  0.19190338641E+02  0.22332934219E+02  0.00000000000E+00 0.  1.
</event>
<event>
 7    1  0.1813014E-010  0.4778727E+02  0.7816164E-02  0.1312668E+00
        -11   -1    0    0    0    0  0.00000000000E+00  0.00000000000E+00  0.45593999997E+02  0.45594000000E+02  0.51100000000E-03 0. -1.
         11   -1    0    0    0    0 -0.00000000000E+00 -0.00000000000E+00 -0.45593999997E+02  0.45594000000E+02  0.51100000000E-03 0.  1.
    9900012    2    1    2    0    0 -0.54657288842E+00 -0.27073836076E+02 -0.33916542352E+02  0.47787272046E+02  0.20000004566E+02 0.  0.
         12    1    1    2    0    0  0.54657288842E+00  0.27073836076E+02  0.33916542352E+02  0.43400727954E+02  0.00000000000E+00 0. -1.
         11    1    3    3    0    0  0.41708786192E+01 -0.10654189422E+02 -0.18858806232E+02  0.22058162966E+02  0.51100000000E-03 0. -1.
        -11    1    3    3    0    0  0.15637585051E+01 -0.12571665182E+02 -0.12836813752E+02  0.18035406668E+02  0.51100000000E-03 0.  1.
         12    1    3    3    0    0 -0.62812100127E+01 -0.38479814717E+01 -0.22209223685E+01  0.76937024115E+01  0.00000000000E+00 0. -1.
</event>
<event>
 7    1  0.1813014E-010  0.4778727E+02  0.7816164E-02  0.1312668E+00
        -11   -1    0    0    0    0  0.00000000000E+00  0.00000000000E+00  0.45593999997E+02  0.45594000000E+02  0.51100000000E-03 0. -1.
         11   -1    0    0    0    0 -0.00000000000E+00 -0.00000000000E+00 -0.45593999997E+02  0.45594000000E+02  0.51100000000E-03 0.  1.
    9900012    2    1    2    0    0 -0.42867122724E+01 -0.29961565002E+00 -0.43187470717E+02  0.47787270760E+02  0.19999998703E+02 0.  0.
         12    1    1    2    0    0  0.42867122724E+01  0.29961565002E+00  0.43187470717E+02  0.43400729240E+02  0.00000000000E+00 0. -1.
         11    1    3    3    0    0  0.77469289447E+00 -0.65587776278E+01 -0.91640639761E+01  0.11295918815E+02  0.51100000000E-03 0. -1.
        -11    1    3    3    0    0 -0.61313913638E+01  0.16210305754E+01 -0.89446619775E+01  0.10964883872E+02  0.51100000000E-03 0.  1.
        -12    1    3    3    0    0  0.10699861969E+01  0.46381314024E+01 -0.25078744763E+02  0.25526468073E+02  0.00000000000E+00 0.  1.
</event>
<event>
 7    1  0.1813014E-010  0.4778727E+02  0.7816164E-02  0.1312668E+00
        -11   -1    0    0    0    0  0.00000000000E+00  0.00000000000E+00  0.45593999997E+02  0.45594000000E+02  0.51100000000E-03 0.  1.
         11   -1    0    0    0    0 -0.00000000000E+00 -0.00000000000E+00 -0.45593999997E+02  0.45594000000E+02  0.51100000000E-03 0. -1.
    9900012    2    1    2    0    0 -0.21371311812E+02 -0.24891708239E+01  0.37692095498E+02  0.47787274166E+02  0.20000014232E+02 0.  0.
         12    1    1    2    0    0  0.21371311812E+02  0.24891708239E+01 -0.37692095498E+02  0.43400725834E+02  0.00000000000E+00 0. -1.
         11    1    3    3    0    0  0.13228335413E+01 -0.19504384437E+01  0.96922639532E+00  0.25482344412E+01  0.51100000000E-03 0. -1.
        -11    1    3    3    0    0 -0.29952411704E+00 -0.28604247050E+01  0.94260906658E+01  0.98550966353E+01  0.51100000000E-03 0.  1.
        -12    1    3    3    0    0 -0.22394621236E+02  0.23216923247E+01  0.27296778436E+02  0.35383943089E+02  0.00000000000E+00 0.  1.
</event>
<event>
 7    1  0.1813014E-010  0.4778727E+02  0.7816164E-02  0.1312668E+00
        -11   -1    0    0    0    0  0.00000000000E+00  0.00000000000E+00  0.45593999997E+02  0.45594000000E+02  0.51100000000E-03 0. -1.
         11   -1    0    0    0    0 -0.00000000000E+00 -0.00000000000E+00 -0.45593999997E+02  0.45594000000E+02  0.51100000000E-03 0.  1.
    9900012    2    1    2    0    0 -0.22056220308E+02  0.30810424070E+02  0.21162798990E+02  0.47787272509E+02  0.20000006677E+02 0.  0.
         12    1    1    2    0    0  0.22056220308E+02 -0.30810424070E+02 -0.21162798990E+02  0.43400727491E+02  0.00000000000E+00 0. -1.
         11    1    3    3    0    0 -0.10526717815E+02  0.14989118157E+02  0.19902388354E+02  0.27047929931E+02  0.51100000000E-03 0. -1.
        -11    1    3    3    0    0 -0.55836175695E+01  0.25914308183E+01 -0.21851691786E+00  0.61595493953E+01  0.51100000000E-03 0.  1.
        -12    1    3    3    0    0 -0.59458849234E+01  0.13229875095E+02  0.14789275538E+01  0.14579793183E+02  0.00000000000E+00 0.  1.
</event>
<event>
 7    1  0.1813014E-010  0.4778726E+02  0.7816164E-02  0.1312668E+00
        -11   -1    0    0    0    0  0.00000000000E+00  0.00000000000E+00  0.45593999997E+02  0.45594000000E+02  0.51100000000E-03 0.  1.
         11   -1    0    0    0    0 -0.00000000000E+00 -0.00000000000E+00 -0.45593999997E+02  0.45594000000E+02  0.51100000000E-03 0. -1.
    9900012    2    1    2    0    0  0.32224339094E+02  0.14617501260E+02  0.25130550931E+02  0.47787263102E+02  0.19999963789E+02 0.  0.
         12    1    1    2    0    0 -0.32224339094E+02 -0.14617501260E+02 -0.25130550931E+02  0.43400736898E+02  0.00000000000E+00 0. -1.
         11    1    3    3    0    0  0.22695448556E+01  0.52830497062E+01  0.11942359598E+01  0.58726184823E+01  0.51100000000E-03 0. -1.
        -11    1    3    3    0    0  0.15977407770E+02  0.36497182453E+01  0.20837815034E+02  0.26510611799E+02  0.51100000000E-03 0.  1.
        -12    1    3    3    0    0  0.13977386469E+02  0.56847333090E+01  0.30984999369E+01  0.15404032821E+02  0.00000000000E+00 0.  1.
</event>
<event>
 7    1  0.1813014E-010  0.4778727E+02  0.7816164E-02  0.1312668E+00
        -11   -1    0    0    0    0  0.00000000000E+00  0.00000000000E+00  0.45593999997E+02  0.45594000000E+02  0.51100000000E-03 0. -1.
         11   -1    0    0    0    0 -0.00000000000E+00 -0.00000000000E+00 -0.45593999997E+02  0.45594000000E+02  0.51100000000E-03 0.  1.
    9900012    2    1    2    0    0  0.20911480767E+02 -0.24531259235E+02 -0.29061152429E+02  0.47787270881E+02  0.19999999255E+02 0.  0.
         12    1    1    2    0    0 -0.20911480767E+02  0.24531259235E+02  0.29061152429E+02  0.43400729119E+02  0.00000000000E+00 0. -1.
         11    1    3    3    0    0 -0.11897828434E+01  0.47631406693E+00 -0.10189500793E+01  0.16372897819E+01  0.51100000000E-03 0. -1.
        -11    1    3    3    0    0  0.22888268223E+02 -0.16919376190E+02 -0.20654239240E+02  0.35167253401E+02  0.51100000000E-03 0.  1.
        -12    1    3    3    0    0 -0.78700461255E+00 -0.80881971122E+01 -0.73879631100E+01  0.10982727699E+02  0.00000000000E+00 0.  1.
</event>
<event>
 7    1  0.1813014E-010  0.4778727E+02  0.7816164E-02  0.1312668E+00
        -11   -1    0    0    0    0  0.00000000000E+00  0.00000000000E+00  0.45593999997E+02  0.45594000000E+02  0.51100000000E-03 0.  1.
         11   -1    0    0    0    0 -0.00000000000E+00 -0.00000000000E+00 -0.45593999997E+02  0.45594000000E+02  0.51100000000E-03 0. -1.
    9900012    2    1    2    0    0 -0.10551018775E+01  0.10326560806E+02  0.42141098439E+02  0.47787271024E+02  0.19999999906E+02 0.  0.
         12    1    1    2    0    0  0.10551018775E+01 -0.10326560806E+02 -0.42141098439E+02  0.43400728976E+02  0.00000000000E+00 0. -1.
         11    1    3    3    0    0  0.12690827198E+01 -0.15920348080E+01  0.10994140028E+02  0.11181067077E+02  0.51100000000E-03 0. -1.
        -11    1    3    3    0    0 -0.40546979826E+01  0.83755553685E+01  0.58230980052E+01  0.10977202471E+02  0.51100000000E-03 0.  1.
        -12    1    3    3    0    0  0.17305133853E+01  0.35430402457E+01  0.25323860406E+02  0.25629001475E+02  0.00000000000E+00 0.  1.
</event>
<event>
 7    1  0.1813014E-010  0.4778727E+02  0.7816164E-02  0.1312668E+00
        -11   -1    0    0    0    0  0.00000000000E+00  0.00000000000E+00  0.45593999997E+02  0.45594000000E+02  0.51100000000E-03 0.  1.
         11   -1    0    0    0    0 -0.00000000000E+00 -0.00000000000E+00 -0.45593999997E+02  0.45594000000E+02  0.51100000000E-03 0. -1.
    9900012    2    1    2    0    0 -0.26803148444E+02 -0.26715377055E+02  0.21248606057E+02  0.47787269625E+02  0.19999993529E+02 0.  0.
         12    1    1    2    0    0  0.26803148444E+02  0.26715377055E+02 -0.21248606057E+02  0.43400730375E+02  0.00000000000E+00 0. -1.
         11    1    3    3    0    0 -0.20940517981E+01  0.88533077731E+00  0.34367279817E+01  0.41206750661E+01  0.51100000000E-03 0. -1.
        -11    1    3    3    0    0 -0.12195412178E+02 -0.22091670866E+02  0.15987958879E+02  0.29872810869E+02  0.51100000000E-03 0.  1.
        -12    1    3    3    0    0 -0.12513684468E+02 -0.55090369661E+01  0.18239191965E+01  0.13793783690E+02  0.00000000000E+00 0.  1.
</event>
<event>
 7    1  0.1813014E-010  0.4778726E+02  0.7816164E-02  0.1312668E+00
        -11   -1    0    0    0    0  0.00000000000E+00  0.00000000000E+00  0.45593999997E+02  0.45594000000E+02  0.51100000000E-03 0.  1.
         11   -1    0    0    0    0 -0.00000000000E+00 -0.00000000000E+00 -0.45593999997E+02  0.45594000000E+02  0.51100000000E-03 0. -1.
    9900012    2    1    2    0    0  0.21500460991E+02 -0.22648815310E+02  0.30139439976E+02  0.47787256921E+02  0.19999935603E+02 0.  0.
         12    1    1    2    0    0 -0.21500460991E+02  0.22648815310E+02 -0.30139439976E+02  0.43400743079E+02  0.00000000000E+00 0. -1.
         11    1    3    3    0    0  0.10214779606E+01 -0.24907476302E+00 -0.63269691521E+00  0.12270945804E+01  0.51100000000E-03 0. -1.
        -11    1    3    3    0    0  0.20879840186E+02 -0.17566679518E+02  0.17465981634E+02  0.32397784958E+02  0.51100000000E-03 0.  1.
        -12    1    3    3    0    0 -0.40085715624E+00 -0.48330610290E+01  0.13306155258E+02  0.14162377382E+02  0.00000000000E+00 0.  1.
</event>
<event>
 7    1  0.1813014E-010  0.4778727E+02  0.7816164E-02  0.1312668E+00
        -11   -1    0    0    0    0  0.00000000000E+00  0.00000000000E+00  0.45593999997E+02  0.45594000000E+02  0.51100000000E-03 0.  1.
         11   -1    0    0    0    0 -0.00000000000E+00 -0.00000000000E+00 -0.45593999997E+02  0.45594000000E+02  0.51100000000E-03 0. -1.
    9900012    2    1    2    0    0 -0.36326815194E+02  0.17679320682E+02  0.15856462578E+02  0.47787270889E+02  0.19999999290E+02 0.  0.
         12    1    1    2    0    0  0.36326815194E+02 -0.17679320682E+02 -0.15856462578E+02  0.43400729111E+02  0.00000000000E+00 0. -1.
         11    1    3    3    0    0 -0.15630938393E+02  0.75381591439E+01  0.98174264875E+01  0.19938203064E+02  0.51100000000E-03 0. -1.
        -11    1    3    3    0    0 -0.18928522858E+02  0.83172558522E+01 -0.65895302042E+00  0.20685742477E+02  0.51100000000E-03 0.  1.
         12    1    3    3    0    0 -0.17673539433E+01  0.18239056864E+01  0.66979891106E+01  0.71633253479E+01  0.00000000000E+00 0. -1.
</event>
<event>
 7    1  0.1813014E-010  0.4778727E+02  0.7816164E-02  0.1312668E+00
        -11   -1    0    0    0    0  0.00000000000E+00  0.00000000000E+00  0.45593999997E+02  0.45594000000E+02  0.51100000000E-03 0.  1.
         11   -1    0    0    0    0 -0.00000000000E+00 -0.00000000000E+00 -0.45593999997E+02  0.45594000000E+02  0.51100000000E-03 0. -1.
    9900012    2    1    2    0    0  0.12860640659E+02 -0.37301760071E+02  0.18077776543E+02  0.47787269738E+02  0.19999994043E+02 0.  0.
         12    1    1    2    0    0 -0.12860640659E+02  0.37301760071E+02 -0.18077776543E+02  0.43400730262E+02  0.00000000000E+00 0. -1.
         11    1    3    3    0    0  0.68749450874E+01 -0.25001689675E+02  0.12575395779E+02  0.28818222287E+02  0.51100000000E-03 0. -1.
        -11    1    3    3    0    0 -0.33707098857E+01 -0.57805149855E+01  0.27719843805E+01  0.72429231874E+01  0.51100000000E-03 0.  1.
         12    1    3    3    0    0  0.93564054569E+01 -0.65195554107E+01  0.27303963836E+01  0.11726124263E+02  0.00000000000E+00 0. -1.
</event>
<event>
 7    1  0.1813014E-010  0.4778728E+02  0.7816164E-02  0.1312668E+00
        -11   -1    0    0    0    0  0.00000000000E+00  0.00000000000E+00  0.45593999997E+02  0.45594000000E+02  0.51100000000E-03 0.  1.
         11   -1    0    0    0    0 -0.00000000000E+00 -0.00000000000E+00 -0.45593999997E+02  0.45594000000E+02  0.51100000000E-03 0. -1.
    9900012    2    1    2    0    0  0.24488133731E+02  0.35295601252E+02  0.61785722137E+01  0.47787275167E+02  0.20000018797E+02 0.  0.
         12    1    1    2    0    0 -0.24488133731E+02 -0.35295601252E+02 -0.61785722137E+01  0.43400724833E+02  0.00000000000E+00 0. -1.
         11    1    3    3    0    0  0.75691766356E+01  0.13461964976E+02 -0.37883313530E+01  0.15901836078E+02  0.51100000000E-03 0. -1.
        -11    1    3    3    0    0  0.14776847218E+02  0.91958279720E+01  0.47043147567E+01  0.18029116545E+02  0.51100000000E-03 0.  1.
        -12    1    3    3    0    0  0.21421098779E+01  0.12637808304E+02  0.52625888100E+01  0.13856322544E+02  0.00000000000E+00 0.  1.
</event>
<event>
 7    1  0.1813014E-010  0.4778729E+02  0.7816164E-02  0.1312668E+00
        -11   -1    0    0    0    0  0.00000000000E+00  0.00000000000E+00  0.45593999997E+02  0.45594000000E+02  0.51100000000E-03 0.  1.
         11   -1    0    0    0    0 -0.00000000000E+00 -0.00000000000E+00 -0.45593999997E+02  0.45594000000E+02  0.51100000000E-03 0. -1.
    9900012    2    1    2    0    0 -0.33935433948E+02  0.21352441911E+02  0.16615699428E+02  0.47787286638E+02  0.20000071098E+02 0.  0.
         12    1    1    2    0    0  0.33935433948E+02 -0.21352441911E+02 -0.16615699428E+02  0.43400713362E+02  0.00000000000E+00 0. -1.
         11    1    3    3    0    0  0.74009299085E+00  0.43562469225E+01 -0.16180776833E+01  0.47056137257E+01  0.51100000000E-03 0. -1.
        -11    1    3    3    0    0 -0.16372891887E+02  0.54045064227E+01  0.63661160751E+01  0.18379546038E+02  0.51100000000E-03 0.  1.
         12    1    3    3    0    0 -0.18302635052E+02  0.11591688566E+02  0.11867661036E+02  0.24702126875E+02  0.00000000000E+00 0. -1.
</event>
<event>
 7    1  0.1813014E-010  0.4778727E+02  0.7816164E-02  0.1312668E+00
        -11   -1    0    0    0    0  0.00000000000E+00  0.00000000000E+00  0.45593999997E+02  0.45594000000E+02  0.51100000000E-03 0.  1.
         11   -1    0    0    0    0 -0.00000000000E+00 -0.00000000000E+00 -0.45593999997E+02  0.45594000000E+02  0.51100000000E-03 0. -1.
    9900012    2    1    2    0    0  0.28231778884E+02  0.15800567577E+02  0.28929785824E+02  0.47787265184E+02  0.19999973281E+02 0.  0.
         12    1    1    2    0    0 -0.28231778884E+02 -0.15800567577E+02 -0.28929785824E+02  0.43400734816E+02  0.00000000000E+00 0. -1.
         11    1    3    3    0    0  0.95207940186E+01  0.25845544742E+01  0.91205163517E+01  0.13435373436E+02  0.51100000000E-03 0. -1.
        -11    1    3    3    0    0  0.11928493161E+02 -0.13301524543E+01  0.89918903763E+01  0.14997077964E+02  0.51100000000E-03 0.  1.
         12    1    3    3    0    0  0.67824917046E+01  0.14546165557E+02  0.10817379096E+02  0.19354813785E+02  0.00000000000E+00 0. -1.
</event>
<event>
 7    1  0.1813014E-010  0.4778727E+02  0.7816164E-02  0.1312668E+00
        -11   -1    0    0    0    0  0.00000000000E+00  0.00000000000E+00  0.45593999997E+02  0.45594000000E+02  0.51100000000E-03 0. -1.
         11   -1    0    0    0    0 -0.00000000000E+00 -0.00000000000E+00 -0.45593999997E+02  0.45594000000E+02  0.51100000000E-03 0.  1.
    9900012    2    1    2    0    0 -0.37480349402E+01 -0.75659823943E+01 -0.42571486350E+02  0.47787270679E+02  0.19999998335E+02 0.  0.
         12    1    1    2    0    0  0.37480349402E+01  0.75659823943E+01  0.42571486350E+02  0.43400729321E+02  0.00000000000E+00 0. -1.
         11    1    3    3    0    0 -0.96188906288E+01 -0.10101296929E+01 -0.15212100573E+02  0.18026409044E+02  0.51100000000E-03 0. -1.
        -11    1    3    3    0    0 -0.26328037217E+00 -0.47399347557E+01 -0.16376289373E+02  0.17050488320E+02  0.51100000000E-03 0.  1.
         12    1    3    3    0    0  0.61341360608E+01 -0.18159179457E+01 -0.10983096404E+02  0.12710373315E+02  0.00000000000E+00 0. -1.
</event>
<event>
 7    1  0.1813014E-010  0.4778726E+02  0.7816164E-02  0.1312668E+00
        -11   -1    0    0    0    0  0.00000000000E+00  0.00000000000E+00  0.45593999997E+02  0.45594000000E+02  0.51100000000E-03 0. -1.
         11   -1    0    0    0    0 -0.00000000000E+00 -0.00000000000E+00 -0.45593999997E+02  0.45594000000E+02  0.51100000000E-03 0.  1.
    9900012    2    1    2    0    0  0.22319009310E+02  0.34918165222E+02  0.12892144092E+02  0.47787264772E+02  0.19999971402E+02 0.  0.
         12    1    1    2    0    0 -0.22319009310E+02 -0.34918165222E+02 -0.12892144092E+02  0.43400735228E+02  0.00000000000E+00 0. -1.
         11    1    3    3    0    0  0.77393019773E+01  0.91452842285E+01 -0.16098165369E+01  0.12088197891E+02  0.51100000000E-03 0.  1.
        -11    1    3    3    0    0  0.14115135582E+02  0.24048341782E+02  0.16977485449E+02  0.32646512944E+02  0.51100000000E-03 0. -1.
        -12    1    3    3    0    0  0.46457175042E+00  0.17245392113E+01 -0.24755248200E+01  0.30525539368E+01  0.00000000000E+00 0.  1.
</event>
<event>
 7    1  0.1813014E-010  0.4778728E+02  0.7816164E-02  0.1312668E+00
        -11   -1    0    0    0    0  0.00000000000E+00  0.00000000000E+00  0.45593999997E+02  0.45594000000E+02  0.51100000000E-03 0.  1.
         11   -1    0    0    0    0 -0.00000000000E+00 -0.00000000000E+00 -0.45593999997E+02  0.45594000000E+02  0.51100000000E-03 0. -1.
    9900012    2    1    2    0    0  0.98506714705E+01  0.12925480340E+02  0.40243247841E+02  0.47787276881E+02  0.20000026611E+02 0.  0.
         12    1    1    2    0    0 -0.98506714705E+01 -0.12925480340E+02 -0.40243247841E+02  0.43400723119E+02  0.00000000000E+00 0. -1.
         11    1    3    3    0    0  0.49844462154E+00  0.28887985527E+01 -0.63170018097E+00  0.29987746662E+01  0.51100000000E-03 0. -1.
        -11    1    3    3    0    0 -0.48334110791E+00  0.67233390353E+01  0.88560815319E+01  0.11129559145E+02  0.51100000000E-03 0.  1.
        -12    1    3    3    0    0  0.98355679568E+01  0.33133427523E+01  0.32018866490E+02  0.33658943069E+02  0.00000000000E+00 0.  1.
</event>
<event>
 7    1  0.1813014E-010  0.4778726E+02  0.7816164E-02  0.1312668E+00
        -11   -1    0    0    0    0  0.00000000000E+00  0.00000000000E+00  0.45593999997E+02  0.45594000000E+02  0.51100000000E-03 0. -1.
         11   -1    0    0    0    0 -0.00000000000E+00 -0.00000000000E+00 -0.45593999997E+02  0.45594000000E+02  0.51100000000E-03 0.  1.
    9900012    2    1    2    0    0 -0.26828660964E+01  0.29989963644E+02 -0.31257452189E+02  0.47787262596E+02  0.19999961481E+02 0.  0.
         12    1    1    2    0    0  0.26828660964E+01 -0.29989963644E+02  0.31257452189E+02  0.43400737404E+02  0.00000000000E+00 0. -1.
         11    1    3    3    0    0 -0.24253958453E+01  0.87673369311E+01  0.16988959697E+00  0.90982198592E+01  0.51100000000E-03 0. -1.
        -11    1    3    3    0    0 -0.29907863695E+00 -0.29991774582E+00  0.17132370035E+00  0.45689250023E+00  0.51100000000E-03 0.  1.
        -12    1    3    3    0    0  0.41608385920E-01  0.21522544459E+02 -0.31598665486E+02  0.38232150237E+02  0.00000000000E+00 0.  1.
</event>
<event>
 7    1  0.1813014E-010  0.4778728E+02  0.7816164E-02  0.1312668E+00
        -11   -1    0    0    0    0  0.00000000000E+00  0.00000000000E+00  0.45593999997E+02  0.45594000000E+02  0.51100000000E-03 0.  1.
         11   -1    0    0    0    0 -0.00000000000E+00 -0.00000000000E+00 -0.45593999997E+02  0.45594000000E+02  0.51100000000E-03 0. -1.
    9900012    2    1    2    0    0  0.28141392802E+02 -0.14565580440E+02  0.29656849501E+02  0.47787275988E+02  0.20000022542E+02 0.  0.
         12    1    1    2    0    0 -0.28141392802E+02  0.14565580440E+02 -0.29656849501E+02  0.43400724012E+02  0.00000000000E+00 0. -1.
         11    1    3    3    0    0  0.56833789798E+01  0.39646667789E+00  0.35477089830E+00  0.57082260910E+01  0.51100000000E-03 0. -1.
        -11    1    3    3    0    0 -0.39859776235E+00  0.16507224471E+01  0.59675167705E+00  0.17999659993E+01  0.51100000000E-03 0.  1.
        -12    1    3    3    0    0  0.22856611585E+02 -0.16612769565E+02  0.28705326926E+02  0.40279083898E+02  0.00000000000E+00 0.  1.
</event>
<event>
 7    1  0.1813014E-010  0.4778727E+02  0.7816164E-02  0.1312668E+00
        -11   -1    0    0    0    0  0.00000000000E+00  0.00000000000E+00  0.45593999997E+02  0.45594000000E+02  0.51100000000E-03 0.  1.
         11   -1    0    0    0    0 -0.00000000000E+00 -0.00000000000E+00 -0.45593999997E+02  0.45594000000E+02  0.51100000000E-03 0. -1.
    9900012    2    1    2    0    0  0.98454957157E+01  0.82393440567E+01  0.41458443303E+02  0.47787273076E+02  0.20000009263E+02 0.  0.
         12    1    1    2    0    0 -0.98454957157E+01 -0.82393440567E+01 -0.41458443303E+02  0.43400726924E+02  0.00000000000E+00 0. -1.
         11    1    3    3    0    0 -0.16317221087E+01 -0.68254924859E+00  0.34998074839E+00  0.18030189411E+01  0.51100000000E-03 0. -1.
        -11    1    3    3    0    0  0.58418112922E+01  0.11645956746E+02  0.34518116852E+02  0.36895195608E+02  0.51100000000E-03 0.  1.
        -12    1    3    3    0    0  0.56354065322E+01 -0.27240634411E+01  0.65903457031E+01  0.90890585267E+01  0.00000000000E+00 0.  1.
</event>
<event>
 7    1  0.1813014E-010  0.4778727E+02  0.7816164E-02  0.1312668E+00
        -11   -1    0    0    0    0  0.00000000000E+00  0.00000000000E+00  0.45593999997E+02  0.45594000000E+02  0.51100000000E-03 0.  1.
         11   -1    0    0    0    0 -0.00000000000E+00 -0.00000000000E+00 -0.45593999997E+02  0.45594000000E+02  0.51100000000E-03 0. -1.
    9900012    2    1    2    0    0  0.25136799214E+02  0.50727248198E+01  0.35014740446E+02  0.47787271201E+02  0.20000000713E+02 0.  0.
         12    1    1    2    0    0 -0.25136799214E+02 -0.50727248198E+01 -0.35014740446E+02  0.43400728799E+02  0.00000000000E+00 0. -1.
         11    1    3    3    0    0  0.10309713737E+02 -0.43903833449E+01  0.13456574815E+02  0.17511284055E+02  0.51100000000E-03 0. -1.
        -11    1    3    3    0    0  0.14615297639E+02  0.64428362351E+01  0.22030793092E+02  0.27211631857E+02  0.51100000000E-03 0.  1.
         12    1    3    3    0    0  0.21178783802E+00  0.30202719296E+01 -0.47262746088E+00  0.30643552884E+01  0.00000000000E+00 0. -1.
</event>
<event>
 7    1  0.1813014E-010  0.4778727E+02  0.7816164E-02  0.1312668E+00
        -11   -1    0    0    0    0  0.00000000000E+00  0.00000000000E+00  0.45593999997E+02  0.45594000000E+02  0.51100000000E-03 0.  1.
         11   -1    0    0    0    0 -0.00000000000E+00 -0.00000000000E+00 -0.45593999997E+02  0.45594000000E+02  0.51100000000E-03 0. -1.
    9900012    2    1    2    0    0  0.21305281476E+02  0.24629979867E+02  0.28689236750E+02  0.47787271523E+02  0.20000002182E+02 0.  0.
         12    1    1    2    0    0 -0.21305281476E+02 -0.24629979867E+02 -0.28689236750E+02  0.43400728477E+02  0.00000000000E+00 0. -1.
         11    1    3    3    0    0  0.12990473031E+02  0.10756023113E+02  0.12493962108E+02  0.20989128428E+02  0.51100000000E-03 0. -1.
        -11    1    3    3    0    0  0.16537518707E+01  0.13320818532E+02  0.14780578242E+02  0.19966086122E+02  0.51100000000E-03 0.  1.
         12    1    3    3    0    0  0.66610565735E+01  0.55313822265E+00  0.14146964010E+01  0.68320569726E+01  0.00000000000E+00 0. -1.
</event>
<event>
 7    1  0.1813014E-010  0.4778725E+02  0.7816164E-02  0.1312668E+00
        -11   -1    0    0    0    0  0.00000000000E+00  0.00000000000E+00  0.45593999997E+02  0.45594000000E+02  0.51100000000E-03 0.  1.
         11   -1    0    0    0    0 -0.00000000000E+00 -0.00000000000E+00 -0.45593999997E+02  0.45594000000E+02  0.51100000000E-03 0. -1.
    9900012    2    1    2    0    0 -0.31266563971E+02  0.41249540290E+00  0.30097453671E+02  0.47787252397E+02  0.19999914979E+02 0.  0.
         12    1    1    2    0    0  0.31266563971E+02 -0.41249540290E+00 -0.30097453671E+02  0.43400747603E+02  0.00000000000E+00 0. -1.
         11    1    3    3    0    0 -0.22050560560E+01 -0.12097615283E+01 -0.12628858582E+01  0.28143695772E+01  0.51100000000E-03 0. -1.
        -11    1    3    3    0    0 -0.22109828895E+02 -0.45286964657E+01  0.18914224741E+02  0.29446587634E+02  0.51100000000E-03 0.  1.
        -12    1    3    3    0    0 -0.69516790198E+01  0.61509533968E+01  0.12446114788E+02  0.15526295186E+02  0.00000000000E+00 0.  1.
</event>
<event>
 7    1  0.1813014E-010  0.4778727E+02  0.7816164E-02  0.1312668E+00
        -11   -1    0    0    0    0  0.00000000000E+00  0.00000000000E+00  0.45593999997E+02  0.45594000000E+02  0.51100000000E-03 0.  1.
         11   -1    0    0    0    0 -0.00000000000E+00 -0.00000000000E+00 -0.45593999997E+02  0.45594000000E+02  0.51100000000E-03 0. -1.
    9900012    2    1    2    0    0 -0.35508255125E+01  0.15816939880E+02  0.40259648401E+02  0.47787271454E+02  0.20000001868E+02 0.  0.
         12    1    1    2    0    0  0.35508255125E+01 -0.15816939880E+02 -0.40259648401E+02  0.43400728546E+02  0.00000000000E+00 0. -1.
         11    1    3    3    0    0 -0.42572318005E+01  0.56477105921E+01  0.29758398139E+01  0.76730880612E+01  0.51100000000E-03 0. -1.
        -11    1    3    3    0    0 -0.26115196224E+01  0.61971813959E+01  0.83510839393E+01  0.10722205707E+02  0.51100000000E-03 0.  1.
        -12    1    3    3    0    0  0.33179259105E+01  0.39720478915E+01  0.28932724647E+02  0.29391977686E+02  0.00000000000E+00 0.  1.
</event>
<event>
 7    1  0.1813014E-010  0.4778727E+02  0.7816164E-02  0.1312668E+00
        -11   -1    0    0    0    0  0.00000000000E+00  0.00000000000E+00  0.45593999997E+02  0.45594000000E+02  0.51100000000E-03 0.  1.
         11   -1    0    0    0    0 -0.00000000000E+00 -0.00000000000E+00 -0.45593999997E+02  0.45594000000E+02  0.51100000000E-03 0. -1.
    9900012    2    1    2    0    0 -0.12014871150E+02 -0.95296288066E+01  0.40601138721E+02  0.47787269368E+02  0.19999992356E+02 0.  0.
         12    1    1    2    0    0  0.12014871150E+02  0.95296288066E+01 -0.40601138721E+02  0.43400730632E+02  0.00000000000E+00 0. -1.
         11    1    3    3    0    0 -0.11644627069E+02 -0.10248444149E+02  0.30062059468E+02  0.33828321962E+02  0.51100000000E-03 0. -1.
        -11    1    3    3    0    0  0.22693911607E+01 -0.34998121171E+01  0.45639722635E+01  0.61829332989E+01  0.51100000000E-03 0.  1.
         12    1    3    3    0    0 -0.26396352410E+01  0.42186274597E+01  0.59751069899E+01  0.77760141068E+01  0.00000000000E+00 0. -1.
</event>
<event>
 7    1  0.1813014E-010  0.4778726E+02  0.7816164E-02  0.1312668E+00
        -11   -1    0    0    0    0  0.00000000000E+00  0.00000000000E+00  0.45593999997E+02  0.45594000000E+02  0.51100000000E-03 0. -1.
         11   -1    0    0    0    0 -0.00000000000E+00 -0.00000000000E+00 -0.45593999997E+02  0.45594000000E+02  0.51100000000E-03 0.  1.
    9900012    2    1    2    0    0  0.52026932628E+01  0.21228043647E+02 -0.37495687908E+02  0.47787257311E+02  0.19999937385E+02 0.  0.
         12    1    1    2    0    0 -0.52026932628E+01 -0.21228043647E+02  0.37495687908E+02  0.43400742689E+02  0.00000000000E+00 0. -1.
         11    1    3    3    0    0  0.49467620794E+01  0.26874775646E+01 -0.22602873834E+02  0.23293408865E+02  0.51100000000E-03 0. -1.
        -11    1    3    3    0    0  0.29433506871E+01  0.75514425441E+01 -0.55671300766E+01  0.98326260640E+01  0.51100000000E-03 0.  1.
         12    1    3    3    0    0 -0.26874195036E+01  0.10989123538E+02 -0.93256839969E+01  0.14661222382E+02  0.00000000000E+00 0. -1.
</event>
<event>
 7    1  0.1813014E-010  0.4778725E+02  0.7816164E-02  0.1312668E+00
        -11   -1    0    0    0    0  0.00000000000E+00  0.00000000000E+00  0.45593999997E+02  0.45594000000E+02  0.51100000000E-03 0. -1.
         11   -1    0    0    0    0 -0.00000000000E+00 -0.00000000000E+00 -0.45593999997E+02  0.45594000000E+02  0.51100000000E-03 0.  1.
    9900012    2    1    2    0    0  0.19088809951E+02  0.37092942789E+02 -0.11973132752E+02  0.47787251412E+02  0.19999910489E+02 0.  0.
         12    1    1    2    0    0 -0.19088809951E+02 -0.37092942789E+02  0.11973132752E+02  0.43400748588E+02  0.00000000000E+00 0. -1.
         11    1    3    3    0    0 -0.59016573321E+00  0.10714025500E+02 -0.24532055204E+01  0.11007127491E+02  0.51100000000E-03 0. -1.
        -11    1    3    3    0    0  0.28123367218E+01  0.13143324409E+02 -0.71093930896E+01  0.15205251880E+02  0.51100000000E-03 0.  1.
        -12    1    3    3    0    0  0.16866638963E+02  0.13235592879E+02 -0.24105341415E+01  0.21574872042E+02  0.00000000000E+00 0.  1.
</event>
<event>
 7    1  0.1813014E-010  0.4778727E+02  0.7816164E-02  0.1312668E+00
        -11   -1    0    0    0    0  0.00000000000E+00  0.00000000000E+00  0.45593999997E+02  0.45594000000E+02  0.51100000000E-03 0.  1.
         11   -1    0    0    0    0 -0.00000000000E+00 -0.00000000000E+00 -0.45593999997E+02  0.45594000000E+02  0.51100000000E-03 0. -1.
    9900012    2    1    2    0    0 -0.75064183868E+01 -0.41965326996E+02 -0.81356210496E+01  0.47787270551E+02  0.19999997749E+02 0.  0.
         12    1    1    2    0    0  0.75064183868E+01  0.41965326996E+02  0.81356210496E+01  0.43400729449E+02  0.00000000000E+00 0. -1.
         11    1    3    3    0    0 -0.25039872571E+01 -0.45343887761E+00 -0.15083450236E+01  0.29581521210E+01  0.51100000000E-03 0. -1.
        -11    1    3    3    0    0  0.84133969760E+00 -0.23587741513E+02  0.27689475455E+01  0.23764605465E+02  0.51100000000E-03 0.  1.
         12    1    3    3    0    0 -0.58437708273E+01 -0.17924146606E+02 -0.93962235716E+01  0.21064512964E+02  0.00000000000E+00 0. -1.
</event>
<event>
 7    1  0.1813014E-010  0.4778727E+02  0.7816164E-02  0.1312668E+00
        -11   -1    0    0    0    0  0.00000000000E+00  0.00000000000E+00  0.45593999997E+02  0.45594000000E+02  0.51100000000E-03 0.  1.
         11   -1    0    0    0    0 -0.00000000000E+00 -0.00000000000E+00 -0.45593999997E+02  0.45594000000E+02  0.51100000000E-03 0. -1.
    9900012    2    1    2    0    0 -0.33727708629E+02  0.85711229851E+00  0.27300742583E+02  0.47787268250E+02  0.19999987259E+02 0.  0.
         12    1    1    2    0    0  0.33727708629E+02 -0.85711229851E+00 -0.27300742583E+02  0.43400731750E+02  0.00000000000E+00 0. -1.
         11    1    3    3    0    0 -0.59095782992E+01  0.31848065852E+01  0.14975117759E+01  0.68781284111E+01  0.51100000000E-03 0. -1.
        -11    1    3    3    0    0 -0.70199777344E+01 -0.75104076699E+01  0.75331322959E+01  0.12744975214E+02  0.51100000000E-03 0.  1.
        -12    1    3    3    0    0 -0.20798152595E+02  0.51827133832E+01  0.18270098511E+02  0.28164164625E+02  0.00000000000E+00 0.  1.
</event>
<event>
 7    1  0.1813014E-010  0.4778729E+02  0.7816164E-02  0.1312668E+00
        -11   -1    0    0    0    0  0.00000000000E+00  0.00000000000E+00  0.45593999997E+02  0.45594000000E+02  0.51100000000E-03 0. -1.
         11   -1    0    0    0    0 -0.00000000000E+00 -0.00000000000E+00 -0.45593999997E+02  0.45594000000E+02  0.51100000000E-03 0.  1.
    9900012    2    1    2    0    0  0.23486476317E+02  0.23982688691E+02 -0.27510690093E+02  0.47787285765E+02  0.20000067118E+02 0.  0.
         12    1    1    2    0    0 -0.23486476317E+02 -0.23982688691E+02  0.27510690093E+02  0.43400714235E+02  0.00000000000E+00 0. -1.
         11    1    3    3    0    0  0.22383252652E+01  0.18646438057E+01 -0.11373570197E+02  0.11740745113E+02  0.51100000000E-03 0. -1.
        -11    1    3    3    0    0  0.53592688103E+01  0.65227914120E+01  0.17952322727E+00  0.84439800353E+01  0.51100000000E-03 0.  1.
        -12    1    3    3    0    0  0.15888882242E+02  0.15595253474E+02 -0.16316643124E+02  0.27602560617E+02  0.00000000000E+00 0.  1.
</event>
<event>
 7    1  0.1813014E-010  0.4778727E+02  0.7816164E-02  0.1312668E+00
        -11   -1    0    0    0    0  0.00000000000E+00  0.00000000000E+00  0.45593999997E+02  0.45594000000E+02  0.51100000000E-03 0.  1.
         11   -1    0    0    0    0 -0.00000000000E+00 -0.00000000000E+00 -0.45593999997E+02  0.45594000000E+02  0.51100000000E-03 0. -1.
    9900012    2    1    2    0    0 -0.46035718816E+01 -0.24594970124E+02  0.35461496272E+02  0.47787272502E+02  0.20000006646E+02 0.  0.
         12    1    1    2    0    0  0.46035718816E+01  0.24594970124E+02 -0.35461496272E+02  0.43400727498E+02  0.00000000000E+00 0. -1.
         11    1    3    3    0    0  0.43861461838E+01 -0.94817851529E+01  0.13940748036E+02  0.17420877822E+02  0.51100000000E-03 0.  1.
        -11    1    3    3    0    0 -0.40763701298E+01 -0.37047615400E+00  0.10628189071E+02  0.11389137334E+02  0.51100000000E-03 0. -1.
         12    1    3    3    0    0 -0.49133479356E+01 -0.14742708818E+02  0.10892559165E+02  0.18977257346E+02  0.00000000000E+00 0. -1.
</event>
<event>
 7    1  0.1813014E-010  0.4778727E+02  0.7816164E-02  0.1312668E+00
        -11   -1    0    0    0    0  0.00000000000E+00  0.00000000000E+00  0.45593999997E+02  0.45594000000E+02  0.51100000000E-03 0. -1.
         11   -1    0    0    0    0 -0.00000000000E+00 -0.00000000000E+00 -0.45593999997E+02  0.45594000000E+02  0.51100000000E-03 0.  1.
    9900012    2    1    2    0    0 -0.41699666015E+02  0.59266407012E+01 -0.10470748187E+02  0.47787265175E+02  0.19999973240E+02 0.  0.
         12    1    1    2    0    0  0.41699666015E+02 -0.59266407012E+01  0.10470748187E+02  0.43400734825E+02  0.00000000000E+00 0. -1.
         11    1    3    3    0    0 -0.10480566949E+02  0.35178721123E+01  0.33100884606E+01  0.11540121042E+02  0.51100000000E-03 0. -1.
        -11    1    3    3    0    0 -0.83263426898E+01  0.50068985017E+01 -0.77581409610E+01  0.12433252456E+02  0.51100000000E-03 0.  1.
        -12    1    3    3    0    0 -0.22892756376E+02 -0.25981299129E+01 -0.60226956862E+01  0.23813891678E+02  0.00000000000E+00 0.  1.
</event>
<event>
 7    1  0.1813014E-010  0.4778727E+02  0.7816164E-02  0.1312668E+00
        -11   -1    0    0    0    0  0.00000000000E+00  0.00000000000E+00  0.45593999997E+02  0.45594000000E+02  0.51100000000E-03 0. -1.
         11   -1    0    0    0    0 -0.00000000000E+00 -0.00000000000E+00 -0.45593999997E+02  0.45594000000E+02  0.51100000000E-03 0.  1.
    9900012    2    1    2    0    0  0.98659464019E+01 -0.28975957721E+02 -0.30768171864E+02  0.47787269314E+02  0.19999992109E+02 0.  0.
         12    1    1    2    0    0 -0.98659464019E+01  0.28975957721E+02  0.30768171864E+02  0.43400730686E+02  0.00000000000E+00 0. -1.
         11    1    3    3    0    0 -0.30690109249E+01 -0.63305154950E+01 -0.56583432924E+01  0.90283499913E+01  0.51100000000E-03 0. -1.
        -11    1    3    3    0    0  0.90293592269E+01 -0.22890579046E+02 -0.24630781466E+02  0.34816423323E+02  0.51100000000E-03 0.  1.
        -12    1    3    3    0    0  0.39055980998E+01  0.24513681983E+00 -0.47904710561E+00  0.39424959996E+01  0.00000000000E+00 0.  1.
</event>
<event>
 7    1  0.1813014E-010  0.4778727E+02  0.7816164E-02  0.1312668E+00
        -11   -1    0    0    0    0  0.00000000000E+00  0.00000000000E+00  0.45593999997E+02  0.45594000000E+02  0.51100000000E-03 0.  1.
         11   -1    0    0    0    0 -0.00000000000E+00 -0.00000000000E+00 -0.45593999997E+02  0.45594000000E+02  0.51100000000E-03 0. -1.
    9900012    2    1    2    0    0  0.33161836281E+02 -0.64691666284E+01  0.27240881859E+02  0.47787272508E+02  0.20000006671E+02 0.  0.
         12    1    1    2    0    0 -0.33161836281E+02  0.64691666284E+01 -0.27240881859E+02  0.43400727492E+02  0.00000000000E+00 0. -1.
         11    1    3    3    0    0  0.48446505490E+01  0.24628157349E+01  0.27102622510E+01  0.60730241244E+01  0.51100000000E-03 0. -1.
        -11    1    3    3    0    0  0.25237952672E+02 -0.12771543840E+02  0.17963634590E+02  0.33507592499E+02  0.51100000000E-03 0.  1.
         12    1    3    3    0    0  0.30792330603E+01  0.38395614768E+01  0.65669850180E+01  0.82066558841E+01  0.00000000000E+00 0. -1.
</event>
<event>
 7    1  0.1813014E-010  0.4778725E+02  0.7816164E-02  0.1312668E+00
        -11   -1    0    0    0    0  0.00000000000E+00  0.00000000000E+00  0.45593999997E+02  0.45594000000E+02  0.51100000000E-03 0.  1.
         11   -1    0    0    0    0 -0.00000000000E+00 -0.00000000000E+00 -0.45593999997E+02  0.45594000000E+02  0.51100000000E-03 0. -1.
    9900012    2    1    2    0    0  0.19483548534E+02 -0.37932732752E+02 -0.80699731367E+01  0.47787247197E+02  0.19999891268E+02 0.  0.
         12    1    1    2    0    0 -0.19483548534E+02  0.37932732752E+02  0.80699731367E+01  0.43400752803E+02  0.00000000000E+00 0. -1.
         11    1    3    3    0    0 -0.35816704551E+00 -0.99842336380E+01  0.34889979616E+01  0.10582358528E+02  0.51100000000E-03 0. -1.
        -11    1    3    3    0    0  0.11194639887E+02 -0.22533522102E+02 -0.82048190437E+01  0.26465045556E+02  0.51100000000E-03 0.  1.
        -12    1    3    3    0    0  0.86470756927E+01 -0.54149770119E+01 -0.33541520547E+01  0.10739843112E+02  0.00000000000E+00 0.  1.
</event>
<event>
 7    1  0.1813014E-010  0.4778727E+02  0.7816164E-02  0.1312668E+00
        -11   -1    0    0    0    0  0.00000000000E+00  0.00000000000E+00  0.45593999997E+02  0.45594000000E+02  0.51100000000E-03 0. -1.
         11   -1    0    0    0    0 -0.00000000000E+00 -0.00000000000E+00 -0.45593999997E+02  0.45594000000E+02  0.51100000000E-03 0.  1.
    9900012    2    1    2    0    0 -0.23840758825E+02 -0.30878253129E+02 -0.19020383446E+02  0.47787270927E+02  0.19999999465E+02 0.  0.
         12    1    1    2    0    0  0.23840758825E+02  0.30878253129E+02  0.19020383446E+02  0.43400729073E+02  0.00000000000E+00 0. -1.
         11    1    3    3    0    0  0.11061243996E+01  0.14963431415E+01 -0.30808408084E+01  0.35991852317E+01  0.51100000000E-03 0. -1.
        -11    1    3    3    0    0 -0.13407385660E+02 -0.13648874944E+02 -0.60031107986E+01  0.20052110038E+02  0.51100000000E-03 0.  1.
        -12    1    3    3    0    0 -0.11539497565E+02 -0.18725721327E+02 -0.99364318388E+01  0.24135975658E+02  0.00000000000E+00 0.  1.
</event>
<event>
 7    1  0.1813014E-010  0.4778727E+02  0.7816164E-02  0.1312668E+00
        -11   -1    0    0    0    0  0.00000000000E+00  0.00000000000E+00  0.45593999997E+02  0.45594000000E+02  0.51100000000E-03 0. -1.
         11   -1    0    0    0    0 -0.00000000000E+00 -0.00000000000E+00 -0.45593999997E+02  0.45594000000E+02  0.51100000000E-03 0.  1.
    9900012    2    1    2    0    0 -0.39726082934E+02 -0.15341776218E+02  0.83720681310E+01  0.47787270887E+02  0.19999999281E+02 0.  0.
         12    1    1    2    0    0  0.39726082934E+02  0.15341776218E+02 -0.83720681310E+01  0.43400729113E+02  0.00000000000E+00 0. -1.
         11    1    3    3    0    0 -0.10382599235E+01 -0.23368465015E+01 -0.10542062027E+01  0.27658970008E+01  0.51100000000E-03 0. -1.
        -11    1    3    3    0    0 -0.40055144809E+02 -0.10996349102E+02  0.94183921114E+01  0.42591553499E+02  0.51100000000E-03 0.  1.
         12    1    3    3    0    0  0.13673217985E+01 -0.20085806142E+01  0.78822223083E-02  0.24298203872E+01  0.00000000000E+00 0. -1.
</event>
<event>
 7    1  0.1813014E-010  0.4778727E+02  0.7816164E-02  0.1312668E+00
        -11   -1    0    0    0    0  0.00000000000E+00  0.00000000000E+00  0.45593999997E+02  0.45594000000E+02  0.51100000000E-03 0. -1.
         11   -1    0    0    0    0 -0.00000000000E+00 -0.00000000000E+00 -0.45593999997E+02  0.45594000000E+02  0.51100000000E-03 0.  1.
    9900012    2    1    2    0    0 -0.29933109994E+02 -0.24701707831E+02  0.19428276334E+02  0.47787269995E+02  0.19999995214E+02 0.  0.
         12    1    1    2    0    0  0.29933109994E+02  0.24701707831E+02 -0.19428276334E+02  0.43400730005E+02  0.00000000000E+00 0. -1.
         11    1    3    3    0    0 -0.16002060747E+02 -0.67630097718E+01  0.10138370901E+02  0.20114442923E+02  0.51100000000E-03 0. -1.
        -11    1    3    3    0    0 -0.12715020293E+02 -0.18094159734E+02  0.11662900556E+02  0.25001872073E+02  0.51100000000E-03 0.  1.
         12    1    3    3    0    0 -0.12160289537E+01  0.15546167410E+00 -0.23729951231E+01  0.26709549982E+01  0.00000000000E+00 0. -1.
</event>
<event>
 7    1  0.1813014E-010  0.4778727E+02  0.7816164E-02  0.1312668E+00
        -11   -1    0    0    0    0  0.00000000000E+00  0.00000000000E+00  0.45593999997E+02  0.45594000000E+02  0.51100000000E-03 0.  1.
         11   -1    0    0    0    0 -0.00000000000E+00 -0.00000000000E+00 -0.45593999997E+02  0.45594000000E+02  0.51100000000E-03 0. -1.
    9900012    2    1    2    0    0 -0.18472305949E+02 -0.24553564951E+01  0.39196537283E+02  0.47787269620E+02  0.19999993504E+02 0.  0.
         12    1    1    2    0    0  0.18472305949E+02  0.24553564951E+01 -0.39196537283E+02  0.43400730380E+02  0.00000000000E+00 0. -1.
         11    1    3    3    0    0 -0.11156811658E+02  0.35062228403E+00  0.33271236298E+02  0.35093767928E+02  0.51100000000E-03 0.  1.
        -11    1    3    3    0    0 -0.85814649388E+01 -0.33234127049E+01  0.64401263288E+01  0.11232178769E+02  0.51100000000E-03 0. -1.
        -12    1    3    3    0    0  0.12659706479E+01  0.51743392576E+00 -0.51482534392E+00  0.14613229224E+01  0.00000000000E+00 0.  1.
</event>
<event>
 7    1  0.1813014E-010  0.4778727E+02  0.7816164E-02  0.1312668E+00
        -11   -1    0    0    0    0  0.00000000000E+00  0.00000000000E+00  0.45593999997E+02  0.45594000000E+02  0.51100000000E-03 0.  1.
         11   -1    0    0    0    0 -0.00000000000E+00 -0.00000000000E+00 -0.45593999997E+02  0.45594000000E+02  0.51100000000E-03 0. -1.
    9900012    2    1    2    0    0  0.13451748621E+00  0.38842072922E+02  0.19362300692E+02  0.47787269454E+02  0.19999992748E+02 0.  0.
         12    1    1    2    0    0 -0.13451748621E+00 -0.38842072922E+02 -0.19362300692E+02  0.43400730546E+02  0.00000000000E+00 0. -1.
         11    1    3    3    0    0  0.29330499033E-01  0.83914643557E+01 -0.23359843014E+01  0.87105887992E+01  0.51100000000E-03 0. -1.
        -11    1    3    3    0    0  0.95570431439E+00  0.26897269105E+02  0.13519720921E+02  0.30119085479E+02  0.51100000000E-03 0.  1.
        -12    1    3    3    0    0 -0.85051732721E+00  0.35533394620E+01  0.81785640723E+01  0.89575951762E+01  0.00000000000E+00 0.  1.
</event>
<event>
 7    1  0.1813014E-010  0.4778727E+02  0.7816164E-02  0.1312668E+00
        -11   -1    0    0    0    0  0.00000000000E+00  0.00000000000E+00  0.45593999997E+02  0.45594000000E+02  0.51100000000E-03 0.  1.
         11   -1    0    0    0    0 -0.00000000000E+00 -0.00000000000E+00 -0.45593999997E+02  0.45594000000E+02  0.51100000000E-03 0. -1.
    9900012    2    1    2    0    0  0.13007701303E+02 -0.40755094085E+02  0.73106109428E+01  0.47787273975E+02  0.20000013364E+02 0.  0.
         12    1    1    2    0    0 -0.13007701303E+02  0.40755094085E+02 -0.73106109428E+01  0.43400726025E+02  0.00000000000E+00 0. -1.
         11    1    3    3    0    0  0.49381330341E-01 -0.19179305327E+02  0.51614039596E+01  0.19861729089E+02  0.51100000000E-03 0.  1.
        -11    1    3    3    0    0  0.99709273191E+01 -0.14565703778E+02  0.68927335434E+01  0.18949641002E+02  0.51100000000E-03 0. -1.
         12    1    3    3    0    0  0.29873926541E+01 -0.70100849804E+01 -0.47435265602E+01  0.89759038837E+01  0.00000000000E+00 0. -1.
</event>
<event>
 7    1  0.1813014E-010  0.4778727E+02  0.7816164E-02  0.1312668E+00
        -11   -1    0    0    0    0  0.00000000000E+00  0.00000000000E+00  0.45593999997E+02  0.45594000000E+02  0.51100000000E-03 0.  1.
         11   -1    0    0    0    0 -0.00000000000E+00 -0.00000000000E+00 -0.45593999997E+02  0.45594000000E+02  0.51100000000E-03 0. -1.
    9900012    2    1    2    0    0 -0.32516358803E+02  0.26414726579E+02  0.11338948959E+02  0.47787272661E+02  0.20000007370E+02 0.  0.
         12    1    1    2    0    0  0.32516358803E+02 -0.26414726579E+02 -0.11338948959E+02  0.43400727339E+02  0.00000000000E+00 0. -1.
         11    1    3    3    0    0  0.25646480371E+00  0.42767576074E+01 -0.14885626069E+01  0.45356640885E+01  0.51100000000E-03 0. -1.
        -11    1    3    3    0    0 -0.23590158680E+02  0.19547597787E+02  0.52845887202E+01  0.31089082392E+02  0.51100000000E-03 0.  1.
         12    1    3    3    0    0 -0.91826649271E+01  0.25903711848E+01  0.75429228453E+01  0.12162526180E+02  0.00000000000E+00 0. -1.
</event>
<event>
 7    1  0.1813014E-010  0.4778727E+02  0.7816164E-02  0.1312668E+00
        -11   -1    0    0    0    0  0.00000000000E+00  0.00000000000E+00  0.45593999997E+02  0.45594000000E+02  0.51100000000E-03 0.  1.
         11   -1    0    0    0    0 -0.00000000000E+00 -0.00000000000E+00 -0.45593999997E+02  0.45594000000E+02  0.51100000000E-03 0. -1.
    9900012    2    1    2    0    0 -0.15870536995E+02  0.12246931718E+02  0.38493660829E+02  0.47787271837E+02  0.20000003615E+02 0.  0.
         12    1    1    2    0    0  0.15870536995E+02 -0.12246931718E+02 -0.38493660829E+02  0.43400728163E+02  0.00000000000E+00 0. -1.
         11    1    3    3    0    0 -0.95265917542E+01 -0.12666179516E+01  0.13443477285E+02  0.16525354860E+02  0.51100000000E-03 0. -1.
        -11    1    3    3    0    0 -0.67933837512E+01  0.13345767532E+02  0.14984397698E+02  0.21184705531E+02  0.51100000000E-03 0.  1.
         12    1    3    3    0    0  0.44943851083E+00  0.16778213790E+00  0.10065785847E+02  0.10077211446E+02  0.00000000000E+00 0. -1.
</event>
<event>
 7    1  0.2492421E-010  0.4778727E+02  0.7816164E-02  0.1312668E+00
        -11   -1    0    0    0    0  0.00000000000E+00  0.00000000000E+00  0.45593999997E+02  0.45594000000E+02  0.51100000000E-03 0. -1.
         11   -1    0    0    0    0 -0.00000000000E+00 -0.00000000000E+00 -0.45593999997E+02  0.45594000000E+02  0.51100000000E-03 0.  1.
    9900012    2    1    2    0    0 -0.25126647553E+02 -0.12454044121E+02 -0.33123576317E+02  0.47787274888E+02  0.20000017525E+02 0.  0.
         12    1    1    2    0    0  0.25126647553E+02  0.12454044121E+02  0.33123576317E+02  0.43400725112E+02  0.00000000000E+00 0. -1.
         11    1    3    3    0    0 -0.19105589092E+02 -0.11997765544E+02 -0.13560380209E+02  0.26322116637E+02  0.51100000000E-03 0. -1.
        -11    1    3    3    0    0 -0.63651995673E+01  0.49090989670E+00 -0.10100345345E+02  0.11948796358E+02  0.51100000000E-03 0.  1.
         12    1    3    3    0    0  0.34414110654E+00 -0.94718847389E+00 -0.94628507636E+01  0.95163618931E+01  0.00000000000E+00 0. -1.
</event>
<event>
 7    1  0.1813014E-010  0.4778727E+02  0.7816164E-02  0.1312668E+00
        -11   -1    0    0    0    0  0.00000000000E+00  0.00000000000E+00  0.45593999997E+02  0.45594000000E+02  0.51100000000E-03 0.  1.
         11   -1    0    0    0    0 -0.00000000000E+00 -0.00000000000E+00 -0.45593999997E+02  0.45594000000E+02  0.51100000000E-03 0. -1.
    9900012    2    1    2    0    0 -0.78756511426E+01  0.21799290176E+02  0.36693166513E+02  0.47787269570E+02  0.19999993277E+02 0.  0.
         12    1    1    2    0    0  0.78756511426E+01 -0.21799290176E+02 -0.36693166513E+02  0.43400730430E+02  0.00000000000E+00 0. -1.
         11    1    3    3    0    0 -0.82532913177E+01  0.81863480934E+01  0.15227731122E+02  0.19157685353E+02  0.51100000000E-03 0.  1.
        -11    1    3    3    0    0  0.58773127824E+01  0.27050341713E+01  0.97674226013E+01  0.11715910547E+02  0.51100000000E-03 0. -1.
         12    1    3    3    0    0 -0.54996726073E+01  0.10907907911E+02  0.11698012790E+02  0.16913673670E+02  0.00000000000E+00 0. -1.
</event>
<event>
 7    1  0.1813014E-010  0.4778727E+02  0.7816164E-02  0.1312668E+00
        -11   -1    0    0    0    0  0.00000000000E+00  0.00000000000E+00  0.45593999997E+02  0.45594000000E+02  0.51100000000E-03 0.  1.
         11   -1    0    0    0    0 -0.00000000000E+00 -0.00000000000E+00 -0.45593999997E+02  0.45594000000E+02  0.51100000000E-03 0. -1.
    9900012    2    1    2    0    0 -0.28203379982E+02  0.12687608704E+02  0.30450240950E+02  0.47787271539E+02  0.20000002255E+02 0.  0.
         12    1    1    2    0    0  0.28203379982E+02 -0.12687608704E+02 -0.30450240950E+02  0.43400728461E+02  0.00000000000E+00 0. -1.
         11    1    3    3    0    0 -0.22953218591E+01  0.37643804716E+01 -0.16906770862E+01  0.47220177936E+01  0.51100000000E-03 0. -1.
        -11    1    3    3    0    0 -0.94488958635E+01  0.67660524205E+01  0.17030527640E+02  0.20617952623E+02  0.51100000000E-03 0.  1.
        -12    1    3    3    0    0 -0.16459162260E+02  0.21571758121E+01  0.15110390396E+02  0.22447301123E+02  0.00000000000E+00 0.  1.
</event>
<event>
 7    1  0.1813014E-010  0.4778727E+02  0.7816164E-02  0.1312668E+00
        -11   -1    0    0    0    0  0.00000000000E+00  0.00000000000E+00  0.45593999997E+02  0.45594000000E+02  0.51100000000E-03 0. -1.
         11   -1    0    0    0    0 -0.00000000000E+00 -0.00000000000E+00 -0.45593999997E+02  0.45594000000E+02  0.51100000000E-03 0.  1.
    9900012    2    1    2    0    0 -0.26026078739E+02  0.32132375218E+02  0.13182465743E+02  0.47787265965E+02  0.19999976839E+02 0.  0.
         12    1    1    2    0    0  0.26026078739E+02 -0.32132375218E+02 -0.13182465743E+02  0.43400734035E+02  0.00000000000E+00 0. -1.
         11    1    3    3    0    0 -0.62754403938E+01  0.30931250777E+01  0.64047358507E+01  0.94852104068E+01  0.51100000000E-03 0. -1.
        -11    1    3    3    0    0 -0.20277123421E+02  0.21358719379E+02  0.26582929992E+01  0.29570646758E+02  0.51100000000E-03 0.  1.
         12    1    3    3    0    0  0.52648507544E+00  0.76805307616E+01  0.41194368934E+01  0.87314088001E+01  0.00000000000E+00 0. -1.
</event>
<event>
 7    1  0.1813014E-010  0.4778727E+02  0.7816164E-02  0.1312668E+00
        -11   -1    0    0    0    0  0.00000000000E+00  0.00000000000E+00  0.45593999997E+02  0.45594000000E+02  0.51100000000E-03 0. -1.
         11   -1    0    0    0    0 -0.00000000000E+00 -0.00000000000E+00 -0.45593999997E+02  0.45594000000E+02  0.51100000000E-03 0.  1.
    9900012    2    1    2    0    0 -0.33542914784E+02  0.16171445009E+02 -0.22293063121E+02  0.47787269256E+02  0.19999991844E+02 0.  0.
         12    1    1    2    0    0  0.33542914784E+02 -0.16171445009E+02  0.22293063121E+02  0.43400730744E+02  0.00000000000E+00 0. -1.
         11    1    3    3    0    0 -0.13943283223E+02  0.52447652735E+01 -0.19572269755E+02  0.24596675658E+02  0.51100000000E-03 0. -1.
        -11    1    3    3    0    0 -0.14006279384E+01  0.10117438042E+01 -0.17258361122E+01  0.24421086574E+01  0.51100000000E-03 0.  1.
        -12    1    3    3    0    0 -0.18199003623E+02  0.99149359310E+01 -0.99495725326E+00  0.20748484940E+02  0.00000000000E+00 0.  1.
</event>
<event>
 7    1  0.1813014E-010  0.4778727E+02  0.7816164E-02  0.1312668E+00
        -11   -1    0    0    0    0  0.00000000000E+00  0.00000000000E+00  0.45593999997E+02  0.45594000000E+02  0.51100000000E-03 0.  1.
         11   -1    0    0    0    0 -0.00000000000E+00 -0.00000000000E+00 -0.45593999997E+02  0.45594000000E+02  0.51100000000E-03 0. -1.
    9900012    2    1    2    0    0 -0.24121809954E+02  0.26014363860E+02  0.25000290513E+02  0.47787269957E+02  0.19999995043E+02 0.  0.
         12    1    1    2    0    0  0.24121809954E+02 -0.26014363860E+02 -0.25000290513E+02  0.43400730043E+02  0.00000000000E+00 0. -1.
         11    1    3    3    0    0 -0.10809529289E+02  0.45667475684E+01  0.12519434609E+02  0.17159176845E+02  0.51100000000E-03 0. -1.
        -11    1    3    3    0    0 -0.13535374481E+02  0.11050182576E+02  0.90443750232E+01  0.19675203102E+02  0.51100000000E-03 0.  1.
         12    1    3    3    0    0  0.22309381584E+00  0.10397433716E+02  0.34364808808E+01  0.10952890010E+02  0.00000000000E+00 0. -1.
</event>
<event>
 7    1  0.1813014E-010  0.4778726E+02  0.7816164E-02  0.1312668E+00
        -11   -1    0    0    0    0  0.00000000000E+00  0.00000000000E+00  0.45593999997E+02  0.45594000000E+02  0.51100000000E-03 0.  1.
         11   -1    0    0    0    0 -0.00000000000E+00 -0.00000000000E+00 -0.45593999997E+02  0.45594000000E+02  0.51100000000E-03 0. -1.
    9900012    2    1    2    0    0  0.40255006568E+02 -0.15377175792E+02 -0.51673077002E+01  0.47787260859E+02  0.19999953560E+02 0.  0.
         12    1    1    2    0    0 -0.40255006568E+02  0.15377175792E+02  0.51673077002E+01  0.43400739141E+02  0.00000000000E+00 0. -1.
         11    1    3    3    0    0  0.10541331570E+02 -0.34273278245E+00 -0.29752482870E+00  0.10551097493E+02  0.51100000000E-03 0. -1.
        -11    1    3    3    0    0  0.14220135717E+02 -0.21752244167E+01  0.44373546947E+01  0.15054367407E+02  0.51100000000E-03 0.  1.
         12    1    3    3    0    0  0.15493539281E+02 -0.12859218593E+02 -0.93071375662E+01  0.22181795959E+02  0.00000000000E+00 0. -1.
</event>
<event>
 7    1  0.1813014E-010  0.4778729E+02  0.7816164E-02  0.1312668E+00
        -11   -1    0    0    0    0  0.00000000000E+00  0.00000000000E+00  0.45593999997E+02  0.45594000000E+02  0.51100000000E-03 0.  1.
         11   -1    0    0    0    0 -0.00000000000E+00 -0.00000000000E+00 -0.45593999997E+02  0.45594000000E+02  0.51100000000E-03 0. -1.
    9900012    2    1    2    0    0  0.20780674238E+02  0.11213049824E+02  0.36415001155E+02  0.47787294738E+02  0.20000108026E+02 0.  0.
         12    1    1    2    0    0 -0.20780674238E+02 -0.11213049824E+02 -0.36415001155E+02  0.43400705262E+02  0.00000000000E+00 0. -1.
         11    1    3    3    0    0  0.76098757614E+01  0.11004368850E+02  0.12315490803E+02  0.18184544450E+02  0.51100000000E-03 0. -1.
        -11    1    3    3    0    0  0.83991275770E+01  0.29695175720E+01  0.21944247985E+02  0.23683610336E+02  0.51100000000E-03 0.  1.
         12    1    3    3    0    0  0.47716708993E+01 -0.27608365974E+01  0.21552623674E+01  0.59191399511E+01  0.00000000000E+00 0. -1.
</event>
<event>
 7    1  0.1813014E-010  0.4778727E+02  0.7816164E-02  0.1312668E+00
        -11   -1    0    0    0    0  0.00000000000E+00  0.00000000000E+00  0.45593999997E+02  0.45594000000E+02  0.51100000000E-03 0.  1.
         11   -1    0    0    0    0 -0.00000000000E+00 -0.00000000000E+00 -0.45593999997E+02  0.45594000000E+02  0.51100000000E-03 0. -1.
    9900012    2    1    2    0    0 -0.40721348719E+02 -0.13887287972E+02 -0.57042277663E+01  0.47787271629E+02  0.20000002663E+02 0.  0.
         12    1    1    2    0    0  0.40721348719E+02  0.13887287972E+02  0.57042277663E+01  0.43400728371E+02  0.00000000000E+00 0. -1.
         11    1    3    3    0    0 -0.28835141743E+02 -0.87249909186E+01  0.29614049078E+01  0.30271451652E+02  0.51100000000E-03 0.  1.
        -11    1    3    3    0    0 -0.12508843055E+02 -0.58582321731E+01 -0.67262867171E+01  0.15363364607E+02  0.51100000000E-03 0. -1.
        -12    1    3    3    0    0  0.62263607857E+00  0.69593511951E+00 -0.19393459570E+01  0.21524553695E+01  0.00000000000E+00 0.  1.
</event>
<event>
 7    1  0.1813014E-010  0.4778727E+02  0.7816164E-02  0.1312668E+00
        -11   -1    0    0    0    0  0.00000000000E+00  0.00000000000E+00  0.45593999997E+02  0.45594000000E+02  0.51100000000E-03 0. -1.
         11   -1    0    0    0    0 -0.00000000000E+00 -0.00000000000E+00 -0.45593999997E+02  0.45594000000E+02  0.51100000000E-03 0.  1.
    9900012    2    1    2    0    0  0.39429271158E+02 -0.15937390922E+02 -0.86576766247E+01  0.47787271688E+02  0.20000002936E+02 0.  0.
         12    1    1    2    0    0 -0.39429271158E+02  0.15937390922E+02  0.86576766247E+01  0.43400728312E+02  0.00000000000E+00 0. -1.
         11    1    3    3    0    0  0.64725894624E+01 -0.24963711184E+01  0.59107625001E+01  0.91139122611E+01  0.51100000000E-03 0. -1.
        -11    1    3    3    0    0  0.12860619217E+02 -0.45371996109E+01 -0.35805070110E+01  0.14099707007E+02  0.51100000000E-03 0.  1.
        -12    1    3    3    0    0  0.20096062478E+02 -0.89038201931E+01 -0.10987932114E+02  0.24573652421E+02  0.00000000000E+00 0.  1.
</event>
<event>
 7    1  0.1813014E-010  0.4778727E+02  0.7816164E-02  0.1312668E+00
        -11   -1    0    0    0    0  0.00000000000E+00  0.00000000000E+00  0.45593999997E+02  0.45594000000E+02  0.51100000000E-03 0. -1.
         11   -1    0    0    0    0 -0.00000000000E+00 -0.00000000000E+00 -0.45593999997E+02  0.45594000000E+02  0.51100000000E-03 0.  1.
    9900012    2    1    2    0    0  0.34857927621E+02 -0.31855094824E+01 -0.25659321985E+02  0.47787269667E+02  0.19999993719E+02 0.  0.
         12    1    1    2    0    0 -0.34857927621E+02  0.31855094824E+01  0.25659321985E+02  0.43400730333E+02  0.00000000000E+00 0. -1.
         11    1    3    3    0    0  0.13760615414E+02 -0.31406658709E+01 -0.14740543116E+01  0.14191235149E+02  0.51100000000E-03 0. -1.
        -11    1    3    3    0    0  0.17351612700E+02  0.32010105874E+01 -0.14999344464E+02  0.23158265623E+02  0.51100000000E-03 0.  1.
        -12    1    3    3    0    0  0.37456995078E+01 -0.32458541988E+01 -0.91859232098E+01  0.10437768895E+02  0.00000000000E+00 0.  1.
</event>
<event>
 7    1  0.1813014E-010  0.4778727E+02  0.7816164E-02  0.1312668E+00
        -11   -1    0    0    0    0  0.00000000000E+00  0.00000000000E+00  0.45593999997E+02  0.45594000000E+02  0.51100000000E-03 0. -1.
         11   -1    0    0    0    0 -0.00000000000E+00 -0.00000000000E+00 -0.45593999997E+02  0.45594000000E+02  0.51100000000E-03 0.  1.
    9900012    2    1    2    0    0  0.27831565282E+02  0.32563504231E+02  0.69746330699E+01  0.47787270279E+02  0.19999996510E+02 0.  0.
         12    1    1    2    0    0 -0.27831565282E+02 -0.32563504231E+02 -0.69746330699E+01  0.43400729721E+02  0.00000000000E+00 0. -1.
         11    1    3    3    0    0  0.13367607009E+02  0.71869069470E+01  0.96139621925E-04  0.15177106077E+02  0.51100000000E-03 0. -1.
        -11    1    3    3    0    0  0.14453222222E+02  0.25376017050E+02  0.38160479642E+01  0.29451656936E+02  0.51100000000E-03 0.  1.
         12    1    3    3    0    0  0.10736051718E-01  0.58023353868E-03  0.31584889661E+01  0.31585072659E+01  0.00000000000E+00 0. -1.
</event>
<event>
 7    1  0.1813014E-010  0.4778727E+02  0.7816164E-02  0.1312668E+00
        -11   -1    0    0    0    0  0.00000000000E+00  0.00000000000E+00  0.45593999997E+02  0.45594000000E+02  0.51100000000E-03 0.  1.
         11   -1    0    0    0    0 -0.00000000000E+00 -0.00000000000E+00 -0.45593999997E+02  0.45594000000E+02  0.51100000000E-03 0. -1.
    9900012    2    1    2    0    0  0.28980938750E+02 -0.13097310953E+02  0.29532843647E+02  0.47787271678E+02  0.20000002887E+02 0.  0.
         12    1    1    2    0    0 -0.28980938750E+02  0.13097310953E+02 -0.29532843647E+02  0.43400728322E+02  0.00000000000E+00 0. -1.
         11    1    3    3    0    0  0.14159999231E+02  0.65184956517E+00  0.46299769472E+01  0.14911980850E+02  0.51100000000E-03 0. -1.
        -11    1    3    3    0    0  0.15815366319E+01 -0.52265251494E+01  0.43325888639E+01  0.69705917813E+01  0.51100000000E-03 0.  1.
         12    1    3    3    0    0  0.13239402887E+02 -0.85226353689E+01  0.20570277835E+02  0.25904699046E+02  0.00000000000E+00 0. -1.
</event>
<event>
 7    1  0.1813014E-010  0.4778726E+02  0.7816164E-02  0.1312668E+00
        -11   -1    0    0    0    0  0.00000000000E+00  0.00000000000E+00  0.45593999997E+02  0.45594000000E+02  0.51100000000E-03 0. -1.
         11   -1    0    0    0    0 -0.00000000000E+00 -0.00000000000E+00 -0.45593999997E+02  0.45594000000E+02  0.51100000000E-03 0.  1.
    9900012    2    1    2    0    0 -0.75361555346E+01  0.42741398925E+02 -0.56007370134E-01  0.47787263149E+02  0.19999964004E+02 0.  0.
         12    1    1    2    0    0  0.75361555346E+01 -0.42741398925E+02  0.56007370134E-01  0.43400736851E+02  0.00000000000E+00 0. -1.
         11    1    3    3    0    0  0.13265079476E+01  0.33970341309E+01  0.53219463527E+01  0.64515562048E+01  0.51100000000E-03 0. -1.
        -11    1    3    3    0    0 -0.39467093763E+01  0.73015798739E+01  0.78635020772E+00  0.83371416244E+01  0.51100000000E-03 0.  1.
        -12    1    3    3    0    0 -0.49159541060E+01  0.32042784921E+02 -0.61643039306E+01  0.32998565320E+02  0.00000000000E+00 0.  1.
</event>
<event>
 7    1  0.1813014E-010  0.4778727E+02  0.7816164E-02  0.1312668E+00
        -11   -1    0    0    0    0  0.00000000000E+00  0.00000000000E+00  0.45593999997E+02  0.45594000000E+02  0.51100000000E-03 0.  1.
         11   -1    0    0    0    0 -0.00000000000E+00 -0.00000000000E+00 -0.45593999997E+02  0.45594000000E+02  0.51100000000E-03 0. -1.
    9900012    2    1    2    0    0 -0.40610015845E+02  0.31648357711E+01  0.14981106436E+02  0.47787272789E+02  0.20000007955E+02 0.  0.
         12    1    1    2    0    0  0.40610015845E+02 -0.31648357711E+01 -0.14981106436E+02  0.43400727211E+02  0.00000000000E+00 0. -1.
         11    1    3    3    0    0 -0.66450287800E+01 -0.10172383598E+01  0.80548530603E+01  0.10491512734E+02  0.51100000000E-03 0. -1.
        -11    1    3    3    0    0 -0.33746599619E+02  0.50788213378E+01  0.87686055763E+01  0.35235150859E+02  0.51100000000E-03 0.  1.
         12    1    3    3    0    0 -0.21838744517E+00 -0.89674720691E+00 -0.18423522001E+01  0.20606091959E+01  0.00000000000E+00 0. -1.
</event>
<event>
 7    1  0.1813014E-010  0.4778727E+02  0.7816164E-02  0.1312668E+00
        -11   -1    0    0    0    0  0.00000000000E+00  0.00000000000E+00  0.45593999997E+02  0.45594000000E+02  0.51100000000E-03 0.  1.
         11   -1    0    0    0    0 -0.00000000000E+00 -0.00000000000E+00 -0.45593999997E+02  0.45594000000E+02  0.51100000000E-03 0. -1.
    9900012    2    1    2    0    0 -0.35596691421E+02  0.20788317124E+02 -0.13577363518E+02  0.47787269948E+02  0.19999994999E+02 0.  0.
         12    1    1    2    0    0  0.35596691421E+02 -0.20788317124E+02  0.13577363518E+02  0.43400730052E+02  0.00000000000E+00 0. -1.
         11    1    3    3    0    0 -0.88284071221E+01  0.12412724145E+02 -0.13729194260E+01  0.15293835393E+02  0.51100000000E-03 0. -1.
        -11    1    3    3    0    0 -0.24232961651E+02  0.10460013235E+02 -0.12487505148E+02  0.29199076909E+02  0.51100000000E-03 0.  1.
         12    1    3    3    0    0 -0.25353226484E+01 -0.20844202564E+01  0.28306105601E+00  0.32943576458E+01  0.00000000000E+00 0. -1.
</event>
<event>
 7    1  0.1813014E-010  0.4778727E+02  0.7816164E-02  0.1312668E+00
        -11   -1    0    0    0    0  0.00000000000E+00  0.00000000000E+00  0.45593999997E+02  0.45594000000E+02  0.51100000000E-03 0.  1.
         11   -1    0    0    0    0 -0.00000000000E+00 -0.00000000000E+00 -0.45593999997E+02  0.45594000000E+02  0.51100000000E-03 0. -1.
    9900012    2    1    2    0    0  0.40299197789E+01  0.39327518510E+02  0.17908910257E+02  0.47787273829E+02  0.20000012696E+02 0.  0.
         12    1    1    2    0    0 -0.40299197789E+01 -0.39327518510E+02 -0.17908910257E+02  0.43400726171E+02  0.00000000000E+00 0. -1.
         11    1    3    3    0    0 -0.33606261523E+01  0.17987421184E+02  0.12741857553E+02  0.22297893693E+02  0.51100000000E-03 0. -1.
        -11    1    3    3    0    0 -0.18535359168E+01  0.84696167907E+01  0.41458212624E+01  0.96102985477E+01  0.51100000000E-03 0.  1.
         12    1    3    3    0    0  0.92440818481E+01  0.12870480535E+02  0.10212314413E+01  0.15879081588E+02  0.00000000000E+00 0. -1.
</event>
<event>
 7    1  0.1813014E-010  0.4778726E+02  0.7816164E-02  0.1312668E+00
        -11   -1    0    0    0    0  0.00000000000E+00  0.00000000000E+00  0.45593999997E+02  0.45594000000E+02  0.51100000000E-03 0.  1.
         11   -1    0    0    0    0 -0.00000000000E+00 -0.00000000000E+00 -0.45593999997E+02  0.45594000000E+02  0.51100000000E-03 0. -1.
    9900012    2    1    2    0    0  0.10022138185E+02 -0.40495231006E+01  0.42033110835E+02  0.47787259250E+02  0.19999946226E+02 0.  0.
         12    1    1    2    0    0 -0.10022138185E+02  0.40495231006E+01 -0.42033110835E+02  0.43400740750E+02  0.00000000000E+00 0. -1.
         11    1    3    3    0    0  0.94925335461E+00 -0.69588182615E+01  0.25574939223E+02  0.26521759935E+02  0.51100000000E-03 0. -1.
        -11    1    3    3    0    0  0.84941571788E-03  0.41040492191E+01  0.69371720159E+01  0.80602466806E+01  0.51100000000E-03 0.  1.
         12    1    3    3    0    0  0.90720354150E+01 -0.11947540582E+01  0.95209995957E+01  0.13205252634E+02  0.00000000000E+00 0. -1.
</event>
<event>
 7    1  0.2032789E-010  0.4778728E+02  0.7816164E-02  0.1312668E+00
        -11   -1    0    0    0    0  0.00000000000E+00  0.00000000000E+00  0.45593999997E+02  0.45594000000E+02  0.51100000000E-03 0. -1.
         11   -1    0    0    0    0 -0.00000000000E+00 -0.00000000000E+00 -0.45593999997E+02  0.45594000000E+02  0.51100000000E-03 0.  1.
    9900012    2    1    2    0    0  0.22187934692E+02  0.16853324201E+02 -0.33275875989E+02  0.47787275290E+02  0.20000019358E+02 0.  0.
         12    1    1    2    0    0 -0.22187934692E+02 -0.16853324201E+02  0.33275875989E+02  0.43400724710E+02  0.00000000000E+00 0. -1.
         11    1    3    3    0    0  0.82733547207E+01 -0.64084422673E+00 -0.43099932945E+01  0.93506749552E+01  0.51100000000E-03 0. -1.
        -11    1    3    3    0    0  0.12142222759E+02  0.13877692174E+02 -0.14608786671E+02  0.23525317466E+02  0.51100000000E-03 0.  1.
         12    1    3    3    0    0  0.17723572127E+01  0.36164762532E+01 -0.14357096023E+02  0.14911282869E+02  0.00000000000E+00 0. -1.
</event>
<event>
 7    1  0.1813014E-010  0.4778727E+02  0.7816164E-02  0.1312668E+00
        -11   -1    0    0    0    0  0.00000000000E+00  0.00000000000E+00  0.45593999997E+02  0.45594000000E+02  0.51100000000E-03 0.  1.
         11   -1    0    0    0    0 -0.00000000000E+00 -0.00000000000E+00 -0.45593999997E+02  0.45594000000E+02  0.51100000000E-03 0. -1.
    9900012    2    1    2    0    0 -0.37911264589E+01  0.50683924730E+01  0.42936721347E+02  0.47787270950E+02  0.19999999569E+02 0.  0.
         12    1    1    2    0    0  0.37911264589E+01 -0.50683924730E+01 -0.42936721347E+02  0.43400729050E+02  0.00000000000E+00 0. -1.
         11    1    3    3    0    0  0.57296345063E+01  0.51452088730E+01  0.28919987796E+02  0.29927705898E+02  0.51100000000E-03 0.  1.
        -11    1    3    3    0    0 -0.51312204967E+01  0.32742568433E+00  0.11912937997E+02  0.12975157932E+02  0.51100000000E-03 0. -1.
        -12    1    3    3    0    0 -0.43895404685E+01 -0.40424208427E+00  0.21037955529E+01  0.48844071201E+01  0.00000000000E+00 0.  1.
</event>
<event>
 7    1  0.1813014E-010  0.4778726E+02  0.7816164E-02  0.1312668E+00
        -11   -1    0    0    0    0  0.00000000000E+00  0.00000000000E+00  0.45593999997E+02  0.45594000000E+02  0.51100000000E-03 0. -1.
         11   -1    0    0    0    0 -0.00000000000E+00 -0.00000000000E+00 -0.45593999997E+02  0.45594000000E+02  0.51100000000E-03 0.  1.
    9900012    2    1    2    0    0  0.28190521300E+02  0.32417893399E+02 -0.61642923924E+01  0.47787264933E+02  0.19999972137E+02 0.  0.
         12    1    1    2    0    0 -0.28190521300E+02 -0.32417893399E+02  0.61642923924E+01  0.43400735067E+02  0.00000000000E+00 0. -1.
         11    1    3    3    0    0  0.13524635607E+01  0.76788670703E+01  0.17653653501E+01  0.79944150659E+01  0.51100000000E-03 0. -1.
        -11    1    3    3    0    0  0.11057287782E+02  0.21845274215E+01 -0.50609708955E+00  0.11282371545E+02  0.51100000000E-03 0.  1.
        -12    1    3    3    0    0  0.15780769957E+02  0.22554498908E+02 -0.74235606530E+01  0.28510478323E+02  0.00000000000E+00 0.  1.
</event>
<event>
 7    1  0.1813014E-010  0.4778727E+02  0.7816164E-02  0.1312668E+00
        -11   -1    0    0    0    0  0.00000000000E+00  0.00000000000E+00  0.45593999997E+02  0.45594000000E+02  0.51100000000E-03 0.  1.
         11   -1    0    0    0    0 -0.00000000000E+00 -0.00000000000E+00 -0.45593999997E+02  0.45594000000E+02  0.51100000000E-03 0. -1.
    9900012    2    1    2    0    0  0.38944699099E+02  0.18615785655E+02  0.45150972304E+01  0.47787272281E+02  0.20000005640E+02 0.  0.
         12    1    1    2    0    0 -0.38944699099E+02 -0.18615785655E+02 -0.45150972304E+01  0.43400727719E+02  0.00000000000E+00 0. -1.
         11    1    3    3    0    0  0.13372590222E+02  0.32263093989E+01 -0.46535345219E+01  0.14522073729E+02  0.51100000000E-03 0. -1.
        -11    1    3    3    0    0  0.25676956844E+02  0.12500604019E+02  0.64086645312E+01  0.29268450505E+02  0.51100000000E-03 0.  1.
         12    1    3    3    0    0 -0.10484796613E+00  0.28888722368E+01  0.27599672211E+01  0.39967480479E+01  0.00000000000E+00 0. -1.
</event>
<event>
 7    1  0.1813014E-010  0.4778727E+02  0.7816164E-02  0.1312668E+00
        -11   -1    0    0    0    0  0.00000000000E+00  0.00000000000E+00  0.45593999997E+02  0.45594000000E+02  0.51100000000E-03 0.  1.
         11   -1    0    0    0    0 -0.00000000000E+00 -0.00000000000E+00 -0.45593999997E+02  0.45594000000E+02  0.51100000000E-03 0. -1.
    9900012    2    1    2    0    0  0.58746433358E+01  0.28511092044E+02  0.32190523463E+02  0.47787267233E+02  0.19999982624E+02 0.  0.
         12    1    1    2    0    0 -0.58746433358E+01 -0.28511092044E+02 -0.32190523463E+02  0.43400732767E+02  0.00000000000E+00 0. -1.
         11    1    3    3    0    0 -0.21131361092E+01  0.36198750626E+01  0.29527603133E+01  0.51271467127E+01  0.51100000000E-03 0. -1.
        -11    1    3    3    0    0  0.13084793646E+02  0.19235059611E+02  0.23960280769E+02  0.33396023682E+02  0.51100000000E-03 0.  1.
        -12    1    3    3    0    0 -0.50970142006E+01  0.56561573696E+01  0.52774823810E+01  0.92640968385E+01  0.00000000000E+00 0.  1.
</event>
<event>
 7    1  0.1813014E-010  0.4778727E+02  0.7816164E-02  0.1312668E+00
        -11   -1    0    0    0    0  0.00000000000E+00  0.00000000000E+00  0.45593999997E+02  0.45594000000E+02  0.51100000000E-03 0.  1.
         11   -1    0    0    0    0 -0.00000000000E+00 -0.00000000000E+00 -0.45593999997E+02  0.45594000000E+02  0.51100000000E-03 0. -1.
    9900012    2    1    2    0    0  0.15046427745E+01  0.16584406062E+02  0.40078884469E+02  0.47787268963E+02  0.19999990509E+02 0.  0.
         12    1    1    2    0    0 -0.15046427745E+01 -0.16584406062E+02 -0.40078884469E+02  0.43400731037E+02  0.00000000000E+00 0. -1.
         11    1    3    3    0    0  0.31676392636E+01  0.11324574846E+01  0.17975027894E+02  0.18287100003E+02  0.51100000000E-03 0. -1.
        -11    1    3    3    0    0  0.28709871841E+01  0.14591371099E+02  0.17741407513E+02  0.23149691548E+02  0.51100000000E-03 0.  1.
         12    1    3    3    0    0 -0.45339836732E+01  0.86057747784E+00  0.43624490617E+01  0.63504774120E+01  0.00000000000E+00 0. -1.
</event>
<event>
 7    1  0.1813014E-010  0.4778727E+02  0.7816164E-02  0.1312668E+00
        -11   -1    0    0    0    0  0.00000000000E+00  0.00000000000E+00  0.45593999997E+02  0.45594000000E+02  0.51100000000E-03 0. -1.
         11   -1    0    0    0    0 -0.00000000000E+00 -0.00000000000E+00 -0.45593999997E+02  0.45594000000E+02  0.51100000000E-03 0.  1.
    9900012    2    1    2    0    0  0.40362863684E+01  0.33028315119E+02 -0.27865064986E+02  0.47787273579E+02  0.20000011554E+02 0.  0.
         12    1    1    2    0    0 -0.40362863684E+01 -0.33028315119E+02  0.27865064986E+02  0.43400726421E+02  0.00000000000E+00 0. -1.
         11    1    3    3    0    0  0.25953157754E+01  0.45027034059E+01  0.26910651659E+00  0.52040772971E+01  0.51100000000E-03 0. -1.
        -11    1    3    3    0    0 -0.12952206063E+01  0.99760459712E+01 -0.17435069901E+01  0.10209745664E+02  0.51100000000E-03 0.  1.
        -12    1    3    3    0    0  0.27361911994E+01  0.18549565742E+02 -0.26390664512E+02  0.32373450618E+02  0.00000000000E+00 0.  1.
</event>
<event>
 7    1  0.1813014E-010  0.4778727E+02  0.7816164E-02  0.1312668E+00
        -11   -1    0    0    0    0  0.00000000000E+00  0.00000000000E+00  0.45593999997E+02  0.45594000000E+02  0.51100000000E-03 0. -1.
         11   -1    0    0    0    0 -0.00000000000E+00 -0.00000000000E+00 -0.45593999997E+02  0.45594000000E+02  0.51100000000E-03 0.  1.
    9900012    2    1    2    0    0  0.26436634992E+02  0.30256415197E+02 -0.16409661830E+02  0.47787270379E+02  0.19999996965E+02 0.  0.
         12    1    1    2    0    0 -0.26436634992E+02 -0.30256415197E+02  0.16409661830E+02  0.43400729621E+02  0.00000000000E+00 0. -1.
         11    1    3    3    0    0 -0.39615303142E-01  0.80845902791E+01 -0.19096638355E+01  0.83071647136E+01  0.51100000000E-03 0. -1.
        -11    1    3    3    0    0  0.82871060906E+01  0.41270906140E+00 -0.42662791935E+01  0.93299300396E+01  0.51100000000E-03 0.  1.
        -12    1    3    3    0    0  0.18189144204E+02  0.21759115857E+02 -0.10233718801E+02  0.30150175626E+02  0.00000000000E+00 0.  1.
</event>
<event>
 7    1  0.1813014E-010  0.4778727E+02  0.7816164E-02  0.1312668E+00
        -11   -1    0    0    0    0  0.00000000000E+00  0.00000000000E+00  0.45593999997E+02  0.45594000000E+02  0.51100000000E-03 0.  1.
         11   -1    0    0    0    0 -0.00000000000E+00 -0.00000000000E+00 -0.45593999997E+02  0.45594000000E+02  0.51100000000E-03 0. -1.
    9900012    2    1    2    0    0 -0.28554395478E+02  0.28863109747E+02  0.15335926357E+02  0.47787271405E+02  0.20000001642E+02 0.  0.
         12    1    1    2    0    0  0.28554395478E+02 -0.28863109747E+02 -0.15335926357E+02  0.43400728595E+02  0.00000000000E+00 0. -1.
         11    1    3    3    0    0  0.28825476908E+00  0.10980674850E+01  0.46258503132E+01  0.47631223367E+01  0.51100000000E-03 0. -1.
        -11    1    3    3    0    0 -0.78794095487E+01  0.87366294215E+01 -0.20975742091E+01  0.11950464690E+02  0.51100000000E-03 0.  1.
        -12    1    3    3    0    0 -0.20963240699E+02  0.19028412840E+02  0.12807650253E+02  0.31073684378E+02  0.00000000000E+00 0.  1.
</event>
<event>
 7    1  0.1813014E-010  0.4778727E+02  0.7816164E-02  0.1312668E+00
        -11   -1    0    0    0    0  0.00000000000E+00  0.00000000000E+00  0.45593999997E+02  0.45594000000E+02  0.51100000000E-03 0. -1.
         11   -1    0    0    0    0 -0.00000000000E+00 -0.00000000000E+00 -0.45593999997E+02  0.45594000000E+02  0.51100000000E-03 0.  1.
    9900012    2    1    2    0    0 -0.26569213550E+01 -0.42145340128E+02 -0.10016697961E+02  0.47787272315E+02  0.20000005792E+02 0.  0.
         12    1    1    2    0    0  0.26569213550E+01  0.42145340128E+02  0.10016697961E+02  0.43400727685E+02  0.00000000000E+00 0. -1.
         11    1    3    3    0    0  0.45083721191E+00 -0.69647369036E+01  0.20248261000E+01  0.72670995125E+01  0.51100000000E-03 0. -1.
        -11    1    3    3    0    0  0.45004774116E+01 -0.14109798802E+02  0.55256805425E+00  0.14820460549E+02  0.51100000000E-03 0.  1.
        -12    1    3    3    0    0 -0.76082359785E+01 -0.21070804422E+02 -0.12594092116E+02  0.25699712253E+02  0.00000000000E+00 0.  1.
</event>
<event>
 7    1  0.1813014E-010  0.4778727E+02  0.7816164E-02  0.1312668E+00
        -11   -1    0    0    0    0  0.00000000000E+00  0.00000000000E+00  0.45593999997E+02  0.45594000000E+02  0.51100000000E-03 0.  1.
         11   -1    0    0    0    0 -0.00000000000E+00 -0.00000000000E+00 -0.45593999997E+02  0.45594000000E+02  0.51100000000E-03 0. -1.
    9900012    2    1    2    0    0 -0.20037150389E+02 -0.36619937813E+02 -0.11879217302E+02  0.47787273683E+02  0.20000012029E+02 0.  0.
         12    1    1    2    0    0  0.20037150389E+02  0.36619937813E+02  0.11879217302E+02  0.43400726317E+02  0.00000000000E+00 0. -1.
         11    1    3    3    0    0 -0.20597132049E+01 -0.36661759386E+01 -0.41398291428E+01  0.59009702670E+01  0.51100000000E-03 0. -1.
        -11    1    3    3    0    0 -0.10097233400E+02 -0.30981359223E+02 -0.86454053848E+01  0.33712635260E+02  0.51100000000E-03 0.  1.
         12    1    3    3    0    0 -0.78802037846E+01 -0.19724026512E+01  0.90601722566E+00  0.81736681557E+01  0.00000000000E+00 0. -1.
</event>
<event>
 7    1  0.1813014E-010  0.4778727E+02  0.7816164E-02  0.1312668E+00
        -11   -1    0    0    0    0  0.00000000000E+00  0.00000000000E+00  0.45593999997E+02  0.45594000000E+02  0.51100000000E-03 0. -1.
         11   -1    0    0    0    0 -0.00000000000E+00 -0.00000000000E+00 -0.45593999997E+02  0.45594000000E+02  0.51100000000E-03 0.  1.
    9900012    2    1    2    0    0 -0.31583746381E+02 -0.16044528638E+02 -0.25073161667E+02  0.47787269930E+02  0.19999994917E+02 0.  0.
         12    1    1    2    0    0  0.31583746381E+02  0.16044528638E+02  0.25073161667E+02  0.43400730070E+02  0.00000000000E+00 0. -1.
         11    1    3    3    0    0 -0.19866433474E+02 -0.41526905682E+01 -0.16007098609E+02  0.25848543945E+02  0.51100000000E-03 0. -1.
        -11    1    3    3    0    0 -0.98038582316E+01 -0.11215101671E+02 -0.11464312081E+02  0.18796930427E+02  0.51100000000E-03 0.  1.
         12    1    3    3    0    0 -0.19134546756E+01 -0.67673639827E+00  0.23982490233E+01  0.31417955576E+01  0.00000000000E+00 0. -1.
</event>
<event>
 7    1  0.1813014E-010  0.4778727E+02  0.7816164E-02  0.1312668E+00
        -11   -1    0    0    0    0  0.00000000000E+00  0.00000000000E+00  0.45593999997E+02  0.45594000000E+02  0.51100000000E-03 0. -1.
         11   -1    0    0    0    0 -0.00000000000E+00 -0.00000000000E+00 -0.45593999997E+02  0.45594000000E+02  0.51100000000E-03 0.  1.
    9900012    2    1    2    0    0  0.93428006524E+01 -0.26418196849E+02 -0.33142330367E+02  0.47787272921E+02  0.20000008557E+02 0.  0.
         12    1    1    2    0    0 -0.93428006524E+01  0.26418196849E+02  0.33142330367E+02  0.43400727079E+02  0.00000000000E+00 0. -1.
         11    1    3    3    0    0  0.11723241705E+01  0.24383050233E+01 -0.42322853167E+01  0.50231379247E+01  0.51100000000E-03 0. -1.
        -11    1    3    3    0    0  0.78593751474E+01 -0.11123758024E+02 -0.10469815225E+02  0.17179196762E+02  0.51100000000E-03 0.  1.
        -12    1    3    3    0    0  0.31110133449E+00 -0.17732743849E+02 -0.18440229825E+02  0.25584938235E+02  0.00000000000E+00 0.  1.
</event>
<event>
 7    1  0.1813014E-010  0.4778727E+02  0.7816164E-02  0.1312668E+00
        -11   -1    0    0    0    0  0.00000000000E+00  0.00000000000E+00  0.45593999997E+02  0.45594000000E+02  0.51100000000E-03 0.  1.
         11   -1    0    0    0    0 -0.00000000000E+00 -0.00000000000E+00 -0.45593999997E+02  0.45594000000E+02  0.51100000000E-03 0. -1.
    9900012    2    1    2    0    0 -0.10775625524E+02 -0.68390931503E+01  0.41481755220E+02  0.47787270551E+02  0.19999997751E+02 0.  0.
         12    1    1    2    0    0  0.10775625524E+02  0.68390931503E+01 -0.41481755220E+02  0.43400729449E+02  0.00000000000E+00 0. -1.
         11    1    3    3    0    0 -0.23991998123E+01  0.20721763121E+01  0.19241931611E+01  0.37084490006E+01  0.51100000000E-03 0. -1.
        -11    1    3    3    0    0 -0.10497929485E+02 -0.84119382567E+00  0.16674823522E+02  0.19722166977E+02  0.51100000000E-03 0.  1.
        -12    1    3    3    0    0  0.21215037738E+01 -0.80700756367E+01  0.22882738538E+02  0.24356654574E+02  0.00000000000E+00 0.  1.
</event>
<event>
 7    1  0.1813014E-010  0.4778727E+02  0.7816164E-02  0.1312668E+00
        -11   -1    0    0    0    0  0.00000000000E+00  0.00000000000E+00  0.45593999997E+02  0.45594000000E+02  0.51100000000E-03 0. -1.
         11   -1    0    0    0    0 -0.00000000000E+00 -0.00000000000E+00 -0.45593999997E+02  0.45594000000E+02  0.51100000000E-03 0.  1.
    9900012    2    1    2    0    0  0.25090421669E+02 -0.25915558948E+02 -0.24134574419E+02  0.47787272615E+02  0.20000007161E+02 0.  0.
         12    1    1    2    0    0 -0.25090421669E+02  0.25915558948E+02  0.24134574419E+02  0.43400727385E+02  0.00000000000E+00 0. -1.
         11    1    3    3    0    0  0.18502369572E+01  0.23745584589E+01 -0.28076044688E+01  0.41163755644E+01  0.51100000000E-03 0. -1.
        -11    1    3    3    0    0  0.11357395272E+02 -0.11916114331E+02 -0.37795315590E+01  0.16889910218E+02  0.51100000000E-03 0.  1.
         12    1    3    3    0    0  0.11882789440E+02 -0.16374003076E+02 -0.17547438392E+02  0.26780986832E+02  0.00000000000E+00 0. -1.
</event>
<event>
 7    1  0.1813014E-010  0.4778728E+02  0.7816164E-02  0.1312668E+00
        -11   -1    0    0    0    0  0.00000000000E+00  0.00000000000E+00  0.45593999997E+02  0.45594000000E+02  0.51100000000E-03 0.  1.
         11   -1    0    0    0    0 -0.00000000000E+00 -0.00000000000E+00 -0.45593999997E+02  0.45594000000E+02  0.51100000000E-03 0. -1.
    9900012    2    1    2    0    0 -0.19408751663E+02 -0.33891173581E+02  0.18929121165E+02  0.47787275169E+02  0.20000018806E+02 0.  0.
         12    1    1    2    0    0  0.19408751663E+02  0.33891173581E+02 -0.18929121165E+02  0.43400724831E+02  0.00000000000E+00 0. -1.
         11    1    3    3    0    0  0.71296949101E+00 -0.14681483034E+01  0.79802496908E+00  0.18167633441E+01  0.51100000000E-03 0. -1.
        -11    1    3    3    0    0 -0.11894890304E+02 -0.14603272284E+02  0.18415245872E+02  0.26341322244E+02  0.51100000000E-03 0.  1.
         12    1    3    3    0    0 -0.82268308495E+01 -0.17819752994E+02 -0.28414967660E+00  0.19629189581E+02  0.00000000000E+00 0. -1.
</event>
<event>
 7    1  0.1813014E-010  0.4778727E+02  0.7816164E-02  0.1312668E+00
        -11   -1    0    0    0    0  0.00000000000E+00  0.00000000000E+00  0.45593999997E+02  0.45594000000E+02  0.51100000000E-03 0.  1.
         11   -1    0    0    0    0 -0.00000000000E+00 -0.00000000000E+00 -0.45593999997E+02  0.45594000000E+02  0.51100000000E-03 0. -1.
    9900012    2    1    2    0    0 -0.34626904674E+02 -0.20876321329E+02  0.15772760119E+02  0.47787270959E+02  0.19999999611E+02 0.  0.
         12    1    1    2    0    0  0.34626904674E+02  0.20876321329E+02 -0.15772760119E+02  0.43400729041E+02  0.00000000000E+00 0. -1.
         11    1    3    3    0    0 -0.11583960303E+02 -0.87022190195E+00  0.51690706850E+01  0.12714743980E+02  0.51100000000E-03 0. -1.
        -11    1    3    3    0    0 -0.13927314701E+02 -0.12828486958E+02 -0.59882978748E+00  0.18944623770E+02  0.51100000000E-03 0.  1.
         12    1    3    3    0    0 -0.91156296699E+01 -0.71776124692E+01  0.11202519221E+02  0.16127903210E+02  0.00000000000E+00 0. -1.
</event>
<event>
 7    1  0.1813014E-010  0.4778727E+02  0.7816164E-02  0.1312668E+00
        -11   -1    0    0    0    0  0.00000000000E+00  0.00000000000E+00  0.45593999997E+02  0.45594000000E+02  0.51100000000E-03 0. -1.
         11   -1    0    0    0    0 -0.00000000000E+00 -0.00000000000E+00 -0.45593999997E+02  0.45594000000E+02  0.51100000000E-03 0.  1.
    9900012    2    1    2    0    0  0.16745793140E+02 -0.34509811827E+02 -0.20304553320E+02  0.47787267452E+02  0.19999983619E+02 0.  0.
         12    1    1    2    0    0 -0.16745793140E+02  0.34509811827E+02  0.20304553320E+02  0.43400732548E+02  0.00000000000E+00 0. -1.
         11    1    3    3    0    0  0.22396103712E+01 -0.52373514420E+01 -0.10155169401E+02  0.11643589248E+02  0.51100000000E-03 0. -1.
        -11    1    3    3    0    0  0.15541203514E+01 -0.52195425814E+01  0.25550680437E+01  0.60155870699E+01  0.51100000000E-03 0.  1.
        -12    1    3    3    0    0  0.12952062417E+02 -0.24052917803E+02 -0.12704451962E+02  0.30128091134E+02  0.00000000000E+00 0.  1.
</event>
<event>
 7    1  0.1813014E-010  0.4778727E+02  0.7816164E-02  0.1312668E+00
        -11   -1    0    0    0    0  0.00000000000E+00  0.00000000000E+00  0.45593999997E+02  0.45594000000E+02  0.51100000000E-03 0.  1.
         11   -1    0    0    0    0 -0.00000000000E+00 -0.00000000000E+00 -0.45593999997E+02  0.45594000000E+02  0.51100000000E-03 0. -1.
    9900012    2    1    2    0    0  0.10201598532E+02  0.21779028726E+02  0.36127893102E+02  0.47787269997E+02  0.19999995223E+02 0.  0.
         12    1    1    2    0    0 -0.10201598532E+02 -0.21779028726E+02 -0.36127893102E+02  0.43400730003E+02  0.00000000000E+00 0. -1.
         11    1    3    3    0    0  0.19199137546E+01  0.24656830014E+01  0.14901328320E+02  0.15225480204E+02  0.51100000000E-03 0. -1.
        -11    1    3    3    0    0  0.11658266564E+02  0.14705824651E+02  0.17989039631E+02  0.25995807451E+02  0.51100000000E-03 0.  1.
         12    1    3    3    0    0 -0.33765817863E+01  0.46075210739E+01  0.32375251507E+01  0.65659823414E+01  0.00000000000E+00 0. -1.
</event>
<event>
 7    1  0.1813014E-010  0.4778729E+02  0.7816164E-02  0.1312668E+00
        -11   -1    0    0    0    0  0.00000000000E+00  0.00000000000E+00  0.45593999997E+02  0.45594000000E+02  0.51100000000E-03 0.  1.
         11   -1    0    0    0    0 -0.00000000000E+00 -0.00000000000E+00 -0.45593999997E+02  0.45594000000E+02  0.51100000000E-03 0. -1.
    9900012    2    1    2    0    0  0.18949564438E+02  0.26291689848E+02 -0.28866636443E+02  0.47787289788E+02  0.20000085457E+02 0.  0.
         12    1    1    2    0    0 -0.18949564438E+02 -0.26291689848E+02  0.28866636443E+02  0.43400710212E+02  0.00000000000E+00 0. -1.
         11    1    3    3    0    0  0.30574647722E+01  0.33979518799E+01 -0.43612428511E-02  0.45710159804E+01  0.51100000000E-03 0. -1.
        -11    1    3    3    0    0  0.11755247119E+02  0.24924128262E+02 -0.24719973994E+02  0.37019928673E+02  0.51100000000E-03 0.  1.
        -12    1    3    3    0    0  0.41368525463E+01 -0.20303902942E+01 -0.41423012063E+01  0.61963451340E+01  0.00000000000E+00 0.  1.
</event>
<event>
 7    1  0.1813014E-010  0.4778727E+02  0.7816164E-02  0.1312668E+00
        -11   -1    0    0    0    0  0.00000000000E+00  0.00000000000E+00  0.45593999997E+02  0.45594000000E+02  0.51100000000E-03 0.  1.
         11   -1    0    0    0    0 -0.00000000000E+00 -0.00000000000E+00 -0.45593999997E+02  0.45594000000E+02  0.51100000000E-03 0. -1.
    9900012    2    1    2    0    0  0.16903894458E+02  0.25471135704E+01  0.39892275965E+02  0.47787272851E+02  0.20000008235E+02 0.  0.
         12    1    1    2    0    0 -0.16903894458E+02 -0.25471135704E+01 -0.39892275965E+02  0.43400727149E+02  0.00000000000E+00 0. -1.
         11    1    3    3    0    0  0.50125486061E+01 -0.31133305918E+01  0.10513181050E+02  0.12055929950E+02  0.51100000000E-03 0. -1.
        -11    1    3    3    0    0  0.12922111551E+02 -0.15743903539E+01  0.18233851898E+02  0.22403861882E+02  0.51100000000E-03 0.  1.
         12    1    3    3    0    0 -0.10307656983E+01  0.72348345161E+01  0.11145243017E+02  0.13327481019E+02  0.00000000000E+00 0. -1.
</event>
<event>
 7    1  0.1813014E-010  0.4778727E+02  0.7816164E-02  0.1312668E+00
        -11   -1    0    0    0    0  0.00000000000E+00  0.00000000000E+00  0.45593999997E+02  0.45594000000E+02  0.51100000000E-03 0.  1.
         11   -1    0    0    0    0 -0.00000000000E+00 -0.00000000000E+00 -0.45593999997E+02  0.45594000000E+02  0.51100000000E-03 0. -1.
    9900012    2    1    2    0    0  0.34777156186E+02  0.16432368645E+02  0.20103477248E+02  0.47787272712E+02  0.20000007601E+02 0.  0.
         12    1    1    2    0    0 -0.34777156186E+02 -0.16432368645E+02 -0.20103477248E+02  0.43400727288E+02  0.00000000000E+00 0. -1.
         11    1    3    3    0    0  0.22378753463E+02  0.37892769370E+01  0.12654695977E+02  0.25986699614E+02  0.51100000000E-03 0. -1.
        -11    1    3    3    0    0  0.12440302213E+02  0.85927530895E+01  0.23695070089E+01  0.15303956630E+02  0.51100000000E-03 0.  1.
        -12    1    3    3    0    0 -0.41899490271E-01  0.40503386190E+01  0.50792742628E+01  0.64966164680E+01  0.00000000000E+00 0.  1.
</event>
<event>
 7    1  0.2758431E-010  0.4778727E+02  0.7816164E-02  0.1312668E+00
        -11   -1    0    0    0    0  0.00000000000E+00  0.00000000000E+00  0.45593999997E+02  0.45594000000E+02  0.51100000000E-03 0. -1.
         11   -1    0    0    0    0 -0.00000000000E+00 -0.00000000000E+00 -0.45593999997E+02  0.45594000000E+02  0.51100000000E-03 0.  1.
    9900012    2    1    2    0    0  0.30092116477E+02 -0.25737746206E+02 -0.17766721435E+02  0.47787269080E+02  0.19999991045E+02 0.  0.
         12    1    1    2    0    0 -0.30092116477E+02  0.25737746206E+02  0.17766721435E+02  0.43400730920E+02  0.00000000000E+00 0. -1.
         11    1    3    3    0    0  0.13907644233E+02 -0.53872331510E+01 -0.14265983388E+02  0.20638874277E+02  0.51100000000E-03 0. -1.
        -11    1    3    3    0    0  0.11763422522E+02 -0.93210256408E+01 -0.25952715936E+01  0.15231384157E+02  0.51100000000E-03 0.  1.
         12    1    3    3    0    0  0.44210497220E+01 -0.11029487414E+02 -0.90546645375E+00  0.11917010647E+02  0.00000000000E+00 0. -1.
</event>
<event>
 7    1  0.1813014E-010  0.4778727E+02  0.7816164E-02  0.1312668E+00
        -11   -1    0    0    0    0  0.00000000000E+00  0.00000000000E+00  0.45593999997E+02  0.45594000000E+02  0.51100000000E-03 0.  1.
         11   -1    0    0    0    0 -0.00000000000E+00 -0.00000000000E+00 -0.45593999997E+02  0.45594000000E+02  0.51100000000E-03 0. -1.
    9900012    2    1    2    0    0 -0.78912216673E+01 -0.42607832565E+02 -0.24340874643E+01  0.47787267782E+02  0.19999985125E+02 0.  0.
         12    1    1    2    0    0  0.78912216673E+01  0.42607832565E+02  0.24340874643E+01  0.43400732218E+02  0.00000000000E+00 0. -1.
         11    1    3    3    0    0  0.26105018345E+01 -0.19068821105E+02 -0.34188807963E+01  0.19547976988E+02  0.51100000000E-03 0. -1.
        -11    1    3    3    0    0  0.76071459918E+00 -0.11258611945E+02 -0.15307111530E+01  0.11387629540E+02  0.51100000000E-03 0.  1.
        -12    1    3    3    0    0 -0.11262438101E+02 -0.12280399515E+02  0.25155044850E+01  0.16851661254E+02  0.00000000000E+00 0.  1.
</event>
<event>
 7    1  0.1813014E-010  0.4778727E+02  0.7816164E-02  0.1312668E+00
        -11   -1    0    0    0    0  0.00000000000E+00  0.00000000000E+00  0.45593999997E+02  0.45594000000E+02  0.51100000000E-03 0.  1.
         11   -1    0    0    0    0 -0.00000000000E+00 -0.00000000000E+00 -0.45593999997E+02  0.45594000000E+02  0.51100000000E-03 0. -1.
    9900012    2    1    2    0    0  0.90097089303E+00 -0.43091061644E+02  0.50962988649E+01  0.47787267238E+02  0.19999982646E+02 0.  0.
         12    1    1    2    0    0 -0.90097089303E+00  0.43091061644E+02 -0.50962988649E+01  0.43400732762E+02  0.00000000000E+00 0. -1.
         11    1    3    3    0    0 -0.36889269467E+01 -0.99623737655E+01  0.51203392587E+01  0.11793004174E+02  0.51100000000E-03 0. -1.
        -11    1    3    3    0    0 -0.12188282494E+00 -0.20980532342E+02 -0.57607646901E+01  0.21757389614E+02  0.51100000000E-03 0.  1.
         12    1    3    3    0    0  0.47117806646E+01 -0.12148155537E+02  0.57367242963E+01  0.14236873450E+02  0.00000000000E+00 0. -1.
</event>
<event>
 7    1  0.1813014E-010  0.4778727E+02  0.7816164E-02  0.1312668E+00
        -11   -1    0    0    0    0  0.00000000000E+00  0.00000000000E+00  0.45593999997E+02  0.45594000000E+02  0.51100000000E-03 0.  1.
         11   -1    0    0    0    0 -0.00000000000E+00 -0.00000000000E+00 -0.45593999997E+02  0.45594000000E+02  0.51100000000E-03 0. -1.
    9900012    2    1    2    0    0  0.11291431145E+02  0.31606895518E+02 -0.27516020575E+02  0.47787266712E+02  0.19999980249E+02 0.  0.
         12    1    1    2    0    0 -0.11291431145E+02 -0.31606895518E+02  0.27516020575E+02  0.43400733288E+02  0.00000000000E+00 0. -1.
         11    1    3    3    0    0  0.27934535928E+01  0.46538436126E+01 -0.13816325166E+02  0.14844274475E+02  0.51100000000E-03 0. -1.
        -11    1    3    3    0    0  0.34393314009E+01  0.40371144379E+01 -0.65138163817E+01  0.83998272355E+01  0.51100000000E-03 0.  1.
        -12    1    3    3    0    0  0.50586461518E+01  0.22915937467E+02 -0.71858790277E+01  0.24543165002E+02  0.00000000000E+00 0.  1.
</event>
<event>
 7    1  0.1813014E-010  0.4778727E+02  0.7816164E-02  0.1312668E+00
        -11   -1    0    0    0    0  0.00000000000E+00  0.00000000000E+00  0.45593999997E+02  0.45594000000E+02  0.51100000000E-03 0.  1.
         11   -1    0    0    0    0 -0.00000000000E+00 -0.00000000000E+00 -0.45593999997E+02  0.45594000000E+02  0.51100000000E-03 0. -1.
    9900012    2    1    2    0    0  0.33476222129E+02 -0.20152316960E+01  0.27548223161E+02  0.47787271825E+02  0.20000003558E+02 0.  0.
         12    1    1    2    0    0 -0.33476222129E+02  0.20152316960E+01 -0.27548223161E+02  0.43400728175E+02  0.00000000000E+00 0. -1.
         11    1    3    3    0    0  0.40866312089E+01 -0.57666554244E+01  0.78920471632E+01  0.10594304041E+02  0.51100000000E-03 0.  1.
        -11    1    3    3    0    0  0.22829569025E+02  0.13870105161E+01  0.19750640323E+02  0.30219212655E+02  0.51100000000E-03 0. -1.
         12    1    3    3    0    0  0.65600218946E+01  0.23644132123E+01 -0.94464324403E-01  0.69737551294E+01  0.00000000000E+00 0. -1.
</event>
<event>
 7    1  0.1813014E-010  0.4778727E+02  0.7816164E-02  0.1312668E+00
        -11   -1    0    0    0    0  0.00000000000E+00  0.00000000000E+00  0.45593999997E+02  0.45594000000E+02  0.51100000000E-03 0. -1.
         11   -1    0    0    0    0 -0.00000000000E+00 -0.00000000000E+00 -0.45593999997E+02  0.45594000000E+02  0.51100000000E-03 0.  1.
    9900012    2    1    2    0    0 -0.26704214620E+02  0.30935590173E+02 -0.14611551168E+02  0.47787271373E+02  0.20000001498E+02 0.  0.
         12    1    1    2    0    0  0.26704214620E+02 -0.30935590173E+02  0.14611551168E+02  0.43400728627E+02  0.00000000000E+00 0. -1.
         11    1    3    3    0    0 -0.72212744991E+01  0.17546715744E+01 -0.16214196541E+01  0.76062263759E+01  0.51100000000E-03 0. -1.
        -11    1    3    3    0    0 -0.16721826141E+02  0.30334045714E+02 -0.13442642245E+02  0.37154790131E+02  0.51100000000E-03 0.  1.
         12    1    3    3    0    0 -0.27611139791E+01 -0.11531271155E+01  0.45251073111E+00  0.30262548657E+01  0.00000000000E+00 0. -1.
</event>
<event>
 7    1  0.1813014E-010  0.4778727E+02  0.7816164E-02  0.1312668E+00
        -11   -1    0    0    0    0  0.00000000000E+00  0.00000000000E+00  0.45593999997E+02  0.45594000000E+02  0.51100000000E-03 0.  1.
         11   -1    0    0    0    0 -0.00000000000E+00 -0.00000000000E+00 -0.45593999997E+02  0.45594000000E+02  0.51100000000E-03 0. -1.
    9900012    2    1    2    0    0  0.13784849032E+02 -0.29180974038E+02  0.29018477379E+02  0.47787270305E+02  0.19999996630E+02 0.  0.
         12    1    1    2    0    0 -0.13784849032E+02  0.29180974038E+02 -0.29018477379E+02  0.43400729695E+02  0.00000000000E+00 0. -1.
         11    1    3    3    0    0  0.46925259629E+01 -0.12537670283E+02  0.57525285744E+01  0.14570674703E+02  0.51100000000E-03 0. -1.
        -11    1    3    3    0    0  0.97621209717E+01 -0.18540652222E+02  0.18158107225E+02  0.27726731667E+02  0.51100000000E-03 0.  1.
         12    1    3    3    0    0 -0.66979790285E+00  0.18973484661E+01  0.51078415791E+01  0.54898639354E+01  0.00000000000E+00 0. -1.
</event>
<event>
 7    1  0.1813014E-010  0.4778727E+02  0.7816164E-02  0.1312668E+00
        -11   -1    0    0    0    0  0.00000000000E+00  0.00000000000E+00  0.45593999997E+02  0.45594000000E+02  0.51100000000E-03 0. -1.
         11   -1    0    0    0    0 -0.00000000000E+00 -0.00000000000E+00 -0.45593999997E+02  0.45594000000E+02  0.51100000000E-03 0.  1.
    9900012    2    1    2    0    0  0.35428429653E+02  0.31899266882E+01  0.24865125265E+02  0.47787265969E+02  0.19999976861E+02 0.  0.
         12    1    1    2    0    0 -0.35428429653E+02 -0.31899266882E+01 -0.24865125265E+02  0.43400734031E+02  0.00000000000E+00 0. -1.
         11    1    3    3    0    0  0.29168648033E+01  0.10287820432E+01  0.97872295177E+01  0.10264324365E+02  0.51100000000E-03 0. -1.
        -11    1    3    3    0    0  0.52034291596E+01 -0.18406853589E+01  0.66978155440E+01  0.86789706148E+01  0.51100000000E-03 0.  1.
        -12    1    3    3    0    0  0.27308135690E+02  0.40018300039E+01  0.83800802034E+01  0.28843970990E+02  0.00000000000E+00 0.  1.
</event>
<event>
 7    1  0.1813014E-010  0.4778728E+02  0.7816164E-02  0.1312668E+00
        -11   -1    0    0    0    0  0.00000000000E+00  0.00000000000E+00  0.45593999997E+02  0.45594000000E+02  0.51100000000E-03 0.  1.
         11   -1    0    0    0    0 -0.00000000000E+00 -0.00000000000E+00 -0.45593999997E+02  0.45594000000E+02  0.51100000000E-03 0. -1.
    9900012    2    1    2    0    0  0.39793129259E+01 -0.11484038977E+02  0.41664188048E+02  0.47787278252E+02  0.20000032861E+02 0.  0.
         12    1    1    2    0    0 -0.39793129259E+01  0.11484038977E+02 -0.41664188048E+02  0.43400721748E+02  0.00000000000E+00 0. -1.
         11    1    3    3    0    0  0.94949427655E+01 -0.49202589723E+01  0.14103148420E+02  0.17699200041E+02  0.51100000000E-03 0. -1.
        -11    1    3    3    0    0 -0.21818929122E+01 -0.61940395150E+01  0.85372706252E+01  0.10770876110E+02  0.51100000000E-03 0.  1.
        -12    1    3    3    0    0 -0.33337369274E+01 -0.36974048948E+00  0.19023769003E+02  0.19317202101E+02  0.00000000000E+00 0.  1.
</event>
<event>
 7    1  0.1813014E-010  0.4778727E+02  0.7816164E-02  0.1312668E+00
        -11   -1    0    0    0    0  0.00000000000E+00  0.00000000000E+00  0.45593999997E+02  0.45594000000E+02  0.51100000000E-03 0. -1.
         11   -1    0    0    0    0 -0.00000000000E+00 -0.00000000000E+00 -0.45593999997E+02  0.45594000000E+02  0.51100000000E-03 0.  1.
    9900012    2    1    2    0    0 -0.22880912789E+02  0.49231994163E+01 -0.36549267250E+02  0.47787274210E+02  0.20000014435E+02 0.  0.
         12    1    1    2    0    0  0.22880912789E+02 -0.49231994163E+01  0.36549267250E+02  0.43400725790E+02  0.00000000000E+00 0. -1.
         11    1    3    3    0    0  0.13463326406E-01  0.53231475099E+01 -0.53145535178E+01  0.75220050537E+01  0.51100000000E-03 0. -1.
        -11    1    3    3    0    0 -0.11962099550E+02  0.12351309681E+01 -0.24576644084E+02  0.27361082011E+02  0.51100000000E-03 0.  1.
        -12    1    3    3    0    0 -0.10932276565E+02 -0.16350790617E+01 -0.66580696487E+01  0.12904187145E+02  0.00000000000E+00 0.  1.
</event>
<event>
 7    1  0.1813014E-010  0.4778727E+02  0.7816164E-02  0.1312668E+00
        -11   -1    0    0    0    0  0.00000000000E+00  0.00000000000E+00  0.45593999997E+02  0.45594000000E+02  0.51100000000E-03 0.  1.
         11   -1    0    0    0    0 -0.00000000000E+00 -0.00000000000E+00 -0.45593999997E+02  0.45594000000E+02  0.51100000000E-03 0. -1.
    9900012    2    1    2    0    0  0.34138871554E+02 -0.22683522947E+02  0.14269485715E+02  0.47787274351E+02  0.20000015075E+02 0.  0.
         12    1    1    2    0    0 -0.34138871554E+02  0.22683522947E+02 -0.14269485715E+02  0.43400725649E+02  0.00000000000E+00 0. -1.
         11    1    3    3    0    0  0.17897911037E+01 -0.23542625876E+00 -0.34822118356E+01  0.39223178411E+01  0.51100000000E-03 0. -1.
        -11    1    3    3    0    0  0.22459505536E+01 -0.17035203325E+01  0.38071021407E+01  0.47371196294E+01  0.51100000000E-03 0.  1.
         12    1    3    3    0    0  0.30103129897E+02 -0.20744576356E+02  0.13944595410E+02  0.39127836880E+02  0.00000000000E+00 0. -1.
</event>
<event>
 7    1  0.1813014E-010  0.4778728E+02  0.7816164E-02  0.1312668E+00
        -11   -1    0    0    0    0  0.00000000000E+00  0.00000000000E+00  0.45593999997E+02  0.45594000000E+02  0.51100000000E-03 0.  1.
         11   -1    0    0    0    0 -0.00000000000E+00 -0.00000000000E+00 -0.45593999997E+02  0.45594000000E+02  0.51100000000E-03 0. -1.
    9900012    2    1    2    0    0 -0.11872896240E+02  0.19838851753E+02  0.36729779511E+02  0.47787281032E+02  0.20000045539E+02 0.  0.
         12    1    1    2    0    0  0.11872896240E+02 -0.19838851753E+02 -0.36729779511E+02  0.43400718968E+02  0.00000000000E+00 0. -1.
         11    1    3    3    0    0 -0.77657379758E+01  0.12876834055E+01  0.80578477103E+01  0.11264711485E+02  0.51100000000E-03 0. -1.
        -11    1    3    3    0    0 -0.34445433561E+01  0.15150646496E+01  0.79590422880E+00  0.38462661929E+01  0.51100000000E-03 0.  1.
        -12    1    3    3    0    0 -0.66261490796E+00  0.17036103698E+02  0.27876027572E+02  0.32676303354E+02  0.00000000000E+00 0.  1.
</event>
<event>
 7    1  0.1813014E-010  0.4778728E+02  0.7816164E-02  0.1312668E+00
        -11   -1    0    0    0    0  0.00000000000E+00  0.00000000000E+00  0.45593999997E+02  0.45594000000E+02  0.51100000000E-03 0.  1.
         11   -1    0    0    0    0 -0.00000000000E+00 -0.00000000000E+00 -0.45593999997E+02  0.45594000000E+02  0.51100000000E-03 0. -1.
    9900012    2    1    2    0    0 -0.42257307682E+01  0.39290238404E+02  0.17945551283E+02  0.47787280590E+02  0.20000043524E+02 0.  0.
         12    1    1    2    0    0  0.42257307682E+01 -0.39290238404E+02 -0.17945551283E+02  0.43400719410E+02  0.00000000000E+00 0. -1.
         11    1    3    3    0    0 -0.36925147170E+01  0.41179381924E+01  0.57576378902E+01  0.79838884153E+01  0.51100000000E-03 0.  1.
        -11    1    3    3    0    0 -0.29999394873E+01  0.20903917715E+01 -0.14530528061E+01  0.39345568244E+01  0.51100000000E-03 0. -1.
         12    1    3    3    0    0  0.24667234361E+01  0.33081908440E+02  0.13640966199E+02  0.35868835351E+02  0.00000000000E+00 0. -1.
</event>
<event>
 7    1  0.1813014E-010  0.4778727E+02  0.7816164E-02  0.1312668E+00
        -11   -1    0    0    0    0  0.00000000000E+00  0.00000000000E+00  0.45593999997E+02  0.45594000000E+02  0.51100000000E-03 0.  1.
         11   -1    0    0    0    0 -0.00000000000E+00 -0.00000000000E+00 -0.45593999997E+02  0.45594000000E+02  0.51100000000E-03 0. -1.
    9900012    2    1    2    0    0  0.26397140430E+01  0.38494867195E+02  0.19869578947E+02  0.47787273530E+02  0.20000011333E+02 0.  0.
         12    1    1    2    0    0 -0.26397140430E+01 -0.38494867195E+02 -0.19869578947E+02  0.43400726470E+02  0.00000000000E+00 0. -1.
         11    1    3    3    0    0  0.16492496446E+01  0.17267457143E+01 -0.25310404847E+01  0.34796323582E+01  0.51100000000E-03 0. -1.
        -11    1    3    3    0    0 -0.16917524771E+01  0.10951368684E+02  0.12032511364E+02  0.16357745336E+02  0.51100000000E-03 0.  1.
        -12    1    3    3    0    0  0.26822168756E+01  0.25816752797E+02  0.10368108068E+02  0.27949895836E+02  0.00000000000E+00 0.  1.
</event>
<event>
 7    1  0.1813014E-010  0.4778727E+02  0.7816164E-02  0.1312668E+00
        -11   -1    0    0    0    0  0.00000000000E+00  0.00000000000E+00  0.45593999997E+02  0.45594000000E+02  0.51100000000E-03 0.  1.
         11   -1    0    0    0    0 -0.00000000000E+00 -0.00000000000E+00 -0.45593999997E+02  0.45594000000E+02  0.51100000000E-03 0. -1.
    9900012    2    1    2    0    0 -0.30132701003E+02 -0.23477281865E+02  0.20602447110E+02  0.47787271200E+02  0.20000000707E+02 0.  0.
         12    1    1    2    0    0  0.30132701003E+02  0.23477281865E+02 -0.20602447110E+02  0.43400728800E+02  0.00000000000E+00 0. -1.
         11    1    3    3    0    0 -0.18921469778E+02 -0.14903242237E+02  0.17523811189E+02  0.29786114325E+02  0.51100000000E-03 0. -1.
        -11    1    3    3    0    0 -0.22417963990E+01 -0.21212638960E+01  0.58458254936E+01  0.66105285397E+01  0.51100000000E-03 0.  1.
         12    1    3    3    0    0 -0.89694348258E+01 -0.64527757322E+01 -0.27671895722E+01  0.11390628335E+02  0.00000000000E+00 0. -1.
</event>
<event>
 7    1  0.1813014E-010  0.4778727E+02  0.7816164E-02  0.1312668E+00
        -11   -1    0    0    0    0  0.00000000000E+00  0.00000000000E+00  0.45593999997E+02  0.45594000000E+02  0.51100000000E-03 0. -1.
         11   -1    0    0    0    0 -0.00000000000E+00 -0.00000000000E+00 -0.45593999997E+02  0.45594000000E+02  0.51100000000E-03 0.  1.
    9900012    2    1    2    0    0  0.26570347179E+02  0.23385134806E+01 -0.34236983249E+02  0.47787274010E+02  0.20000013520E+02 0.  0.
         12    1    1    2    0    0 -0.26570347179E+02 -0.23385134806E+01  0.34236983249E+02  0.43400725990E+02  0.00000000000E+00 0. -1.
         11    1    3    3    0    0  0.14063784593E+02  0.23558302565E+01 -0.13054697477E+02  0.19333005451E+02  0.51100000000E-03 0. -1.
        -11    1    3    3    0    0  0.76341990943E+01 -0.69027102468E+01 -0.13997792398E+02  0.17374308528E+02  0.51100000000E-03 0.  1.
        -12    1    3    3    0    0  0.48723634909E+01  0.68853934709E+01 -0.71844933741E+01  0.11079960031E+02  0.00000000000E+00 0.  1.
</event>
<event>
 7    1  0.1813014E-010  0.4778728E+02  0.7816164E-02  0.1312668E+00
        -11   -1    0    0    0    0  0.00000000000E+00  0.00000000000E+00  0.45593999997E+02  0.45594000000E+02  0.51100000000E-03 0.  1.
         11   -1    0    0    0    0 -0.00000000000E+00 -0.00000000000E+00 -0.45593999997E+02  0.45594000000E+02  0.51100000000E-03 0. -1.
    9900012    2    1    2    0    0 -0.29256434756E+02 -0.21777270980E+02  0.23525175203E+02  0.47787281408E+02  0.20000047252E+02 0.  0.
         12    1    1    2    0    0  0.29256434756E+02  0.21777270980E+02 -0.23525175203E+02  0.43400718592E+02  0.00000000000E+00 0. -1.
         11    1    3    3    0    0 -0.13405813099E+01 -0.56125941011E+01  0.42044002949E+01  0.71397025773E+01  0.51100000000E-03 0. -1.
        -11    1    3    3    0    0 -0.21170554439E+02 -0.73758023260E+01  0.57795482548E+01  0.23151630903E+02  0.51100000000E-03 0.  1.
         12    1    3    3    0    0 -0.67452990077E+01 -0.87888745529E+01  0.13541226653E+02  0.17495947927E+02  0.00000000000E+00 0. -1.
</event>
<event>
 7    1  0.1813014E-010  0.4778727E+02  0.7816164E-02  0.1312668E+00
        -11   -1    0    0    0    0  0.00000000000E+00  0.00000000000E+00  0.45593999997E+02  0.45594000000E+02  0.51100000000E-03 0.  1.
         11   -1    0    0    0    0 -0.00000000000E+00 -0.00000000000E+00 -0.45593999997E+02  0.45594000000E+02  0.51100000000E-03 0. -1.
    9900012    2    1    2    0    0  0.46324565055E+01 -0.42876359190E+02  0.48766187203E+01  0.47787271426E+02  0.20000001738E+02 0.  0.
         12    1    1    2    0    0 -0.46324565055E+01  0.42876359190E+02 -0.48766187203E+01  0.43400728574E+02  0.00000000000E+00 0. -1.
         11    1    3    3    0    0  0.87006623456E+01 -0.18227712898E+02  0.48064037479E+01  0.20761805316E+02  0.51100000000E-03 0. -1.
        -11    1    3    3    0    0 -0.26528540129E+01 -0.53936965240E+00 -0.90668412269E+00  0.28549308914E+01  0.51100000000E-03 0.  1.
        -12    1    3    3    0    0 -0.14153518272E+01 -0.24109276640E+02  0.97689909508E+00  0.24170535218E+02  0.00000000000E+00 0.  1.
</event>
<event>
 7    1  0.1813014E-010  0.4778728E+02  0.7816164E-02  0.1312668E+00
        -11   -1    0    0    0    0  0.00000000000E+00  0.00000000000E+00  0.45593999997E+02  0.45594000000E+02  0.51100000000E-03 0.  1.
         11   -1    0    0    0    0 -0.00000000000E+00 -0.00000000000E+00 -0.45593999997E+02  0.45594000000E+02  0.51100000000E-03 0. -1.
    9900012    2    1    2    0    0  0.27933481203E+02 -0.26044329617E+02  0.20616411497E+02  0.47787275348E+02  0.20000019621E+02 0.  0.
         12    1    1    2    0    0 -0.27933481203E+02  0.26044329617E+02 -0.20616411497E+02  0.43400724652E+02  0.00000000000E+00 0. -1.
         11    1    3    3    0    0  0.71308075429E+01 -0.16884048212E+02  0.11368288549E+02  0.21567509940E+02  0.51100000000E-03 0.  1.
        -11    1    3    3    0    0  0.14303210720E+02 -0.10477362449E+02  0.53152614422E+01  0.18509699221E+02  0.51100000000E-03 0. -1.
         12    1    3    3    0    0  0.64994629400E+01  0.13170810430E+01  0.39328615058E+01  0.77100661869E+01  0.00000000000E+00 0. -1.
</event>
<event>
 7    1  0.1813014E-010  0.4778727E+02  0.7816164E-02  0.1312668E+00
        -11   -1    0    0    0    0  0.00000000000E+00  0.00000000000E+00  0.45593999997E+02  0.45594000000E+02  0.51100000000E-03 0.  1.
         11   -1    0    0    0    0 -0.00000000000E+00 -0.00000000000E+00 -0.45593999997E+02  0.45594000000E+02  0.51100000000E-03 0. -1.
    9900012    2    1    2    0    0  0.31432225203E+02 -0.90520871688E+00  0.29913532184E+02  0.47787267382E+02  0.19999983302E+02 0.  0.
         12    1    1    2    0    0 -0.31432225203E+02  0.90520871688E+00 -0.29913532184E+02  0.43400732618E+02  0.00000000000E+00 0. -1.
         11    1    3    3    0    0  0.23373435270E+01 -0.23811741461E+01 -0.15487126458E+01  0.36785426730E+01  0.51100000000E-03 0. -1.
        -11    1    3    3    0    0  0.52197196508E+01  0.55028403694E+00  0.12659395775E+02  0.13704327324E+02  0.51100000000E-03 0.  1.
        -12    1    3    3    0    0  0.23875162025E+02  0.92568139224E+00  0.18802849055E+02  0.30404397385E+02  0.00000000000E+00 0.  1.
</event>
<event>
 7    1  0.1813014E-010  0.4778727E+02  0.7816164E-02  0.1312668E+00
        -11   -1    0    0    0    0  0.00000000000E+00  0.00000000000E+00  0.45593999997E+02  0.45594000000E+02  0.51100000000E-03 0.  1.
         11   -1    0    0    0    0 -0.00000000000E+00 -0.00000000000E+00 -0.45593999997E+02  0.45594000000E+02  0.51100000000E-03 0. -1.
    9900012    2    1    2    0    0 -0.19028270381E+02 -0.57562998692E+01 -0.38579959948E+02  0.47787269920E+02  0.19999994873E+02 0.  0.
         12    1    1    2    0    0  0.19028270381E+02  0.57562998692E+01  0.38579959948E+02  0.43400730080E+02  0.00000000000E+00 0. -1.
         11    1    3    3    0    0 -0.17964390901E+01 -0.31531947108E-01 -0.92862584129E+01  0.94584767928E+01  0.51100000000E-03 0.  1.
        -11    1    3    3    0    0  0.25362063246E+01 -0.11639308398E+01 -0.11813472907E+00  0.27930330460E+01  0.51100000000E-03 0. -1.
         12    1    3    3    0    0 -0.19768037616E+02 -0.45608370822E+01 -0.29175566806E+02  0.35535760081E+02  0.00000000000E+00 0. -1.
</event>
<event>
 7    1  0.1813014E-010  0.4778727E+02  0.7816164E-02  0.1312668E+00
        -11   -1    0    0    0    0  0.00000000000E+00  0.00000000000E+00  0.45593999997E+02  0.45594000000E+02  0.51100000000E-03 0.  1.
         11   -1    0    0    0    0 -0.00000000000E+00 -0.00000000000E+00 -0.45593999997E+02  0.45594000000E+02  0.51100000000E-03 0. -1.
    9900012    2    1    2    0    0 -0.36506069760E+02  0.21051696955E+02 -0.10380570026E+02  0.47787270650E+02  0.19999998203E+02 0.  0.
         12    1    1    2    0    0  0.36506069760E+02 -0.21051696955E+02  0.10380570026E+02  0.43400729350E+02  0.00000000000E+00 0. -1.
         11    1    3    3    0    0 -0.13998722873E+02  0.18690822052E+02 -0.45203831001E+01  0.23785393305E+02  0.51100000000E-03 0. -1.
        -11    1    3    3    0    0 -0.10384037489E+02  0.73179550493E+00  0.65242084633E-01  0.10409995967E+02  0.51100000000E-03 0.  1.
         12    1    3    3    0    0 -0.12123309398E+02  0.16290793985E+01 -0.59254290108E+01  0.13591881379E+02  0.00000000000E+00 0. -1.
</event>
<event>
 7    1  0.1813014E-010  0.4778727E+02  0.7816164E-02  0.1312668E+00
        -11   -1    0    0    0    0  0.00000000000E+00  0.00000000000E+00  0.45593999997E+02  0.45594000000E+02  0.51100000000E-03 0.  1.
         11   -1    0    0    0    0 -0.00000000000E+00 -0.00000000000E+00 -0.45593999997E+02  0.45594000000E+02  0.51100000000E-03 0. -1.
    9900012    2    1    2    0    0  0.33380297109E+01 -0.39299863779E+02  0.18110811725E+02  0.47787271472E+02  0.20000001949E+02 0.  0.
         12    1    1    2    0    0 -0.33380297109E+01  0.39299863779E+02 -0.18110811725E+02  0.43400728528E+02  0.00000000000E+00 0. -1.
         11    1    3    3    0    0 -0.45869670923E+01 -0.38471348781E+01  0.49583564488E+01  0.77734170614E+01  0.51100000000E-03 0. -1.
        -11    1    3    3    0    0  0.37212794832E+00 -0.21702773239E+02  0.47579983960E+01  0.22221327469E+02  0.51100000000E-03 0.  1.
        -12    1    3    3    0    0  0.75528688549E+01 -0.13749955662E+02  0.83944568807E+01  0.17792526941E+02  0.00000000000E+00 0.  1.
</event>
<event>
 7    1  0.1813014E-010  0.4778727E+02  0.7816164E-02  0.1312668E+00
        -11   -1    0    0    0    0  0.00000000000E+00  0.00000000000E+00  0.45593999997E+02  0.45594000000E+02  0.51100000000E-03 0.  1.
         11   -1    0    0    0    0 -0.00000000000E+00 -0.00000000000E+00 -0.45593999997E+02  0.45594000000E+02  0.51100000000E-03 0. -1.
    9900012    2    1    2    0    0 -0.62861475686E+01 -0.33117951108E+02  0.27336953197E+02  0.47787270203E+02  0.19999996163E+02 0.  0.
         12    1    1    2    0    0  0.62861475686E+01  0.33117951108E+02 -0.27336953197E+02  0.43400729797E+02  0.00000000000E+00 0. -1.
         11    1    3    3    0    0 -0.47075988246E+01 -0.36353466087E+01  0.12182116424E+01  0.60713484108E+01  0.51100000000E-03 0. -1.
        -11    1    3    3    0    0  0.58016019256E+01 -0.10070340613E+02  0.75640044197E+01  0.13866668961E+02  0.51100000000E-03 0.  1.
        -12    1    3    3    0    0 -0.73801506696E+01 -0.19412263886E+02  0.18554737135E+02  0.27849252831E+02  0.00000000000E+00 0.  1.
</event>
<event>
 7    1  0.1813014E-010  0.4778727E+02  0.7816164E-02  0.1312668E+00
        -11   -1    0    0    0    0  0.00000000000E+00  0.00000000000E+00  0.45593999997E+02  0.45594000000E+02  0.51100000000E-03 0.  1.
         11   -1    0    0    0    0 -0.00000000000E+00 -0.00000000000E+00 -0.45593999997E+02  0.45594000000E+02  0.51100000000E-03 0. -1.
    9900012    2    1    2    0    0  0.74359485187E+01 -0.40950364567E+02  0.12304373022E+02  0.47787270927E+02  0.19999999465E+02 0.  0.
         12    1    1    2    0    0 -0.74359485187E+01  0.40950364567E+02 -0.12304373022E+02  0.43400729073E+02  0.00000000000E+00 0. -1.
         11    1    3    3    0    0  0.20201715863E+01 -0.74663916782E+01  0.70867436666E+01  0.10490473487E+02  0.51100000000E-03 0.  1.
        -11    1    3    3    0    0 -0.28818417243E+01 -0.22656795878E+02  0.44093358230E+00  0.22843595030E+02  0.51100000000E-03 0. -1.
         12    1    3    3    0    0  0.82976186567E+01 -0.10827177011E+02  0.47766957735E+01  0.14453202410E+02  0.00000000000E+00 0. -1.
</event>
<event>
 7    1  0.1813014E-010  0.4778727E+02  0.7816164E-02  0.1312668E+00
        -11   -1    0    0    0    0  0.00000000000E+00  0.00000000000E+00  0.45593999997E+02  0.45594000000E+02  0.51100000000E-03 0.  1.
         11   -1    0    0    0    0 -0.00000000000E+00 -0.00000000000E+00 -0.45593999997E+02  0.45594000000E+02  0.51100000000E-03 0. -1.
    9900012    2    1    2    0    0 -0.86783524801E+01  0.40576577728E+02  0.12722047957E+02  0.47787274590E+02  0.20000016167E+02 0.  0.
         12    1    1    2    0    0  0.86783524801E+01 -0.40576577728E+02 -0.12722047957E+02  0.43400725410E+02  0.00000000000E+00 0. -1.
         11    1    3    3    0    0 -0.97606425772E+00  0.47470811765E+01 -0.22675958333E+01  0.53506515730E+01  0.51100000000E-03 0. -1.
        -11    1    3    3    0    0 -0.11183469455E+02  0.33938719397E+02  0.13275452178E+02  0.38120129776E+02  0.51100000000E-03 0.  1.
         12    1    3    3    0    0  0.34811812325E+01  0.18907771549E+01  0.17141916120E+01  0.43164932416E+01  0.00000000000E+00 0. -1.
</event>
<event>
 7    1  0.1813014E-010  0.4778727E+02  0.7816164E-02  0.1312668E+00
        -11   -1    0    0    0    0  0.00000000000E+00  0.00000000000E+00  0.45593999997E+02  0.45594000000E+02  0.51100000000E-03 0.  1.
         11   -1    0    0    0    0 -0.00000000000E+00 -0.00000000000E+00 -0.45593999997E+02  0.45594000000E+02  0.51100000000E-03 0. -1.
    9900012    2    1    2    0    0  0.36881627787E+01 -0.20843368149E+02  0.37888981198E+02  0.47787269168E+02  0.19999991446E+02 0.  0.
         12    1    1    2    0    0 -0.36881627787E+01  0.20843368149E+02 -0.37888981198E+02  0.43400730832E+02  0.00000000000E+00 0. -1.
         11    1    3    3    0    0  0.34788113705E+01 -0.62976965216E+01  0.70495024196E+01  0.10072665717E+02  0.51100000000E-03 0.  1.
        -11    1    3    3    0    0  0.50556709645E+01  0.54921210978E+00  0.37188469840E+01  0.63001004749E+01  0.51100000000E-03 0. -1.
        -12    1    3    3    0    0 -0.48463195564E+01 -0.15094883737E+02  0.27120631795E+02  0.31414502976E+02  0.00000000000E+00 0.  1.
</event>
<event>
 7    1  0.1813014E-010  0.4778727E+02  0.7816164E-02  0.1312668E+00
        -11   -1    0    0    0    0  0.00000000000E+00  0.00000000000E+00  0.45593999997E+02  0.45594000000E+02  0.51100000000E-03 0.  1.
         11   -1    0    0    0    0 -0.00000000000E+00 -0.00000000000E+00 -0.45593999997E+02  0.45594000000E+02  0.51100000000E-03 0. -1.
    9900012    2    1    2    0    0  0.27997519581E+02  0.23350743632E+02  0.23547930561E+02  0.47787269999E+02  0.19999995233E+02 0.  0.
         12    1    1    2    0    0 -0.27997519581E+02 -0.23350743632E+02 -0.23547930561E+02  0.43400730001E+02  0.00000000000E+00 0. -1.
         11    1    3    3    0    0  0.83437057049E+01  0.10164673055E+02  0.57877584156E+01  0.14367886099E+02  0.51100000000E-03 0. -1.
        -11    1    3    3    0    0  0.50009515030E+01  0.87839664595E+01  0.17394570471E+00  0.10109294736E+02  0.51100000000E-03 0.  1.
         12    1    3    3    0    0  0.14652862373E+02  0.44021041182E+01  0.17586226441E+02  0.23310089164E+02  0.00000000000E+00 0. -1.
</event>
<event>
 7    1  0.1813014E-010  0.4778727E+02  0.7816164E-02  0.1312668E+00
        -11   -1    0    0    0    0  0.00000000000E+00  0.00000000000E+00  0.45593999997E+02  0.45594000000E+02  0.51100000000E-03 0. -1.
         11   -1    0    0    0    0 -0.00000000000E+00 -0.00000000000E+00 -0.45593999997E+02  0.45594000000E+02  0.51100000000E-03 0.  1.
    9900012    2    1    2    0    0  0.57431431624E+01  0.79177623388E+01 -0.42284141294E+02  0.47787271218E+02  0.20000000790E+02 0.  0.
         12    1    1    2    0    0 -0.57431431624E+01 -0.79177623388E+01  0.42284141294E+02  0.43400728782E+02  0.00000000000E+00 0. -1.
         11    1    3    3    0    0  0.71523294088E+01  0.70518839869E+00 -0.26648722826E+02  0.27600861131E+02  0.51100000000E-03 0. -1.
        -11    1    3    3    0    0 -0.28539784083E+01 -0.19538853943E+01 -0.48749523809E+01  0.59772921851E+01  0.51100000000E-03 0.  1.
        -12    1    3    3    0    0  0.14447921618E+01  0.91664593344E+01 -0.10760466087E+02  0.14209117901E+02  0.00000000000E+00 0.  1.
</event>
<event>
 7    1  0.1813014E-010  0.4778727E+02  0.7816164E-02  0.1312668E+00
        -11   -1    0    0    0    0  0.00000000000E+00  0.00000000000E+00  0.45593999997E+02  0.45594000000E+02  0.51100000000E-03 0.  1.
         11   -1    0    0    0    0 -0.00000000000E+00 -0.00000000000E+00 -0.45593999997E+02  0.45594000000E+02  0.51100000000E-03 0. -1.
    9900012    2    1    2    0    0  0.32713176312E+02  0.28182014318E+02  0.43869553270E+01  0.47787271752E+02  0.20000003224E+02 0.  0.
         12    1    1    2    0    0 -0.32713176312E+02 -0.28182014318E+02 -0.43869553270E+01  0.43400728248E+02  0.00000000000E+00 0. -1.
         11    1    3    3    0    0  0.19896388237E+02  0.14658946824E+02 -0.64208263047E+01  0.25533859824E+02  0.51100000000E-03 0. -1.
        -11    1    3    3    0    0  0.36055930483E+01  0.17903759752E+01  0.45561422756E+01  0.60798174363E+01  0.51100000000E-03 0.  1.
         12    1    3    3    0    0  0.92111950277E+01  0.11732691519E+02  0.62516393561E+01  0.16173594491E+02  0.00000000000E+00 0. -1.
</event>
<event>
 7    1  0.1813014E-010  0.4778727E+02  0.7816164E-02  0.1312668E+00
        -11   -1    0    0    0    0  0.00000000000E+00  0.00000000000E+00  0.45593999997E+02  0.45594000000E+02  0.51100000000E-03 0.  1.
         11   -1    0    0    0    0 -0.00000000000E+00 -0.00000000000E+00 -0.45593999997E+02  0.45594000000E+02  0.51100000000E-03 0. -1.
    9900012    2    1    2    0    0  0.17345661903E+02 -0.18274684926E+01  0.39741810276E+02  0.47787272910E+02  0.20000008505E+02 0.  0.
         12    1    1    2    0    0 -0.17345661903E+02  0.18274684926E+01 -0.39741810276E+02  0.43400727090E+02  0.00000000000E+00 0. -1.
         11    1    3    3    0    0 -0.21106063315E+01 -0.27848339210E+01  0.58465360806E+01  0.68111631501E+01  0.51100000000E-03 0. -1.
        -11    1    3    3    0    0  0.58435900163E+01  0.49461717504E+01  0.18608441419E+02  0.20121785497E+02  0.51100000000E-03 0.  1.
        -12    1    3    3    0    0  0.13612678218E+02 -0.39888063220E+01  0.15286832776E+02  0.20854324263E+02  0.00000000000E+00 0.  1.
</event>
<event>
 7    1  0.1813014E-010  0.4778727E+02  0.7816164E-02  0.1312668E+00
        -11   -1    0    0    0    0  0.00000000000E+00  0.00000000000E+00  0.45593999997E+02  0.45594000000E+02  0.51100000000E-03 0. -1.
         11   -1    0    0    0    0 -0.00000000000E+00 -0.00000000000E+00 -0.45593999997E+02  0.45594000000E+02  0.51100000000E-03 0.  1.
    9900012    2    1    2    0    0  0.21844288256E+02  0.36459970700E+02 -0.87818490658E+01  0.47787271137E+02  0.20000000422E+02 0.  0.
         12    1    1    2    0    0 -0.21844288256E+02 -0.36459970700E+02  0.87818490658E+01  0.43400728863E+02  0.00000000000E+00 0. -1.
         11    1    3    3    0    0  0.25975327817E+01 -0.90449834029E+00 -0.37259780703E+01  0.46312208586E+01  0.51100000000E-03 0. -1.
        -11    1    3    3    0    0  0.31010716235E+01  0.11965015772E+02  0.11917473412E+01  0.12417669251E+02  0.51100000000E-03 0.  1.
        -12    1    3    3    0    0  0.16145683851E+02  0.25399453268E+02 -0.62476183367E+01  0.30738381028E+02  0.00000000000E+00 0.  1.
</event>
<event>
 7    1  0.1813014E-010  0.4778728E+02  0.7816164E-02  0.1312668E+00
        -11   -1    0    0    0    0  0.00000000000E+00  0.00000000000E+00  0.45593999997E+02  0.45594000000E+02  0.51100000000E-03 0.  1.
         11   -1    0    0    0    0 -0.00000000000E+00 -0.00000000000E+00 -0.45593999997E+02  0.45594000000E+02  0.51100000000E-03 0. -1.
    9900012    2    1    2    0    0  0.14629262878E+02  0.38768434312E+02  0.12907969977E+02  0.47787279727E+02  0.20000039586E+02 0.  0.
         12    1    1    2    0    0 -0.14629262878E+02 -0.38768434312E+02 -0.12907969977E+02  0.43400720273E+02  0.00000000000E+00 0. -1.
         11    1    3    3    0    0  0.31720168498E+01  0.28423590680E+02  0.13728370433E+02  0.31724286486E+02  0.51100000000E-03 0.  1.
        -11    1    3    3    0    0  0.63775243826E+01  0.59760748069E+01  0.17016734524E+01  0.89040429103E+01  0.51100000000E-03 0. -1.
        -12    1    3    3    0    0  0.50797216451E+01  0.43687688246E+01 -0.25220739086E+01  0.71589503305E+01  0.00000000000E+00 0.  1.
</event>
<event>
 7    1  0.1813014E-010  0.4778727E+02  0.7816164E-02  0.1312668E+00
        -11   -1    0    0    0    0  0.00000000000E+00  0.00000000000E+00  0.45593999997E+02  0.45594000000E+02  0.51100000000E-03 0.  1.
         11   -1    0    0    0    0 -0.00000000000E+00 -0.00000000000E+00 -0.45593999997E+02  0.45594000000E+02  0.51100000000E-03 0. -1.
    9900012    2    1    2    0    0 -0.10112000334E+02 -0.16601780681E+01  0.42173622173E+02  0.47787272481E+02  0.20000006551E+02 0.  0.
         12    1    1    2    0    0  0.10112000334E+02  0.16601780681E+01 -0.42173622173E+02  0.43400727519E+02  0.00000000000E+00 0. -1.
         11    1    3    3    0    0 -0.92217067016E+01  0.54621981815E+00  0.13251445108E+02  0.16153607284E+02  0.51100000000E-03 0. -1.
        -11    1    3    3    0    0  0.33862689312E+01 -0.11748389591E+01  0.15412823701E+01  0.39016170314E+01  0.51100000000E-03 0.  1.
        -12    1    3    3    0    0 -0.42765625632E+01 -0.10315589272E+01  0.27380894695E+02  0.27732048166E+02  0.00000000000E+00 0.  1.
</event>
<event>
 7    1  0.1813014E-010  0.4778728E+02  0.7816164E-02  0.1312668E+00
        -11   -1    0    0    0    0  0.00000000000E+00  0.00000000000E+00  0.45593999997E+02  0.45594000000E+02  0.51100000000E-03 0.  1.
         11   -1    0    0    0    0 -0.00000000000E+00 -0.00000000000E+00 -0.45593999997E+02  0.45594000000E+02  0.51100000000E-03 0. -1.
    9900012    2    1    2    0    0 -0.20651614174E+01  0.24537002652E+02  0.35739241663E+02  0.47787276672E+02  0.20000025656E+02 0.  0.
         12    1    1    2    0    0  0.20651614174E+01 -0.24537002652E+02 -0.35739241663E+02  0.43400723328E+02  0.00000000000E+00 0. -1.
         11    1    3    3    0    0  0.15231177628E+01  0.86667978540E+01  0.25941385049E+01  0.91740300634E+01  0.51100000000E-03 0. -1.
        -11    1    3    3    0    0  0.29087509534E+01  0.46476114896E+01  0.17245284042E+02  0.18095882035E+02  0.51100000000E-03 0.  1.
        -12    1    3    3    0    0 -0.64970301336E+01  0.11222593308E+02  0.15899819115E+02  0.20517364573E+02  0.00000000000E+00 0.  1.
</event>
<event>
 7    1  0.1813014E-010  0.4778727E+02  0.7816164E-02  0.1312668E+00
        -11   -1    0    0    0    0  0.00000000000E+00  0.00000000000E+00  0.45593999997E+02  0.45594000000E+02  0.51100000000E-03 0.  1.
         11   -1    0    0    0    0 -0.00000000000E+00 -0.00000000000E+00 -0.45593999997E+02  0.45594000000E+02  0.51100000000E-03 0. -1.
    9900012    2    1    2    0    0  0.89146308970E+01  0.37548616566E+02  0.19855831439E+02  0.47787270833E+02  0.19999999038E+02 0.  0.
         12    1    1    2    0    0 -0.89146308970E+01 -0.37548616566E+02 -0.19855831439E+02  0.43400729167E+02  0.00000000000E+00 0. -1.
         11    1    3    3    0    0  0.51894864891E+01  0.62055998082E+01  0.15849799843E+00  0.80910667329E+01  0.51100000000E-03 0. -1.
        -11    1    3    3    0    0  0.81550576606E+01  0.26962629480E+02  0.17050641519E+02  0.32927385721E+02  0.51100000000E-03 0.  1.
         12    1    3    3    0    0 -0.44299132527E+01  0.43803872773E+01  0.26466919220E+01  0.67688183796E+01  0.00000000000E+00 0. -1.
</event>
<event>
 7    1  0.1813014E-010  0.4778728E+02  0.7816164E-02  0.1312668E+00
        -11   -1    0    0    0    0  0.00000000000E+00  0.00000000000E+00  0.45593999997E+02  0.45594000000E+02  0.51100000000E-03 0.  1.
         11   -1    0    0    0    0 -0.00000000000E+00 -0.00000000000E+00 -0.45593999997E+02  0.45594000000E+02  0.51100000000E-03 0. -1.
    9900012    2    1    2    0    0  0.40097243021E+02  0.14664340907E+02  0.77968259380E+01  0.47787282415E+02  0.20000051845E+02 0.  0.
         12    1    1    2    0    0 -0.40097243021E+02 -0.14664340907E+02 -0.77968259380E+01  0.43400717585E+02  0.00000000000E+00 0. -1.
         11    1    3    3    0    0 -0.15687614625E+01  0.17486184169E+01  0.15003316372E+01  0.27874135282E+01  0.51100000000E-03 0. -1.
        -11    1    3    3    0    0  0.22053114600E+02  0.73220945984E+01  0.78972347288E+01  0.24542193250E+02  0.51100000000E-03 0.  1.
        -12    1    3    3    0    0  0.19612889884E+02  0.55936278914E+01 -0.16007404280E+01  0.20457675638E+02  0.00000000000E+00 0.  1.
</event>
<event>
 7    1  0.1813014E-010  0.4778727E+02  0.7816164E-02  0.1312668E+00
        -11   -1    0    0    0    0  0.00000000000E+00  0.00000000000E+00  0.45593999997E+02  0.45594000000E+02  0.51100000000E-03 0.  1.
         11   -1    0    0    0    0 -0.00000000000E+00 -0.00000000000E+00 -0.45593999997E+02  0.45594000000E+02  0.51100000000E-03 0. -1.
    9900012    2    1    2    0    0  0.12323519274E+02 -0.27640289162E+02  0.31108984487E+02  0.47787266964E+02  0.19999981396E+02 0.  0.
         12    1    1    2    0    0 -0.12323519274E+02  0.27640289162E+02 -0.31108984487E+02  0.43400733036E+02  0.00000000000E+00 0. -1.
         11    1    3    3    0    0  0.61635316987E+01 -0.97332215854E+01  0.25511259115E+01  0.11799702077E+02  0.51100000000E-03 0. -1.
        -11    1    3    3    0    0  0.83693333615E+01 -0.15967950811E+02  0.19937788371E+02  0.26880040912E+02  0.51100000000E-03 0.  1.
        -12    1    3    3    0    0 -0.22093457866E+01 -0.19391167655E+01  0.86200702043E+01  0.91075239754E+01  0.00000000000E+00 0.  1.
</event>
<event>
 7    1  0.1813014E-010  0.4778727E+02  0.7816164E-02  0.1312668E+00
        -11   -1    0    0    0    0  0.00000000000E+00  0.00000000000E+00  0.45593999997E+02  0.45594000000E+02  0.51100000000E-03 0. -1.
         11   -1    0    0    0    0 -0.00000000000E+00 -0.00000000000E+00 -0.45593999997E+02  0.45594000000E+02  0.51100000000E-03 0.  1.
    9900012    2    1    2    0    0  0.35592604695E+02 -0.24780764994E+02  0.16441811159E+01  0.47787272423E+02  0.20000006287E+02 0.  0.
         12    1    1    2    0    0 -0.35592604695E+02  0.24780764994E+02 -0.16441811159E+01  0.43400727577E+02  0.00000000000E+00 0. -1.
         11    1    3    3    0    0  0.68849069163E+01 -0.53004382460E+01  0.70962909063E+01  0.11218463965E+02  0.51100000000E-03 0. -1.
        -11    1    3    3    0    0  0.55814792235E+01 -0.96855079583E+00 -0.39537225992E+01  0.69081780245E+01  0.51100000000E-03 0.  1.
        -12    1    3    3    0    0  0.23126218555E+02 -0.18511775952E+02 -0.14983871911E+01  0.29660630434E+02  0.00000000000E+00 0.  1.
</event>
<event>
 7    1  0.1813014E-010  0.4778727E+02  0.7816164E-02  0.1312668E+00
        -11   -1    0    0    0    0  0.00000000000E+00  0.00000000000E+00  0.45593999997E+02  0.45594000000E+02  0.51100000000E-03 0. -1.
         11   -1    0    0    0    0 -0.00000000000E+00 -0.00000000000E+00 -0.45593999997E+02  0.45594000000E+02  0.51100000000E-03 0.  1.
    9900012    2    1    2    0    0  0.28825006107E+00  0.43141969053E+02  0.47234347499E+01  0.47787269387E+02  0.19999992444E+02 0.  0.
         12    1    1    2    0    0 -0.28825006107E+00 -0.43141969053E+02 -0.47234347499E+01  0.43400730613E+02  0.00000000000E+00 0. -1.
         11    1    3    3    0    0 -0.10341431646E+01 -0.60408815354E+00 -0.58736656180E+00  0.13339319028E+01  0.51100000000E-03 0. -1.
        -11    1    3    3    0    0 -0.11383695251E+01  0.67924739864E+01  0.64001599082E+01  0.94018952953E+01  0.51100000000E-03 0.  1.
        -12    1    3    3    0    0  0.24607627508E+01  0.36953583220E+02 -0.10893585965E+01  0.37051442189E+02  0.00000000000E+00 0.  1.
</event>
<event>
 7    1  0.1813014E-010  0.4778724E+02  0.7816164E-02  0.1312668E+00
        -11   -1    0    0    0    0  0.00000000000E+00  0.00000000000E+00  0.45593999997E+02  0.45594000000E+02  0.51100000000E-03 0.  1.
         11   -1    0    0    0    0 -0.00000000000E+00 -0.00000000000E+00 -0.45593999997E+02  0.45594000000E+02  0.51100000000E-03 0. -1.
    9900012    2    1    2    0    0  0.27179382509E+02 -0.21349291521E+02  0.26250995404E+02  0.47787241462E+02  0.19999865119E+02 0.  0.
         12    1    1    2    0    0 -0.27179382509E+02  0.21349291521E+02 -0.26250995404E+02  0.43400758538E+02  0.00000000000E+00 0. -1.
         11    1    3    3    0    0  0.25338817065E+02 -0.92907799925E+01  0.13645245129E+02  0.30241808114E+02  0.51100000000E-03 0. -1.
        -11    1    3    3    0    0  0.42920101714E+00 -0.35620195735E+01  0.38938018376E+01  0.52947039546E+01  0.51100000000E-03 0.  1.
         12    1    3    3    0    0  0.14113644271E+01 -0.84964919551E+01  0.87119484366E+01  0.12250729393E+02  0.00000000000E+00 0. -1.
</event>
<event>
 7    1  0.1813014E-010  0.4778727E+02  0.7816164E-02  0.1312668E+00
        -11   -1    0    0    0    0  0.00000000000E+00  0.00000000000E+00  0.45593999997E+02  0.45594000000E+02  0.51100000000E-03 0. -1.
         11   -1    0    0    0    0 -0.00000000000E+00 -0.00000000000E+00 -0.45593999997E+02  0.45594000000E+02  0.51100000000E-03 0.  1.
    9900012    2    1    2    0    0 -0.30394106838E+02 -0.30931649651E+02  0.17477512344E+01  0.47787270571E+02  0.19999997839E+02 0.  0.
         12    1    1    2    0    0  0.30394106838E+02  0.30931649651E+02 -0.17477512344E+01  0.43400729429E+02  0.00000000000E+00 0. -1.
         11    1    3    3    0    0  0.46838355789E+00  0.91354241679E+00 -0.25799480907E+00  0.10585388454E+01  0.51100000000E-03 0. -1.
        -11    1    3    3    0    0 -0.13086359804E+02 -0.46462090328E+01 -0.18447396354E+01  0.14008680733E+02  0.51100000000E-03 0.  1.
        -12    1    3    3    0    0 -0.17776130592E+02 -0.27198983035E+02  0.38504856788E+01  0.32720050993E+02  0.00000000000E+00 0.  1.
</event>
<event>
 7    1  0.1813014E-010  0.4778727E+02  0.7816164E-02  0.1312668E+00
        -11   -1    0    0    0    0  0.00000000000E+00  0.00000000000E+00  0.45593999997E+02  0.45594000000E+02  0.51100000000E-03 0. -1.
         11   -1    0    0    0    0 -0.00000000000E+00 -0.00000000000E+00 -0.45593999997E+02  0.45594000000E+02  0.51100000000E-03 0.  1.
    9900012    2    1    2    0    0  0.19447728717E+02 -0.20514907437E+02 -0.32932468508E+02  0.47787273492E+02  0.20000011158E+02 0.  0.
         12    1    1    2    0    0 -0.19447728717E+02  0.20514907437E+02  0.32932468508E+02  0.43400726508E+02  0.00000000000E+00 0. -1.
         11    1    3    3    0    0 -0.12057841645E+01 -0.25568712747E+01 -0.43427968452E+01  0.51818327710E+01  0.51100000000E-03 0.  1.
        -11    1    3    3    0    0  0.16182088626E+02 -0.12288838173E+02 -0.99673626281E+01  0.22632362978E+02  0.51100000000E-03 0. -1.
        -12    1    3    3    0    0  0.44714242556E+01 -0.56691979886E+01 -0.18622309035E+02  0.19973077742E+02  0.00000000000E+00 0.  1.
</event>
<event>
 7    1  0.1813014E-010  0.4778727E+02  0.7816164E-02  0.1312668E+00
        -11   -1    0    0    0    0  0.00000000000E+00  0.00000000000E+00  0.45593999997E+02  0.45594000000E+02  0.51100000000E-03 0. -1.
         11   -1    0    0    0    0 -0.00000000000E+00 -0.00000000000E+00 -0.45593999997E+02  0.45594000000E+02  0.51100000000E-03 0.  1.
    9900012    2    1    2    0    0  0.38193501303E+02 -0.10778798545E+02 -0.17569776635E+02  0.47787273153E+02  0.20000009613E+02 0.  0.
         12    1    1    2    0    0 -0.38193501303E+02  0.10778798545E+02  0.17569776635E+02  0.43400726847E+02  0.00000000000E+00 0. -1.
         11    1    3    3    0    0  0.58498151660E+00  0.15228336237E+01 -0.24828302905E+01  0.29708032807E+01  0.51100000000E-03 0. -1.
        -11    1    3    3    0    0  0.22926971646E+02 -0.41078903059E+01 -0.17534813786E+01  0.23357985547E+02  0.51100000000E-03 0.  1.
         12    1    3    3    0    0  0.14681548140E+02 -0.81937418629E+01 -0.13333464966E+02  0.21458484325E+02  0.00000000000E+00 0. -1.
</event>
<event>
 7    1  0.1813014E-010  0.4778727E+02  0.7816164E-02  0.1312668E+00
        -11   -1    0    0    0    0  0.00000000000E+00  0.00000000000E+00  0.45593999997E+02  0.45594000000E+02  0.51100000000E-03 0.  1.
         11   -1    0    0    0    0 -0.00000000000E+00 -0.00000000000E+00 -0.45593999997E+02  0.45594000000E+02  0.51100000000E-03 0. -1.
    9900012    2    1    2    0    0  0.17353393232E+02 -0.80993442396E+01  0.38947190408E+02  0.47787271037E+02  0.19999999967E+02 0.  0.
         12    1    1    2    0    0 -0.17353393232E+02  0.80993442396E+01 -0.38947190408E+02  0.43400728963E+02  0.00000000000E+00 0. -1.
         11    1    3    3    0    0  0.44533217520E+01  0.36560541929E+01  0.15423047206E+02  0.16464179064E+02  0.51100000000E-03 0. -1.
        -11    1    3    3    0    0  0.88772153166E+01 -0.90089729977E+01  0.23221824054E+02  0.26442761938E+02  0.51100000000E-03 0.  1.
         12    1    3    3    0    0  0.40228561638E+01 -0.27464254348E+01  0.30231914856E+00  0.48803300350E+01  0.00000000000E+00 0. -1.
</event>
<event>
 7    1  0.1813014E-010  0.4778727E+02  0.7816164E-02  0.1312668E+00
        -11   -1    0    0    0    0  0.00000000000E+00  0.00000000000E+00  0.45593999997E+02  0.45594000000E+02  0.51100000000E-03 0.  1.
         11   -1    0    0    0    0 -0.00000000000E+00 -0.00000000000E+00 -0.45593999997E+02  0.45594000000E+02  0.51100000000E-03 0. -1.
    9900012    2    1    2    0    0  0.61430271034E+01  0.15263854050E+02  0.40160944501E+02  0.47787268605E+02  0.19999988876E+02 0.  0.
         12    1    1    2    0    0 -0.61430271034E+01 -0.15263854050E+02 -0.40160944501E+02  0.43400731395E+02  0.00000000000E+00 0. -1.
         11    1    3    3    0    0 -0.11859859911E+01  0.20947202020E+01 -0.80956442706E+00  0.25396476761E+01  0.51100000000E-03 0. -1.
        -11    1    3    3    0    0  0.64719014148E+00  0.20262557151E+01  0.22859115195E+02  0.22957868260E+02  0.51100000000E-03 0.  1.
        -12    1    3    3    0    0  0.66818229531E+01  0.11142878133E+02  0.18111393733E+02  0.22289752668E+02  0.00000000000E+00 0.  1.
</event>
<event>
 7    1  0.1813014E-010  0.4778728E+02  0.7816164E-02  0.1312668E+00
        -11   -1    0    0    0    0  0.00000000000E+00  0.00000000000E+00  0.45593999997E+02  0.45594000000E+02  0.51100000000E-03 0. -1.
         11   -1    0    0    0    0 -0.00000000000E+00 -0.00000000000E+00 -0.45593999997E+02  0.45594000000E+02  0.51100000000E-03 0.  1.
    9900012    2    1    2    0    0  0.37724101441E+02 -0.19587984378E+02 -0.87650145052E+01  0.47787280642E+02  0.20000043758E+02 0.  0.
         12    1    1    2    0    0 -0.37724101441E+02  0.19587984378E+02  0.87650145052E+01  0.43400719358E+02  0.00000000000E+00 0. -1.
         11    1    3    3    0    0 -0.75640767787E+00  0.66048916690E+00  0.13328289595E+01  0.16687815349E+01  0.51100000000E-03 0. -1.
        -11    1    3    3    0    0  0.26740634779E+02 -0.84467071815E+01 -0.37050604808E+01  0.28286673258E+02  0.51100000000E-03 0.  1.
        -12    1    3    3    0    0  0.11739874340E+02 -0.11801766364E+02 -0.63927829839E+01  0.17831825849E+02  0.00000000000E+00 0.  1.
</event>
<event>
 7    1  0.1813014E-010  0.4778727E+02  0.7816164E-02  0.1312668E+00
        -11   -1    0    0    0    0  0.00000000000E+00  0.00000000000E+00  0.45593999997E+02  0.45594000000E+02  0.51100000000E-03 0.  1.
         11   -1    0    0    0    0 -0.00000000000E+00 -0.00000000000E+00 -0.45593999997E+02  0.45594000000E+02  0.51100000000E-03 0. -1.
    9900012    2    1    2    0    0 -0.21183143509E+02  0.67958224121E+01  0.37265458657E+02  0.47787272125E+02  0.20000004927E+02 0.  0.
         12    1    1    2    0    0  0.21183143509E+02 -0.67958224121E+01 -0.37265458657E+02  0.43400727875E+02  0.00000000000E+00 0. -1.
         11    1    3    3    0    0  0.49787207319E+00  0.14040675759E+01  0.15638296582E+02  0.15709092991E+02  0.51100000000E-03 0. -1.
        -11    1    3    3    0    0 -0.96854622515E+01  0.63917632496E+01  0.95787293038E+01  0.15047088483E+02  0.51100000000E-03 0.  1.
        -12    1    3    3    0    0 -0.11995553330E+02 -0.10000084134E+01  0.12048432771E+02  0.17031090651E+02  0.00000000000E+00 0.  1.
</event>
<event>
 7    1  0.1813014E-010  0.4778727E+02  0.7816164E-02  0.1312668E+00
        -11   -1    0    0    0    0  0.00000000000E+00  0.00000000000E+00  0.45593999997E+02  0.45594000000E+02  0.51100000000E-03 0.  1.
         11   -1    0    0    0    0 -0.00000000000E+00 -0.00000000000E+00 -0.45593999997E+02  0.45594000000E+02  0.51100000000E-03 0. -1.
    9900012    2    1    2    0    0  0.88895781932E+01  0.43794756228E+01  0.42254222844E+02  0.47787265498E+02  0.19999974712E+02 0.  0.
         12    1    1    2    0    0 -0.88895781932E+01 -0.43794756228E+01 -0.42254222844E+02  0.43400734502E+02  0.00000000000E+00 0. -1.
         11    1    3    3    0    0  0.84748451723E+01  0.26281639370E+01  0.19316098634E+02  0.21256573409E+02  0.51100000000E-03 0. -1.
        -11    1    3    3    0    0 -0.11436945953E+01  0.73287207666E+01  0.14637629654E+02  0.16409704067E+02  0.51100000000E-03 0.  1.
         12    1    3    3    0    0  0.15584276162E+01 -0.55774090809E+01  0.83004945551E+01  0.10120988022E+02  0.00000000000E+00 0. -1.
</event>
<event>
 7    1  0.1813014E-010  0.4778727E+02  0.7816164E-02  0.1312668E+00
        -11   -1    0    0    0    0  0.00000000000E+00  0.00000000000E+00  0.45593999997E+02  0.45594000000E+02  0.51100000000E-03 0.  1.
         11   -1    0    0    0    0 -0.00000000000E+00 -0.00000000000E+00 -0.45593999997E+02  0.45594000000E+02  0.51100000000E-03 0. -1.
    9900012    2    1    2    0    0 -0.17239085757E+02  0.26583263809E+02  0.29660871405E+02  0.47787270916E+02  0.19999999416E+02 0.  0.
         12    1    1    2    0    0  0.17239085757E+02 -0.26583263809E+02 -0.29660871405E+02  0.43400729084E+02  0.00000000000E+00 0. -1.
         11    1    3    3    0    0 -0.34733031287E+01  0.23304079593E+01  0.12067898206E+02  0.12772188664E+02  0.51100000000E-03 0. -1.
        -11    1    3    3    0    0 -0.86967171916E+01  0.56231231664E+01  0.29047301385E+01  0.10755922159E+02  0.51100000000E-03 0.  1.
        -12    1    3    3    0    0 -0.50690654371E+01  0.18629732683E+02  0.14688243060E+02  0.24259160094E+02  0.00000000000E+00 0.  1.
</event>
<event>
 7    1  0.1813014E-010  0.4778733E+02  0.7816164E-02  0.1312668E+00
        -11   -1    0    0    0    0  0.00000000000E+00  0.00000000000E+00  0.45593999997E+02  0.45594000000E+02  0.51100000000E-03 0.  1.
         11   -1    0    0    0    0 -0.00000000000E+00 -0.00000000000E+00 -0.45593999997E+02  0.45594000000E+02  0.51100000000E-03 0. -1.
    9900012    2    1    2    0    0  0.37403286500E+02  0.20483024562E+02  0.80658755320E+01  0.47787326223E+02  0.20000251581E+02 0.  0.
         12    1    1    2    0    0 -0.37403286500E+02 -0.20483024562E+02 -0.80658755320E+01  0.43400673777E+02  0.00000000000E+00 0. -1.
         11    1    3    3    0    0  0.24456921224E+02  0.20086790117E+02 -0.53141990192E+00  0.31652844112E+02  0.51100000000E-03 0. -1.
        -11    1    3    3    0    0  0.50869679936E+01  0.21354665826E+01  0.43976769346E+01  0.70552833802E+01  0.51100000000E-03 0.  1.
         12    1    3    3    0    0  0.78593972818E+01 -0.17392321383E+01  0.41996184993E+01  0.90791987314E+01  0.00000000000E+00 0. -1.
</event>
<event>
 7    1  0.1813014E-010  0.4778727E+02  0.7816164E-02  0.1312668E+00
        -11   -1    0    0    0    0  0.00000000000E+00  0.00000000000E+00  0.45593999997E+02  0.45594000000E+02  0.51100000000E-03 0.  1.
         11   -1    0    0    0    0 -0.00000000000E+00 -0.00000000000E+00 -0.45593999997E+02  0.45594000000E+02  0.51100000000E-03 0. -1.
    9900012    2    1    2    0    0 -0.39135256459E+02  0.11884875045E+02 -0.14519112547E+02  0.47787272101E+02  0.20000004818E+02 0.  0.
         12    1    1    2    0    0  0.39135256459E+02 -0.11884875045E+02  0.14519112547E+02  0.43400727899E+02  0.00000000000E+00 0. -1.
         11    1    3    3    0    0  0.40056357192E+00 -0.14870293421E+01 -0.46879179836E+00  0.16098054077E+01  0.51100000000E-03 0.  1.
        -11    1    3    3    0    0 -0.18327095044E+02  0.11752131513E+02 -0.11866042597E+02  0.24795119984E+02  0.51100000000E-03 0. -1.
        -12    1    3    3    0    0 -0.21208724988E+02  0.16197728745E+01 -0.21842781520E+01  0.21382346710E+02  0.00000000000E+00 0.  1.
</event>
<event>
 7    1  0.1813014E-010  0.4778727E+02  0.7816164E-02  0.1312668E+00
        -11   -1    0    0    0    0  0.00000000000E+00  0.00000000000E+00  0.45593999997E+02  0.45594000000E+02  0.51100000000E-03 0. -1.
         11   -1    0    0    0    0 -0.00000000000E+00 -0.00000000000E+00 -0.45593999997E+02  0.45594000000E+02  0.51100000000E-03 0.  1.
    9900012    2    1    2    0    0 -0.18714281451E+02  0.12977205118E+02 -0.36945786187E+02  0.47787270745E+02  0.19999998635E+02 0.  0.
         12    1    1    2    0    0  0.18714281451E+02 -0.12977205118E+02  0.36945786187E+02  0.43400729255E+02  0.00000000000E+00 0. -1.
         11    1    3    3    0    0 -0.19362444109E+01  0.66538067228E-01  0.14430134362E+01  0.24157313119E+01  0.51100000000E-03 0. -1.
        -11    1    3    3    0    0 -0.72106263233E+01 -0.26011236178E+00 -0.17193984248E+02  0.18646551558E+02  0.51100000000E-03 0.  1.
        -12    1    3    3    0    0 -0.95674107168E+01  0.13170779412E+02 -0.21194815375E+02  0.26724987875E+02  0.00000000000E+00 0.  1.
</event>
<event>
 7    1  0.1813014E-010  0.4778727E+02  0.7816164E-02  0.1312668E+00
        -11   -1    0    0    0    0  0.00000000000E+00  0.00000000000E+00  0.45593999997E+02  0.45594000000E+02  0.51100000000E-03 0. -1.
         11   -1    0    0    0    0 -0.00000000000E+00 -0.00000000000E+00 -0.45593999997E+02  0.45594000000E+02  0.51100000000E-03 0.  1.
    9900012    2    1    2    0    0  0.12533842631E+02  0.31830918267E+02 -0.26708029178E+02  0.47787269690E+02  0.19999993825E+02 0.  0.
         12    1    1    2    0    0 -0.12533842631E+02 -0.31830918267E+02  0.26708029178E+02  0.43400730310E+02  0.00000000000E+00 0. -1.
         11    1    3    3    0    0  0.78669791828E+01  0.12925169163E+02 -0.91181413117E+01  0.17666065227E+02  0.51100000000E-03 0. -1.
        -11    1    3    3    0    0 -0.30108743553E-01  0.48042655575E+01 -0.14041049795E+02  0.14840247764E+02  0.51100000000E-03 0.  1.
         12    1    3    3    0    0  0.46969721919E+01  0.14101483547E+02 -0.35488380716E+01  0.15280956699E+02  0.00000000000E+00 0. -1.
</event>
<event>
 7    1  0.1813014E-010  0.4778727E+02  0.7816164E-02  0.1312668E+00
        -11   -1    0    0    0    0  0.00000000000E+00  0.00000000000E+00  0.45593999997E+02  0.45594000000E+02  0.51100000000E-03 0. -1.
         11   -1    0    0    0    0 -0.00000000000E+00 -0.00000000000E+00 -0.45593999997E+02  0.45594000000E+02  0.51100000000E-03 0.  1.
    9900012    2    1    2    0    0 -0.79267574588E+01  0.29642682752E+02 -0.30693666017E+02  0.47787271227E+02  0.20000000830E+02 0.  0.
         12    1    1    2    0    0  0.79267574588E+01 -0.29642682752E+02  0.30693666017E+02  0.43400728773E+02  0.00000000000E+00 0. -1.
         11    1    3    3    0    0  0.24517234209E+01  0.11177448225E+01 -0.28543054699E+01  0.39252211654E+01  0.51100000000E-03 0. -1.
        -11    1    3    3    0    0 -0.11081614814E+02  0.25989629036E+02 -0.29422467842E+02  0.40791477278E+02  0.51100000000E-03 0.  1.
        -12    1    3    3    0    0  0.70313393482E+00  0.25353088927E+01  0.15831072948E+01  0.30705727834E+01  0.00000000000E+00 0.  1.
</event>
<event>
 7    1  0.1813014E-010  0.4778727E+02  0.7816164E-02  0.1312668E+00
        -11   -1    0    0    0    0  0.00000000000E+00  0.00000000000E+00  0.45593999997E+02  0.45594000000E+02  0.51100000000E-03 0. -1.
         11   -1    0    0    0    0 -0.00000000000E+00 -0.00000000000E+00 -0.45593999997E+02  0.45594000000E+02  0.51100000000E-03 0.  1.
    9900012    2    1    2    0    0  0.41114111833E+02  0.48378102761E+01  0.13032597399E+02  0.47787271953E+02  0.20000004142E+02 0.  0.
         12    1    1    2    0    0 -0.41114111833E+02 -0.48378102761E+01 -0.13032597399E+02  0.43400728047E+02  0.00000000000E+00 0. -1.
         11    1    3    3    0    0  0.21844292052E+02 -0.83755748255E+00  0.12336993996E+02  0.25101315083E+02  0.51100000000E-03 0. -1.
        -11    1    3    3    0    0  0.11970890519E+01 -0.22896713574E+01 -0.11928797028E+01  0.28458003039E+01  0.51100000000E-03 0.  1.
        -12    1    3    3    0    0  0.18072730729E+02  0.79650391160E+01  0.18884831060E+01  0.19840156566E+02  0.00000000000E+00 0.  1.
</event>
<event>
 7    1  0.1813014E-010  0.4778727E+02  0.7816164E-02  0.1312668E+00
        -11   -1    0    0    0    0  0.00000000000E+00  0.00000000000E+00  0.45593999997E+02  0.45594000000E+02  0.51100000000E-03 0.  1.
         11   -1    0    0    0    0 -0.00000000000E+00 -0.00000000000E+00 -0.45593999997E+02  0.45594000000E+02  0.51100000000E-03 0. -1.
    9900012    2    1    2    0    0  0.16127965305E+02 -0.12735331982E+02  0.38227258706E+02  0.47787271276E+02  0.20000001057E+02 0.  0.
         12    1    1    2    0    0 -0.16127965305E+02  0.12735331982E+02 -0.38227258706E+02  0.43400728724E+02  0.00000000000E+00 0. -1.
         11    1    3    3    0    0  0.30070492397E+01 -0.80119506319E+01  0.15220732042E+02  0.17461511453E+02  0.51100000000E-03 0. -1.
        -11    1    3    3    0    0  0.15639202249E+02 -0.60514995712E+01  0.18267754523E+02  0.24797502891E+02  0.51100000000E-03 0.  1.
         12    1    3    3    0    0 -0.25182861833E+01  0.13281182216E+01  0.47387721409E+01  0.55282569328E+01  0.00000000000E+00 0. -1.
</event>
<event>
 7    1  0.1813014E-010  0.4778727E+02  0.7816164E-02  0.1312668E+00
        -11   -1    0    0    0    0  0.00000000000E+00  0.00000000000E+00  0.45593999997E+02  0.45594000000E+02  0.51100000000E-03 0.  1.
         11   -1    0    0    0    0 -0.00000000000E+00 -0.00000000000E+00 -0.45593999997E+02  0.45594000000E+02  0.51100000000E-03 0. -1.
    9900012    2    1    2    0    0  0.47006663182E+01 -0.33368805636E+02  0.27350502026E+02  0.47787269424E+02  0.19999992613E+02 0.  0.
         12    1    1    2    0    0 -0.47006663182E+01  0.33368805636E+02 -0.27350502026E+02  0.43400730576E+02  0.00000000000E+00 0. -1.
         11    1    3    3    0    0 -0.46968932915E+01 -0.52265479079E+01  0.53271221055E+01  0.88179271835E+01  0.51100000000E-03 0. -1.
        -11    1    3    3    0    0  0.29307042455E+01 -0.23089059666E+02  0.12574707430E+02  0.26454053958E+02  0.51100000000E-03 0.  1.
         12    1    3    3    0    0  0.64668553642E+01 -0.50531980626E+01  0.94486724905E+01  0.12515288282E+02  0.00000000000E+00 0. -1.
</event>
<event>
 7    1  0.1813014E-010  0.4778727E+02  0.7816164E-02  0.1312668E+00
        -11   -1    0    0    0    0  0.00000000000E+00  0.00000000000E+00  0.45593999997E+02  0.45594000000E+02  0.51100000000E-03 0.  1.
         11   -1    0    0    0    0 -0.00000000000E+00 -0.00000000000E+00 -0.45593999997E+02  0.45594000000E+02  0.51100000000E-03 0. -1.
    9900012    2    1    2    0    0  0.36381704184E+02  0.22974974516E+01  0.23552412615E+02  0.47787273810E+02  0.20000012610E+02 0.  0.
         12    1    1    2    0    0 -0.36381704184E+02 -0.22974974516E+01 -0.23552412615E+02  0.43400726190E+02  0.00000000000E+00 0. -1.
         11    1    3    3    0    0  0.32184350712E+01  0.43213377579E+01 -0.57212621352E+00  0.54184511616E+01  0.51100000000E-03 0. -1.
        -11    1    3    3    0    0  0.20528490724E+02 -0.47861366651E+01  0.10380331249E+02  0.23496325514E+02  0.51100000000E-03 0.  1.
         12    1    3    3    0    0  0.12634778388E+02  0.27622963588E+01  0.13744207579E+02  0.18872497134E+02  0.00000000000E+00 0. -1.
</event>
<event>
 7    1  0.1950471E-010  0.4778727E+02  0.7816164E-02  0.1312668E+00
        -11   -1    0    0    0    0  0.00000000000E+00  0.00000000000E+00  0.45593999997E+02  0.45594000000E+02  0.51100000000E-03 0. -1.
         11   -1    0    0    0    0 -0.00000000000E+00 -0.00000000000E+00 -0.45593999997E+02  0.45594000000E+02  0.51100000000E-03 0.  1.
    9900012    2    1    2    0    0  0.12052942384E+01 -0.40539873704E+02 -0.15449564262E+02  0.47787272702E+02  0.20000007557E+02 0.  0.
         12    1    1    2    0    0 -0.12052942384E+01  0.40539873704E+02  0.15449564262E+02  0.43400727298E+02  0.00000000000E+00 0. -1.
         11    1    3    3    0    0 -0.16846659930E+01 -0.45147277660E+01  0.13243482761E+01  0.49974758555E+01  0.51100000000E-03 0. -1.
        -11    1    3    3    0    0  0.72231616865E+01 -0.17625438321E+02 -0.14099126109E+02  0.23698428177E+02  0.51100000000E-03 0.  1.
        -12    1    3    3    0    0 -0.43332014551E+01 -0.18399707617E+02 -0.26747864295E+01  0.19091368669E+02  0.00000000000E+00 0.  1.
</event>
<event>
 7    1  0.1813014E-010  0.4778727E+02  0.7816164E-02  0.1312668E+00
        -11   -1    0    0    0    0  0.00000000000E+00  0.00000000000E+00  0.45593999997E+02  0.45594000000E+02  0.51100000000E-03 0.  1.
         11   -1    0    0    0    0 -0.00000000000E+00 -0.00000000000E+00 -0.45593999997E+02  0.45594000000E+02  0.51100000000E-03 0. -1.
    9900012    2    1    2    0    0 -0.28522157132E+02 -0.29425206327E+02  0.14292197561E+02  0.47787272748E+02  0.20000007767E+02 0.  0.
         12    1    1    2    0    0  0.28522157132E+02  0.29425206327E+02 -0.14292197561E+02  0.43400727252E+02  0.00000000000E+00 0. -1.
         11    1    3    3    0    0 -0.19019643982E+02 -0.11115575469E+02  0.22318877152E+01  0.22142362075E+02  0.51100000000E-03 0. -1.
        -11    1    3    3    0    0  0.15181475612E+00  0.46470891695E+00  0.23630009855E+01  0.24130428956E+01  0.51100000000E-03 0.  1.
        -12    1    3    3    0    0 -0.96543279065E+01 -0.18774339775E+02  0.96973088602E+01  0.23231867778E+02  0.00000000000E+00 0.  1.
</event>
<event>
 7    1  0.1813014E-010  0.4778727E+02  0.7816164E-02  0.1312668E+00
        -11   -1    0    0    0    0  0.00000000000E+00  0.00000000000E+00  0.45593999997E+02  0.45594000000E+02  0.51100000000E-03 0.  1.
         11   -1    0    0    0    0 -0.00000000000E+00 -0.00000000000E+00 -0.45593999997E+02  0.45594000000E+02  0.51100000000E-03 0. -1.
    9900012    2    1    2    0    0  0.13860189619E+02  0.41125918959E+02  0.42116125697E+00  0.47787269093E+02  0.19999991103E+02 0.  0.
         12    1    1    2    0    0 -0.13860189619E+02 -0.41125918959E+02 -0.42116125697E+00  0.43400730907E+02  0.00000000000E+00 0. -1.
         11    1    3    3    0    0 -0.32063795172E+00  0.84229729825E+01 -0.44362330318E+01  0.95252005928E+01  0.51100000000E-03 0. -1.
        -11    1    3    3    0    0  0.20805055355E+01  0.19424781375E+02  0.54692884464E+01  0.20287034064E+02  0.51100000000E-03 0.  1.
         12    1    3    3    0    0  0.12100322035E+02  0.13278164601E+02 -0.61189415772E+00  0.17975034436E+02  0.00000000000E+00 0. -1.
</event>
<event>
 7    1  0.1813014E-010  0.4778727E+02  0.7816164E-02  0.1312668E+00
        -11   -1    0    0    0    0  0.00000000000E+00  0.00000000000E+00  0.45593999997E+02  0.45594000000E+02  0.51100000000E-03 0.  1.
         11   -1    0    0    0    0 -0.00000000000E+00 -0.00000000000E+00 -0.45593999997E+02  0.45594000000E+02  0.51100000000E-03 0. -1.
    9900012    2    1    2    0    0  0.18168065946E+02  0.23161092608E+02  0.31892136003E+02  0.47787272242E+02  0.20000005462E+02 0.  0.
         12    1    1    2    0    0 -0.18168065946E+02 -0.23161092608E+02 -0.31892136003E+02  0.43400727758E+02  0.00000000000E+00 0. -1.
         11    1    3    3    0    0 -0.20470898896E+01  0.21199120749E+01  0.49270741187E+01  0.57411378536E+01  0.51100000000E-03 0. -1.
        -11    1    3    3    0    0  0.13806935417E+02  0.20055532060E+02  0.25769752888E+02  0.35453293162E+02  0.51100000000E-03 0.  1.
         12    1    3    3    0    0  0.64082204189E+01  0.98564847321E+00  0.11953089961E+01  0.65928412271E+01  0.00000000000E+00 0. -1.
</event>
<event>
 7    1  0.1813014E-010  0.4778727E+02  0.7816164E-02  0.1312668E+00
        -11   -1    0    0    0    0  0.00000000000E+00  0.00000000000E+00  0.45593999997E+02  0.45594000000E+02  0.51100000000E-03 0. -1.
         11   -1    0    0    0    0 -0.00000000000E+00 -0.00000000000E+00 -0.45593999997E+02  0.45594000000E+02  0.51100000000E-03 0.  1.
    9900012    2    1    2    0    0  0.33080907934E+02 -0.20269193985E+02  0.19453449213E+02  0.47787269812E+02  0.19999994380E+02 0.  0.
         12    1    1    2    0    0 -0.33080907934E+02  0.20269193985E+02 -0.19453449213E+02  0.43400730188E+02  0.00000000000E+00 0. -1.
         11    1    3    3    0    0  0.16456960238E+02 -0.56116284354E+01 -0.70294695476E+00  0.17401610519E+02  0.51100000000E-03 0. -1.
        -11    1    3    3    0    0  0.97969859543E+01 -0.90687626003E+01  0.87366688597E+01  0.15954710023E+02  0.51100000000E-03 0.  1.
        -12    1    3    3    0    0  0.68269617420E+01 -0.55888029491E+01  0.11419727309E+02  0.14430949270E+02  0.00000000000E+00 0.  1.
</event>
<event>
 7    1  0.1813014E-010  0.4778727E+02  0.7816164E-02  0.1312668E+00
        -11   -1    0    0    0    0  0.00000000000E+00  0.00000000000E+00  0.45593999997E+02  0.45594000000E+02  0.51100000000E-03 0. -1.
         11   -1    0    0    0    0 -0.00000000000E+00 -0.00000000000E+00 -0.45593999997E+02  0.45594000000E+02  0.51100000000E-03 0.  1.
    9900012    2    1    2    0    0  0.12340161463E+02  0.38127882533E+02  0.16661581661E+02  0.47787270573E+02  0.19999997851E+02 0.  0.
         12    1    1    2    0    0 -0.12340161463E+02 -0.38127882533E+02 -0.16661581661E+02  0.43400729427E+02  0.00000000000E+00 0. -1.
         11    1    3    3    0    0 -0.15852245188E+01  0.18807938509E+02  0.10748563268E+01  0.18905205741E+02  0.51100000000E-03 0. -1.
        -11    1    3    3    0    0  0.64393757011E+01  0.65750916234E+01  0.37177007945E+01  0.99256581009E+01  0.51100000000E-03 0.  1.
         12    1    3    3    0    0  0.74860102805E+01  0.12744852400E+02  0.11869024540E+02  0.18956406731E+02  0.00000000000E+00 0. -1.
</event>
<event>
 7    1  0.1813014E-010  0.4778727E+02  0.7816164E-02  0.1312668E+00
        -11   -1    0    0    0    0  0.00000000000E+00  0.00000000000E+00  0.45593999997E+02  0.45594000000E+02  0.51100000000E-03 0.  1.
         11   -1    0    0    0    0 -0.00000000000E+00 -0.00000000000E+00 -0.45593999997E+02  0.45594000000E+02  0.51100000000E-03 0. -1.
    9900012    2    1    2    0    0  0.29280877251E+02  0.28092707726E+02  0.15396525966E+02  0.47787274064E+02  0.20000013765E+02 0.  0.
         12    1    1    2    0    0 -0.29280877251E+02 -0.28092707726E+02 -0.15396525966E+02  0.43400725936E+02  0.00000000000E+00 0. -1.
         11    1    3    3    0    0  0.32756484684E+01  0.36788941086E+01 -0.30942223213E+01  0.58170737304E+01  0.51100000000E-03 0. -1.
        -11    1    3    3    0    0  0.90160979806E+01  0.16735804290E+02  0.10083475892E+02  0.21518681520E+02  0.51100000000E-03 0.  1.
         12    1    3    3    0    0  0.16989130802E+02  0.76780093283E+01  0.84072723951E+01  0.20451518814E+02  0.00000000000E+00 0. -1.
</event>
<event>
 7    1  0.1813014E-010  0.4778727E+02  0.7816164E-02  0.1312668E+00
        -11   -1    0    0    0    0  0.00000000000E+00  0.00000000000E+00  0.45593999997E+02  0.45594000000E+02  0.51100000000E-03 0. -1.
         11   -1    0    0    0    0 -0.00000000000E+00 -0.00000000000E+00 -0.45593999997E+02  0.45594000000E+02  0.51100000000E-03 0.  1.
    9900012    2    1    2    0    0  0.21288334956E+02 -0.86551077419E+01 -0.36817377899E+02  0.47787269470E+02  0.19999992820E+02 0.  0.
         12    1    1    2    0    0 -0.21288334956E+02  0.86551077419E+01  0.36817377899E+02  0.43400730530E+02  0.00000000000E+00 0. -1.
         11    1    3    3    0    0  0.93656851830E+00 -0.95035615102E+00 -0.79964628218E+01  0.81070188926E+01  0.51100000000E-03 0. -1.
        -11    1    3    3    0    0  0.10488754798E+02 -0.80983841374E+00 -0.24887636343E+02  0.27019701303E+02  0.51100000000E-03 0.  1.
         12    1    3    3    0    0  0.98630116402E+01 -0.68949131771E+01 -0.39332787336E+01  0.12660549274E+02  0.00000000000E+00 0. -1.
</event>
<event>
 7    1  0.1813014E-010  0.4778728E+02  0.7816164E-02  0.1312668E+00
        -11   -1    0    0    0    0  0.00000000000E+00  0.00000000000E+00  0.45593999997E+02  0.45594000000E+02  0.51100000000E-03 0. -1.
         11   -1    0    0    0    0 -0.00000000000E+00 -0.00000000000E+00 -0.45593999997E+02  0.45594000000E+02  0.51100000000E-03 0.  1.
    9900012    2    1    2    0    0  0.42647819147E+01  0.41408490484E+02 -0.12278897545E+02  0.47787276805E+02  0.20000026263E+02 0.  0.
         12    1    1    2    0    0 -0.42647819147E+01 -0.41408490484E+02  0.12278897545E+02  0.43400723195E+02  0.00000000000E+00 0. -1.
         11    1    3    3    0    0 -0.40045140154E+01  0.60024889742E+01  0.14921275246E+01  0.73683411427E+01  0.51100000000E-03 0. -1.
        -11    1    3    3    0    0  0.26713560436E+01  0.23531576055E+02 -0.39173980706E+01  0.24004525045E+02  0.51100000000E-03 0.  1.
         12    1    3    3    0    0  0.55979398866E+01  0.11874425455E+02 -0.98536269991E+01  0.16414410617E+02  0.00000000000E+00 0. -1.
</event>
<event>
 7    1  0.1813014E-010  0.4778726E+02  0.7816164E-02  0.1312668E+00
        -11   -1    0    0    0    0  0.00000000000E+00  0.00000000000E+00  0.45593999997E+02  0.45594000000E+02  0.51100000000E-03 0.  1.
         11   -1    0    0    0    0 -0.00000000000E+00 -0.00000000000E+00 -0.45593999997E+02  0.45594000000E+02  0.51100000000E-03 0. -1.
    9900012    2    1    2    0    0  0.24594761262E+02 -0.21946613351E+02  0.28232388990E+02  0.47787263748E+02  0.19999966733E+02 0.  0.
         12    1    1    2    0    0 -0.24594761262E+02  0.21946613351E+02 -0.28232388990E+02  0.43400736252E+02  0.00000000000E+00 0. -1.
         11    1    3    3    0    0  0.22393385881E+02 -0.16020544513E+02  0.13572991247E+02  0.30697681824E+02  0.51100000000E-03 0. -1.
        -11    1    3    3    0    0  0.39039840964E+01 -0.58053392217E+01  0.10777958874E+02  0.12849414502E+02  0.51100000000E-03 0.  1.
         12    1    3    3    0    0 -0.17026087146E+01 -0.12072961615E+00  0.38814388684E+01  0.42401674217E+01  0.00000000000E+00 0. -1.
</event>
<event>
 7    1  0.1813014E-010  0.4778727E+02  0.7816164E-02  0.1312668E+00
        -11   -1    0    0    0    0  0.00000000000E+00  0.00000000000E+00  0.45593999997E+02  0.45594000000E+02  0.51100000000E-03 0. -1.
         11   -1    0    0    0    0 -0.00000000000E+00 -0.00000000000E+00 -0.45593999997E+02  0.45594000000E+02  0.51100000000E-03 0.  1.
    9900012    2    1    2    0    0 -0.17393690063E+02 -0.22004971073E+02 -0.33118941609E+02  0.47787268448E+02  0.19999988163E+02 0.  0.
         12    1    1    2    0    0  0.17393690063E+02  0.22004971073E+02  0.33118941609E+02  0.43400731552E+02  0.00000000000E+00 0. -1.
         11    1    3    3    0    0 -0.73406641578E+01 -0.14919855873E+02 -0.12040824131E+02  0.20529707634E+02  0.51100000000E-03 0. -1.
        -11    1    3    3    0    0 -0.87010132174E+01 -0.82569605985E+01 -0.22137376054E+02  0.25178332911E+02  0.51100000000E-03 0.  1.
        -12    1    3    3    0    0 -0.13520126877E+01  0.11718453980E+01  0.10592585756E+01  0.20792279035E+01  0.00000000000E+00 0.  1.
</event>
<event>
 7    1  0.1813014E-010  0.4778727E+02  0.7816164E-02  0.1312668E+00
        -11   -1    0    0    0    0  0.00000000000E+00  0.00000000000E+00  0.45593999997E+02  0.45594000000E+02  0.51100000000E-03 0.  1.
         11   -1    0    0    0    0 -0.00000000000E+00 -0.00000000000E+00 -0.45593999997E+02  0.45594000000E+02  0.51100000000E-03 0. -1.
    9900012    2    1    2    0    0 -0.95696954684E+01 -0.95270918144E+01  0.41246562394E+02  0.47787268910E+02  0.19999990269E+02 0.  0.
         12    1    1    2    0    0  0.95696954684E+01  0.95270918144E+01 -0.41246562394E+02  0.43400731090E+02  0.00000000000E+00 0. -1.
         11    1    3    3    0    0  0.32179241215E+01  0.63865345628E+00  0.32201726551E+01  0.45970018576E+01  0.51100000000E-03 0. -1.
        -11    1    3    3    0    0 -0.77483992083E+01  0.10615557312E+01  0.18809964321E+02  0.20371041919E+02  0.51100000000E-03 0.  1.
        -12    1    3    3    0    0 -0.50392203815E+01 -0.11227301002E+02  0.19216425418E+02  0.22819225133E+02  0.00000000000E+00 0.  1.
</event>
<event>
 7    1  0.1813014E-010  0.4778727E+02  0.7816164E-02  0.1312668E+00
        -11   -1    0    0    0    0  0.00000000000E+00  0.00000000000E+00  0.45593999997E+02  0.45594000000E+02  0.51100000000E-03 0. -1.
         11   -1    0    0    0    0 -0.00000000000E+00 -0.00000000000E+00 -0.45593999997E+02  0.45594000000E+02  0.51100000000E-03 0.  1.
    9900012    2    1    2    0    0 -0.13756301480E+02 -0.40649388186E+02 -0.64818674878E+01  0.47787271936E+02  0.20000004067E+02 0.  0.
         12    1    1    2    0    0  0.13756301480E+02  0.40649388186E+02  0.64818674878E+01  0.43400728064E+02  0.00000000000E+00 0. -1.
         11    1    3    3    0    0 -0.49491316768E+01 -0.16922682935E+02  0.48954459731E+01  0.18298538018E+02  0.51100000000E-03 0. -1.
        -11    1    3    3    0    0 -0.89883180707E+01 -0.19421508154E+02 -0.53144223772E+01  0.22050576550E+02  0.51100000000E-03 0.  1.
         12    1    3    3    0    0  0.18114826756E+00 -0.43051970972E+01 -0.60628910837E+01  0.74381573682E+01  0.00000000000E+00 0. -1.
</event>
<event>
 7    1  0.1813014E-010  0.4778727E+02  0.7816164E-02  0.1312668E+00
        -11   -1    0    0    0    0  0.00000000000E+00  0.00000000000E+00  0.45593999997E+02  0.45594000000E+02  0.51100000000E-03 0. -1.
         11   -1    0    0    0    0 -0.00000000000E+00 -0.00000000000E+00 -0.45593999997E+02  0.45594000000E+02  0.51100000000E-03 0.  1.
    9900012    2    1    2    0    0 -0.22254300917E+02  0.10748613911E+02 -0.35676841079E+02  0.47787267291E+02  0.19999982887E+02 0.  0.
         12    1    1    2    0    0  0.22254300917E+02 -0.10748613911E+02  0.35676841079E+02  0.43400732709E+02  0.00000000000E+00 0. -1.
         11    1    3    3    0    0 -0.10752604332E+02  0.50791941795E+01 -0.48059359225E+01  0.12826290726E+02  0.51100000000E-03 0. -1.
        -11    1    3    3    0    0 -0.30884726135E+01  0.71450506290E+01 -0.16484862868E+02  0.18230225331E+02  0.51100000000E-03 0.  1.
        -12    1    3    3    0    0 -0.84132239714E+01 -0.14756308977E+01 -0.14386042288E+02  0.16730751234E+02  0.00000000000E+00 0.  1.
</event>
<event>
 7    1  0.1813014E-010  0.4778727E+02  0.7816164E-02  0.1312668E+00
        -11   -1    0    0    0    0  0.00000000000E+00  0.00000000000E+00  0.45593999997E+02  0.45594000000E+02  0.51100000000E-03 0. -1.
         11   -1    0    0    0    0 -0.00000000000E+00 -0.00000000000E+00 -0.45593999997E+02  0.45594000000E+02  0.51100000000E-03 0.  1.
    9900012    2    1    2    0    0 -0.27412641417E+02  0.13416668100E+02 -0.30857144228E+02  0.47787271409E+02  0.20000001660E+02 0.  0.
         12    1    1    2    0    0  0.27412641417E+02 -0.13416668100E+02  0.30857144228E+02  0.43400728591E+02  0.00000000000E+00 0. -1.
         11    1    3    3    0    0  0.58983488635E-01  0.26756687898E+01 -0.98433538429E+00  0.28515958575E+01  0.51100000000E-03 0. -1.
        -11    1    3    3    0    0 -0.16683770272E+02 -0.19966733233E+01 -0.16470246477E+02  0.23528789049E+02  0.51100000000E-03 0.  1.
        -12    1    3    3    0    0 -0.10787854634E+02  0.12737672633E+02 -0.13402562367E+02  0.21406886502E+02  0.00000000000E+00 0.  1.
</event>
<event>
 7    1  0.1813014E-010  0.4778727E+02  0.7816164E-02  0.1312668E+00
        -11   -1    0    0    0    0  0.00000000000E+00  0.00000000000E+00  0.45593999997E+02  0.45594000000E+02  0.51100000000E-03 0.  1.
         11   -1    0    0    0    0 -0.00000000000E+00 -0.00000000000E+00 -0.45593999997E+02  0.45594000000E+02  0.51100000000E-03 0. -1.
    9900012    2    1    2    0    0  0.51370048788E+01  0.39251518101E+02  0.17791927055E+02  0.47787272349E+02  0.20000005948E+02 0.  0.
         12    1    1    2    0    0 -0.51370048788E+01 -0.39251518101E+02 -0.17791927055E+02  0.43400727651E+02  0.00000000000E+00 0. -1.
         11    1    3    3    0    0  0.81848043778E-01  0.21029833437E+02  0.19558736710E+01  0.21120748935E+02  0.51100000000E-03 0. -1.
        -11    1    3    3    0    0 -0.27279407284E+01  0.71205471352E+01  0.77910023707E+01  0.10901539814E+02  0.51100000000E-03 0.  1.
        -12    1    3    3    0    0  0.77830975634E+01  0.11101137529E+02  0.80450510130E+01  0.15764983600E+02  0.00000000000E+00 0.  1.
</event>
<event>
 7    1  0.1813014E-010  0.4778727E+02  0.7816164E-02  0.1312668E+00
        -11   -1    0    0    0    0  0.00000000000E+00  0.00000000000E+00  0.45593999997E+02  0.45594000000E+02  0.51100000000E-03 0.  1.
         11   -1    0    0    0    0 -0.00000000000E+00 -0.00000000000E+00 -0.45593999997E+02  0.45594000000E+02  0.51100000000E-03 0. -1.
    9900012    2    1    2    0    0 -0.63966626848E+01 -0.42784793890E+02 -0.34881986085E+01  0.47787269461E+02  0.19999992783E+02 0.  0.
         12    1    1    2    0    0  0.63966626848E+01  0.42784793890E+02  0.34881986085E+01  0.43400730539E+02  0.00000000000E+00 0. -1.
         11    1    3    3    0    0 -0.58212293870E+00 -0.32931398425E+01 -0.39440391764E+01  0.51709846668E+01  0.51100000000E-03 0. -1.
        -11    1    3    3    0    0 -0.98044435236E+00 -0.28185330493E+02 -0.58417381514E+01  0.28801042187E+02  0.51100000000E-03 0.  1.
        -12    1    3    3    0    0 -0.48340953937E+01 -0.11306323555E+02  0.62975787192E+01  0.13815242608E+02  0.00000000000E+00 0.  1.
</event>
<event>
 7    1  0.1813014E-010  0.4778725E+02  0.7816164E-02  0.1312668E+00
        -11   -1    0    0    0    0  0.00000000000E+00  0.00000000000E+00  0.45593999997E+02  0.45594000000E+02  0.51100000000E-03 0.  1.
         11   -1    0    0    0    0 -0.00000000000E+00 -0.00000000000E+00 -0.45593999997E+02  0.45594000000E+02  0.51100000000E-03 0. -1.
    9900012    2    1    2    0    0  0.42102823572E+01  0.31204138151E+02  0.29869726883E+02  0.47787247710E+02  0.19999893609E+02 0.  0.
         12    1    1    2    0    0 -0.42102823572E+01 -0.31204138151E+02 -0.29869726883E+02  0.43400752290E+02  0.00000000000E+00 0. -1.
         11    1    3    3    0    0  0.15604633843E+01  0.13278632093E+02  0.91961530377E+01  0.16227333336E+02  0.51100000000E-03 0.  1.
        -11    1    3    3    0    0  0.28597020588E+01 -0.24761480775E+00 -0.12087124261E+01  0.31145135973E+01  0.51100000000E-03 0. -1.
         12    1    3    3    0    0 -0.20988308578E+00  0.18173120866E+02  0.21882286271E+02  0.28445400777E+02  0.00000000000E+00 0. -1.
</event>
<event>
 7    1  0.1813014E-010  0.4778727E+02  0.7816164E-02  0.1312668E+00
        -11   -1    0    0    0    0  0.00000000000E+00  0.00000000000E+00  0.45593999997E+02  0.45594000000E+02  0.51100000000E-03 0.  1.
         11   -1    0    0    0    0 -0.00000000000E+00 -0.00000000000E+00 -0.45593999997E+02  0.45594000000E+02  0.51100000000E-03 0. -1.
    9900012    2    1    2    0    0  0.36414928096E+02 -0.12232647506E+02  0.20197491769E+02  0.47787270432E+02  0.19999997209E+02 0.  0.
         12    1    1    2    0    0 -0.36414928096E+02  0.12232647506E+02 -0.20197491769E+02  0.43400729568E+02  0.00000000000E+00 0. -1.
         11    1    3    3    0    0  0.13300562007E+02 -0.71257470823E+01  0.54846214680E+01  0.16054977237E+02  0.51100000000E-03 0. -1.
        -11    1    3    3    0    0  0.13063768638E+02  0.48770124285E+01  0.70226704243E+01  0.15612981823E+02  0.51100000000E-03 0.  1.
        -12    1    3    3    0    0  0.10050597451E+02 -0.99839128523E+01  0.76901998763E+01  0.16119311372E+02  0.00000000000E+00 0.  1.
</event>
<event>
 7    1  0.1813014E-010  0.4778727E+02  0.7816164E-02  0.1312668E+00
        -11   -1    0    0    0    0  0.00000000000E+00  0.00000000000E+00  0.45593999997E+02  0.45594000000E+02  0.51100000000E-03 0.  1.
         11   -1    0    0    0    0 -0.00000000000E+00 -0.00000000000E+00 -0.45593999997E+02  0.45594000000E+02  0.51100000000E-03 0. -1.
    9900012    2    1    2    0    0 -0.13868289962E+02 -0.40558468540E+02 -0.68047213803E+01  0.47787273395E+02  0.20000010716E+02 0.  0.
         12    1    1    2    0    0  0.13868289962E+02  0.40558468540E+02  0.68047213803E+01  0.43400726605E+02  0.00000000000E+00 0. -1.
         11    1    3    3    0    0 -0.75892196959E+01 -0.15159892382E+02 -0.43028509397E+01  0.17490943917E+02  0.51100000000E-03 0. -1.
        -11    1    3    3    0    0  0.13324895264E+01 -0.17210016190E+02  0.34918679887E+01  0.17611170544E+02  0.51100000000E-03 0.  1.
        -12    1    3    3    0    0 -0.76115597930E+01 -0.81885599679E+01 -0.59937384292E+01  0.12685158934E+02  0.00000000000E+00 0.  1.
</event>
<event>
 7    1  0.1813014E-010  0.4778728E+02  0.7816164E-02  0.1312668E+00
        -11   -1    0    0    0    0  0.00000000000E+00  0.00000000000E+00  0.45593999997E+02  0.45594000000E+02  0.51100000000E-03 0.  1.
         11   -1    0    0    0    0 -0.00000000000E+00 -0.00000000000E+00 -0.45593999997E+02  0.45594000000E+02  0.51100000000E-03 0. -1.
    9900012    2    1    2    0    0  0.21093893746E+02  0.35361053127E+02 -0.13721020880E+02  0.47787275979E+02  0.20000022497E+02 0.  0.
         12    1    1    2    0    0 -0.21093893746E+02 -0.35361053127E+02  0.13721020880E+02  0.43400724021E+02  0.00000000000E+00 0. -1.
         11    1    3    3    0    0  0.74674357906E+01  0.23678929716E+02 -0.13879875574E+02  0.28444775548E+02  0.51100000000E-03 0. -1.
        -11    1    3    3    0    0  0.96696078180E+01  0.61315685488E+01 -0.29900775179E+01  0.11833765759E+02  0.51100000000E-03 0.  1.
        -12    1    3    3    0    0  0.39568501372E+01  0.55505548623E+01  0.31489322120E+01  0.75087346713E+01  0.00000000000E+00 0.  1.
</event>
<event>
 7    1  0.1813014E-010  0.4778727E+02  0.7816164E-02  0.1312668E+00
        -11   -1    0    0    0    0  0.00000000000E+00  0.00000000000E+00  0.45593999997E+02  0.45594000000E+02  0.51100000000E-03 0. -1.
         11   -1    0    0    0    0 -0.00000000000E+00 -0.00000000000E+00 -0.45593999997E+02  0.45594000000E+02  0.51100000000E-03 0.  1.
    9900012    2    1    2    0    0  0.23312355193E+01  0.37774507245E+02  0.21243233360E+02  0.47787273967E+02  0.20000013324E+02 0.  0.
         12    1    1    2    0    0 -0.23312355193E+01 -0.37774507245E+02 -0.21243233360E+02  0.43400726033E+02  0.00000000000E+00 0. -1.
         11    1    3    3    0    0 -0.11337352318E+01  0.13536619823E+02  0.86763801317E+01  0.16118467801E+02  0.51100000000E-03 0. -1.
        -11    1    3    3    0    0  0.40042832683E+01 -0.39700366722E-01  0.46290817659E+01  0.61208054101E+01  0.51100000000E-03 0.  1.
        -12    1    3    3    0    0 -0.53931251719E+00  0.24277587788E+02  0.79377714622E+01  0.25548000755E+02  0.00000000000E+00 0.  1.
</event>
<event>
 7    1  0.1813014E-010  0.4778727E+02  0.7816164E-02  0.1312668E+00
        -11   -1    0    0    0    0  0.00000000000E+00  0.00000000000E+00  0.45593999997E+02  0.45594000000E+02  0.51100000000E-03 0.  1.
         11   -1    0    0    0    0 -0.00000000000E+00 -0.00000000000E+00 -0.45593999997E+02  0.45594000000E+02  0.51100000000E-03 0. -1.
    9900012    2    1    2    0    0  0.15685367880E+02 -0.25568043643E+02  0.31366663889E+02  0.47787271610E+02  0.20000002578E+02 0.  0.
         12    1    1    2    0    0 -0.15685367880E+02  0.25568043643E+02 -0.31366663889E+02  0.43400728390E+02  0.00000000000E+00 0. -1.
         11    1    3    3    0    0  0.35515066484E+01 -0.10308651092E+02  0.47553775249E+01  0.11895171393E+02  0.51100000000E-03 0. -1.
        -11    1    3    3    0    0  0.37990560789E+01 -0.14658192410E+02  0.13188373135E+02  0.20080553230E+02  0.51100000000E-03 0.  1.
         12    1    3    3    0    0  0.83348051522E+01 -0.60120014099E+00  0.13422913230E+02  0.15811546987E+02  0.00000000000E+00 0. -1.
</event>
<event>
 7    1  0.1813014E-010  0.4778727E+02  0.7816164E-02  0.1312668E+00
        -11   -1    0    0    0    0  0.00000000000E+00  0.00000000000E+00  0.45593999997E+02  0.45594000000E+02  0.51100000000E-03 0.  1.
         11   -1    0    0    0    0 -0.00000000000E+00 -0.00000000000E+00 -0.45593999997E+02  0.45594000000E+02  0.51100000000E-03 0. -1.
    9900012    2    1    2    0    0  0.84327231575E+01  0.97510248457E+01  0.41441885258E+02  0.47787272367E+02  0.20000006028E+02 0.  0.
         12    1    1    2    0    0 -0.84327231575E+01 -0.97510248457E+01 -0.41441885258E+02  0.43400727633E+02  0.00000000000E+00 0. -1.
         11    1    3    3    0    0 -0.16073255638E+01 -0.39236704793E+01  0.66322155248E+01  0.78717830589E+01  0.51100000000E-03 0. -1.
        -11    1    3    3    0    0  0.80423962771E+01  0.28615094164E+01  0.15084152371E+02  0.17332052014E+02  0.51100000000E-03 0.  1.
         12    1    3    3    0    0  0.19976524442E+01  0.10813185909E+02  0.19725517362E+02  0.22583437294E+02  0.00000000000E+00 0. -1.
</event>
<event>
 7    1  0.1813014E-010  0.4778727E+02  0.7816164E-02  0.1312668E+00
        -11   -1    0    0    0    0  0.00000000000E+00  0.00000000000E+00  0.45593999997E+02  0.45594000000E+02  0.51100000000E-03 0. -1.
         11   -1    0    0    0    0 -0.00000000000E+00 -0.00000000000E+00 -0.45593999997E+02  0.45594000000E+02  0.51100000000E-03 0.  1.
    9900012    2    1    2    0    0 -0.42507028086E+02  0.54235672373E+01  0.68819188740E+01  0.47787270448E+02  0.19999997281E+02 0.  0.
         12    1    1    2    0    0  0.42507028086E+02 -0.54235672373E+01 -0.68819188740E+01  0.43400729552E+02  0.00000000000E+00 0. -1.
         11    1    3    3    0    0 -0.14378079657E+02  0.84160171329E+01  0.43044829165E+01  0.17207181420E+02  0.51100000000E-03 0. -1.
        -11    1    3    3    0    0 -0.25816103581E+02 -0.18134208685E+01  0.57196219324E+01  0.26504221827E+02  0.51100000000E-03 0.  1.
        -12    1    3    3    0    0 -0.23128448481E+01 -0.11790290271E+01 -0.31421859749E+01  0.40758672008E+01  0.00000000000E+00 0.  1.
</event>
<event>
 7    1  0.1813014E-010  0.4778727E+02  0.7816164E-02  0.1312668E+00
        -11   -1    0    0    0    0  0.00000000000E+00  0.00000000000E+00  0.45593999997E+02  0.45594000000E+02  0.51100000000E-03 0.  1.
         11   -1    0    0    0    0 -0.00000000000E+00 -0.00000000000E+00 -0.45593999997E+02  0.45594000000E+02  0.51100000000E-03 0. -1.
    9900012    2    1    2    0    0 -0.13133626956E+02 -0.36666353357E+02 -0.19149659271E+02  0.47787273328E+02  0.20000010410E+02 0.  0.
         12    1    1    2    0    0  0.13133626956E+02  0.36666353357E+02  0.19149659271E+02  0.43400726672E+02  0.00000000000E+00 0. -1.
         11    1    3    3    0    0  0.69641366211E+00  0.14058561058E+00 -0.36130320769E+01  0.36822217957E+01  0.51100000000E-03 0. -1.
        -11    1    3    3    0    0 -0.21763133542E+01 -0.23434643909E+02 -0.91894117792E+01  0.25265869549E+02  0.51100000000E-03 0.  1.
        -12    1    3    3    0    0 -0.11653727263E+02 -0.13372295058E+02 -0.63472154150E+01  0.18839181983E+02  0.00000000000E+00 0.  1.
</event>
<event>
 7    1  0.1813014E-010  0.4778727E+02  0.7816164E-02  0.1312668E+00
        -11   -1    0    0    0    0  0.00000000000E+00  0.00000000000E+00  0.45593999997E+02  0.45594000000E+02  0.51100000000E-03 0.  1.
         11   -1    0    0    0    0 -0.00000000000E+00 -0.00000000000E+00 -0.45593999997E+02  0.45594000000E+02  0.51100000000E-03 0. -1.
    9900012    2    1    2    0    0  0.38556719680E+02  0.33687202938E+01  0.19638080892E+02  0.47787272702E+02  0.20000007557E+02 0.  0.
         12    1    1    2    0    0 -0.38556719680E+02 -0.33687202938E+01 -0.19638080892E+02  0.43400727298E+02  0.00000000000E+00 0. -1.
         11    1    3    3    0    0  0.20654450781E+02  0.31169224392E+01  0.51932505366E+01  0.21524204839E+02  0.51100000000E-03 0. -1.
        -11    1    3    3    0    0  0.16366957609E+02 -0.68841852366E+00  0.16689448504E+02  0.23385656139E+02  0.51100000000E-03 0.  1.
         12    1    3    3    0    0  0.15353112902E+01  0.94021637827E+00 -0.22446181486E+01  0.28774117239E+01  0.00000000000E+00 0. -1.
</event>
<event>
 7    1  0.1813014E-010  0.4778727E+02  0.7816164E-02  0.1312668E+00
        -11   -1    0    0    0    0  0.00000000000E+00  0.00000000000E+00  0.45593999997E+02  0.45594000000E+02  0.51100000000E-03 0. -1.
         11   -1    0    0    0    0 -0.00000000000E+00 -0.00000000000E+00 -0.45593999997E+02  0.45594000000E+02  0.51100000000E-03 0.  1.
    9900012    2    1    2    0    0 -0.42212984049E+02  0.10081741761E+02 -0.21367472310E+00  0.47787271939E+02  0.20000004081E+02 0.  0.
         12    1    1    2    0    0  0.42212984049E+02 -0.10081741761E+02  0.21367472310E+00  0.43400728061E+02  0.00000000000E+00 0. -1.
         11    1    3    3    0    0 -0.53956427185E+01  0.37833459079E+01 -0.25472226687E+01  0.70650555688E+01  0.51100000000E-03 0. -1.
        -11    1    3    3    0    0 -0.31245583974E+02  0.76822429462E+01  0.74553511568E+01  0.33028557881E+02  0.51100000000E-03 0.  1.
        -12    1    3    3    0    0 -0.55717573565E+01 -0.13838470931E+01 -0.51218032111E+01  0.76936584893E+01  0.00000000000E+00 0.  1.
</event>
<event>
 7    1  0.1813014E-010  0.4778726E+02  0.7816164E-02  0.1312668E+00
        -11   -1    0    0    0    0  0.00000000000E+00  0.00000000000E+00  0.45593999997E+02  0.45594000000E+02  0.51100000000E-03 0.  1.
         11   -1    0    0    0    0 -0.00000000000E+00 -0.00000000000E+00 -0.45593999997E+02  0.45594000000E+02  0.51100000000E-03 0. -1.
    9900012    2    1    2    0    0 -0.20550603616E+02 -0.24253002480E+01  0.38149895505E+02  0.47787263632E+02  0.19999966205E+02 0.  0.
         12    1    1    2    0    0  0.20550603616E+02  0.24253002480E+01 -0.38149895505E+02  0.43400736368E+02  0.00000000000E+00 0. -1.
         11    1    3    3    0    0 -0.17927685183E+00  0.29283845426E+01  0.48050916476E+01  0.56299628970E+01  0.51100000000E-03 0. -1.
        -11    1    3    3    0    0 -0.58716250739E+01 -0.87060125075E+01  0.17581105672E+02  0.20478425518E+02  0.51100000000E-03 0.  1.
         12    1    3    3    0    0 -0.14499701690E+02  0.33523277168E+01  0.15763698185E+02  0.21678875218E+02  0.00000000000E+00 0. -1.
</event>
<event>
 7    1  0.1813014E-010  0.4778727E+02  0.7816164E-02  0.1312668E+00
        -11   -1    0    0    0    0  0.00000000000E+00  0.00000000000E+00  0.45593999997E+02  0.45594000000E+02  0.51100000000E-03 0. -1.
         11   -1    0    0    0    0 -0.00000000000E+00 -0.00000000000E+00 -0.45593999997E+02  0.45594000000E+02  0.51100000000E-03 0.  1.
    9900012    2    1    2    0    0 -0.35443588123E+02 -0.21845685404E+02 -0.12253229494E+02  0.47787267946E+02  0.19999985873E+02 0.  0.
         12    1    1    2    0    0  0.35443588123E+02  0.21845685404E+02  0.12253229494E+02  0.43400732054E+02  0.00000000000E+00 0. -1.
         11    1    3    3    0    0 -0.10442364039E+02  0.83198852217E+00 -0.57671658774E+01  0.11958067325E+02  0.51100000000E-03 0. -1.
        -11    1    3    3    0    0 -0.10042976761E+02 -0.84018426348E+01  0.24196052422E+01  0.13315661143E+02  0.51100000000E-03 0.  1.
         12    1    3    3    0    0 -0.14958247323E+02 -0.14275831291E+02 -0.89056688585E+01  0.22513539478E+02  0.00000000000E+00 0. -1.
</event>
<event>
 7    1  0.1813014E-010  0.4778728E+02  0.7816164E-02  0.1312668E+00
        -11   -1    0    0    0    0  0.00000000000E+00  0.00000000000E+00  0.45593999997E+02  0.45594000000E+02  0.51100000000E-03 0. -1.
         11   -1    0    0    0    0 -0.00000000000E+00 -0.00000000000E+00 -0.45593999997E+02  0.45594000000E+02  0.51100000000E-03 0.  1.
    9900012    2    1    2    0    0 -0.29492266606E+02 -0.11868377063E+02 -0.29546077924E+02  0.47787275532E+02  0.20000020461E+02 0.  0.
         12    1    1    2    0    0  0.29492266606E+02  0.11868377063E+02  0.29546077924E+02  0.43400724468E+02  0.00000000000E+00 0. -1.
         11    1    3    3    0    0 -0.79856525349E+01 -0.12510038535E+01 -0.25509362438E+01  0.84760210613E+01  0.51100000000E-03 0. -1.
        -11    1    3    3    0    0 -0.31725227192E+00 -0.68609733033E+01 -0.85597419428E+01  0.10974642867E+02  0.51100000000E-03 0.  1.
        -12    1    3    3    0    0 -0.21189361799E+02 -0.37563999061E+01 -0.18435399737E+02  0.28336611604E+02  0.00000000000E+00 0.  1.
</event>
<event>
 7    1  0.1813014E-010  0.4778726E+02  0.7816164E-02  0.1312668E+00
        -11   -1    0    0    0    0  0.00000000000E+00  0.00000000000E+00  0.45593999997E+02  0.45594000000E+02  0.51100000000E-03 0. -1.
         11   -1    0    0    0    0 -0.00000000000E+00 -0.00000000000E+00 -0.45593999997E+02  0.45594000000E+02  0.51100000000E-03 0.  1.
    9900012    2    1    2    0    0  0.28665181460E+02  0.23634856206E+02 -0.22434903549E+02  0.47787263217E+02  0.19999964312E+02 0.  0.
         12    1    1    2    0    0 -0.28665181460E+02 -0.23634856206E+02  0.22434903549E+02  0.43400736783E+02  0.00000000000E+00 0. -1.
         11    1    3    3    0    0  0.18552318878E+02  0.11832967587E+02 -0.94959640994E+01  0.23966246934E+02  0.51100000000E-03 0. -1.
        -11    1    3    3    0    0  0.11861930569E+01 -0.10717110104E+01  0.17328637034E+01  0.23576334180E+01  0.51100000000E-03 0.  1.
        -12    1    3    3    0    0  0.89266695258E+01  0.12873599630E+02 -0.14671803153E+02  0.21463382865E+02  0.00000000000E+00 0.  1.
</event>
<event>
 7    1  0.1813014E-010  0.4778727E+02  0.7816164E-02  0.1312668E+00
        -11   -1    0    0    0    0  0.00000000000E+00  0.00000000000E+00  0.45593999997E+02  0.45594000000E+02  0.51100000000E-03 0.  1.
         11   -1    0    0    0    0 -0.00000000000E+00 -0.00000000000E+00 -0.45593999997E+02  0.45594000000E+02  0.51100000000E-03 0. -1.
    9900012    2    1    2    0    0  0.40813369993E+02 -0.28337835555E+01  0.14486620547E+02  0.47787266431E+02  0.19999978967E+02 0.  0.
         12    1    1    2    0    0 -0.40813369993E+02  0.28337835555E+01 -0.14486620547E+02  0.43400733569E+02  0.00000000000E+00 0. -1.
         11    1    3    3    0    0  0.20034759865E+01 -0.25155502484E+01 -0.32142139525E+00  0.32319067213E+01  0.51100000000E-03 0. -1.
        -11    1    3    3    0    0  0.18837585113E+02  0.62145752018E+01  0.12426806145E+02  0.23407286666E+02  0.51100000000E-03 0.  1.
        -12    1    3    3    0    0  0.19972308893E+02 -0.65328085089E+01  0.23812357968E+01  0.21148073044E+02  0.00000000000E+00 0.  1.
</event>
<event>
 7    1  0.1813014E-010  0.4778727E+02  0.7816164E-02  0.1312668E+00
        -11   -1    0    0    0    0  0.00000000000E+00  0.00000000000E+00  0.45593999997E+02  0.45594000000E+02  0.51100000000E-03 0.  1.
         11   -1    0    0    0    0 -0.00000000000E+00 -0.00000000000E+00 -0.45593999997E+02  0.45594000000E+02  0.51100000000E-03 0. -1.
    9900012    2    1    2    0    0  0.38668617006E+02 -0.58066993611E+01  0.18831984312E+02  0.47787270378E+02  0.19999996960E+02 0.  0.
         12    1    1    2    0    0 -0.38668617006E+02  0.58066993611E+01 -0.18831984312E+02  0.43400729622E+02  0.00000000000E+00 0. -1.
         11    1    3    3    0    0  0.71149048193E+01 -0.75937271570E+01  0.50866432911E+01  0.11582767500E+02  0.51100000000E-03 0. -1.
        -11    1    3    3    0    0  0.14378512217E+02  0.22947750432E+01  0.60475004434E+00  0.14573034308E+02  0.51100000000E-03 0.  1.
        -12    1    3    3    0    0  0.17175199970E+02 -0.50774724722E+00  0.13140590976E+02  0.21631468569E+02  0.00000000000E+00 0.  1.
</event>
<event>
 7    1  0.1813014E-010  0.4778727E+02  0.7816164E-02  0.1312668E+00
        -11   -1    0    0    0    0  0.00000000000E+00  0.00000000000E+00  0.45593999997E+02  0.45594000000E+02  0.51100000000E-03 0.  1.
         11   -1    0    0    0    0 -0.00000000000E+00 -0.00000000000E+00 -0.45593999997E+02  0.45594000000E+02  0.51100000000E-03 0. -1.
    9900012    2    1    2    0    0 -0.36243910109E+02  0.33934951847E+01  0.23632313988E+02  0.47787273116E+02  0.20000009447E+02 0.  0.
         12    1    1    2    0    0  0.36243910109E+02 -0.33934951847E+01 -0.23632313988E+02  0.43400726884E+02  0.00000000000E+00 0. -1.
         11    1    3    3    0    0 -0.18846513173E+02  0.45977488286E+00  0.18903909641E+02  0.26697570146E+02  0.51100000000E-03 0. -1.
        -11    1    3    3    0    0 -0.10396051199E+02 -0.35508040378E+01  0.20203855976E+01  0.11169961865E+02  0.51100000000E-03 0.  1.
        -12    1    3    3    0    0 -0.70013457371E+01  0.64845243396E+01  0.27080187496E+01  0.99197411049E+01  0.00000000000E+00 0.  1.
</event>
<event>
 7    1  0.1813014E-010  0.4778728E+02  0.7816164E-02  0.1312668E+00
        -11   -1    0    0    0    0  0.00000000000E+00  0.00000000000E+00  0.45593999997E+02  0.45594000000E+02  0.51100000000E-03 0. -1.
         11   -1    0    0    0    0 -0.00000000000E+00 -0.00000000000E+00 -0.45593999997E+02  0.45594000000E+02  0.51100000000E-03 0.  1.
    9900012    2    1    2    0    0  0.32452074726E+02 -0.27225896036E+02 -0.94464815674E+01  0.47787279004E+02  0.20000036291E+02 0.  0.
         12    1    1    2    0    0 -0.32452074726E+02  0.27225896036E+02  0.94464815674E+01  0.43400720996E+02  0.00000000000E+00 0. -1.
         11    1    3    3    0    0  0.25661643451E+01  0.15754645776E+01 -0.10669112318E+01  0.31946185874E+01  0.51100000000E-03 0. -1.
        -11    1    3    3    0    0  0.23179063088E+02 -0.18167891943E+02  0.59975129277E-01  0.29450719186E+02  0.51100000000E-03 0.  1.
         12    1    3    3    0    0  0.67068472925E+01 -0.10633468671E+02 -0.84395454649E+01  0.15141941231E+02  0.00000000000E+00 0. -1.
</event>
<event>
 7    1  0.1813014E-010  0.4778728E+02  0.7816164E-02  0.1312668E+00
        -11   -1    0    0    0    0  0.00000000000E+00  0.00000000000E+00  0.45593999997E+02  0.45594000000E+02  0.51100000000E-03 0.  1.
         11   -1    0    0    0    0 -0.00000000000E+00 -0.00000000000E+00 -0.45593999997E+02  0.45594000000E+02  0.51100000000E-03 0. -1.
    9900012    2    1    2    0    0 -0.21809566650E+02  0.38434614888E+01  0.37325505849E+02  0.47787276728E+02  0.20000025912E+02 0.  0.
         12    1    1    2    0    0  0.21809566650E+02 -0.38434614888E+01 -0.37325505849E+02  0.43400723272E+02  0.00000000000E+00 0. -1.
         11    1    3    3    0    0 -0.87196867181E+01 -0.10248049936E+01  0.50408515563E+01  0.10123899763E+02  0.51100000000E-03 0. -1.
        -11    1    3    3    0    0 -0.11491057776E+02  0.62426775115E+01  0.13626296479E+02  0.18886275104E+02  0.51100000000E-03 0.  1.
        -12    1    3    3    0    0 -0.15988221559E+01 -0.13744110291E+01  0.18658357814E+02  0.18777101860E+02  0.00000000000E+00 0.  1.
</event>
<event>
 7    1  0.1813014E-010  0.4778727E+02  0.7816164E-02  0.1312668E+00
        -11   -1    0    0    0    0  0.00000000000E+00  0.00000000000E+00  0.45593999997E+02  0.45594000000E+02  0.51100000000E-03 0.  1.
         11   -1    0    0    0    0 -0.00000000000E+00 -0.00000000000E+00 -0.45593999997E+02  0.45594000000E+02  0.51100000000E-03 0. -1.
    9900012    2    1    2    0    0 -0.87006876129E+00 -0.21160193264E+02  0.37882882019E+02  0.47787267879E+02  0.19999985566E+02 0.  0.
         12    1    1    2    0    0  0.87006876129E+00  0.21160193264E+02 -0.37882882019E+02  0.43400732121E+02  0.00000000000E+00 0. -1.
         11    1    3    3    0    0  0.10682266420E+01  0.18419003874E+00  0.39275571431E+01  0.40744005084E+01  0.51100000000E-03 0. -1.
        -11    1    3    3    0    0 -0.65762270601E+01 -0.38376914251E+01  0.18123232762E+02  0.19657726314E+02  0.51100000000E-03 0.  1.
         12    1    3    3    0    0  0.46379316568E+01 -0.17506691878E+02  0.15832092114E+02  0.24055141057E+02  0.00000000000E+00 0. -1.
</event>
<event>
 7    1  0.1813014E-010  0.4778727E+02  0.7816164E-02  0.1312668E+00
        -11   -1    0    0    0    0  0.00000000000E+00  0.00000000000E+00  0.45593999997E+02  0.45594000000E+02  0.51100000000E-03 0. -1.
         11   -1    0    0    0    0 -0.00000000000E+00 -0.00000000000E+00 -0.45593999997E+02  0.45594000000E+02  0.51100000000E-03 0.  1.
    9900012    2    1    2    0    0  0.30427002313E+02 -0.15667762113E+02 -0.26689736604E+02  0.47787270981E+02  0.19999999710E+02 0.  0.
         12    1    1    2    0    0 -0.30427002313E+02  0.15667762113E+02  0.26689736604E+02  0.43400729019E+02  0.00000000000E+00 0. -1.
         11    1    3    3    0    0 -0.86972728934E+00 -0.66646205366E+01 -0.61021803083E+01  0.90780062366E+01  0.51100000000E-03 0. -1.
        -11    1    3    3    0    0  0.10089647375E+02 -0.18416112389E+01 -0.48389027429E+01  0.11340524508E+02  0.51100000000E-03 0.  1.
         12    1    3    3    0    0  0.21207082228E+02 -0.71615303372E+01 -0.15748653553E+02  0.27368740236E+02  0.00000000000E+00 0. -1.
</event>
<event>
 7    1  0.1813014E-010  0.4778725E+02  0.7816164E-02  0.1312668E+00
        -11   -1    0    0    0    0  0.00000000000E+00  0.00000000000E+00  0.45593999997E+02  0.45594000000E+02  0.51100000000E-03 0. -1.
         11   -1    0    0    0    0 -0.00000000000E+00 -0.00000000000E+00 -0.45593999997E+02  0.45594000000E+02  0.51100000000E-03 0.  1.
    9900012    2    1    2    0    0  0.32751115991E+02  0.23507335172E+02 -0.16074663871E+02  0.47787248577E+02  0.19999897560E+02 0.  0.
         12    1    1    2    0    0 -0.32751115991E+02 -0.23507335172E+02  0.16074663871E+02  0.43400751423E+02  0.00000000000E+00 0. -1.
         11    1    3    3    0    0 -0.27522892438E+00 -0.99714130720E+00  0.15645716644E+00  0.10461935067E+01  0.51100000000E-03 0. -1.
        -11    1    3    3    0    0  0.23261079640E+02  0.24695421117E+02 -0.14129944109E+02  0.36750468990E+02  0.51100000000E-03 0.  1.
         12    1    3    3    0    0  0.97652652747E+01 -0.19094463786E+00 -0.21011769288E+01  0.99905860802E+01  0.00000000000E+00 0. -1.
</event>
<event>
 7    1  0.1813014E-010  0.4778727E+02  0.7816164E-02  0.1312668E+00
        -11   -1    0    0    0    0  0.00000000000E+00  0.00000000000E+00  0.45593999997E+02  0.45594000000E+02  0.51100000000E-03 0.  1.
         11   -1    0    0    0    0 -0.00000000000E+00 -0.00000000000E+00 -0.45593999997E+02  0.45594000000E+02  0.51100000000E-03 0. -1.
    9900012    2    1    2    0    0 -0.47654110026E+01  0.29935910610E+02  0.31060511170E+02  0.47787271432E+02  0.20000001768E+02 0.  0.
         12    1    1    2    0    0  0.47654110026E+01 -0.29935910610E+02 -0.31060511170E+02  0.43400728568E+02  0.00000000000E+00 0. -1.
         11    1    3    3    0    0 -0.39220787697E+01  0.81159872640E+01 -0.54026512335E+00  0.90301626680E+01  0.51100000000E-03 0. -1.
        -11    1    3    3    0    0  0.17602048863E+01  0.38828171358E+01  0.70850199381E+01  0.82687422222E+01  0.51100000000E-03 0.  1.
        -12    1    3    3    0    0 -0.26035371192E+01  0.17937106211E+02  0.24515756355E+02  0.30488366542E+02  0.00000000000E+00 0.  1.
</event>
<event>
 7    1  0.1813014E-010  0.4778727E+02  0.7816164E-02  0.1312668E+00
        -11   -1    0    0    0    0  0.00000000000E+00  0.00000000000E+00  0.45593999997E+02  0.45594000000E+02  0.51100000000E-03 0.  1.
         11   -1    0    0    0    0 -0.00000000000E+00 -0.00000000000E+00 -0.45593999997E+02  0.45594000000E+02  0.51100000000E-03 0. -1.
    9900012    2    1    2    0    0  0.33263439739E+02  0.26985843407E+02  0.69950615686E+01  0.47787273578E+02  0.20000011551E+02 0.  0.
         12    1    1    2    0    0 -0.33263439739E+02 -0.26985843407E+02 -0.69950615686E+01  0.43400726422E+02  0.00000000000E+00 0. -1.
         11    1    3    3    0    0  0.25338849270E+01  0.74174668541E+01  0.43922078864E+01  0.89850363235E+01  0.51100000000E-03 0. -1.
        -11    1    3    3    0    0  0.68378114706E+01  0.31266799784E+00 -0.32276349242E+01  0.75677641645E+01  0.51100000000E-03 0.  1.
        -12    1    3    3    0    0  0.23891743341E+02  0.19255708555E+02  0.58304886064E+01  0.31234473090E+02  0.00000000000E+00 0.  1.
</event>
<event>
 7    1  0.1813014E-010  0.4778728E+02  0.7816164E-02  0.1312668E+00
        -11   -1    0    0    0    0  0.00000000000E+00  0.00000000000E+00  0.45593999997E+02  0.45594000000E+02  0.51100000000E-03 0.  1.
         11   -1    0    0    0    0 -0.00000000000E+00 -0.00000000000E+00 -0.45593999997E+02  0.45594000000E+02  0.51100000000E-03 0. -1.
    9900012    2    1    2    0    0 -0.21343662577E+02  0.36018621526E+02 -0.11433706712E+02  0.47787277909E+02  0.20000031298E+02 0.  0.
         12    1    1    2    0    0  0.21343662577E+02 -0.36018621526E+02  0.11433706712E+02  0.43400722091E+02  0.00000000000E+00 0. -1.
         11    1    3    3    0    0  0.11793094401E+01 -0.15183557637E+00  0.43661967657E+00  0.12666735179E+01  0.51100000000E-03 0. -1.
        -11    1    3    3    0    0 -0.74807403324E+01  0.57977994638E+01 -0.80268217164E+01  0.12409908206E+02  0.51100000000E-03 0.  1.
        -12    1    3    3    0    0 -0.15042231685E+02  0.30372657639E+02 -0.38435046724E+01  0.34110696185E+02  0.00000000000E+00 0.  1.
</event>
<event>
 7    1  0.1813014E-010  0.4778727E+02  0.7816164E-02  0.1312668E+00
        -11   -1    0    0    0    0  0.00000000000E+00  0.00000000000E+00  0.45593999997E+02  0.45594000000E+02  0.51100000000E-03 0. -1.
         11   -1    0    0    0    0 -0.00000000000E+00 -0.00000000000E+00 -0.45593999997E+02  0.45594000000E+02  0.51100000000E-03 0.  1.
    9900012    2    1    2    0    0 -0.17751776089E+02 -0.69391603721E+01 -0.38991611720E+02  0.47787270911E+02  0.19999999391E+02 0.  0.
         12    1    1    2    0    0  0.17751776089E+02  0.69391603721E+01  0.38991611720E+02  0.43400729089E+02  0.00000000000E+00 0. -1.
         11    1    3    3    0    0 -0.87508079856E+01 -0.67790579070E+01 -0.61127743919E+01  0.12645089068E+02  0.51100000000E-03 0.  1.
        -11    1    3    3    0    0 -0.29019350941E+01  0.94896290113E+00 -0.20061355093E+01  0.36532639955E+01  0.51100000000E-03 0. -1.
        -12    1    3    3    0    0 -0.60990330092E+01 -0.11090653662E+01 -0.30872701818E+02  0.31488917847E+02  0.00000000000E+00 0.  1.
</event>
<event>
 7    1  0.1813014E-010  0.4778726E+02  0.7816164E-02  0.1312668E+00
        -11   -1    0    0    0    0  0.00000000000E+00  0.00000000000E+00  0.45593999997E+02  0.45594000000E+02  0.51100000000E-03 0.  1.
         11   -1    0    0    0    0 -0.00000000000E+00 -0.00000000000E+00 -0.45593999997E+02  0.45594000000E+02  0.51100000000E-03 0. -1.
    9900012    2    1    2    0    0 -0.23209675768E+02 -0.14854856210E+02  0.33530107093E+02  0.47787264016E+02  0.19999967956E+02 0.  0.
         12    1    1    2    0    0  0.23209675768E+02  0.14854856210E+02 -0.33530107093E+02  0.43400735984E+02  0.00000000000E+00 0. -1.
         11    1    3    3    0    0  0.13768632182E+01 -0.67290746718E+01  0.79467079214E+01  0.10503635814E+02  0.51100000000E-03 0. -1.
        -11    1    3    3    0    0 -0.61675095597E+01  0.78864733482E+00  0.90299940640E+01  0.10963618556E+02  0.51100000000E-03 0.  1.
        -12    1    3    3    0    0 -0.18419029426E+02 -0.89144288733E+01  0.16553405107E+02  0.26320009646E+02  0.00000000000E+00 0.  1.
</event>
<event>
 7    1  0.1813014E-010  0.4778727E+02  0.7816164E-02  0.1312668E+00
        -11   -1    0    0    0    0  0.00000000000E+00  0.00000000000E+00  0.45593999997E+02  0.45594000000E+02  0.51100000000E-03 0.  1.
         11   -1    0    0    0    0 -0.00000000000E+00 -0.00000000000E+00 -0.45593999997E+02  0.45594000000E+02  0.51100000000E-03 0. -1.
    9900012    2    1    2    0    0 -0.95783845188E+01 -0.63970593950E+01  0.41844419572E+02  0.47787271109E+02  0.20000000295E+02 0.  0.
         12    1    1    2    0    0  0.95783845188E+01  0.63970593950E+01 -0.41844419572E+02  0.43400728891E+02  0.00000000000E+00 0. -1.
         11    1    3    3    0    0 -0.86975453508E+01 -0.19550429686E+01  0.17129284037E+02  0.19310149145E+02  0.51100000000E-03 0. -1.
        -11    1    3    3    0    0  0.33962171268E+01 -0.66181101439E+01  0.73355992950E+01  0.10447233602E+02  0.51100000000E-03 0.  1.
         12    1    3    3    0    0 -0.42770562948E+01  0.21760937175E+01  0.17379536241E+02  0.18029888362E+02  0.00000000000E+00 0. -1.
</event>
<event>
 7    1  0.1813014E-010  0.4778727E+02  0.7816164E-02  0.1312668E+00
        -11   -1    0    0    0    0  0.00000000000E+00  0.00000000000E+00  0.45593999997E+02  0.45594000000E+02  0.51100000000E-03 0. -1.
         11   -1    0    0    0    0 -0.00000000000E+00 -0.00000000000E+00 -0.45593999997E+02  0.45594000000E+02  0.51100000000E-03 0.  1.
    9900012    2    1    2    0    0  0.11381285113E+02  0.40540320767E+02 -0.10515341103E+02  0.47787266628E+02  0.19999979863E+02 0.  0.
         12    1    1    2    0    0 -0.11381285113E+02 -0.40540320767E+02  0.10515341103E+02  0.43400733372E+02  0.00000000000E+00 0. -1.
         11    1    3    3    0    0  0.43136010213E+00  0.62568917656E+01  0.28969064800E+01  0.69084610095E+01  0.51100000000E-03 0. -1.
        -11    1    3    3    0    0  0.53459392985E+01  0.32006510324E+02 -0.10116188385E+02  0.33990190317E+02  0.51100000000E-03 0.  1.
        -12    1    3    3    0    0  0.56039857123E+01  0.22769186776E+01 -0.32960591978E+01  0.68886153009E+01  0.00000000000E+00 0.  1.
</event>
<event>
 7    1  0.1813014E-010  0.4778728E+02  0.7816164E-02  0.1312668E+00
        -11   -1    0    0    0    0  0.00000000000E+00  0.00000000000E+00  0.45593999997E+02  0.45594000000E+02  0.51100000000E-03 0.  1.
         11   -1    0    0    0    0 -0.00000000000E+00 -0.00000000000E+00 -0.45593999997E+02  0.45594000000E+02  0.51100000000E-03 0. -1.
    9900012    2    1    2    0    0 -0.36413307878E+02  0.22245984217E+02  0.79252836079E+01  0.47787275068E+02  0.20000018344E+02 0.  0.
         12    1    1    2    0    0  0.36413307878E+02 -0.22245984217E+02 -0.79252836079E+01  0.43400724932E+02  0.00000000000E+00 0. -1.
         11    1    3    3    0    0 -0.13422198298E+02  0.11330321813E+02  0.68021241529E+00  0.17578233379E+02  0.51100000000E-03 0. -1.
        -11    1    3    3    0    0 -0.16547276362E+02 -0.11752059889E+00  0.42873776352E+01  0.17094085917E+02  0.51100000000E-03 0.  1.
        -12    1    3    3    0    0 -0.64438332180E+01  0.11033183003E+02  0.29576935574E+01  0.13114955772E+02  0.00000000000E+00 0.  1.
</event>
<event>
 7    1  0.1813014E-010  0.4778729E+02  0.7816164E-02  0.1312668E+00
        -11   -1    0    0    0    0  0.00000000000E+00  0.00000000000E+00  0.45593999997E+02  0.45594000000E+02  0.51100000000E-03 0.  1.
         11   -1    0    0    0    0 -0.00000000000E+00 -0.00000000000E+00 -0.45593999997E+02  0.45594000000E+02  0.51100000000E-03 0. -1.
    9900012    2    1    2    0    0 -0.22188863085E+02  0.37041209338E+02  0.43845786071E+01  0.47787293049E+02  0.20000100329E+02 0.  0.
         12    1    1    2    0    0  0.22188863085E+02 -0.37041209338E+02 -0.43845786071E+01  0.43400706951E+02  0.00000000000E+00 0. -1.
         11    1    3    3    0    0 -0.95331397367E+01  0.19984179077E+02 -0.67558292957E+01  0.23149285008E+02  0.51100000000E-03 0. -1.
        -11    1    3    3    0    0 -0.63191302162E+01  0.11568256821E+02  0.44507227279E+01  0.13912760532E+02  0.51100000000E-03 0.  1.
         12    1    3    3    0    0 -0.63365931322E+01  0.54887734402E+01  0.66896851750E+01  0.10725247510E+02  0.00000000000E+00 0. -1.
</event>
<event>
 7    1  0.1813014E-010  0.4778728E+02  0.7816164E-02  0.1312668E+00
        -11   -1    0    0    0    0  0.00000000000E+00  0.00000000000E+00  0.45593999997E+02  0.45594000000E+02  0.51100000000E-03 0.  1.
         11   -1    0    0    0    0 -0.00000000000E+00 -0.00000000000E+00 -0.45593999997E+02  0.45594000000E+02  0.51100000000E-03 0. -1.
    9900012    2    1    2    0    0 -0.30279280448E+00  0.17921452958E+02  0.39526601949E+02  0.47787280867E+02  0.20000044784E+02 0.  0.
         12    1    1    2    0    0  0.30279280448E+00 -0.17921452958E+02 -0.39526601949E+02  0.43400719133E+02  0.00000000000E+00 0. -1.
         11    1    3    3    0    0 -0.37672726475E+01 -0.16570855389E+01  0.14055626342E+02  0.14645781229E+02  0.51100000000E-03 0. -1.
        -11    1    3    3    0    0  0.46548149410E+01  0.10684524059E+02  0.18106605233E+02  0.21533125872E+02  0.51100000000E-03 0.  1.
        -12    1    3    3    0    0 -0.11903350980E+01  0.88940144383E+01  0.73643703752E+01  0.11608373766E+02  0.00000000000E+00 0.  1.
</event>
<event>
 7    1  0.1813014E-010  0.4778730E+02  0.7816164E-02  0.1312668E+00
        -11   -1    0    0    0    0  0.00000000000E+00  0.00000000000E+00  0.45593999997E+02  0.45594000000E+02  0.51100000000E-03 0.  1.
         11   -1    0    0    0    0 -0.00000000000E+00 -0.00000000000E+00 -0.45593999997E+02  0.45594000000E+02  0.51100000000E-03 0. -1.
    9900012    2    1    2    0    0  0.57328501567E+01  0.43017915191E+02  0.46241510342E+00  0.47787303853E+02  0.20000149587E+02 0.  0.
         12    1    1    2    0    0 -0.57328501567E+01 -0.43017915191E+02 -0.46241510342E+00  0.43400696147E+02  0.00000000000E+00 0. -1.
         11    1    3    3    0    0  0.53158428969E+01  0.18500061323E+02 -0.45455547085E+00  0.19254014532E+02  0.51100000000E-03 0. -1.
        -11    1    3    3    0    0 -0.22423717698E+01  0.11898093120E+02  0.73054569057E+01  0.14140811572E+02  0.51100000000E-03 0.  1.
        -12    1    3    3    0    0  0.26593790296E+01  0.12619760748E+02 -0.63884863315E+01  0.14392477749E+02  0.00000000000E+00 0.  1.
</event>
<event>
 7    1  0.1813014E-010  0.4778727E+02  0.7816164E-02  0.1312668E+00
        -11   -1    0    0    0    0  0.00000000000E+00  0.00000000000E+00  0.45593999997E+02  0.45594000000E+02  0.51100000000E-03 0. -1.
         11   -1    0    0    0    0 -0.00000000000E+00 -0.00000000000E+00 -0.45593999997E+02  0.45594000000E+02  0.51100000000E-03 0.  1.
    9900012    2    1    2    0    0  0.14477779655E+02 -0.37307250009E+02 -0.16798395002E+02  0.47787273259E+02  0.20000010099E+02 0.  0.
         12    1    1    2    0    0 -0.14477779655E+02  0.37307250009E+02  0.16798395002E+02  0.43400726741E+02  0.00000000000E+00 0. -1.
         11    1    3    3    0    0 -0.31713790143E+01 -0.43093605602E+01 -0.28879430222E+01  0.60801684558E+01  0.51100000000E-03 0. -1.
        -11    1    3    3    0    0  0.11589055261E+01  0.38820176318E-01 -0.29830178167E+01  0.32004631821E+01  0.51100000000E-03 0.  1.
        -12    1    3    3    0    0  0.16490253143E+02 -0.33036709625E+02 -0.10927434163E+02  0.38506641622E+02  0.00000000000E+00 0.  1.
</event>
<event>
 7    1  0.1813014E-010  0.4778730E+02  0.7816164E-02  0.1312668E+00
        -11   -1    0    0    0    0  0.00000000000E+00  0.00000000000E+00  0.45593999997E+02  0.45594000000E+02  0.51100000000E-03 0. -1.
         11   -1    0    0    0    0 -0.00000000000E+00 -0.00000000000E+00 -0.45593999997E+02  0.45594000000E+02  0.51100000000E-03 0.  1.
    9900012    2    1    2    0    0 -0.16838518188E+02 -0.38881635532E+02 -0.93969779786E+01  0.47787303329E+02  0.20000147197E+02 0.  0.
         12    1    1    2    0    0  0.16838518188E+02  0.38881635532E+02  0.93969779786E+01  0.43400696671E+02  0.00000000000E+00 0. -1.
         11    1    3    3    0    0 -0.39789177076E+01 -0.67380664557E+01  0.37824971119E+01  0.86914101472E+01  0.51100000000E-03 0. -1.
        -11    1    3    3    0    0 -0.10862615951E+02 -0.32565801915E+02 -0.10860646554E+02  0.36006687206E+02  0.51100000000E-03 0.  1.
         12    1    3    3    0    0 -0.19969845294E+01  0.42223283923E+00 -0.23188285363E+01  0.30892059759E+01  0.00000000000E+00 0. -1.
</event>
<event>
 7    1  0.1813014E-010  0.4778728E+02  0.7816164E-02  0.1312668E+00
        -11   -1    0    0    0    0  0.00000000000E+00  0.00000000000E+00  0.45593999997E+02  0.45594000000E+02  0.51100000000E-03 0. -1.
         11   -1    0    0    0    0 -0.00000000000E+00 -0.00000000000E+00 -0.45593999997E+02  0.45594000000E+02  0.51100000000E-03 0.  1.
    9900012    2    1    2    0    0  0.33831335909E+02 -0.11618026363E+02 -0.24578142421E+02  0.47787275226E+02  0.20000019067E+02 0.  0.
         12    1    1    2    0    0 -0.33831335909E+02  0.11618026363E+02  0.24578142421E+02  0.43400724774E+02  0.00000000000E+00 0. -1.
         11    1    3    3    0    0  0.81634105623E+00 -0.35429614386E+01 -0.21525514243E+00  0.36421591828E+01  0.51100000000E-03 0. -1.
        -11    1    3    3    0    0  0.14895595449E+02  0.34778265503E+01 -0.92811980369E+01  0.17891748896E+02  0.51100000000E-03 0.  1.
        -12    1    3    3    0    0  0.18119399405E+02 -0.11552891475E+02 -0.15081689242E+02  0.26253367148E+02  0.00000000000E+00 0.  1.
</event>
<event>
 7    1  0.1813014E-010  0.4778727E+02  0.7816164E-02  0.1312668E+00
        -11   -1    0    0    0    0  0.00000000000E+00  0.00000000000E+00  0.45593999997E+02  0.45594000000E+02  0.51100000000E-03 0.  1.
         11   -1    0    0    0    0 -0.00000000000E+00 -0.00000000000E+00 -0.45593999997E+02  0.45594000000E+02  0.51100000000E-03 0. -1.
    9900012    2    1    2    0    0 -0.16454101687E+02  0.33979576466E+02  0.21407346019E+02  0.47787267947E+02  0.19999985877E+02 0.  0.
         12    1    1    2    0    0  0.16454101687E+02 -0.33979576466E+02 -0.21407346019E+02  0.43400732053E+02  0.00000000000E+00 0. -1.
         11    1    3    3    0    0 -0.33271309595E+01  0.25649049900E+01 -0.31199519027E+01  0.52328422646E+01  0.51100000000E-03 0. -1.
        -11    1    3    3    0    0 -0.32492550507E+01  0.91324672656E+01  0.33193360947E+01  0.10245858144E+02  0.51100000000E-03 0.  1.
         12    1    3    3    0    0 -0.98777156772E+01  0.22282204211E+02  0.21207961827E+02  0.32308567538E+02  0.00000000000E+00 0. -1.
</event>
<event>
 7    1  0.1813014E-010  0.4778727E+02  0.7816164E-02  0.1312668E+00
        -11   -1    0    0    0    0  0.00000000000E+00  0.00000000000E+00  0.45593999997E+02  0.45594000000E+02  0.51100000000E-03 0. -1.
         11   -1    0    0    0    0 -0.00000000000E+00 -0.00000000000E+00 -0.45593999997E+02  0.45594000000E+02  0.51100000000E-03 0.  1.
    9900012    2    1    2    0    0 -0.10438615140E+02 -0.13613878402E+02 -0.39866288034E+02  0.47787270827E+02  0.19999999007E+02 0.  0.
         12    1    1    2    0    0  0.10438615140E+02  0.13613878402E+02  0.39866288034E+02  0.43400729173E+02  0.00000000000E+00 0. -1.
         11    1    3    3    0    0 -0.52951446060E+01 -0.62823705309E+01 -0.25155997228E+02  0.26463766412E+02  0.51100000000E-03 0.  1.
        -11    1    3    3    0    0 -0.66281116564E+01 -0.79052449710E+01 -0.49645490195E+01  0.11448646619E+02  0.51100000000E-03 0. -1.
         12    1    3    3    0    0  0.14846411225E+01  0.57373710031E+00 -0.97457417865E+01  0.98748577960E+01  0.00000000000E+00 0. -1.
</event>
<event>
 7    1  0.1813014E-010  0.4778727E+02  0.7816164E-02  0.1312668E+00
        -11   -1    0    0    0    0  0.00000000000E+00  0.00000000000E+00  0.45593999997E+02  0.45594000000E+02  0.51100000000E-03 0.  1.
         11   -1    0    0    0    0 -0.00000000000E+00 -0.00000000000E+00 -0.45593999997E+02  0.45594000000E+02  0.51100000000E-03 0. -1.
    9900012    2    1    2    0    0 -0.35812649651E+02 -0.20268821701E+02  0.13793198266E+02  0.47787270437E+02  0.19999997230E+02 0.  0.
         12    1    1    2    0    0  0.35812649651E+02  0.20268821701E+02 -0.13793198266E+02  0.43400729563E+02  0.00000000000E+00 0. -1.
         11    1    3    3    0    0 -0.42653716025E+01 -0.27564298860E+01 -0.10873067146E+01  0.51936053736E+01  0.51100000000E-03 0. -1.
        -11    1    3    3    0    0 -0.16578719297E+02 -0.10983568938E+02 -0.86903129085E+00  0.19905977389E+02  0.51100000000E-03 0.  1.
         12    1    3    3    0    0 -0.14968558752E+02 -0.65288228771E+01  0.15749536272E+02  0.22687687675E+02  0.00000000000E+00 0. -1.
</event>
<event>
 7    1  0.1813014E-010  0.4778727E+02  0.7816164E-02  0.1312668E+00
        -11   -1    0    0    0    0  0.00000000000E+00  0.00000000000E+00  0.45593999997E+02  0.45594000000E+02  0.51100000000E-03 0.  1.
         11   -1    0    0    0    0 -0.00000000000E+00 -0.00000000000E+00 -0.45593999997E+02  0.45594000000E+02  0.51100000000E-03 0. -1.
    9900012    2    1    2    0    0 -0.19524181067E+02  0.37362379794E+02  0.10319019478E+02  0.47787271514E+02  0.20000002139E+02 0.  0.
         12    1    1    2    0    0  0.19524181067E+02 -0.37362379794E+02 -0.10319019478E+02  0.43400728486E+02  0.00000000000E+00 0. -1.
         11    1    3    3    0    0 -0.97691799399E+01  0.13767889835E+02  0.27368917569E+00  0.16883914630E+02  0.51100000000E-03 0. -1.
        -11    1    3    3    0    0 -0.29296524888E+01  0.19987451502E+02  0.11199296253E+02  0.23097734047E+02  0.51100000000E-03 0.  1.
         12    1    3    3    0    0 -0.68253486379E+01  0.36070384558E+01 -0.11539659511E+01  0.78056228366E+01  0.00000000000E+00 0. -1.
</event>
<event>
 7    1  0.1813014E-010  0.4778726E+02  0.7816164E-02  0.1312668E+00
        -11   -1    0    0    0    0  0.00000000000E+00  0.00000000000E+00  0.45593999997E+02  0.45594000000E+02  0.51100000000E-03 0. -1.
         11   -1    0    0    0    0 -0.00000000000E+00 -0.00000000000E+00 -0.45593999997E+02  0.45594000000E+02  0.51100000000E-03 0.  1.
    9900012    2    1    2    0    0 -0.25296697328E+02 -0.33709539599E+02  0.10361856816E+02  0.47787262306E+02  0.19999960159E+02 0.  0.
         12    1    1    2    0    0  0.25296697328E+02  0.33709539599E+02 -0.10361856816E+02  0.43400737694E+02  0.00000000000E+00 0. -1.
         11    1    3    3    0    0 -0.11689416764E+01 -0.36125929285E+01  0.48233655595E+01  0.61385753959E+01  0.51100000000E-03 0. -1.
        -11    1    3    3    0    0 -0.23539476064E+02 -0.20768996380E+02  0.70680565379E+01  0.32177873881E+02  0.51100000000E-03 0.  1.
        -12    1    3    3    0    0 -0.58827958792E+00 -0.93279502905E+01 -0.15295652816E+01  0.94708130299E+01  0.00000000000E+00 0.  1.
</event>
<event>
 7    1  0.1813014E-010  0.4778727E+02  0.7816164E-02  0.1312668E+00
        -11   -1    0    0    0    0  0.00000000000E+00  0.00000000000E+00  0.45593999997E+02  0.45594000000E+02  0.51100000000E-03 0.  1.
         11   -1    0    0    0    0 -0.00000000000E+00 -0.00000000000E+00 -0.45593999997E+02  0.45594000000E+02  0.51100000000E-03 0. -1.
    9900012    2    1    2    0    0 -0.63236147286E+01 -0.29540845839E+02  0.31160448692E+02  0.47787271448E+02  0.20000001842E+02 0.  0.
         12    1    1    2    0    0  0.63236147286E+01  0.29540845839E+02 -0.31160448692E+02  0.43400728552E+02  0.00000000000E+00 0. -1.
         11    1    3    3    0    0  0.52265787657E+01 -0.12242179436E+02  0.15277516093E+02  0.20263034846E+02  0.51100000000E-03 0. -1.
        -11    1    3    3    0    0 -0.60614894648E+01 -0.13659645642E+02  0.70957019629E+01  0.16543172616E+02  0.51100000000E-03 0.  1.
        -12    1    3    3    0    0 -0.54887040295E+01 -0.36390207614E+01  0.87872306361E+01  0.10981063987E+02  0.00000000000E+00 0.  1.
</event>
<event>
 7    1  0.1813014E-010  0.4778727E+02  0.7816164E-02  0.1312668E+00
        -11   -1    0    0    0    0  0.00000000000E+00  0.00000000000E+00  0.45593999997E+02  0.45594000000E+02  0.51100000000E-03 0. -1.
         11   -1    0    0    0    0 -0.00000000000E+00 -0.00000000000E+00 -0.45593999997E+02  0.45594000000E+02  0.51100000000E-03 0.  1.
    9900012    2    1    2    0    0 -0.31276138200E+02  0.88947623553E+01 -0.28745600115E+02  0.47787272540E+02  0.20000006818E+02 0.  0.
         12    1    1    2    0    0  0.31276138200E+02 -0.88947623553E+01  0.28745600115E+02  0.43400727460E+02  0.00000000000E+00 0. -1.
         11    1    3    3    0    0 -0.33294897733E+01  0.90884295238E+01 -0.44198843533E+01  0.10640508978E+02  0.51100000000E-03 0. -1.
        -11    1    3    3    0    0 -0.14273671212E+02  0.12265878566E+01 -0.12573877419E+02  0.19061600176E+02  0.51100000000E-03 0.  1.
         12    1    3    3    0    0 -0.13672977215E+02 -0.14202550252E+01 -0.11751838343E+02  0.18085163386E+02  0.00000000000E+00 0. -1.
</event>
<event>
 7    1  0.1813014E-010  0.4778728E+02  0.7816164E-02  0.1312668E+00
        -11   -1    0    0    0    0  0.00000000000E+00  0.00000000000E+00  0.45593999997E+02  0.45594000000E+02  0.51100000000E-03 0.  1.
         11   -1    0    0    0    0 -0.00000000000E+00 -0.00000000000E+00 -0.45593999997E+02  0.45594000000E+02  0.51100000000E-03 0. -1.
    9900012    2    1    2    0    0 -0.25967370025E+02 -0.25779117104E+02  0.23340002086E+02  0.47787275558E+02  0.20000020579E+02 0.  0.
         12    1    1    2    0    0  0.25967370025E+02  0.25779117104E+02 -0.23340002086E+02  0.43400724442E+02  0.00000000000E+00 0. -1.
         11    1    3    3    0    0 -0.13246636844E+02 -0.68546004263E+01  0.63858771585E+01  0.16224622092E+02  0.51100000000E-03 0. -1.
        -11    1    3    3    0    0  0.56089820198E+00 -0.46901417196E+01 -0.12744221680E+01  0.48924623930E+01  0.51100000000E-03 0.  1.
        -12    1    3    3    0    0 -0.13281631383E+02 -0.14234374958E+02  0.18228547096E+02  0.26670191073E+02  0.00000000000E+00 0.  1.
</event>
<event>
 7    1  0.1813014E-010  0.4778728E+02  0.7816164E-02  0.1312668E+00
        -11   -1    0    0    0    0  0.00000000000E+00  0.00000000000E+00  0.45593999997E+02  0.45594000000E+02  0.51100000000E-03 0.  1.
         11   -1    0    0    0    0 -0.00000000000E+00 -0.00000000000E+00 -0.45593999997E+02  0.45594000000E+02  0.51100000000E-03 0. -1.
    9900012    2    1    2    0    0 -0.27280012420E+02 -0.10134103434E+01  0.33740133386E+02  0.47787277897E+02  0.20000031243E+02 0.  0.
         12    1    1    2    0    0  0.27280012420E+02  0.10134103434E+01 -0.33740133386E+02  0.43400722103E+02  0.00000000000E+00 0. -1.
         11    1    3    3    0    0 -0.14259061355E+00 -0.87450009809E+00 -0.80148804150E+00  0.11947660216E+01  0.51100000000E-03 0. -1.
        -11    1    3    3    0    0 -0.28923637552E+02 -0.14980176133E+01  0.31237527650E+02  0.42598168974E+02  0.51100000000E-03 0.  1.
         12    1    3    3    0    0  0.17862157447E+01  0.13591073681E+01  0.33040937772E+01  0.39943429013E+01  0.00000000000E+00 0. -1.
</event>
<event>
 7    1  0.1813014E-010  0.4778727E+02  0.7816164E-02  0.1312668E+00
        -11   -1    0    0    0    0  0.00000000000E+00  0.00000000000E+00  0.45593999997E+02  0.45594000000E+02  0.51100000000E-03 0.  1.
         11   -1    0    0    0    0 -0.00000000000E+00 -0.00000000000E+00 -0.45593999997E+02  0.45594000000E+02  0.51100000000E-03 0. -1.
    9900012    2    1    2    0    0 -0.29788381425E+02 -0.19257036426E+02  0.25008838338E+02  0.47787272876E+02  0.20000008352E+02 0.  0.
         12    1    1    2    0    0  0.29788381425E+02  0.19257036426E+02 -0.25008838338E+02  0.43400727124E+02  0.00000000000E+00 0. -1.
         11    1    3    3    0    0 -0.15872178606E+02 -0.86332745542E+01  0.16458047353E+02  0.24440270174E+02  0.51100000000E-03 0.  1.
        -11    1    3    3    0    0 -0.14651819658E+02 -0.56858100011E+01  0.32188375670E+01  0.16042604845E+02  0.51100000000E-03 0. -1.
         12    1    3    3    0    0  0.73561683920E+00 -0.49379518710E+01  0.53319534176E+01  0.73043978576E+01  0.00000000000E+00 0. -1.
</event>
<event>
 7    1  0.1813014E-010  0.4778727E+02  0.7816164E-02  0.1312668E+00
        -11   -1    0    0    0    0  0.00000000000E+00  0.00000000000E+00  0.45593999997E+02  0.45594000000E+02  0.51100000000E-03 0. -1.
         11   -1    0    0    0    0 -0.00000000000E+00 -0.00000000000E+00 -0.45593999997E+02  0.45594000000E+02  0.51100000000E-03 0.  1.
    9900012    2    1    2    0    0 -0.40224166554E+02 -0.16011684619E+02  0.30439180327E+01  0.47787273551E+02  0.20000011431E+02 0.  0.
         12    1    1    2    0    0  0.40224166554E+02  0.16011684619E+02 -0.30439180327E+01  0.43400726449E+02  0.00000000000E+00 0. -1.
         11    1    3    3    0    0 -0.16130901117E+02 -0.27373767728E+01 -0.26454701052E+01  0.16574007204E+02  0.51100000000E-03 0.  1.
        -11    1    3    3    0    0 -0.88191344030E+00 -0.59234360523E+01 -0.73170344248E+00  0.60332624815E+01  0.51100000000E-03 0. -1.
         12    1    3    3    0    0 -0.23211351996E+02 -0.73508717934E+01  0.64210915804E+01  0.25180003866E+02  0.00000000000E+00 0. -1.
</event>
<event>
 7    1  0.1813014E-010  0.4778727E+02  0.7816164E-02  0.1312668E+00
        -11   -1    0    0    0    0  0.00000000000E+00  0.00000000000E+00  0.45593999997E+02  0.45594000000E+02  0.51100000000E-03 0.  1.
         11   -1    0    0    0    0 -0.00000000000E+00 -0.00000000000E+00 -0.45593999997E+02  0.45594000000E+02  0.51100000000E-03 0. -1.
    9900012    2    1    2    0    0  0.36644199167E+02  0.55070668011E+01  0.22594205918E+02  0.47787271222E+02  0.20000000812E+02 0.  0.
         12    1    1    2    0    0 -0.36644199167E+02 -0.55070668011E+01 -0.22594205918E+02  0.43400728778E+02  0.00000000000E+00 0. -1.
         11    1    3    3    0    0  0.11640516369E+02 -0.15376212796E+01  0.13709769096E+01  0.11821399176E+02  0.51100000000E-03 0. -1.
        -11    1    3    3    0    0  0.26364229315E+02  0.69323245094E+01  0.18577469432E+02  0.32988665951E+02  0.51100000000E-03 0.  1.
        -12    1    3    3    0    0 -0.13605465169E+01  0.11236357131E+00  0.26457595760E+01  0.29772060948E+01  0.00000000000E+00 0.  1.
</event>
<event>
 7    1  0.1813014E-010  0.4778727E+02  0.7816164E-02  0.1312668E+00
        -11   -1    0    0    0    0  0.00000000000E+00  0.00000000000E+00  0.45593999997E+02  0.45594000000E+02  0.51100000000E-03 0. -1.
         11   -1    0    0    0    0 -0.00000000000E+00 -0.00000000000E+00 -0.45593999997E+02  0.45594000000E+02  0.51100000000E-03 0.  1.
    9900012    2    1    2    0    0 -0.41526571193E+02  0.12503532196E+02 -0.16818376553E+01  0.47787274081E+02  0.20000013845E+02 0.  0.
         12    1    1    2    0    0  0.41526571193E+02 -0.12503532196E+02  0.16818376553E+01  0.43400725919E+02  0.00000000000E+00 0. -1.
         11    1    3    3    0    0 -0.50393803280E+00  0.60021847894E+01  0.89722962820E-01  0.60239709709E+01  0.51100000000E-03 0. -1.
        -11    1    3    3    0    0 -0.17754061429E+02  0.26654443320E+01 -0.27393587953E+01  0.18160819849E+02  0.51100000000E-03 0.  1.
         12    1    3    3    0    0 -0.23268571731E+02  0.38359030751E+01  0.96779817715E+00  0.23602483261E+02  0.00000000000E+00 0. -1.
</event>
<event>
 7    1  0.1813014E-010  0.4778721E+02  0.7816164E-02  0.1312668E+00
        -11   -1    0    0    0    0  0.00000000000E+00  0.00000000000E+00  0.45593999997E+02  0.45594000000E+02  0.51100000000E-03 0.  1.
         11   -1    0    0    0    0 -0.00000000000E+00 -0.00000000000E+00 -0.45593999997E+02  0.45594000000E+02  0.51100000000E-03 0. -1.
    9900012    2    1    2    0    0 -0.75426846432E+01  0.37127022402E+02  0.21173584943E+02  0.47787209875E+02  0.19999721104E+02 0.  0.
         12    1    1    2    0    0  0.75426846432E+01 -0.37127022402E+02 -0.21173584943E+02  0.43400790125E+02  0.00000000000E+00 0. -1.
         11    1    3    3    0    0  0.19025512582E+01 -0.15010905171E+01  0.19653642732E+01  0.31201972723E+01  0.51100000000E-03 0. -1.
        -11    1    3    3    0    0 -0.45063703569E+01  0.11898699630E+02  0.31930256693E+01  0.13117996793E+02  0.51100000000E-03 0.  1.
         12    1    3    3    0    0 -0.49388655445E+01  0.26729413290E+02  0.16015195001E+02  0.31549015810E+02  0.00000000000E+00 0. -1.
</event>
<event>
 7    1  0.1813014E-010  0.4778727E+02  0.7816164E-02  0.1312668E+00
        -11   -1    0    0    0    0  0.00000000000E+00  0.00000000000E+00  0.45593999997E+02  0.45594000000E+02  0.51100000000E-03 0.  1.
         11   -1    0    0    0    0 -0.00000000000E+00 -0.00000000000E+00 -0.45593999997E+02  0.45594000000E+02  0.51100000000E-03 0. -1.
    9900012    2    1    2    0    0  0.13029803200E+02 -0.30917772853E+01  0.41283026468E+02  0.47787272672E+02  0.20000007421E+02 0.  0.
         12    1    1    2    0    0 -0.13029803200E+02  0.30917772853E+01 -0.41283026468E+02  0.43400727328E+02  0.00000000000E+00 0. -1.
         11    1    3    3    0    0 -0.27492896629E+01  0.11449101317E+01  0.14487117931E+01  0.33118241168E+01  0.51100000000E-03 0. -1.
        -11    1    3    3    0    0  0.11025758526E+02 -0.13489500088E+01  0.13131241813E+02  0.17199317691E+02  0.51100000000E-03 0.  1.
         12    1    3    3    0    0  0.47533343366E+01 -0.28877374082E+01  0.26703072862E+02  0.27276130865E+02  0.00000000000E+00 0. -1.
</event>
<event>
 7    1  0.1813014E-010  0.4778727E+02  0.7816164E-02  0.1312668E+00
        -11   -1    0    0    0    0  0.00000000000E+00  0.00000000000E+00  0.45593999997E+02  0.45594000000E+02  0.51100000000E-03 0.  1.
         11   -1    0    0    0    0 -0.00000000000E+00 -0.00000000000E+00 -0.45593999997E+02  0.45594000000E+02  0.51100000000E-03 0. -1.
    9900012    2    1    2    0    0 -0.22753156084E+02 -0.30824174052E+02  0.20390866468E+02  0.47787271284E+02  0.20000001093E+02 0.  0.
         12    1    1    2    0    0  0.22753156084E+02  0.30824174052E+02 -0.20390866468E+02  0.43400728716E+02  0.00000000000E+00 0. -1.
         11    1    3    3    0    0 -0.15084522389E+02 -0.16155763929E+02  0.12368904934E+02  0.25328666238E+02  0.51100000000E-03 0. -1.
        -11    1    3    3    0    0 -0.15003672556E+01  0.21898427094E+01  0.25771591469E+01  0.36997651984E+01  0.51100000000E-03 0.  1.
         12    1    3    3    0    0 -0.61682664393E+01 -0.16858252832E+02  0.54448023863E+01  0.18758839848E+02  0.00000000000E+00 0. -1.
</event>
<event>
 7    1  0.1813014E-010  0.4778730E+02  0.7816164E-02  0.1312668E+00
        -11   -1    0    0    0    0  0.00000000000E+00  0.00000000000E+00  0.45593999997E+02  0.45594000000E+02  0.51100000000E-03 0.  1.
         11   -1    0    0    0    0 -0.00000000000E+00 -0.00000000000E+00 -0.45593999997E+02  0.45594000000E+02  0.51100000000E-03 0. -1.
    9900012    2    1    2    0    0 -0.28229949277E+02  0.31039285120E+02  0.11101978882E+02  0.47787295028E+02  0.20000109352E+02 0.  0.
         12    1    1    2    0    0  0.28229949277E+02 -0.31039285120E+02 -0.11101978882E+02  0.43400704972E+02  0.00000000000E+00 0. -1.
         11    1    3    3    0    0 -0.14023557364E+02  0.92245020405E+01 -0.12773478656E+01  0.16833989927E+02  0.51100000000E-03 0. -1.
        -11    1    3    3    0    0 -0.13524444706E+02  0.12709300640E+02  0.11374210263E+02  0.21767167632E+02  0.51100000000E-03 0.  1.
        -12    1    3    3    0    0 -0.68194720673E+00  0.91054824397E+01  0.10051164849E+01  0.91861374691E+01  0.00000000000E+00 0.  1.
</event>
<event>
 7    1  0.1813014E-010  0.4778727E+02  0.7816164E-02  0.1312668E+00
        -11   -1    0    0    0    0  0.00000000000E+00  0.00000000000E+00  0.45593999997E+02  0.45594000000E+02  0.51100000000E-03 0. -1.
         11   -1    0    0    0    0 -0.00000000000E+00 -0.00000000000E+00 -0.45593999997E+02  0.45594000000E+02  0.51100000000E-03 0.  1.
    9900012    2    1    2    0    0  0.14108774353E+02 -0.39752804746E+02  0.10211765550E+02  0.47787272419E+02  0.20000006268E+02 0.  0.
         12    1    1    2    0    0 -0.14108774353E+02  0.39752804746E+02 -0.10211765550E+02  0.43400727581E+02  0.00000000000E+00 0. -1.
         11    1    3    3    0    0  0.59975996356E+00  0.21437091925E+01  0.25792280620E-01  0.22261775802E+01  0.51100000000E-03 0. -1.
        -11    1    3    3    0    0  0.70165023073E+01 -0.14231918304E+02  0.52903523677E+01  0.16726225864E+02  0.51100000000E-03 0.  1.
         12    1    3    3    0    0  0.64925120817E+01 -0.27664595635E+02  0.48956209015E+01  0.28834868975E+02  0.00000000000E+00 0. -1.
</event>
<event>
 7    1  0.1813014E-010  0.4778732E+02  0.7816164E-02  0.1312668E+00
        -11   -1    0    0    0    0  0.00000000000E+00  0.00000000000E+00  0.45593999997E+02  0.45594000000E+02  0.51100000000E-03 0.  1.
         11   -1    0    0    0    0 -0.00000000000E+00 -0.00000000000E+00 -0.45593999997E+02  0.45594000000E+02  0.51100000000E-03 0. -1.
    9900012    2    1    2    0    0  0.42512769407E+01  0.37801255261E+02  0.20895225247E+02  0.47787323818E+02  0.20000240615E+02 0.  0.
         12    1    1    2    0    0 -0.42512769407E+01 -0.37801255261E+02 -0.20895225247E+02  0.43400676182E+02  0.00000000000E+00 0. -1.
         11    1    3    3    0    0  0.53206628116E+01  0.11230394533E+02 -0.17157775794E+01  0.12544923559E+02  0.51100000000E-03 0. -1.
        -11    1    3    3    0    0 -0.15284489134E+01  0.18185749541E+02  0.12606835772E+02  0.22180846487E+02  0.51100000000E-03 0.  1.
        -12    1    3    3    0    0  0.45906304242E+00  0.83851111865E+01  0.10004167055E+02  0.13061553772E+02  0.00000000000E+00 0.  1.
</event>
<event>
 7    1  0.1813014E-010  0.4778730E+02  0.7816164E-02  0.1312668E+00
        -11   -1    0    0    0    0  0.00000000000E+00  0.00000000000E+00  0.45593999997E+02  0.45594000000E+02  0.51100000000E-03 0.  1.
         11   -1    0    0    0    0 -0.00000000000E+00 -0.00000000000E+00 -0.45593999997E+02  0.45594000000E+02  0.51100000000E-03 0. -1.
    9900012    2    1    2    0    0  0.70955631607E+01  0.12679303563E+02  0.40896320062E+02  0.47787300121E+02  0.20000132571E+02 0.  0.
         12    1    1    2    0    0 -0.70955631607E+01 -0.12679303563E+02 -0.40896320062E+02  0.43400699879E+02  0.00000000000E+00 0. -1.
         11    1    3    3    0    0  0.38083144657E+01  0.10164495239E+02  0.13327370307E+02  0.17188339713E+02  0.51100000000E-03 0.  1.
        -11    1    3    3    0    0 -0.48641821695E+01  0.95538792135E+00  0.95167386932E+01  0.10730393743E+02  0.51100000000E-03 0. -1.
         12    1    3    3    0    0  0.81514308645E+01  0.15594204029E+01  0.18052211061E+02  0.19868566665E+02  0.00000000000E+00 0. -1.
</event>
<event>
 7    1  0.1813014E-010  0.4778728E+02  0.7816164E-02  0.1312668E+00
        -11   -1    0    0    0    0  0.00000000000E+00  0.00000000000E+00  0.45593999997E+02  0.45594000000E+02  0.51100000000E-03 0. -1.
         11   -1    0    0    0    0 -0.00000000000E+00 -0.00000000000E+00 -0.45593999997E+02  0.45594000000E+02  0.51100000000E-03 0.  1.
    9900012    2    1    2    0    0 -0.69090716457E+01  0.34063104810E+02 -0.25992153409E+02  0.47787280892E+02  0.20000044899E+02 0.  0.
         12    1    1    2    0    0  0.69090716457E+01 -0.34063104810E+02  0.25992153409E+02  0.43400719108E+02  0.00000000000E+00 0. -1.
         11    1    3    3    0    0  0.22560011882E+01  0.33544249044E+01 -0.53777544866E+01  0.67277003039E+01  0.51100000000E-03 0. -1.
        -11    1    3    3    0    0 -0.59459104903E+01  0.94395050824E+01  0.15609154499E+00  0.11157171353E+02  0.51100000000E-03 0.  1.
        -12    1    3    3    0    0 -0.32191623436E+01  0.21269174823E+02 -0.20770490467E+02  0.29902409235E+02  0.00000000000E+00 0.  1.
</event>
<event>
 7    1  0.1813014E-010  0.4778727E+02  0.7816164E-02  0.1312668E+00
        -11   -1    0    0    0    0  0.00000000000E+00  0.00000000000E+00  0.45593999997E+02  0.45594000000E+02  0.51100000000E-03 0.  1.
         11   -1    0    0    0    0 -0.00000000000E+00 -0.00000000000E+00 -0.45593999997E+02  0.45594000000E+02  0.51100000000E-03 0. -1.
    9900012    2    1    2    0    0  0.71254589687E+01  0.20420812804E+02  0.37627671318E+02  0.47787269478E+02  0.19999992857E+02 0.  0.
         12    1    1    2    0    0 -0.71254589687E+01 -0.20420812804E+02 -0.37627671318E+02  0.43400730522E+02  0.00000000000E+00 0. -1.
         11    1    3    3    0    0  0.25120145327E+01  0.81418791419E+01  0.51537279994E+01  0.99579779838E+01  0.51100000000E-03 0. -1.
        -11    1    3    3    0    0  0.82885272680E+01  0.77308386098E+01  0.28732898226E+02  0.30887618727E+02  0.51100000000E-03 0.  1.
        -12    1    3    3    0    0 -0.36750828320E+01  0.45480950519E+01  0.37410450920E+01  0.69416727670E+01  0.00000000000E+00 0.  1.
</event>
<event>
 7    1  0.1813014E-010  0.4778727E+02  0.7816164E-02  0.1312668E+00
        -11   -1    0    0    0    0  0.00000000000E+00  0.00000000000E+00  0.45593999997E+02  0.45594000000E+02  0.51100000000E-03 0.  1.
         11   -1    0    0    0    0 -0.00000000000E+00 -0.00000000000E+00 -0.45593999997E+02  0.45594000000E+02  0.51100000000E-03 0. -1.
    9900012    2    1    2    0    0  0.20968325409E+02 -0.25794347165E+02  0.27903476325E+02  0.47787274118E+02  0.20000014012E+02 0.  0.
         12    1    1    2    0    0 -0.20968325409E+02  0.25794347165E+02 -0.27903476325E+02  0.43400725882E+02  0.00000000000E+00 0. -1.
         11    1    3    3    0    0  0.14188747429E+02 -0.12082439172E+02  0.82266289785E+01  0.20371139255E+02  0.51100000000E-03 0. -1.
        -11    1    3    3    0    0  0.25508288029E+01 -0.12010059169E+02  0.74361974770E+01  0.14354277481E+02  0.51100000000E-03 0.  1.
         12    1    3    3    0    0  0.42287491771E+01 -0.17018488233E+01  0.12240649869E+02  0.13061857381E+02  0.00000000000E+00 0. -1.
</event>
<event>
 7    1  0.1813014E-010  0.4778728E+02  0.7816164E-02  0.1312668E+00
        -11   -1    0    0    0    0  0.00000000000E+00  0.00000000000E+00  0.45593999997E+02  0.45594000000E+02  0.51100000000E-03 0. -1.
         11   -1    0    0    0    0 -0.00000000000E+00 -0.00000000000E+00 -0.45593999997E+02  0.45594000000E+02  0.51100000000E-03 0.  1.
    9900012    2    1    2    0    0  0.18621188377E+02 -0.29342904764E+02 -0.25997463382E+02  0.47787276286E+02  0.20000023897E+02 0.  0.
         12    1    1    2    0    0 -0.18621188377E+02  0.29342904764E+02  0.25997463382E+02  0.43400723714E+02  0.00000000000E+00 0. -1.
         11    1    3    3    0    0 -0.21112645094E+01 -0.22860786197E+01 -0.22477963472E+00  0.31199550364E+01  0.51100000000E-03 0. -1.
        -11    1    3    3    0    0  0.14326229217E+02 -0.19721151489E+02 -0.10471455026E+02  0.26529531286E+02  0.51100000000E-03 0.  1.
        -12    1    3    3    0    0  0.64062236693E+01 -0.73356746560E+01 -0.15301228722E+02  0.18137789963E+02  0.00000000000E+00 0.  1.
</event>
<event>
 7    1  0.1813014E-010  0.4778727E+02  0.7816164E-02  0.1312668E+00
        -11   -1    0    0    0    0  0.00000000000E+00  0.00000000000E+00  0.45593999997E+02  0.45594000000E+02  0.51100000000E-03 0.  1.
         11   -1    0    0    0    0 -0.00000000000E+00 -0.00000000000E+00 -0.45593999997E+02  0.45594000000E+02  0.51100000000E-03 0. -1.
    9900012    2    1    2    0    0  0.25420101391E+01 -0.20904038308E+02  0.37949735168E+02  0.47787273826E+02  0.20000012680E+02 0.  0.
         12    1    1    2    0    0 -0.25420101391E+01  0.20904038308E+02 -0.37949735168E+02  0.43400726174E+02  0.00000000000E+00 0. -1.
         11    1    3    3    0    0  0.19565288827E+01 -0.23254799118E+01 -0.13751888787E+00  0.30421659709E+01  0.51100000000E-03 0. -1.
        -11    1    3    3    0    0 -0.32958977053E+01 -0.89312662943E+01  0.65971208429E+01  0.11582420428E+02  0.51100000000E-03 0.  1.
         12    1    3    3    0    0  0.38813789616E+01 -0.96472921019E+01  0.31490133213E+02  0.33162687426E+02  0.00000000000E+00 0. -1.
</event>
<event>
 7    1  0.1813014E-010  0.4778726E+02  0.7816164E-02  0.1312668E+00
        -11   -1    0    0    0    0  0.00000000000E+00  0.00000000000E+00  0.45593999997E+02  0.45594000000E+02  0.51100000000E-03 0.  1.
         11   -1    0    0    0    0 -0.00000000000E+00 -0.00000000000E+00 -0.45593999997E+02  0.45594000000E+02  0.51100000000E-03 0. -1.
    9900012    2    1    2    0    0 -0.17777340415E+02 -0.22346938862E+02  0.32683399621E+02  0.47787261302E+02  0.19999955581E+02 0.  0.
         12    1    1    2    0    0  0.17777340415E+02  0.22346938862E+02 -0.32683399621E+02  0.43400738698E+02  0.00000000000E+00 0. -1.
         11    1    3    3    0    0 -0.86858843822E+01 -0.17437258076E+02  0.10075453704E+02  0.21932107156E+02  0.51100000000E-03 0. -1.
        -11    1    3    3    0    0 -0.44773030245E+01 -0.62965826479E+01  0.14035783391E+02  0.16021748066E+02  0.51100000000E-03 0.  1.
        -12    1    3    3    0    0 -0.46141530088E+01  0.13869018623E+01  0.85721625259E+01  0.98334060801E+01  0.00000000000E+00 0.  1.
</event>
<event>
 7    1  0.1813014E-010  0.4778728E+02  0.7816164E-02  0.1312668E+00
        -11   -1    0    0    0    0  0.00000000000E+00  0.00000000000E+00  0.45593999997E+02  0.45594000000E+02  0.51100000000E-03 0.  1.
         11   -1    0    0    0    0 -0.00000000000E+00 -0.00000000000E+00 -0.45593999997E+02  0.45594000000E+02  0.51100000000E-03 0. -1.
    9900012    2    1    2    0    0 -0.21396653927E+02 -0.17592931811E+02  0.33410991218E+02  0.47787281306E+02  0.20000046786E+02 0.  0.
         12    1    1    2    0    0  0.21396653927E+02  0.17592931811E+02 -0.33410991218E+02  0.43400718694E+02  0.00000000000E+00 0. -1.
         11    1    3    3    0    0  0.14814931577E+01 -0.46768859414E+01  0.74575265172E+00  0.49622808631E+01  0.51100000000E-03 0. -1.
        -11    1    3    3    0    0 -0.83154744367E+01 -0.26800339640E+01  0.16998473994E+02  0.19112242557E+02  0.51100000000E-03 0.  1.
        -12    1    3    3    0    0 -0.14562672648E+02 -0.10236011906E+02  0.15666764572E+02  0.23712757886E+02  0.00000000000E+00 0.  1.
</event>
<event>
 7    1  0.1813014E-010  0.4778726E+02  0.7816164E-02  0.1312668E+00
        -11   -1    0    0    0    0  0.00000000000E+00  0.00000000000E+00  0.45593999997E+02  0.45594000000E+02  0.51100000000E-03 0. -1.
         11   -1    0    0    0    0 -0.00000000000E+00 -0.00000000000E+00 -0.45593999997E+02  0.45594000000E+02  0.51100000000E-03 0.  1.
    9900012    2    1    2    0    0 -0.48366002977E+01  0.52811675207E+01 -0.42805846039E+02  0.47787263970E+02  0.19999967745E+02 0.  0.
         12    1    1    2    0    0  0.48366002977E+01 -0.52811675207E+01  0.42805846039E+02  0.43400736030E+02  0.00000000000E+00 0. -1.
         11    1    3    3    0    0  0.23460635444E+00 -0.53841986370E+01 -0.64330118926E+01  0.83921557049E+01  0.51100000000E-03 0. -1.
        -11    1    3    3    0    0 -0.66781777640E+01  0.58580917042E+01 -0.15033124750E+02  0.17461676228E+02  0.51100000000E-03 0.  1.
        -12    1    3    3    0    0  0.16069711119E+01  0.48072744535E+01 -0.21339709396E+02  0.21933432038E+02  0.00000000000E+00 0.  1.
</event>
<event>
 7    1  0.1813014E-010  0.4778727E+02  0.7816164E-02  0.1312668E+00
        -11   -1    0    0    0    0  0.00000000000E+00  0.00000000000E+00  0.45593999997E+02  0.45594000000E+02  0.51100000000E-03 0.  1.
         11   -1    0    0    0    0 -0.00000000000E+00 -0.00000000000E+00 -0.45593999997E+02  0.45594000000E+02  0.51100000000E-03 0. -1.
    9900012    2    1    2    0    0 -0.12709560898E+02 -0.31813923509E+02  0.26645161634E+02  0.47787270677E+02  0.19999998323E+02 0.  0.
         12    1    1    2    0    0  0.12709560898E+02  0.31813923509E+02 -0.26645161634E+02  0.43400729323E+02  0.00000000000E+00 0. -1.
         11    1    3    3    0    0 -0.51314512529E+01 -0.31533911807E+01  0.32997781612E+01  0.68676199715E+01  0.51100000000E-03 0. -1.
        -11    1    3    3    0    0  0.36405584588E+01 -0.14967246299E+02  0.73749959671E+01  0.17078134952E+02  0.51100000000E-03 0.  1.
        -12    1    3    3    0    0 -0.11218668104E+02 -0.13693286030E+02  0.15970387506E+02  0.23841515753E+02  0.00000000000E+00 0.  1.
</event>
<event>
 7    1  0.1813014E-010  0.4778721E+02  0.7816164E-02  0.1312668E+00
        -11   -1    0    0    0    0  0.00000000000E+00  0.00000000000E+00  0.45593999997E+02  0.45594000000E+02  0.51100000000E-03 0. -1.
         11   -1    0    0    0    0 -0.00000000000E+00 -0.00000000000E+00 -0.45593999997E+02  0.45594000000E+02  0.51100000000E-03 0.  1.
    9900012    2    1    2    0    0  0.14675527478E+02  0.40447109508E+02  0.56822990596E+01  0.47787213176E+02  0.19999736152E+02 0.  0.
         12    1    1    2    0    0 -0.14675527478E+02 -0.40447109508E+02 -0.56822990596E+01  0.43400786824E+02  0.00000000000E+00 0. -1.
         11    1    3    3    0    0  0.31463930435E+01  0.14962508910E+02  0.25093028640E+01  0.15494291310E+02  0.51100000000E-03 0. -1.
        -11    1    3    3    0    0  0.88397559748E+01  0.79065680665E+01 -0.48132686832E+01  0.12799322637E+02  0.51100000000E-03 0.  1.
        -12    1    3    3    0    0  0.26893784600E+01  0.17578032532E+02  0.79862648788E+01  0.19493599229E+02  0.00000000000E+00 0.  1.
</event>
<event>
 7    1  0.1813014E-010  0.4778727E+02  0.7816164E-02  0.1312668E+00
        -11   -1    0    0    0    0  0.00000000000E+00  0.00000000000E+00  0.45593999997E+02  0.45594000000E+02  0.51100000000E-03 0.  1.
         11   -1    0    0    0    0 -0.00000000000E+00 -0.00000000000E+00 -0.45593999997E+02  0.45594000000E+02  0.51100000000E-03 0. -1.
    9900012    2    1    2    0    0  0.23380352293E+02 -0.31780133725E+02  0.18083297238E+02  0.47787269455E+02  0.19999992752E+02 0.  0.
         12    1    1    2    0    0 -0.23380352293E+02  0.31780133725E+02 -0.18083297238E+02  0.43400730545E+02  0.00000000000E+00 0. -1.
         11    1    3    3    0    0  0.89963911838E+01 -0.52074738918E+01  0.28421249353E+01  0.10776386828E+02  0.51100000000E-03 0. -1.
        -11    1    3    3    0    0  0.96245722562E+01 -0.37097612811E+01  0.36689058260E+01  0.10947857786E+02  0.51100000000E-03 0.  1.
        -12    1    3    3    0    0  0.47593888526E+01 -0.22862898552E+02  0.11572266476E+02  0.26063024841E+02  0.00000000000E+00 0.  1.
</event>
<event>
 7    1  0.1813014E-010  0.4778727E+02  0.7816164E-02  0.1312668E+00
        -11   -1    0    0    0    0  0.00000000000E+00  0.00000000000E+00  0.45593999997E+02  0.45594000000E+02  0.51100000000E-03 0. -1.
         11   -1    0    0    0    0 -0.00000000000E+00 -0.00000000000E+00 -0.45593999997E+02  0.45594000000E+02  0.51100000000E-03 0.  1.
    9900012    2    1    2    0    0 -0.40358851809E+02  0.63636164333E+01 -0.14638670988E+02  0.47787271645E+02  0.20000002739E+02 0.  0.
         12    1    1    2    0    0  0.40358851809E+02 -0.63636164333E+01  0.14638670988E+02  0.43400728355E+02  0.00000000000E+00 0. -1.
         11    1    3    3    0    0 -0.61679628184E+01  0.35603653455E+01 -0.88495490711E+01  0.11359334740E+02  0.51100000000E-03 0. -1.
        -11    1    3    3    0    0 -0.10941506965E+01  0.26420879327E+01 -0.25124380896E+00  0.28706999327E+01  0.51100000000E-03 0.  1.
        -12    1    3    3    0    0 -0.33096738294E+02  0.16116315504E+00 -0.55378781077E+01  0.33557236972E+02  0.00000000000E+00 0.  1.
</event>
<event>
 7    1  0.1813014E-010  0.4778727E+02  0.7816164E-02  0.1312668E+00
        -11   -1    0    0    0    0  0.00000000000E+00  0.00000000000E+00  0.45593999997E+02  0.45594000000E+02  0.51100000000E-03 0.  1.
         11   -1    0    0    0    0 -0.00000000000E+00 -0.00000000000E+00 -0.45593999997E+02  0.45594000000E+02  0.51100000000E-03 0. -1.
    9900012    2    1    2    0    0  0.26114272968E+01  0.16282844365E+02  0.40145643339E+02  0.47787271294E+02  0.20000001136E+02 0.  0.
         12    1    1    2    0    0 -0.26114272968E+01 -0.16282844365E+02 -0.40145643339E+02  0.43400728706E+02  0.00000000000E+00 0. -1.
         11    1    3    3    0    0 -0.26277489465E+00  0.23723433928E+01  0.25944407458E+02  0.26053969802E+02  0.51100000000E-03 0. -1.
        -11    1    3    3    0    0  0.40037984598E+01  0.10402712537E+02  0.14194631657E+02  0.18048113430E+02  0.51100000000E-03 0.  1.
         12    1    3    3    0    0 -0.11295962683E+01  0.35077884353E+01  0.66042235511E-02  0.36851880620E+01  0.00000000000E+00 0. -1.
</event>
<event>
 7    1  0.1813014E-010  0.4778727E+02  0.7816164E-02  0.1312668E+00
        -11   -1    0    0    0    0  0.00000000000E+00  0.00000000000E+00  0.45593999997E+02  0.45594000000E+02  0.51100000000E-03 0.  1.
         11   -1    0    0    0    0 -0.00000000000E+00 -0.00000000000E+00 -0.45593999997E+02  0.45594000000E+02  0.51100000000E-03 0. -1.
    9900012    2    1    2    0    0  0.32199027822E+02  0.19038929286E+02  0.22008296791E+02  0.47787270183E+02  0.19999996071E+02 0.  0.
         12    1    1    2    0    0 -0.32199027822E+02 -0.19038929286E+02 -0.22008296791E+02  0.43400729817E+02  0.00000000000E+00 0. -1.
         11    1    3    3    0    0  0.15938327122E+02  0.47363115251E+01  0.89758432731E+00  0.16651383612E+02  0.51100000000E-03 0. -1.
        -11    1    3    3    0    0  0.92488217030E+01  0.97163047705E+01  0.81294266338E+01  0.15685498365E+02  0.51100000000E-03 0.  1.
        -12    1    3    3    0    0  0.70118789969E+01  0.45863129900E+01  0.12981285830E+02  0.15450388206E+02  0.00000000000E+00 0.  1.
</event>
<event>
 7    1  0.1813014E-010  0.4778728E+02  0.7816164E-02  0.1312668E+00
        -11   -1    0    0    0    0  0.00000000000E+00  0.00000000000E+00  0.45593999997E+02  0.45594000000E+02  0.51100000000E-03 0. -1.
         11   -1    0    0    0    0 -0.00000000000E+00 -0.00000000000E+00 -0.45593999997E+02  0.45594000000E+02  0.51100000000E-03 0.  1.
    9900012    2    1    2    0    0 -0.27929638709E+02 -0.28508366965E+02 -0.17053758883E+02  0.47787281141E+02  0.20000046035E+02 0.  0.
         12    1    1    2    0    0  0.27929638709E+02  0.28508366965E+02  0.17053758883E+02  0.43400718859E+02  0.00000000000E+00 0. -1.
         11    1    3    3    0    0 -0.18743823728E+02 -0.12998112358E+02 -0.72418389194E+01  0.23931696221E+02  0.51100000000E-03 0. -1.
        -11    1    3    3    0    0 -0.92529094018E+01 -0.15828891394E+02 -0.11824279170E+02  0.21817050977E+02  0.51100000000E-03 0.  1.
         12    1    3    3    0    0  0.67094421122E-01  0.31863678677E+00  0.20123592066E+01  0.20385339437E+01  0.00000000000E+00 0. -1.
</event>
<event>
 7    1  0.1813014E-010  0.4778729E+02  0.7816164E-02  0.1312668E+00
        -11   -1    0    0    0    0  0.00000000000E+00  0.00000000000E+00  0.45593999997E+02  0.45594000000E+02  0.51100000000E-03 0.  1.
         11   -1    0    0    0    0 -0.00000000000E+00 -0.00000000000E+00 -0.45593999997E+02  0.45594000000E+02  0.51100000000E-03 0. -1.
    9900012    2    1    2    0    0 -0.14275966750E+02  0.90113749861E+01  0.39982664970E+02  0.47787290283E+02  0.20000087717E+02 0.  0.
         12    1    1    2    0    0  0.14275966750E+02 -0.90113749861E+01 -0.39982664970E+02  0.43400709717E+02  0.00000000000E+00 0. -1.
         11    1    3    3    0    0  0.20614271442E+01  0.60861018278E+01  0.21557950309E+02  0.22495229252E+02  0.51100000000E-03 0. -1.
        -11    1    3    3    0    0 -0.53702907676E+01 -0.76270160192E+00  0.37034314686E+01  0.65678871462E+01  0.51100000000E-03 0.  1.
        -12    1    3    3    0    0 -0.10967103127E+02  0.36879747602E+01  0.14721283193E+02  0.18724173885E+02  0.00000000000E+00 0.  1.
</event>
<event>
 7    1  0.1813014E-010  0.4778727E+02  0.7816164E-02  0.1312668E+00
        -11   -1    0    0    0    0  0.00000000000E+00  0.00000000000E+00  0.45593999997E+02  0.45594000000E+02  0.51100000000E-03 0.  1.
         11   -1    0    0    0    0 -0.00000000000E+00 -0.00000000000E+00 -0.45593999997E+02  0.45594000000E+02  0.51100000000E-03 0. -1.
    9900012    2    1    2    0    0  0.78388227340E+01 -0.42653213503E+02  0.16969520154E+01  0.47787269475E+02  0.19999992845E+02 0.  0.
         12    1    1    2    0    0 -0.78388227340E+01  0.42653213503E+02 -0.16969520154E+01  0.43400730525E+02  0.00000000000E+00 0. -1.
         11    1    3    3    0    0  0.12926771704E+02 -0.20586870086E+02  0.52836334595E+00  0.24314600855E+02  0.51100000000E-03 0.  1.
        -11    1    3    3    0    0 -0.60429214643E+00 -0.12532757569E+02 -0.14103035890E+01  0.12626327168E+02  0.51100000000E-03 0. -1.
         12    1    3    3    0    0 -0.44836568236E+01 -0.95335858478E+01  0.25788922584E+01  0.10846341453E+02  0.00000000000E+00 0. -1.
</event>
<event>
 7    1  0.1813014E-010  0.4778726E+02  0.7816164E-02  0.1312668E+00
        -11   -1    0    0    0    0  0.00000000000E+00  0.00000000000E+00  0.45593999997E+02  0.45594000000E+02  0.51100000000E-03 0.  1.
         11   -1    0    0    0    0 -0.00000000000E+00 -0.00000000000E+00 -0.45593999997E+02  0.45594000000E+02  0.51100000000E-03 0. -1.
    9900012    2    1    2    0    0 -0.10237294405E+02 -0.15021390247E+02  0.39410400731E+02  0.47787262132E+02  0.19999959365E+02 0.  0.
         12    1    1    2    0    0  0.10237294405E+02  0.15021390247E+02 -0.39410400731E+02  0.43400737868E+02  0.00000000000E+00 0. -1.
         11    1    3    3    0    0 -0.15159650502E+01 -0.85153066299E+01  0.14435917782E+02  0.16828675512E+02  0.51100000000E-03 0. -1.
        -11    1    3    3    0    0 -0.82766438691E+01 -0.35339451737E+01  0.41358750009E+01  0.99043962214E+01  0.51100000000E-03 0.  1.
        -12    1    3    3    0    0 -0.44468548566E+00 -0.29721384436E+01  0.20838607948E+02  0.21054190398E+02  0.00000000000E+00 0.  1.
</event>
<event>
 7    1  0.1813014E-010  0.4778729E+02  0.7816164E-02  0.1312668E+00
        -11   -1    0    0    0    0  0.00000000000E+00  0.00000000000E+00  0.45593999997E+02  0.45594000000E+02  0.51100000000E-03 0. -1.
         11   -1    0    0    0    0 -0.00000000000E+00 -0.00000000000E+00 -0.45593999997E+02  0.45594000000E+02  0.51100000000E-03 0.  1.
    9900012    2    1    2    0    0  0.25755529512E+02 -0.37023179923E+01 -0.34735677856E+02  0.47787288312E+02  0.20000078727E+02 0.  0.
         12    1    1    2    0    0 -0.25755529512E+02  0.37023179923E+01  0.34735677856E+02  0.43400711688E+02  0.00000000000E+00 0. -1.
         11    1    3    3    0    0  0.18959489720E+02 -0.81491116363E+01 -0.19550557124E+02  0.28427003976E+02  0.51100000000E-03 0. -1.
        -11    1    3    3    0    0  0.19621069279E+01 -0.93419847063E+00 -0.10544835148E+02  0.10766435759E+02  0.51100000000E-03 0.  1.
        -12    1    3    3    0    0  0.48339328632E+01  0.53809921146E+01 -0.46402855835E+01  0.85938485767E+01  0.00000000000E+00 0.  1.
</event>
<event>
 7    1  0.1813014E-010  0.4778727E+02  0.7816164E-02  0.1312668E+00
        -11   -1    0    0    0    0  0.00000000000E+00  0.00000000000E+00  0.45593999997E+02  0.45594000000E+02  0.51100000000E-03 0. -1.
         11   -1    0    0    0    0 -0.00000000000E+00 -0.00000000000E+00 -0.45593999997E+02  0.45594000000E+02  0.51100000000E-03 0.  1.
    9900012    2    1    2    0    0 -0.11212954119E+02  0.22977223215E+02 -0.35070499148E+02  0.47787273771E+02  0.20000012430E+02 0.  0.
         12    1    1    2    0    0  0.11212954119E+02 -0.22977223215E+02  0.35070499148E+02  0.43400726229E+02  0.00000000000E+00 0. -1.
         11    1    3    3    0    0 -0.64368082772E+01  0.23017227178E+01 -0.53984249518E+00  0.68572486062E+01  0.51100000000E-03 0. -1.
        -11    1    3    3    0    0 -0.89155290096E+00  0.72660656499E+01 -0.17075829056E+02  0.18578872808E+02  0.51100000000E-03 0.  1.
        -12    1    3    3    0    0 -0.38845929412E+01  0.13409434847E+02 -0.17454827597E+02  0.22351152357E+02  0.00000000000E+00 0.  1.
</event>
<event>
 7    1  0.1813014E-010  0.4778727E+02  0.7816164E-02  0.1312668E+00
        -11   -1    0    0    0    0  0.00000000000E+00  0.00000000000E+00  0.45593999997E+02  0.45594000000E+02  0.51100000000E-03 0. -1.
         11   -1    0    0    0    0 -0.00000000000E+00 -0.00000000000E+00 -0.45593999997E+02  0.45594000000E+02  0.51100000000E-03 0.  1.
    9900012    2    1    2    0    0 -0.19015324073E+02 -0.17957163919E+01 -0.38971994967E+02  0.47787267993E+02  0.19999986089E+02 0.  0.
         12    1    1    2    0    0  0.19015324073E+02  0.17957163919E+01  0.38971994967E+02  0.43400732007E+02  0.00000000000E+00 0. -1.
         11    1    3    3    0    0 -0.20341773004E+02 -0.47713616266E+01 -0.24454407549E+02  0.32164758192E+02  0.51100000000E-03 0. -1.
        -11    1    3    3    0    0 -0.99457807662E+00  0.32273847359E+01 -0.74606271486E+01  0.81893928649E+01  0.51100000000E-03 0.  1.
         12    1    3    3    0    0  0.23210270071E+01 -0.25173950121E+00 -0.70569602701E+01  0.74331169369E+01  0.00000000000E+00 0. -1.
</event>
<event>
 7    1  0.1813014E-010  0.4778727E+02  0.7816164E-02  0.1312668E+00
        -11   -1    0    0    0    0  0.00000000000E+00  0.00000000000E+00  0.45593999997E+02  0.45594000000E+02  0.51100000000E-03 0.  1.
         11   -1    0    0    0    0 -0.00000000000E+00 -0.00000000000E+00 -0.45593999997E+02  0.45594000000E+02  0.51100000000E-03 0. -1.
    9900012    2    1    2    0    0 -0.16772821784E+02  0.36679819782E+02  0.16027677324E+02  0.47787272239E+02  0.20000005445E+02 0.  0.
         12    1    1    2    0    0  0.16772821784E+02 -0.36679819782E+02 -0.16027677324E+02  0.43400727761E+02  0.00000000000E+00 0. -1.
         11    1    3    3    0    0 -0.83598634761E+01  0.25870841768E+01  0.42320181631E+01  0.97206121140E+01  0.51100000000E-03 0. -1.
        -11    1    3    3    0    0 -0.19707329693E+01  0.12407875184E+02  0.19420496413E-01  0.12563420411E+02  0.51100000000E-03 0.  1.
        -12    1    3    3    0    0 -0.64422253383E+01  0.21684860421E+02  0.11776238664E+02  0.25503239713E+02  0.00000000000E+00 0.  1.
</event>
<event>
 7    1  0.1813014E-010  0.4778727E+02  0.7816164E-02  0.1312668E+00
        -11   -1    0    0    0    0  0.00000000000E+00  0.00000000000E+00  0.45593999997E+02  0.45594000000E+02  0.51100000000E-03 0.  1.
         11   -1    0    0    0    0 -0.00000000000E+00 -0.00000000000E+00 -0.45593999997E+02  0.45594000000E+02  0.51100000000E-03 0. -1.
    9900012    2    1    2    0    0  0.29324794461E+02  0.17371264656E+01  0.31947802231E+02  0.47787271366E+02  0.20000001468E+02 0.  0.
         12    1    1    2    0    0 -0.29324794461E+02 -0.17371264656E+01 -0.31947802231E+02  0.43400728634E+02  0.00000000000E+00 0. -1.
         11    1    3    3    0    0  0.35133546053E+01 -0.16231437200E+01  0.14982924177E-01  0.38702042410E+01  0.51100000000E-03 0. -1.
        -11    1    3    3    0    0  0.14386626916E+02 -0.23697694573E+01  0.26037053738E+02  0.29841565121E+02  0.51100000000E-03 0.  1.
         12    1    3    3    0    0  0.11424812940E+02  0.57300396429E+01  0.58957655694E+01  0.14075502004E+02  0.00000000000E+00 0. -1.
</event>
<event>
 7    1  0.1813014E-010  0.4778727E+02  0.7816164E-02  0.1312668E+00
        -11   -1    0    0    0    0  0.00000000000E+00  0.00000000000E+00  0.45593999997E+02  0.45594000000E+02  0.51100000000E-03 0.  1.
         11   -1    0    0    0    0 -0.00000000000E+00 -0.00000000000E+00 -0.45593999997E+02  0.45594000000E+02  0.51100000000E-03 0. -1.
    9900012    2    1    2    0    0  0.13011253699E+02  0.40703097983E+02  0.75887125817E+01  0.47787268821E+02  0.19999989863E+02 0.  0.
         12    1    1    2    0    0 -0.13011253699E+02 -0.40703097983E+02 -0.75887125817E+01  0.43400731179E+02  0.00000000000E+00 0. -1.
         11    1    3    3    0    0  0.59712160826E+00 -0.10592086270E+01 -0.21927021186E+01  0.25072734140E+01  0.51100000000E-03 0. -1.
        -11    1    3    3    0    0  0.20562866942E+01  0.11965742019E+02  0.58929746449E+01  0.13495719598E+02  0.51100000000E-03 0.  1.
        -12    1    3    3    0    0  0.10357845396E+02  0.29796564591E+02  0.38884400553E+01  0.31784275809E+02  0.00000000000E+00 0.  1.
</event>
<event>
 7    1  0.1813014E-010  0.4778727E+02  0.7816164E-02  0.1312668E+00
        -11   -1    0    0    0    0  0.00000000000E+00  0.00000000000E+00  0.45593999997E+02  0.45594000000E+02  0.51100000000E-03 0.  1.
         11   -1    0    0    0    0 -0.00000000000E+00 -0.00000000000E+00 -0.45593999997E+02  0.45594000000E+02  0.51100000000E-03 0. -1.
    9900012    2    1    2    0    0  0.41243229859E+02  0.98682637477E+01 -0.92323924603E+01  0.47787266030E+02  0.19999977138E+02 0.  0.
         12    1    1    2    0    0 -0.41243229859E+02 -0.98682637477E+01  0.92323924603E+01  0.43400733970E+02  0.00000000000E+00 0. -1.
         11    1    3    3    0    0  0.10388735808E+02  0.63742593819E+01  0.14815210342E+01  0.12278107313E+02  0.51100000000E-03 0. -1.
        -11    1    3    3    0    0  0.28067358783E+02  0.51279718104E+01 -0.50310650275E+01  0.28972130393E+02  0.51100000000E-03 0.  1.
         12    1    3    3    0    0  0.27871352676E+01 -0.16339674445E+01 -0.56828484670E+01  0.65370283240E+01  0.00000000000E+00 0. -1.
</event>
<event>
 7    1  0.1813014E-010  0.4778727E+02  0.7816164E-02  0.1312668E+00
        -11   -1    0    0    0    0  0.00000000000E+00  0.00000000000E+00  0.45593999997E+02  0.45594000000E+02  0.51100000000E-03 0. -1.
         11   -1    0    0    0    0 -0.00000000000E+00 -0.00000000000E+00 -0.45593999997E+02  0.45594000000E+02  0.51100000000E-03 0.  1.
    9900012    2    1    2    0    0 -0.19597282586E+02  0.38486047929E+02 -0.42887831914E+01  0.47787273840E+02  0.20000012747E+02 0.  0.
         12    1    1    2    0    0  0.19597282586E+02 -0.38486047929E+02  0.42887831914E+01  0.43400726160E+02  0.00000000000E+00 0. -1.
         11    1    3    3    0    0  0.36848010570E+00  0.93221344237E+00 -0.26399692324E+01  0.28238692072E+01  0.51100000000E-03 0. -1.
        -11    1    3    3    0    0 -0.11735278361E+02  0.30369540113E+02  0.37571237296E+01  0.32774101115E+02  0.51100000000E-03 0.  1.
         12    1    3    3    0    0 -0.82304843312E+01  0.71842943732E+01 -0.54059376887E+01  0.12189303518E+02  0.00000000000E+00 0. -1.
</event>
<event>
 7    1  0.1813014E-010  0.4778727E+02  0.7816164E-02  0.1312668E+00
        -11   -1    0    0    0    0  0.00000000000E+00  0.00000000000E+00  0.45593999997E+02  0.45594000000E+02  0.51100000000E-03 0. -1.
         11   -1    0    0    0    0 -0.00000000000E+00 -0.00000000000E+00 -0.45593999997E+02  0.45594000000E+02  0.51100000000E-03 0.  1.
    9900012    2    1    2    0    0 -0.52652741584E+01 -0.41122811307E+02 -0.12838011176E+02  0.47787271289E+02  0.20000001113E+02 0.  0.
         12    1    1    2    0    0  0.52652741584E+01  0.41122811307E+02  0.12838011176E+02  0.43400728711E+02  0.00000000000E+00 0. -1.
         11    1    3    3    0    0 -0.49558038486E+01 -0.12115776292E+02 -0.45959068511E+01  0.13873513866E+02  0.51100000000E-03 0. -1.
        -11    1    3    3    0    0  0.46503929256E+01 -0.18253609742E+02 -0.10919351525E+02  0.21772750422E+02  0.51100000000E-03 0.  1.
         12    1    3    3    0    0 -0.49598632354E+01 -0.10753425273E+02  0.26772471998E+01  0.12141007000E+02  0.00000000000E+00 0. -1.
</event>
<event>
 7    1  0.1813014E-010  0.4778727E+02  0.7816164E-02  0.1312668E+00
        -11   -1    0    0    0    0  0.00000000000E+00  0.00000000000E+00  0.45593999997E+02  0.45594000000E+02  0.51100000000E-03 0.  1.
         11   -1    0    0    0    0 -0.00000000000E+00 -0.00000000000E+00 -0.45593999997E+02  0.45594000000E+02  0.51100000000E-03 0. -1.
    9900012    2    1    2    0    0  0.10988261182E+02 -0.23007981035E+02  0.35121420187E+02  0.47787271538E+02  0.20000002249E+02 0.  0.
         12    1    1    2    0    0 -0.10988261182E+02  0.23007981035E+02 -0.35121420187E+02  0.43400728462E+02  0.00000000000E+00 0. -1.
         11    1    3    3    0    0  0.44328484244E+00 -0.11830070005E+02  0.25902504905E+02  0.28479585995E+02  0.51100000000E-03 0. -1.
        -11    1    3    3    0    0  0.78197223966E+01 -0.50199551853E+01  0.83958728689E+01  0.12523525459E+02  0.51100000000E-03 0.  1.
        -12    1    3    3    0    0  0.27252539432E+01 -0.61579558445E+01  0.82304241256E+00  0.67841600844E+01  0.00000000000E+00 0.  1.
</event>
<event>
 7    1  0.1813014E-010  0.4778727E+02  0.7816164E-02  0.1312668E+00
        -11   -1    0    0    0    0  0.00000000000E+00  0.00000000000E+00  0.45593999997E+02  0.45594000000E+02  0.51100000000E-03 0.  1.
         11   -1    0    0    0    0 -0.00000000000E+00 -0.00000000000E+00 -0.45593999997E+02  0.45594000000E+02  0.51100000000E-03 0. -1.
    9900012    2    1    2    0    0  0.19660630610E+02  0.17020905600E+02  0.34747250209E+02  0.47787273963E+02  0.20000013307E+02 0.  0.
         12    1    1    2    0    0 -0.19660630610E+02 -0.17020905600E+02 -0.34747250209E+02  0.43400726037E+02  0.00000000000E+00 0. -1.
         11    1    3    3    0    0  0.79914877471E+01  0.46480790950E-01  0.11182682769E+02  0.13744760131E+02  0.51100000000E-03 0. -1.
        -11    1    3    3    0    0  0.71289642636E+01  0.13366169184E+02  0.23829732867E+02  0.28237081628E+02  0.51100000000E-03 0.  1.
        -12    1    3    3    0    0  0.45401785993E+01  0.36082556249E+01 -0.26516542647E+00  0.58054322036E+01  0.00000000000E+00 0.  1.
</event>
<event>
 7    1  0.1813014E-010  0.4778727E+02  0.7816164E-02  0.1312668E+00
        -11   -1    0    0    0    0  0.00000000000E+00  0.00000000000E+00  0.45593999997E+02  0.45594000000E+02  0.51100000000E-03 0.  1.
         11   -1    0    0    0    0 -0.00000000000E+00 -0.00000000000E+00 -0.45593999997E+02  0.45594000000E+02  0.51100000000E-03 0. -1.
    9900012    2    1    2    0    0 -0.36909671838E+02  0.17949960787E+02  0.14110226452E+02  0.47787268923E+02  0.19999990328E+02 0.  0.
         12    1    1    2    0    0  0.36909671838E+02 -0.17949960787E+02 -0.14110226452E+02  0.43400731077E+02  0.00000000000E+00 0. -1.
         11    1    3    3    0    0 -0.25121530001E+02  0.20711201477E+01  0.95137775890E+01  0.26942397305E+02  0.51100000000E-03 0. -1.
        -11    1    3    3    0    0 -0.11778321473E+01  0.38614948751E+01  0.23107687792E+01  0.46516753809E+01  0.51100000000E-03 0.  1.
         12    1    3    3    0    0 -0.10610309690E+02  0.12017345764E+02  0.22856800841E+01  0.16193196237E+02  0.00000000000E+00 0. -1.
</event>
<event>
 7    1  0.1813014E-010  0.4778727E+02  0.7816164E-02  0.1312668E+00
        -11   -1    0    0    0    0  0.00000000000E+00  0.00000000000E+00  0.45593999997E+02  0.45594000000E+02  0.51100000000E-03 0. -1.
         11   -1    0    0    0    0 -0.00000000000E+00 -0.00000000000E+00 -0.45593999997E+02  0.45594000000E+02  0.51100000000E-03 0.  1.
    9900012    2    1    2    0    0 -0.27772050287E+02  0.23211773173E+02 -0.23948909790E+02  0.47787268772E+02  0.19999989640E+02 0.  0.
         12    1    1    2    0    0  0.27772050287E+02 -0.23211773173E+02  0.23948909790E+02  0.43400731228E+02  0.00000000000E+00 0. -1.
         11    1    3    3    0    0 -0.95582966372E+01 -0.76610980294E+00 -0.10408943939E+02  0.14152528856E+02  0.51100000000E-03 0. -1.
        -11    1    3    3    0    0 -0.83144046688E+01  0.69806835278E+01 -0.27472736571E+01  0.11198516880E+02  0.51100000000E-03 0.  1.
         12    1    3    3    0    0 -0.98993489813E+01  0.16997199448E+02 -0.10792692194E+02  0.22436223036E+02  0.00000000000E+00 0. -1.
</event>
<event>
 7    1  0.1813014E-010  0.4778727E+02  0.7816164E-02  0.1312668E+00
        -11   -1    0    0    0    0  0.00000000000E+00  0.00000000000E+00  0.45593999997E+02  0.45594000000E+02  0.51100000000E-03 0.  1.
         11   -1    0    0    0    0 -0.00000000000E+00 -0.00000000000E+00 -0.45593999997E+02  0.45594000000E+02  0.51100000000E-03 0. -1.
    9900012    2    1    2    0    0 -0.41631066022E+02 -0.10623815999E+02  0.61328873290E+01  0.47787269229E+02  0.19999991722E+02 0.  0.
         12    1    1    2    0    0  0.41631066022E+02  0.10623815999E+02 -0.61328873290E+01  0.43400730771E+02  0.00000000000E+00 0. -1.
         11    1    3    3    0    0 -0.56387913532E+01  0.14056413651E+01  0.41211882708E+01  0.71243237291E+01  0.51100000000E-03 0. -1.
        -11    1    3    3    0    0 -0.16813834670E+02  0.16454141230E+01  0.26448593334E+01  0.17099932897E+02  0.51100000000E-03 0.  1.
        -12    1    3    3    0    0 -0.19178439999E+02 -0.13674871487E+02 -0.63316027512E+00  0.23563012602E+02  0.00000000000E+00 0.  1.
</event>
<event>
 7    1  0.1813014E-010  0.4778727E+02  0.7816164E-02  0.1312668E+00
        -11   -1    0    0    0    0  0.00000000000E+00  0.00000000000E+00  0.45593999997E+02  0.45594000000E+02  0.51100000000E-03 0. -1.
         11   -1    0    0    0    0 -0.00000000000E+00 -0.00000000000E+00 -0.45593999997E+02  0.45594000000E+02  0.51100000000E-03 0.  1.
    9900012    2    1    2    0    0  0.31159487041E+02  0.29880870914E+02 -0.44545541704E+01  0.47787272678E+02  0.20000007447E+02 0.  0.
         12    1    1    2    0    0 -0.31159487041E+02 -0.29880870914E+02  0.44545541704E+01  0.43400727322E+02  0.00000000000E+00 0. -1.
         11    1    3    3    0    0  0.10474775366E+00 -0.21225738119E+01 -0.13641883365E+01  0.25253320093E+01  0.51100000000E-03 0. -1.
        -11    1    3    3    0    0  0.15099434892E+02  0.19759071121E+02 -0.36939711506E+01  0.25140788547E+02  0.51100000000E-03 0.  1.
        -12    1    3    3    0    0  0.15955304395E+02  0.12244373605E+02  0.60360531663E+00  0.20121152122E+02  0.00000000000E+00 0.  1.
</event>
<event>
 7    1  0.1813014E-010  0.4778729E+02  0.7816164E-02  0.1312668E+00
        -11   -1    0    0    0    0  0.00000000000E+00  0.00000000000E+00  0.45593999997E+02  0.45594000000E+02  0.51100000000E-03 0.  1.
         11   -1    0    0    0    0 -0.00000000000E+00 -0.00000000000E+00 -0.45593999997E+02  0.45594000000E+02  0.51100000000E-03 0. -1.
    9900012    2    1    2    0    0 -0.67243442355E+01 -0.27435965965E+02  0.32949550864E+02  0.47787286458E+02  0.20000070277E+02 0.  0.
         12    1    1    2    0    0  0.67243442355E+01  0.27435965965E+02 -0.32949550864E+02  0.43400713542E+02  0.00000000000E+00 0. -1.
         11    1    3    3    0    0  0.36646414027E+01 -0.20148103711E+01  0.36817599301E+01  0.55717514200E+01  0.51100000000E-03 0. -1.
        -11    1    3    3    0    0 -0.17244498832E+01 -0.17391427662E+02  0.22863598277E+02  0.28778109909E+02  0.51100000000E-03 0.  1.
         12    1    3    3    0    0 -0.86645357550E+01 -0.80297279316E+01  0.64041926570E+01  0.13437425129E+02  0.00000000000E+00 0. -1.
</event>
<event>
 7    1  0.1813014E-010  0.4778728E+02  0.7816164E-02  0.1312668E+00
        -11   -1    0    0    0    0  0.00000000000E+00  0.00000000000E+00  0.45593999997E+02  0.45594000000E+02  0.51100000000E-03 0.  1.
         11   -1    0    0    0    0 -0.00000000000E+00 -0.00000000000E+00 -0.45593999997E+02  0.45594000000E+02  0.51100000000E-03 0. -1.
    9900012    2    1    2    0    0  0.34611964276E+02  0.24892845180E+02  0.81228742225E+01  0.47787275376E+02  0.20000019751E+02 0.  0.
         12    1    1    2    0    0 -0.34611964276E+02 -0.24892845180E+02 -0.81228742225E+01  0.43400724624E+02  0.00000000000E+00 0. -1.
         11    1    3    3    0    0 -0.11800989022E+01  0.22765486955E+01 -0.16817084668E+01  0.30665046895E+01  0.51100000000E-03 0. -1.
        -11    1    3    3    0    0  0.19993688041E+02  0.16854006144E+02  0.97385503664E+01  0.27904201262E+02  0.51100000000E-03 0.  1.
        -12    1    3    3    0    0  0.15798375138E+02  0.57622903411E+01  0.66032322906E-01  0.16816569425E+02  0.00000000000E+00 0.  1.
</event>
<event>
 7    1  0.1813014E-010  0.4778726E+02  0.7816164E-02  0.1312668E+00
        -11   -1    0    0    0    0  0.00000000000E+00  0.00000000000E+00  0.45593999997E+02  0.45594000000E+02  0.51100000000E-03 0.  1.
         11   -1    0    0    0    0 -0.00000000000E+00 -0.00000000000E+00 -0.45593999997E+02  0.45594000000E+02  0.51100000000E-03 0. -1.
    9900012    2    1    2    0    0  0.34696469744E+02 -0.23800709413E+02  0.10644490836E+02  0.47787263066E+02  0.19999963622E+02 0.  0.
         12    1    1    2    0    0 -0.34696469744E+02  0.23800709413E+02 -0.10644490836E+02  0.43400736934E+02  0.00000000000E+00 0. -1.
         11    1    3    3    0    0  0.27357314718E+01 -0.36064090802E+01  0.80030392920E+01  0.91945120213E+01  0.51100000000E-03 0. -1.
        -11    1    3    3    0    0  0.10215951675E+02 -0.10591661096E+02  0.15498869981E+01  0.14796996431E+02  0.51100000000E-03 0.  1.
         12    1    3    3    0    0  0.21744786598E+02 -0.96026392361E+01  0.10915645463E+01  0.23795754614E+02  0.00000000000E+00 0. -1.
</event>
<event>
 7    1  0.1813014E-010  0.4778723E+02  0.7816164E-02  0.1312668E+00
        -11   -1    0    0    0    0  0.00000000000E+00  0.00000000000E+00  0.45593999997E+02  0.45594000000E+02  0.51100000000E-03 0.  1.
         11   -1    0    0    0    0 -0.00000000000E+00 -0.00000000000E+00 -0.45593999997E+02  0.45594000000E+02  0.51100000000E-03 0. -1.
    9900012    2    1    2    0    0 -0.40782527226E+02 -0.46066378561E+01  0.14113502535E+02  0.47787232805E+02  0.19999825651E+02 0.  0.
         12    1    1    2    0    0  0.40782527226E+02  0.46066378561E+01 -0.14113502535E+02  0.43400767195E+02  0.00000000000E+00 0. -1.
         11    1    3    3    0    0 -0.35040479023E+01 -0.65319574684E+01  0.18544911863E+01  0.76409395948E+01  0.51100000000E-03 0. -1.
        -11    1    3    3    0    0 -0.20177940343E+02 -0.25266826530E+01  0.87126759943E+01  0.22123384121E+02  0.51100000000E-03 0.  1.
        -12    1    3    3    0    0 -0.17100538981E+02  0.44520022653E+01  0.35463353540E+01  0.18022909090E+02  0.00000000000E+00 0.  1.
</event>
<event>
 7    1  0.1813014E-010  0.4778727E+02  0.7816164E-02  0.1312668E+00
        -11   -1    0    0    0    0  0.00000000000E+00  0.00000000000E+00  0.45593999997E+02  0.45594000000E+02  0.51100000000E-03 0.  1.
         11   -1    0    0    0    0 -0.00000000000E+00 -0.00000000000E+00 -0.45593999997E+02  0.45594000000E+02  0.51100000000E-03 0. -1.
    9900012    2    1    2    0    0 -0.17272305655E+02  0.39550071506E+02 -0.45915864020E+01  0.47787270001E+02  0.19999995241E+02 0.  0.
         12    1    1    2    0    0  0.17272305655E+02 -0.39550071506E+02  0.45915864020E+01  0.43400729999E+02  0.00000000000E+00 0. -1.
         11    1    3    3    0    0 -0.45201110567E+01  0.34042590385E+01  0.10575017285E+01  0.57566217292E+01  0.51100000000E-03 0. -1.
        -11    1    3    3    0    0 -0.95465046774E+01  0.34455931028E+02 -0.92403781862E+01  0.36928735747E+02  0.51100000000E-03 0.  1.
        -12    1    3    3    0    0 -0.32056899207E+01  0.16898814397E+01  0.35912900556E+01  0.51019125249E+01  0.00000000000E+00 0.  1.
</event>
<event>
 7    1  0.1813014E-010  0.4778728E+02  0.7816164E-02  0.1312668E+00
        -11   -1    0    0    0    0  0.00000000000E+00  0.00000000000E+00  0.45593999997E+02  0.45594000000E+02  0.51100000000E-03 0.  1.
         11   -1    0    0    0    0 -0.00000000000E+00 -0.00000000000E+00 -0.45593999997E+02  0.45594000000E+02  0.51100000000E-03 0. -1.
    9900012    2    1    2    0    0  0.10271961834E+01 -0.43227976645E+02 -0.37295352171E+01  0.47787279617E+02  0.20000039085E+02 0.  0.
         12    1    1    2    0    0 -0.10271961834E+01  0.43227976645E+02  0.37295352171E+01  0.43400720383E+02  0.00000000000E+00 0. -1.
         11    1    3    3    0    0 -0.15211285651E+01 -0.24408102272E+01 -0.39875336865E+01  0.49164836864E+01  0.51100000000E-03 0. -1.
        -11    1    3    3    0    0 -0.42134768520E+01 -0.23504971643E+02  0.31583839837E+01  0.24087599896E+02  0.51100000000E-03 0.  1.
         12    1    3    3    0    0  0.67618016005E+01 -0.17282194775E+02 -0.29003855143E+01  0.18783196034E+02  0.00000000000E+00 0. -1.
</event>
<event>
 7    1  0.1813014E-010  0.4778724E+02  0.7816164E-02  0.1312668E+00
        -11   -1    0    0    0    0  0.00000000000E+00  0.00000000000E+00  0.45593999997E+02  0.45594000000E+02  0.51100000000E-03 0.  1.
         11   -1    0    0    0    0 -0.00000000000E+00 -0.00000000000E+00 -0.45593999997E+02  0.45594000000E+02  0.51100000000E-03 0. -1.
    9900012    2    1    2    0    0  0.20109340517E+02  0.21695703461E+01  0.38399657419E+02  0.47787236166E+02  0.19999840974E+02 0.  0.
         12    1    1    2    0    0 -0.20109340517E+02 -0.21695703461E+01 -0.38399657419E+02  0.43400763834E+02  0.00000000000E+00 0. -1.
         11    1    3    3    0    0  0.61368486618E+01 -0.46207154020E+01  0.14523455760E+02  0.16429932739E+02  0.51100000000E-03 0. -1.
        -11    1    3    3    0    0  0.74124388035E+01 -0.34422331082E+01  0.95834810491E+01  0.12595091388E+02  0.51100000000E-03 0.  1.
         12    1    3    3    0    0  0.65600530512E+01  0.10232518856E+02  0.14292720609E+02  0.18762212039E+02  0.00000000000E+00 0. -1.
</event>
<event>
 7    1  0.1813014E-010  0.4778726E+02  0.7816164E-02  0.1312668E+00
        -11   -1    0    0    0    0  0.00000000000E+00  0.00000000000E+00  0.45593999997E+02  0.45594000000E+02  0.51100000000E-03 0.  1.
         11   -1    0    0    0    0 -0.00000000000E+00 -0.00000000000E+00 -0.45593999997E+02  0.45594000000E+02  0.51100000000E-03 0. -1.
    9900012    2    1    2    0    0  0.23817785775E+02  0.14160542730E+02  0.33403836225E+02  0.47787260788E+02  0.19999953237E+02 0.  0.
         12    1    1    2    0    0 -0.23817785775E+02 -0.14160542730E+02 -0.33403836225E+02  0.43400739212E+02  0.00000000000E+00 0. -1.
         11    1    3    3    0    0  0.99770513547E+01 -0.14140746133E+01  0.42100856250E+01  0.10920896574E+02  0.51100000000E-03 0. -1.
        -11    1    3    3    0    0  0.91412557684E+01  0.93054582570E+01  0.11021817932E+02  0.17077311884E+02  0.51100000000E-03 0.  1.
         12    1    3    3    0    0  0.46994786518E+01  0.62691590862E+01  0.18171932668E+02  0.19789052330E+02  0.00000000000E+00 0. -1.
</event>
<event>
 7    1  0.1813014E-010  0.4778725E+02  0.7816164E-02  0.1312668E+00
        -11   -1    0    0    0    0  0.00000000000E+00  0.00000000000E+00  0.45593999997E+02  0.45594000000E+02  0.51100000000E-03 0.  1.
         11   -1    0    0    0    0 -0.00000000000E+00 -0.00000000000E+00 -0.45593999997E+02  0.45594000000E+02  0.51100000000E-03 0. -1.
    9900012    2    1    2    0    0 -0.11967977214E+02  0.17938363073E+02  0.37664404587E+02  0.47787254371E+02  0.19999923977E+02 0.  0.
         12    1    1    2    0    0  0.11967977214E+02 -0.17938363073E+02 -0.37664404587E+02  0.43400745629E+02  0.00000000000E+00 0. -1.
         11    1    3    3    0    0 -0.40602270662E+01  0.11777825486E+02  0.26256856132E+02  0.29062434708E+02  0.51100000000E-03 0. -1.
        -11    1    3    3    0    0 -0.17434810327E+01  0.81301804167E+01  0.72603116293E+01  0.11038645068E+02  0.51100000000E-03 0.  1.
         12    1    3    3    0    0 -0.61642691150E+01 -0.19696428303E+01  0.41472368260E+01  0.76861745942E+01  0.00000000000E+00 0. -1.
</event>
<event>
 7    1  0.1813014E-010  0.4778728E+02  0.7816164E-02  0.1312668E+00
        -11   -1    0    0    0    0  0.00000000000E+00  0.00000000000E+00  0.45593999997E+02  0.45594000000E+02  0.51100000000E-03 0.  1.
         11   -1    0    0    0    0 -0.00000000000E+00 -0.00000000000E+00 -0.45593999997E+02  0.45594000000E+02  0.51100000000E-03 0. -1.
    9900012    2    1    2    0    0  0.35414741183E+02 -0.19976922146E+02  0.15176988845E+02  0.47787282242E+02  0.20000051054E+02 0.  0.
         12    1    1    2    0    0 -0.35414741183E+02  0.19976922146E+02 -0.15176988845E+02  0.43400717758E+02  0.00000000000E+00 0. -1.
         11    1    3    3    0    0  0.10919125052E+02 -0.78119402396E+01 -0.22326065609E+01  0.13610225366E+02  0.51100000000E-03 0. -1.
        -11    1    3    3    0    0  0.85821715595E+01 -0.90928300155E+01  0.11310916232E+02  0.16860309980E+02  0.51100000000E-03 0.  1.
         12    1    3    3    0    0  0.15913444572E+02 -0.30721518913E+01  0.60986791746E+01  0.17316746896E+02  0.00000000000E+00 0. -1.
</event>
<event>
 7    1  0.1813014E-010  0.4778727E+02  0.7816164E-02  0.1312668E+00
        -11   -1    0    0    0    0  0.00000000000E+00  0.00000000000E+00  0.45593999997E+02  0.45594000000E+02  0.51100000000E-03 0.  1.
         11   -1    0    0    0    0 -0.00000000000E+00 -0.00000000000E+00 -0.45593999997E+02  0.45594000000E+02  0.51100000000E-03 0. -1.
    9900012    2    1    2    0    0  0.39891304204E+02 -0.16575690807E+02  0.41897109778E+01  0.47787270111E+02  0.19999995745E+02 0.  0.
         12    1    1    2    0    0 -0.39891304204E+02  0.16575690807E+02 -0.41897109778E+01  0.43400729889E+02  0.00000000000E+00 0. -1.
         11    1    3    3    0    0  0.30179054144E+01 -0.71117049534E+01  0.49167533019E+01  0.91574321579E+01  0.51100000000E-03 0. -1.
        -11    1    3    3    0    0  0.18628265985E+02 -0.35669099133E+01  0.26797901295E+01  0.19155062395E+02  0.51100000000E-03 0.  1.
        -12    1    3    3    0    0  0.18245132804E+02 -0.58970759408E+01 -0.34068324536E+01  0.19474775558E+02  0.00000000000E+00 0.  1.
</event>
<event>
 7    1  0.1813014E-010  0.4778727E+02  0.7816164E-02  0.1312668E+00
        -11   -1    0    0    0    0  0.00000000000E+00  0.00000000000E+00  0.45593999997E+02  0.45594000000E+02  0.51100000000E-03 0. -1.
         11   -1    0    0    0    0 -0.00000000000E+00 -0.00000000000E+00 -0.45593999997E+02  0.45594000000E+02  0.51100000000E-03 0.  1.
    9900012    2    1    2    0    0 -0.14394542660E+02  0.87548529742E+01 -0.39997161267E+02  0.47787271683E+02  0.20000002913E+02 0.  0.
         12    1    1    2    0    0  0.14394542660E+02 -0.87548529742E+01  0.39997161267E+02  0.43400728317E+02  0.00000000000E+00 0. -1.
         11    1    3    3    0    0  0.19232797162E+01  0.10740898500E+01 -0.43443928156E+01  0.48709776298E+01  0.51100000000E-03 0. -1.
        -11    1    3    3    0    0 -0.15491541777E+02  0.97478565636E+01 -0.36252338961E+02  0.40610844052E+02  0.51100000000E-03 0.  1.
         12    1    3    3    0    0 -0.82628059932E+00 -0.20670934394E+01  0.59957050910E+00  0.23054500020E+01  0.00000000000E+00 0. -1.
</event>
<event>
 7    1  0.3209669E-010  0.4778726E+02  0.7816164E-02  0.1312668E+00
        -11   -1    0    0    0    0  0.00000000000E+00  0.00000000000E+00  0.45593999997E+02  0.45594000000E+02  0.51100000000E-03 0. -1.
         11   -1    0    0    0    0 -0.00000000000E+00 -0.00000000000E+00 -0.45593999997E+02  0.45594000000E+02  0.51100000000E-03 0.  1.
    9900012    2    1    2    0    0  0.12359030091E+02 -0.48691883730E+01 -0.41317906023E+02  0.47787262929E+02  0.19999962998E+02 0.  0.
         12    1    1    2    0    0 -0.12359030091E+02  0.48691883730E+01  0.41317906023E+02  0.43400737071E+02  0.00000000000E+00 0. -1.
         11    1    3    3    0    0  0.22705424318E+01 -0.52606391944E+01 -0.41071336521E+01  0.70496974946E+01  0.51100000000E-03 0. -1.
        -11    1    3    3    0    0  0.54639353590E+01 -0.42850242785E+01 -0.30727756264E+02  0.31502555896E+02  0.51100000000E-03 0.  1.
         12    1    3    3    0    0  0.46245523005E+01  0.46764750999E+01 -0.64830161065E+01  0.92350095386E+01  0.00000000000E+00 0. -1.
</event>
<event>
 7    1  0.1813014E-010  0.4778727E+02  0.7816164E-02  0.1312668E+00
        -11   -1    0    0    0    0  0.00000000000E+00  0.00000000000E+00  0.45593999997E+02  0.45594000000E+02  0.51100000000E-03 0.  1.
         11   -1    0    0    0    0 -0.00000000000E+00 -0.00000000000E+00 -0.45593999997E+02  0.45594000000E+02  0.51100000000E-03 0. -1.
    9900012    2    1    2    0    0 -0.33255645136E+02 -0.27701530700E+02  0.32110779840E+01  0.47787265463E+02  0.19999974554E+02 0.  0.
         12    1    1    2    0    0  0.33255645136E+02  0.27701530700E+02 -0.32110779840E+01  0.43400734537E+02  0.00000000000E+00 0. -1.
         11    1    3    3    0    0 -0.45473019223E+01 -0.11549681113E+02  0.25141626274E+01  0.12664679331E+02  0.51100000000E-03 0. -1.
        -11    1    3    3    0    0 -0.85676695890E+01 -0.75188369740E+01 -0.50515728935E+01  0.12468209999E+02  0.51100000000E-03 0.  1.
         12    1    3    3    0    0 -0.20140673624E+02 -0.86330126129E+01  0.57484882501E+01  0.22654376133E+02  0.00000000000E+00 0. -1.
</event>
<event>
 7    1  0.1813014E-010  0.4778727E+02  0.7816164E-02  0.1312668E+00
        -11   -1    0    0    0    0  0.00000000000E+00  0.00000000000E+00  0.45593999997E+02  0.45594000000E+02  0.51100000000E-03 0. -1.
         11   -1    0    0    0    0 -0.00000000000E+00 -0.00000000000E+00 -0.45593999997E+02  0.45594000000E+02  0.51100000000E-03 0.  1.
    9900012    2    1    2    0    0 -0.28122408966E+02  0.15475178380E+02 -0.29210824316E+02  0.47787270868E+02  0.19999999197E+02 0.  0.
         12    1    1    2    0    0  0.28122408966E+02 -0.15475178380E+02  0.29210824316E+02  0.43400729132E+02  0.00000000000E+00 0. -1.
         11    1    3    3    0    0  0.44434270558E+00  0.35534643926E+01  0.15856251079E+01  0.39164725038E+01  0.51100000000E-03 0. -1.
        -11    1    3    3    0    0 -0.87105111455E+01  0.51883961508E+01 -0.12025108701E+02  0.15728817456E+02  0.51100000000E-03 0.  1.
        -12    1    3    3    0    0 -0.19856240526E+02  0.67333178366E+01 -0.18771340723E+02  0.28141980908E+02  0.00000000000E+00 0.  1.
</event>
<event>
 7    1  0.1813014E-010  0.4778727E+02  0.7816164E-02  0.1312668E+00
        -11   -1    0    0    0    0  0.00000000000E+00  0.00000000000E+00  0.45593999997E+02  0.45594000000E+02  0.51100000000E-03 0.  1.
         11   -1    0    0    0    0 -0.00000000000E+00 -0.00000000000E+00 -0.45593999997E+02  0.45594000000E+02  0.51100000000E-03 0. -1.
    9900012    2    1    2    0    0  0.10038841525E+02  0.40709034934E+02 -0.11208025440E+02  0.47787266151E+02  0.19999977687E+02 0.  0.
         12    1    1    2    0    0 -0.10038841525E+02 -0.40709034934E+02  0.11208025440E+02  0.43400733849E+02  0.00000000000E+00 0. -1.
         11    1    3    3    0    0 -0.28843927312E+00  0.22258083411E+01 -0.17715549647E+01  0.28593403504E+01  0.51100000000E-03 0. -1.
        -11    1    3    3    0    0 -0.12865007347E+01  0.28724173235E+02 -0.59231048706E+01  0.29356709348E+02  0.51100000000E-03 0.  1.
         12    1    3    3    0    0  0.11613781533E+02  0.97590533578E+01 -0.35133656051E+01  0.15571216452E+02  0.00000000000E+00 0. -1.
</event>
<event>
 7    1  0.1813014E-010  0.4778727E+02  0.7816164E-02  0.1312668E+00
        -11   -1    0    0    0    0  0.00000000000E+00  0.00000000000E+00  0.45593999997E+02  0.45594000000E+02  0.51100000000E-03 0. -1.
         11   -1    0    0    0    0 -0.00000000000E+00 -0.00000000000E+00 -0.45593999997E+02  0.45594000000E+02  0.51100000000E-03 0.  1.
    9900012    2    1    2    0    0  0.15649512587E+02  0.28654015758E+02 -0.28594814274E+02  0.47787271128E+02  0.20000000380E+02 0.  0.
         12    1    1    2    0    0 -0.15649512587E+02 -0.28654015758E+02  0.28594814274E+02  0.43400728872E+02  0.00000000000E+00 0. -1.
         11    1    3    3    0    0  0.26885188321E+01  0.10529831817E+02 -0.89383395029E+01  0.14071226135E+02  0.51100000000E-03 0. -1.
        -11    1    3    3    0    0  0.19368794288E+01 -0.25856956015E+01 -0.20012738371E+00  0.32368773372E+01  0.51100000000E-03 0.  1.
        -12    1    3    3    0    0  0.11024114326E+02  0.20709879542E+02 -0.19456347388E+02  0.30479167656E+02  0.00000000000E+00 0.  1.
</event>
<event>
 7    1  0.1813014E-010  0.4778727E+02  0.7816164E-02  0.1312668E+00
        -11   -1    0    0    0    0  0.00000000000E+00  0.00000000000E+00  0.45593999997E+02  0.45594000000E+02  0.51100000000E-03 0.  1.
         11   -1    0    0    0    0 -0.00000000000E+00 -0.00000000000E+00 -0.45593999997E+02  0.45594000000E+02  0.51100000000E-03 0. -1.
    9900012    2    1    2    0    0  0.38477355381E+02 -0.86635179327E+01  0.18112421667E+02  0.47787271450E+02  0.20000001847E+02 0.  0.
         12    1    1    2    0    0 -0.38477355381E+02  0.86635179327E+01 -0.18112421667E+02  0.43400728550E+02  0.00000000000E+00 0. -1.
         11    1    3    3    0    0  0.14470849025E+02  0.42107154746E+01  0.50733423226E+01  0.15902024994E+02  0.51100000000E-03 0. -1.
        -11    1    3    3    0    0  0.83775533614E+01 -0.41311467799E+01  0.10065375020E+02  0.13731771503E+02  0.51100000000E-03 0.  1.
        -12    1    3    3    0    0  0.15628952994E+02 -0.87430866274E+01  0.29737043243E+01  0.18153474953E+02  0.00000000000E+00 0.  1.
</event>
<event>
 7    1  0.1813014E-010  0.4778727E+02  0.7816164E-02  0.1312668E+00
        -11   -1    0    0    0    0  0.00000000000E+00  0.00000000000E+00  0.45593999997E+02  0.45594000000E+02  0.51100000000E-03 0.  1.
         11   -1    0    0    0    0 -0.00000000000E+00 -0.00000000000E+00 -0.45593999997E+02  0.45594000000E+02  0.51100000000E-03 0. -1.
    9900012    2    1    2    0    0  0.31768795248E+02  0.92316950670E+01  0.28091682899E+02  0.47787271971E+02  0.20000004226E+02 0.  0.
         12    1    1    2    0    0 -0.31768795248E+02 -0.92316950670E+01 -0.28091682899E+02  0.43400728029E+02  0.00000000000E+00 0. -1.
         11    1    3    3    0    0 -0.84480048358E+00 -0.12830128592E+01  0.29487846926E+01  0.33249272591E+01  0.51100000000E-03 0. -1.
        -11    1    3    3    0    0  0.12650781549E+02  0.30942012580E+01  0.17544554777E+02  0.21850120316E+02  0.51100000000E-03 0.  1.
        -12    1    3    3    0    0  0.19962814182E+02  0.74205066682E+01  0.75983434296E+01  0.22612224396E+02  0.00000000000E+00 0.  1.
</event>
<event>
 7    1  0.1813014E-010  0.4778727E+02  0.7816164E-02  0.1312668E+00
        -11   -1    0    0    0    0  0.00000000000E+00  0.00000000000E+00  0.45593999997E+02  0.45594000000E+02  0.51100000000E-03 0.  1.
         11   -1    0    0    0    0 -0.00000000000E+00 -0.00000000000E+00 -0.45593999997E+02  0.45594000000E+02  0.51100000000E-03 0. -1.
    9900012    2    1    2    0    0  0.34113988527E+02 -0.97167624676E+01  0.25008869190E+02  0.47787271616E+02  0.20000002607E+02 0.  0.
         12    1    1    2    0    0 -0.34113988527E+02  0.97167624676E+01 -0.25008869190E+02  0.43400728384E+02  0.00000000000E+00 0. -1.
         11    1    3    3    0    0  0.13636191143E+02 -0.10027662035E+02  0.11310819728E+02  0.20357660916E+02  0.51100000000E-03 0. -1.
        -11    1    3    3    0    0  0.21427458143E+02 -0.91922231903E+00  0.14284339936E+02  0.25768649553E+02  0.51100000000E-03 0.  1.
         12    1    3    3    0    0 -0.94966075937E+00  0.12301218866E+01 -0.58629047318E+00  0.16609611473E+01  0.00000000000E+00 0. -1.
</event>
<event>
 7    1  0.1813014E-010  0.4778727E+02  0.7816164E-02  0.1312668E+00
        -11   -1    0    0    0    0  0.00000000000E+00  0.00000000000E+00  0.45593999997E+02  0.45594000000E+02  0.51100000000E-03 0.  1.
         11   -1    0    0    0    0 -0.00000000000E+00 -0.00000000000E+00 -0.45593999997E+02  0.45594000000E+02  0.51100000000E-03 0. -1.
    9900012    2    1    2    0    0  0.97026703030E+01 -0.12562814150E+02  0.40393777056E+02  0.47787270337E+02  0.19999996775E+02 0.  0.
         12    1    1    2    0    0 -0.97026703030E+01  0.12562814150E+02 -0.40393777056E+02  0.43400729663E+02  0.00000000000E+00 0. -1.
         11    1    3    3    0    0  0.26300004237E+01 -0.12241858179E+02  0.10318262136E+02  0.16224873733E+02  0.51100000000E-03 0.  1.
        -11    1    3    3    0    0  0.29394843534E+01 -0.22154885109E+01  0.58337939023E+01  0.68979786287E+01  0.51100000000E-03 0. -1.
        -12    1    3    3    0    0  0.41331855259E+01  0.18945325393E+01  0.24241721018E+02  0.24664417975E+02  0.00000000000E+00 0.  1.
</event>
<event>
 7    1  0.1813014E-010  0.4778728E+02  0.7816164E-02  0.1312668E+00
        -11   -1    0    0    0    0  0.00000000000E+00  0.00000000000E+00  0.45593999997E+02  0.45594000000E+02  0.51100000000E-03 0.  1.
         11   -1    0    0    0    0 -0.00000000000E+00 -0.00000000000E+00 -0.45593999997E+02  0.45594000000E+02  0.51100000000E-03 0. -1.
    9900012    2    1    2    0    0  0.23863742767E+02 -0.19840985632E+02  0.30339412955E+02  0.47787275258E+02  0.20000019209E+02 0.  0.
         12    1    1    2    0    0 -0.23863742767E+02  0.19840985632E+02 -0.30339412955E+02  0.43400724742E+02  0.00000000000E+00 0. -1.
         11    1    3    3    0    0  0.78400438788E+01 -0.51937177109E+01  0.89181952005E+01  0.12960524587E+02  0.51100000000E-03 0. -1.
        -11    1    3    3    0    0  0.15916428499E+02 -0.89263048459E+01  0.22535192948E+02  0.28997353945E+02  0.51100000000E-03 0.  1.
         12    1    3    3    0    0  0.10727038969E+00 -0.57209630754E+01 -0.11139751935E+01  0.58293967250E+01  0.00000000000E+00 0. -1.
</event>
<event>
 7    1  0.1813014E-010  0.4778727E+02  0.7816164E-02  0.1312668E+00
        -11   -1    0    0    0    0  0.00000000000E+00  0.00000000000E+00  0.45593999997E+02  0.45594000000E+02  0.51100000000E-03 0.  1.
         11   -1    0    0    0    0 -0.00000000000E+00 -0.00000000000E+00 -0.45593999997E+02  0.45594000000E+02  0.51100000000E-03 0. -1.
    9900012    2    1    2    0    0 -0.15077498477E+02 -0.40522475516E+02 -0.37711076504E+01  0.47787271491E+02  0.20000002034E+02 0.  0.
         12    1    1    2    0    0  0.15077498477E+02  0.40522475516E+02  0.37711076504E+01  0.43400728509E+02  0.00000000000E+00 0. -1.
         11    1    3    3    0    0 -0.96842477186E+01 -0.81242472932E+01 -0.69033690690E+01  0.14402935559E+02  0.51100000000E-03 0. -1.
        -11    1    3    3    0    0 -0.51929131124E+01 -0.17621649587E+02  0.52643021448E+00  0.18378411514E+02  0.51100000000E-03 0.  1.
         12    1    3    3    0    0 -0.20033764552E+00 -0.14776578636E+02  0.26058312041E+01  0.15005924417E+02  0.00000000000E+00 0. -1.
</event>
<event>
 7    1  0.1813014E-010  0.4778727E+02  0.7816164E-02  0.1312668E+00
        -11   -1    0    0    0    0  0.00000000000E+00  0.00000000000E+00  0.45593999997E+02  0.45594000000E+02  0.51100000000E-03 0.  1.
         11   -1    0    0    0    0 -0.00000000000E+00 -0.00000000000E+00 -0.45593999997E+02  0.45594000000E+02  0.51100000000E-03 0. -1.
    9900012    2    1    2    0    0 -0.27779565872E+02  0.31976810594E+02  0.94552932940E+01  0.47787271123E+02  0.20000000358E+02 0.  0.
         12    1    1    2    0    0  0.27779565872E+02 -0.31976810594E+02 -0.94552932940E+01  0.43400728877E+02  0.00000000000E+00 0. -1.
         11    1    3    3    0    0 -0.47897531096E+01  0.28471607997E+01 -0.42820421852E+01  0.70273711306E+01  0.51100000000E-03 0. -1.
        -11    1    3    3    0    0 -0.16611086785E+02  0.15550916195E+02  0.46646303702E+01  0.23227526244E+02  0.51100000000E-03 0.  1.
        -12    1    3    3    0    0 -0.63787259782E+01  0.13578733599E+02  0.90727051090E+01  0.17532373748E+02  0.00000000000E+00 0.  1.
</event>
<event>
 7    1  0.1813014E-010  0.4778727E+02  0.7816164E-02  0.1312668E+00
        -11   -1    0    0    0    0  0.00000000000E+00  0.00000000000E+00  0.45593999997E+02  0.45594000000E+02  0.51100000000E-03 0. -1.
         11   -1    0    0    0    0 -0.00000000000E+00 -0.00000000000E+00 -0.45593999997E+02  0.45594000000E+02  0.51100000000E-03 0.  1.
    9900012    2    1    2    0    0  0.31197265689E+02 -0.28431199703E+02 -0.10100525858E+02  0.47787272752E+02  0.20000007785E+02 0.  0.
         12    1    1    2    0    0 -0.31197265689E+02  0.28431199703E+02  0.10100525858E+02  0.43400727248E+02  0.00000000000E+00 0. -1.
         11    1    3    3    0    0  0.43334823295E+01 -0.10444399593E+02  0.31098323647E+01  0.11727557698E+02  0.51100000000E-03 0.  1.
        -11    1    3    3    0    0  0.20276615052E+00  0.68046140366E+00  0.36157215765E+00  0.79679139050E+00  0.51100000000E-03 0. -1.
        -12    1    3    3    0    0  0.26661017209E+02 -0.18667261514E+02 -0.13571930380E+02  0.35262923664E+02  0.00000000000E+00 0.  1.
</event>
<event>
 7    1  0.1813014E-010  0.4778727E+02  0.7816164E-02  0.1312668E+00
        -11   -1    0    0    0    0  0.00000000000E+00  0.00000000000E+00  0.45593999997E+02  0.45594000000E+02  0.51100000000E-03 0. -1.
         11   -1    0    0    0    0 -0.00000000000E+00 -0.00000000000E+00 -0.45593999997E+02  0.45594000000E+02  0.51100000000E-03 0.  1.
    9900012    2    1    2    0    0  0.46623597038E+01 -0.42798901757E+02  0.54899415621E+01  0.47787273647E+02  0.20000011864E+02 0.  0.
         12    1    1    2    0    0 -0.46623597038E+01  0.42798901757E+02 -0.54899415621E+01  0.43400726353E+02  0.00000000000E+00 0. -1.
         11    1    3    3    0    0 -0.30706367964E+01 -0.11526121638E+02  0.46756641008E+01  0.12811796337E+02  0.51100000000E-03 0. -1.
        -11    1    3    3    0    0  0.72556371293E+01 -0.62211573372E+01  0.24480318549E+01  0.98660999889E+01  0.51100000000E-03 0.  1.
        -12    1    3    3    0    0  0.47735937079E+00 -0.25051622782E+02 -0.16337543935E+01  0.25109377320E+02  0.00000000000E+00 0.  1.
</event>
<event>
 7    1  0.1813014E-010  0.4778727E+02  0.7816164E-02  0.1312668E+00
        -11   -1    0    0    0    0  0.00000000000E+00  0.00000000000E+00  0.45593999997E+02  0.45594000000E+02  0.51100000000E-03 0.  1.
         11   -1    0    0    0    0 -0.00000000000E+00 -0.00000000000E+00 -0.45593999997E+02  0.45594000000E+02  0.51100000000E-03 0. -1.
    9900012    2    1    2    0    0  0.25611554246E+02 -0.21343346268E+02  0.27787283437E+02  0.47787271186E+02  0.20000000645E+02 0.  0.
         12    1    1    2    0    0 -0.25611554246E+02  0.21343346268E+02 -0.27787283437E+02  0.43400728814E+02  0.00000000000E+00 0. -1.
         11    1    3    3    0    0 -0.14068750180E+01 -0.48947560066E+01  0.11009282871E+01  0.52105639844E+01  0.51100000000E-03 0. -1.
        -11    1    3    3    0    0  0.12939219552E+02 -0.13657759297E+02  0.15616920467E+02  0.24450889488E+02  0.51100000000E-03 0.  1.
         12    1    3    3    0    0  0.14079209712E+02 -0.27908309646E+01  0.11069434683E+02  0.18125817714E+02  0.00000000000E+00 0. -1.
</event>
<event>
 7    1  0.1813014E-010  0.4778726E+02  0.7816164E-02  0.1312668E+00
        -11   -1    0    0    0    0  0.00000000000E+00  0.00000000000E+00  0.45593999997E+02  0.45594000000E+02  0.51100000000E-03 0.  1.
         11   -1    0    0    0    0 -0.00000000000E+00 -0.00000000000E+00 -0.45593999997E+02  0.45594000000E+02  0.51100000000E-03 0. -1.
    9900012    2    1    2    0    0  0.25339895834E+02 -0.25434799209E+02  0.24384106365E+02  0.47787262968E+02  0.19999963178E+02 0.  0.
         12    1    1    2    0    0 -0.25339895834E+02  0.25434799209E+02 -0.24384106365E+02  0.43400737032E+02  0.00000000000E+00 0. -1.
         11    1    3    3    0    0  0.36990511511E+01  0.64952214639E-02 -0.24397830103E+01  0.44312033360E+01  0.51100000000E-03 0. -1.
        -11    1    3    3    0    0  0.10474491985E+02 -0.85640916262E+01  0.80009851785E+01  0.15718600822E+02  0.51100000000E-03 0.  1.
         12    1    3    3    0    0  0.11166352697E+02 -0.16877202804E+02  0.18822904197E+02  0.27637458810E+02  0.00000000000E+00 0. -1.
</event>
<event>
 7    1  0.1813014E-010  0.4778726E+02  0.7816164E-02  0.1312668E+00
        -11   -1    0    0    0    0  0.00000000000E+00  0.00000000000E+00  0.45593999997E+02  0.45594000000E+02  0.51100000000E-03 0.  1.
         11   -1    0    0    0    0 -0.00000000000E+00 -0.00000000000E+00 -0.45593999997E+02  0.45594000000E+02  0.51100000000E-03 0. -1.
    9900012    2    1    2    0    0 -0.30434635928E+02  0.42093752690E+01  0.30653520025E+02  0.47787260442E+02  0.19999951660E+02 0.  0.
         12    1    1    2    0    0  0.30434635928E+02 -0.42093752690E+01 -0.30653520025E+02  0.43400739558E+02  0.00000000000E+00 0. -1.
         11    1    3    3    0    0  0.13134114126E+01 -0.29820523908E+01  0.71748792209E+00  0.33365364047E+01  0.51100000000E-03 0. -1.
        -11    1    3    3    0    0 -0.99239203319E+01  0.20533060248E+01  0.12219758484E+02  0.15875224662E+02  0.51100000000E-03 0.  1.
        -12    1    3    3    0    0 -0.21824127009E+02  0.51381216349E+01  0.17716273619E+02  0.28575499376E+02  0.00000000000E+00 0.  1.
</event>
<event>
 7    1  0.1813014E-010  0.4778727E+02  0.7816164E-02  0.1312668E+00
        -11   -1    0    0    0    0  0.00000000000E+00  0.00000000000E+00  0.45593999997E+02  0.45594000000E+02  0.51100000000E-03 0.  1.
         11   -1    0    0    0    0 -0.00000000000E+00 -0.00000000000E+00 -0.45593999997E+02  0.45594000000E+02  0.51100000000E-03 0. -1.
    9900012    2    1    2    0    0  0.91716208339E+01  0.14734916511E+02  0.39779226462E+02  0.47787271305E+02  0.20000001189E+02 0.  0.
         12    1    1    2    0    0 -0.91716208339E+01 -0.14734916511E+02 -0.39779226462E+02  0.43400728695E+02  0.00000000000E+00 0. -1.
         11    1    3    3    0    0  0.14247640613E+02  0.77065826741E+01  0.25397676423E+02  0.30123556355E+02  0.51100000000E-03 0. -1.
        -11    1    3    3    0    0 -0.15365666498E+01  0.33763888427E+01  0.10864489358E+02  0.11480338320E+02  0.51100000000E-03 0.  1.
        -12    1    3    3    0    0 -0.35394531297E+01  0.36519449947E+01  0.35170606819E+01  0.61833766295E+01  0.00000000000E+00 0.  1.
</event>
<event>
 7    1  0.1813014E-010  0.4778727E+02  0.7816164E-02  0.1312668E+00
        -11   -1    0    0    0    0  0.00000000000E+00  0.00000000000E+00  0.45593999997E+02  0.45594000000E+02  0.51100000000E-03 0. -1.
         11   -1    0    0    0    0 -0.00000000000E+00 -0.00000000000E+00 -0.45593999997E+02  0.45594000000E+02  0.51100000000E-03 0.  1.
    9900012    2    1    2    0    0 -0.36000199320E+02  0.18074977777E+02 -0.16152518580E+02  0.47787273864E+02  0.20000012855E+02 0.  0.
         12    1    1    2    0    0  0.36000199320E+02 -0.18074977777E+02  0.16152518580E+02  0.43400726136E+02  0.00000000000E+00 0. -1.
         11    1    3    3    0    0 -0.26473699225E+02  0.14862537633E+02 -0.14820299962E+02  0.33784509272E+02  0.51100000000E-03 0. -1.
        -11    1    3    3    0    0 -0.38564055864E+01  0.61540318947E+01  0.70851022030E+00  0.72969829108E+01  0.51100000000E-03 0.  1.
         12    1    3    3    0    0 -0.56700945082E+01 -0.29415917506E+01 -0.20407288380E+01  0.67057816807E+01  0.00000000000E+00 0. -1.
</event>
<event>
 7    1  0.1813014E-010  0.4778729E+02  0.7816164E-02  0.1312668E+00
        -11   -1    0    0    0    0  0.00000000000E+00  0.00000000000E+00  0.45593999997E+02  0.45594000000E+02  0.51100000000E-03 0.  1.
         11   -1    0    0    0    0 -0.00000000000E+00 -0.00000000000E+00 -0.45593999997E+02  0.45594000000E+02  0.51100000000E-03 0. -1.
    9900012    2    1    2    0    0  0.13990445139E+02 -0.28995264205E+02  0.29106082655E+02  0.47787286308E+02  0.20000069591E+02 0.  0.
         12    1    1    2    0    0 -0.13990445139E+02  0.28995264205E+02 -0.29106082655E+02  0.43400713692E+02  0.00000000000E+00 0. -1.
         11    1    3    3    0    0 -0.32974333174E+01 -0.46938934640E+01  0.46276237848E+01  0.73702513179E+01  0.51100000000E-03 0. -1.
        -11    1    3    3    0    0  0.88926833752E+01 -0.21039913915E+02  0.19991044608E+02  0.30354565719E+02  0.51100000000E-03 0.  1.
         12    1    3    3    0    0  0.83951950812E+01 -0.32614568260E+01  0.44874142615E+01  0.10062469271E+02  0.00000000000E+00 0. -1.
</event>
<event>
 7    1  0.1813014E-010  0.4778728E+02  0.7816164E-02  0.1312668E+00
        -11   -1    0    0    0    0  0.00000000000E+00  0.00000000000E+00  0.45593999997E+02  0.45594000000E+02  0.51100000000E-03 0.  1.
         11   -1    0    0    0    0 -0.00000000000E+00 -0.00000000000E+00 -0.45593999997E+02  0.45594000000E+02  0.51100000000E-03 0. -1.
    9900012    2    1    2    0    0  0.36378881778E+02 -0.19100261213E+02  0.13977833547E+02  0.47787275945E+02  0.20000022343E+02 0.  0.
         12    1    1    2    0    0 -0.36378881778E+02  0.19100261213E+02 -0.13977833547E+02  0.43400724055E+02  0.00000000000E+00 0. -1.
         11    1    3    3    0    0  0.34866847103E+02 -0.18648173595E+02  0.98476793283E+01  0.40748352037E+02  0.51100000000E-03 0. -1.
        -11    1    3    3    0    0  0.45737899762E+00 -0.28326190350E+01  0.31394274756E+01  0.42531084257E+01  0.51100000000E-03 0.  1.
        -12    1    3    3    0    0  0.10546556780E+01  0.23805314165E+01  0.99072674312E+00  0.27858154826E+01  0.00000000000E+00 0.  1.
</event>
<event>
 7    1  0.1813014E-010  0.4778727E+02  0.7816164E-02  0.1312668E+00
        -11   -1    0    0    0    0  0.00000000000E+00  0.00000000000E+00  0.45593999997E+02  0.45594000000E+02  0.51100000000E-03 0.  1.
         11   -1    0    0    0    0 -0.00000000000E+00 -0.00000000000E+00 -0.45593999997E+02  0.45594000000E+02  0.51100000000E-03 0. -1.
    9900012    2    1    2    0    0 -0.39034895332E+02  0.14809861667E+02  0.11856151041E+02  0.47787269895E+02  0.19999994758E+02 0.  0.
         12    1    1    2    0    0  0.39034895332E+02 -0.14809861667E+02 -0.11856151041E+02  0.43400730105E+02  0.00000000000E+00 0. -1.
         11    1    3    3    0    0  0.81173734126E+00 -0.84734159823E-02  0.88471843476E-01  0.81658853665E+00  0.51100000000E-03 0. -1.
        -11    1    3    3    0    0 -0.38632367509E+02  0.91846797061E+01  0.10202713757E+02  0.40998945461E+02  0.51100000000E-03 0.  1.
        -12    1    3    3    0    0 -0.12142651643E+01  0.56336553767E+01  0.15649654415E+01  0.59717358972E+01  0.00000000000E+00 0.  1.
</event>
<event>
 7    1  0.1813014E-010  0.4778727E+02  0.7816164E-02  0.1312668E+00
        -11   -1    0    0    0    0  0.00000000000E+00  0.00000000000E+00  0.45593999997E+02  0.45594000000E+02  0.51100000000E-03 0.  1.
         11   -1    0    0    0    0 -0.00000000000E+00 -0.00000000000E+00 -0.45593999997E+02  0.45594000000E+02  0.51100000000E-03 0. -1.
    9900012    2    1    2    0    0 -0.28793756523E+02 -0.12044000404E+02  0.30157668536E+02  0.47787270375E+02  0.19999996948E+02 0.  0.
         12    1    1    2    0    0  0.28793756523E+02  0.12044000404E+02 -0.30157668536E+02  0.43400729625E+02  0.00000000000E+00 0. -1.
         11    1    3    3    0    0  0.79408776252E+00  0.10215631396E+01  0.39785565233E+00  0.13536823867E+01  0.51100000000E-03 0. -1.
        -11    1    3    3    0    0 -0.25343017253E+02 -0.57469989212E+01  0.16757581083E+02  0.30921077668E+02  0.51100000000E-03 0.  1.
        -12    1    3    3    0    0 -0.42448270325E+01 -0.73185646226E+01  0.13002231800E+02  0.15512510321E+02  0.00000000000E+00 0.  1.
</event>
<event>
 7    1  0.1813014E-010  0.4778727E+02  0.7816164E-02  0.1312668E+00
        -11   -1    0    0    0    0  0.00000000000E+00  0.00000000000E+00  0.45593999997E+02  0.45594000000E+02  0.51100000000E-03 0. -1.
         11   -1    0    0    0    0 -0.00000000000E+00 -0.00000000000E+00 -0.45593999997E+02  0.45594000000E+02  0.51100000000E-03 0.  1.
    9900012    2    1    2    0    0 -0.10838267564E+02 -0.41097426184E+02 -0.87838883509E+01  0.47787272157E+02  0.20000005074E+02 0.  0.
         12    1    1    2    0    0  0.10838267564E+02  0.41097426184E+02  0.87838883509E+01  0.43400727843E+02  0.00000000000E+00 0. -1.
         11    1    3    3    0    0  0.57570256495E+01 -0.93482566691E+01 -0.18866776807E+01  0.11139694790E+02  0.51100000000E-03 0. -1.
        -11    1    3    3    0    0 -0.50558397478E+01 -0.11698904763E+02 -0.10595552492E+01  0.12788610003E+02  0.51100000000E-03 0.  1.
        -12    1    3    3    0    0 -0.11539453466E+02 -0.20050264751E+02 -0.58376554210E+01  0.23858967365E+02  0.00000000000E+00 0.  1.
</event>
<event>
 7    1  0.1813014E-010  0.4778725E+02  0.7816164E-02  0.1312668E+00
        -11   -1    0    0    0    0  0.00000000000E+00  0.00000000000E+00  0.45593999997E+02  0.45594000000E+02  0.51100000000E-03 0. -1.
         11   -1    0    0    0    0 -0.00000000000E+00 -0.00000000000E+00 -0.45593999997E+02  0.45594000000E+02  0.51100000000E-03 0.  1.
    9900012    2    1    2    0    0  0.42989828484E+02 -0.18346208414E+00 -0.59553127845E+01  0.47787253903E+02  0.19999921844E+02 0.  0.
         12    1    1    2    0    0 -0.42989828484E+02  0.18346208414E+00  0.59553127845E+01  0.43400746097E+02  0.00000000000E+00 0. -1.
         11    1    3    3    0    0  0.52021893854E+01  0.12210194410E+01  0.47330296173E+01  0.71382933882E+01  0.51100000000E-03 0. -1.
        -11    1    3    3    0    0  0.18923180641E+02  0.44853560373E+01 -0.48769908925E+01  0.20049693883E+02  0.51100000000E-03 0.  1.
        -12    1    3    3    0    0  0.18864458457E+02 -0.58898375624E+01 -0.58113515092E+01  0.20599266632E+02  0.00000000000E+00 0.  1.
</event>
<event>
 7    1  0.1813014E-010  0.4778727E+02  0.7816164E-02  0.1312668E+00
        -11   -1    0    0    0    0  0.00000000000E+00  0.00000000000E+00  0.45593999997E+02  0.45594000000E+02  0.51100000000E-03 0.  1.
         11   -1    0    0    0    0 -0.00000000000E+00 -0.00000000000E+00 -0.45593999997E+02  0.45594000000E+02  0.51100000000E-03 0. -1.
    9900012    2    1    2    0    0 -0.24307240567E+02 -0.35935128761E+02  0.12032416200E+01  0.47787271741E+02  0.20000003175E+02 0.  0.
         12    1    1    2    0    0  0.24307240567E+02  0.35935128761E+02 -0.12032416200E+01  0.43400728259E+02  0.00000000000E+00 0. -1.
         11    1    3    3    0    0 -0.51722294092E+01 -0.12079147693E+02  0.44020675028E+01  0.13857704161E+02  0.51100000000E-03 0. -1.
        -11    1    3    3    0    0 -0.13203592707E+02 -0.24301936821E+02 -0.13078983624E+01  0.27688076712E+02  0.51100000000E-03 0.  1.
         12    1    3    3    0    0 -0.59314184509E+01  0.44595575265E+00 -0.18909275203E+01  0.62414908684E+01  0.00000000000E+00 0. -1.
</event>
<event>
 7    1  0.1813014E-010  0.4778727E+02  0.7816164E-02  0.1312668E+00
        -11   -1    0    0    0    0  0.00000000000E+00  0.00000000000E+00  0.45593999997E+02  0.45594000000E+02  0.51100000000E-03 0.  1.
         11   -1    0    0    0    0 -0.00000000000E+00 -0.00000000000E+00 -0.45593999997E+02  0.45594000000E+02  0.51100000000E-03 0. -1.
    9900012    2    1    2    0    0  0.23234970321E+01  0.29352261691E+01  0.43238977484E+02  0.47787269994E+02  0.19999995213E+02 0.  0.
         12    1    1    2    0    0 -0.23234970321E+01 -0.29352261691E+01 -0.43238977484E+02  0.43400730006E+02  0.00000000000E+00 0. -1.
         11    1    3    3    0    0  0.64203827017E+01 -0.30268164233E+01  0.92777025755E+01  0.11681553708E+02  0.51100000000E-03 0. -1.
        -11    1    3    3    0    0  0.27518894692E+01  0.12967767862E+01  0.16496873901E+02  0.16775022338E+02  0.51100000000E-03 0.  1.
        -12    1    3    3    0    0 -0.68487751388E+01  0.46652658063E+01  0.17464401008E+02  0.19330693948E+02  0.00000000000E+00 0.  1.
</event>
<event>
 7    1  0.1813014E-010  0.4778727E+02  0.7816164E-02  0.1312668E+00
        -11   -1    0    0    0    0  0.00000000000E+00  0.00000000000E+00  0.45593999997E+02  0.45594000000E+02  0.51100000000E-03 0.  1.
         11   -1    0    0    0    0 -0.00000000000E+00 -0.00000000000E+00 -0.45593999997E+02  0.45594000000E+02  0.51100000000E-03 0. -1.
    9900012    2    1    2    0    0 -0.32908459601E+02  0.23288174770E+01  0.28199880109E+02  0.47787270256E+02  0.19999996406E+02 0.  0.
         12    1    1    2    0    0  0.32908459601E+02 -0.23288174770E+01 -0.28199880109E+02  0.43400729744E+02  0.00000000000E+00 0. -1.
         11    1    3    3    0    0 -0.21915753964E+02 -0.67768683972E+01  0.19118854456E+02  0.29862297518E+02  0.51100000000E-03 0.  1.
        -11    1    3    3    0    0  0.17421413706E+00  0.15674915842E+01 -0.16302067420E+00  0.15855460994E+01  0.51100000000E-03 0. -1.
         12    1    3    3    0    0 -0.11166919774E+02  0.75381942900E+01  0.92440463271E+01  0.16339426639E+02  0.00000000000E+00 0. -1.
</event>
<event>
 7    1  0.1813014E-010  0.4778727E+02  0.7816164E-02  0.1312668E+00
        -11   -1    0    0    0    0  0.00000000000E+00  0.00000000000E+00  0.45593999997E+02  0.45594000000E+02  0.51100000000E-03 0. -1.
         11   -1    0    0    0    0 -0.00000000000E+00 -0.00000000000E+00 -0.45593999997E+02  0.45594000000E+02  0.51100000000E-03 0.  1.
    9900012    2    1    2    0    0 -0.43209983602E+02 -0.31073009726E+01 -0.26201904286E+01  0.47787269590E+02  0.19999993368E+02 0.  0.
         12    1    1    2    0    0  0.43209983602E+02  0.31073009726E+01  0.26201904286E+01  0.43400730410E+02  0.00000000000E+00 0. -1.
         11    1    3    3    0    0  0.18506216608E+01  0.40419884058E+00  0.32299935178E+00  0.19215894662E+01  0.51100000000E-03 0. -1.
        -11    1    3    3    0    0 -0.21536476296E+02  0.53519386442E+00  0.14630433274E+01  0.21592747388E+02  0.51100000000E-03 0.  1.
        -12    1    3    3    0    0 -0.23524128967E+02 -0.40466936776E+01 -0.44062331077E+01  0.24272932736E+02  0.00000000000E+00 0.  1.
</event>
<event>
 7    1  0.1813014E-010  0.4778727E+02  0.7816164E-02  0.1312668E+00
        -11   -1    0    0    0    0  0.00000000000E+00  0.00000000000E+00  0.45593999997E+02  0.45594000000E+02  0.51100000000E-03 0.  1.
         11   -1    0    0    0    0 -0.00000000000E+00 -0.00000000000E+00 -0.45593999997E+02  0.45594000000E+02  0.51100000000E-03 0. -1.
    9900012    2    1    2    0    0 -0.63057980250E+01  0.26626933285E+02  0.33687788413E+02  0.47787265524E+02  0.19999974832E+02 0.  0.
         12    1    1    2    0    0  0.63057980250E+01 -0.26626933285E+02 -0.33687788413E+02  0.43400734476E+02  0.00000000000E+00 0. -1.
         11    1    3    3    0    0  0.58166627952E+01  0.80361245671E+01  0.82319380452E+01  0.12890991753E+02  0.51100000000E-03 0. -1.
        -11    1    3    3    0    0 -0.56520274318E+01  0.10954904667E+02  0.20009189201E+02  0.23501553206E+02  0.51100000000E-03 0.  1.
        -12    1    3    3    0    0 -0.64704333884E+01  0.76359040503E+01  0.54466611666E+01  0.11394720565E+02  0.00000000000E+00 0.  1.
</event>
<event>
 7    1  0.1813014E-010  0.4778727E+02  0.7816164E-02  0.1312668E+00
        -11   -1    0    0    0    0  0.00000000000E+00  0.00000000000E+00  0.45593999997E+02  0.45594000000E+02  0.51100000000E-03 0.  1.
         11   -1    0    0    0    0 -0.00000000000E+00 -0.00000000000E+00 -0.45593999997E+02  0.45594000000E+02  0.51100000000E-03 0. -1.
    9900012    2    1    2    0    0  0.91213422840E+01 -0.17331324871E+02  0.38730474173E+02  0.47787270323E+02  0.19999996711E+02 0.  0.
         12    1    1    2    0    0 -0.91213422840E+01  0.17331324871E+02 -0.38730474173E+02  0.43400729677E+02  0.00000000000E+00 0. -1.
         11    1    3    3    0    0 -0.21679157101E+01 -0.42937169582E+01  0.14967644138E+02  0.15721521400E+02  0.51100000000E-03 0. -1.
        -11    1    3    3    0    0  0.83382683968E+01 -0.15078190714E+02  0.22324471573E+02  0.28200365004E+02  0.51100000000E-03 0.  1.
        -12    1    3    3    0    0  0.29509895973E+01  0.20405828018E+01  0.14383584621E+01  0.38653839188E+01  0.00000000000E+00 0.  1.
</event>
<event>
 7    1  0.1813014E-010  0.4778728E+02  0.7816164E-02  0.1312668E+00
        -11   -1    0    0    0    0  0.00000000000E+00  0.00000000000E+00  0.45593999997E+02  0.45594000000E+02  0.51100000000E-03 0.  1.
         11   -1    0    0    0    0 -0.00000000000E+00 -0.00000000000E+00 -0.45593999997E+02  0.45594000000E+02  0.51100000000E-03 0. -1.
    9900012    2    1    2    0    0 -0.20456024546E+02  0.19933187194E+02  0.32677849750E+02  0.47787277008E+02  0.20000027189E+02 0.  0.
         12    1    1    2    0    0  0.20456024546E+02 -0.19933187194E+02 -0.32677849750E+02  0.43400722992E+02  0.00000000000E+00 0. -1.
         11    1    3    3    0    0 -0.33055376364E+01 -0.95804049609E+00  0.30173465500E+00  0.34547741924E+01  0.51100000000E-03 0. -1.
        -11    1    3    3    0    0 -0.13037500035E+02  0.97413157957E+01  0.26441706953E+02  0.31048888989E+02  0.51100000000E-03 0.  1.
         12    1    3    3    0    0 -0.41129868749E+01  0.11149911895E+02  0.59344081420E+01  0.13283613826E+02  0.00000000000E+00 0. -1.
</event>
<event>
 7    1  0.1813014E-010  0.4778727E+02  0.7816164E-02  0.1312668E+00
        -11   -1    0    0    0    0  0.00000000000E+00  0.00000000000E+00  0.45593999997E+02  0.45594000000E+02  0.51100000000E-03 0.  1.
         11   -1    0    0    0    0 -0.00000000000E+00 -0.00000000000E+00 -0.45593999997E+02  0.45594000000E+02  0.51100000000E-03 0. -1.
    9900012    2    1    2    0    0  0.22937012670E+02  0.81129698779E+01  0.35940176806E+02  0.47787272595E+02  0.20000007070E+02 0.  0.
         12    1    1    2    0    0 -0.22937012670E+02 -0.81129698779E+01 -0.35940176806E+02  0.43400727405E+02  0.00000000000E+00 0. -1.
         11    1    3    3    0    0 -0.75327775993E+00 -0.15998848527E+01 -0.33348657011E-01  0.17686637102E+01  0.51100000000E-03 0. -1.
        -11    1    3    3    0    0  0.21972055191E+02  0.45128040441E+01  0.23989722377E+02  0.32842706795E+02  0.51100000000E-03 0.  1.
         12    1    3    3    0    0  0.17182352388E+01  0.52000506866E+01  0.11983803086E+02  0.13175902090E+02  0.00000000000E+00 0. -1.
</event>
<event>
 7    1  0.1813014E-010  0.4778727E+02  0.7816164E-02  0.1312668E+00
        -11   -1    0    0    0    0  0.00000000000E+00  0.00000000000E+00  0.45593999997E+02  0.45594000000E+02  0.51100000000E-03 0. -1.
         11   -1    0    0    0    0 -0.00000000000E+00 -0.00000000000E+00 -0.45593999997E+02  0.45594000000E+02  0.51100000000E-03 0.  1.
    9900012    2    1    2    0    0 -0.12070603257E+02  0.22371608486E+02 -0.35177196737E+02  0.47787268445E+02  0.19999988148E+02 0.  0.
         12    1    1    2    0    0  0.12070603257E+02 -0.22371608486E+02  0.35177196737E+02  0.43400731555E+02  0.00000000000E+00 0. -1.
         11    1    3    3    0    0 -0.33610882686E+01  0.13565659306E+00 -0.92866994901E+01  0.98771506388E+01  0.51100000000E-03 0. -1.
        -11    1    3    3    0    0  0.89339992565E+00  0.73391737785E+01 -0.15971231522E+02  0.17599484986E+02  0.51100000000E-03 0.  1.
        -12    1    3    3    0    0 -0.96029149140E+01  0.14896778114E+02 -0.99192657244E+01  0.20310632820E+02  0.00000000000E+00 0.  1.
</event>
<event>
 7    1  0.1813014E-010  0.4778726E+02  0.7816164E-02  0.1312668E+00
        -11   -1    0    0    0    0  0.00000000000E+00  0.00000000000E+00  0.45593999997E+02  0.45594000000E+02  0.51100000000E-03 0.  1.
         11   -1    0    0    0    0 -0.00000000000E+00 -0.00000000000E+00 -0.45593999997E+02  0.45594000000E+02  0.51100000000E-03 0. -1.
    9900012    2    1    2    0    0 -0.40004889710E+02  0.15303630286E+02  0.70022550575E+01  0.47787264102E+02  0.19999968346E+02 0.  0.
         12    1    1    2    0    0  0.40004889710E+02 -0.15303630286E+02 -0.70022550575E+01  0.43400735898E+02  0.00000000000E+00 0. -1.
         11    1    3    3    0    0 -0.72030493446E+01 -0.30448633020E+01 -0.13677453889E+00  0.78213694405E+01  0.51100000000E-03 0. -1.
        -11    1    3    3    0    0 -0.95287086710E+01  0.65753183698E+01  0.76552342938E+01  0.13879254769E+02  0.51100000000E-03 0.  1.
        -12    1    3    3    0    0 -0.23273131694E+02  0.11773175218E+02 -0.51620469738E+00  0.26086639892E+02  0.00000000000E+00 0.  1.
</event>
<event>
 7    1  0.1813014E-010  0.4778727E+02  0.7816164E-02  0.1312668E+00
        -11   -1    0    0    0    0  0.00000000000E+00  0.00000000000E+00  0.45593999997E+02  0.45594000000E+02  0.51100000000E-03 0. -1.
         11   -1    0    0    0    0 -0.00000000000E+00 -0.00000000000E+00 -0.45593999997E+02  0.45594000000E+02  0.51100000000E-03 0.  1.
    9900012    2    1    2    0    0 -0.16401274528E+02  0.36549736611E+02 -0.16695451321E+02  0.47787272503E+02  0.20000006648E+02 0.  0.
         12    1    1    2    0    0  0.16401274528E+02 -0.36549736611E+02  0.16695451321E+02  0.43400727497E+02  0.00000000000E+00 0. -1.
         11    1    3    3    0    0 -0.92774811895E+01  0.17371823266E+02 -0.48006212397E+01  0.20270615811E+02  0.51100000000E-03 0. -1.
        -11    1    3    3    0    0  0.39203602778E+01  0.63906036207E+01 -0.14019140035E+01  0.76272145951E+01  0.51100000000E-03 0.  1.
         12    1    3    3    0    0 -0.11044153616E+02  0.12787309725E+02 -0.10492916078E+02  0.19889442096E+02  0.00000000000E+00 0. -1.
</event>
<event>
 7    1  0.1813014E-010  0.4778727E+02  0.7816164E-02  0.1312668E+00
        -11   -1    0    0    0    0  0.00000000000E+00  0.00000000000E+00  0.45593999997E+02  0.45594000000E+02  0.51100000000E-03 0. -1.
         11   -1    0    0    0    0 -0.00000000000E+00 -0.00000000000E+00 -0.45593999997E+02  0.45594000000E+02  0.51100000000E-03 0.  1.
    9900012    2    1    2    0    0 -0.24274720094E+02  0.35976594875E+02 -0.21342979209E+00  0.47787274583E+02  0.20000016134E+02 0.  0.
         12    1    1    2    0    0  0.24274720094E+02 -0.35976594875E+02  0.21342979209E+00  0.43400725417E+02  0.00000000000E+00 0. -1.
         11    1    3    3    0    0 -0.71596300115E-01  0.26784129562E+01  0.40488147674E+01  0.48550925095E+01  0.51100000000E-03 0. -1.
        -11    1    3    3    0    0 -0.93604897895E+01  0.22405185043E+02 -0.31835093860E+01  0.24489708413E+02  0.51100000000E-03 0.  1.
        -12    1    3    3    0    0 -0.14842634004E+02  0.10892996876E+02 -0.10787351735E+01  0.18442473660E+02  0.00000000000E+00 0.  1.
</event>
<event>
 7    1  0.1813014E-010  0.4778727E+02  0.7816164E-02  0.1312668E+00
        -11   -1    0    0    0    0  0.00000000000E+00  0.00000000000E+00  0.45593999997E+02  0.45594000000E+02  0.51100000000E-03 0.  1.
         11   -1    0    0    0    0 -0.00000000000E+00 -0.00000000000E+00 -0.45593999997E+02  0.45594000000E+02  0.51100000000E-03 0. -1.
    9900012    2    1    2    0    0  0.14262580372E+02  0.24334581058E+02  0.32985309088E+02  0.47787266714E+02  0.19999980256E+02 0.  0.
         12    1    1    2    0    0 -0.14262580372E+02 -0.24334581058E+02 -0.32985309088E+02  0.43400733286E+02  0.00000000000E+00 0. -1.
         11    1    3    3    0    0  0.76401863451E+01  0.53951220402E+01  0.13586504745E+02  0.16494632480E+02  0.51100000000E-03 0. -1.
        -11    1    3    3    0    0  0.10847446187E+01  0.38107016394E+01  0.13608063975E+02  0.14173126800E+02  0.51100000000E-03 0.  1.
         12    1    3    3    0    0  0.55376494081E+01  0.15128757379E+02  0.57907403683E+01  0.17119507434E+02  0.00000000000E+00 0. -1.
</event>
<event>
 7    1  0.1813014E-010  0.4778727E+02  0.7816164E-02  0.1312668E+00
        -11   -1    0    0    0    0  0.00000000000E+00  0.00000000000E+00  0.45593999997E+02  0.45594000000E+02  0.51100000000E-03 0.  1.
         11   -1    0    0    0    0 -0.00000000000E+00 -0.00000000000E+00 -0.45593999997E+02  0.45594000000E+02  0.51100000000E-03 0. -1.
    9900012    2    1    2    0    0 -0.24901655790E+02 -0.12342334208E+01  0.35524744231E+02  0.47787271367E+02  0.20000001471E+02 0.  0.
         12    1    1    2    0    0  0.24901655790E+02  0.12342334208E+01 -0.35524744231E+02  0.43400728633E+02  0.00000000000E+00 0. -1.
         11    1    3    3    0    0 -0.12454490213E+02  0.21850655042E+01  0.23215835079E+02  0.26436032917E+02  0.51100000000E-03 0.  1.
        -11    1    3    3    0    0 -0.76868606796E+01  0.33231549487E+01  0.29643747190E+01  0.88836199636E+01  0.51100000000E-03 0. -1.
        -12    1    3    3    0    0 -0.47603048973E+01 -0.67424538738E+01  0.93445344329E+01  0.12467618486E+02  0.00000000000E+00 0.  1.
</event>
<event>
 7    1  0.1813014E-010  0.4778727E+02  0.7816164E-02  0.1312668E+00
        -11   -1    0    0    0    0  0.00000000000E+00  0.00000000000E+00  0.45593999997E+02  0.45594000000E+02  0.51100000000E-03 0. -1.
         11   -1    0    0    0    0 -0.00000000000E+00 -0.00000000000E+00 -0.45593999997E+02  0.45594000000E+02  0.51100000000E-03 0.  1.
    9900012    2    1    2    0    0  0.23393271024E+02  0.36362595856E+02  0.37602754319E+01  0.47787272150E+02  0.20000005040E+02 0.  0.
         12    1    1    2    0    0 -0.23393271024E+02 -0.36362595856E+02 -0.37602754319E+01  0.43400727850E+02  0.00000000000E+00 0. -1.
         11    1    3    3    0    0  0.34937074582E+01  0.63917065556E+01 -0.42450945702E+01  0.84309390145E+01  0.51100000000E-03 0. -1.
        -11    1    3    3    0    0  0.13285993254E+02  0.28918187442E+02  0.62314003699E+01  0.32428529607E+02  0.51100000000E-03 0.  1.
         12    1    3    3    0    0  0.66135703112E+01  0.10527018589E+01  0.17739696322E+01  0.69278035279E+01  0.00000000000E+00 0. -1.
</event>
<event>
 7    1  0.1813014E-010  0.4778727E+02  0.7816164E-02  0.1312668E+00
        -11   -1    0    0    0    0  0.00000000000E+00  0.00000000000E+00  0.45593999997E+02  0.45594000000E+02  0.51100000000E-03 0. -1.
         11   -1    0    0    0    0 -0.00000000000E+00 -0.00000000000E+00 -0.45593999997E+02  0.45594000000E+02  0.51100000000E-03 0.  1.
    9900012    2    1    2    0    0  0.36820373843E+02 -0.47346003653E+01  0.22482593319E+02  0.47787269904E+02  0.19999994798E+02 0.  0.
         12    1    1    2    0    0 -0.36820373843E+02  0.47346003653E+01 -0.22482593319E+02  0.43400730096E+02  0.00000000000E+00 0. -1.
         11    1    3    3    0    0  0.34156804216E+01 -0.60094657022E+01  0.53682510998E+01  0.87520666645E+01  0.51100000000E-03 0. -1.
        -11    1    3    3    0    0  0.18472831544E+02 -0.11025633556E+01  0.38069575699E+01  0.18893228348E+02  0.51100000000E-03 0.  1.
        -12    1    3    3    0    0  0.14931861877E+02  0.23774286924E+01  0.13307384649E+02  0.20141974891E+02  0.00000000000E+00 0.  1.
</event>
<event>
 7    1  0.1813014E-010  0.4778727E+02  0.7816164E-02  0.1312668E+00
        -11   -1    0    0    0    0  0.00000000000E+00  0.00000000000E+00  0.45593999997E+02  0.45594000000E+02  0.51100000000E-03 0.  1.
         11   -1    0    0    0    0 -0.00000000000E+00 -0.00000000000E+00 -0.45593999997E+02  0.45594000000E+02  0.51100000000E-03 0. -1.
    9900012    2    1    2    0    0  0.23217580028E+02 -0.34022247463E+02 -0.13676761820E+02  0.47787272372E+02  0.20000006052E+02 0.  0.
         12    1    1    2    0    0 -0.23217580028E+02  0.34022247463E+02  0.13676761820E+02  0.43400727628E+02  0.00000000000E+00 0. -1.
         11    1    3    3    0    0 -0.19377768122E+01 -0.76674012438E+01 -0.15834049531E+01  0.80654319360E+01  0.51100000000E-03 0. -1.
        -11    1    3    3    0    0  0.14063626992E+01 -0.62668433743E+01 -0.40513234484E+01  0.75937081761E+01  0.51100000000E-03 0.  1.
        -12    1    3    3    0    0  0.23748994141E+02 -0.20088002845E+02 -0.80420334183E+01  0.32128132260E+02  0.00000000000E+00 0.  1.
</event>
<event>
 7    1  0.1813014E-010  0.4778727E+02  0.7816164E-02  0.1312668E+00
        -11   -1    0    0    0    0  0.00000000000E+00  0.00000000000E+00  0.45593999997E+02  0.45594000000E+02  0.51100000000E-03 0.  1.
         11   -1    0    0    0    0 -0.00000000000E+00 -0.00000000000E+00 -0.45593999997E+02  0.45594000000E+02  0.51100000000E-03 0. -1.
    9900012    2    1    2    0    0  0.22561743173E+02  0.37072147664E+02 -0.49658283156E+00  0.47787274407E+02  0.20000015333E+02 0.  0.
         12    1    1    2    0    0 -0.22561743173E+02 -0.37072147664E+02  0.49658283156E+00  0.43400725593E+02  0.00000000000E+00 0. -1.
         11    1    3    3    0    0  0.77337010556E+00 -0.22281507632E+01  0.57334707291E+00  0.24272379922E+01  0.51100000000E-03 0. -1.
        -11    1    3    3    0    0  0.79634012777E+01  0.11831301157E+02  0.22172524769E+01  0.14433005778E+02  0.51100000000E-03 0.  1.
        -12    1    3    3    0    0  0.13824971790E+02  0.27468997270E+02 -0.32871823814E+01  0.30927030637E+02  0.00000000000E+00 0.  1.
</event>
<event>
 7    1  0.1813014E-010  0.4778726E+02  0.7816164E-02  0.1312668E+00
        -11   -1    0    0    0    0  0.00000000000E+00  0.00000000000E+00  0.45593999997E+02  0.45594000000E+02  0.51100000000E-03 0.  1.
         11   -1    0    0    0    0 -0.00000000000E+00 -0.00000000000E+00 -0.45593999997E+02  0.45594000000E+02  0.51100000000E-03 0. -1.
    9900012    2    1    2    0    0  0.34280485999E+02 -0.15181548597E+02  0.21863044151E+02  0.47787264549E+02  0.19999970385E+02 0.  0.
         12    1    1    2    0    0 -0.34280485999E+02  0.15181548597E+02 -0.21863044151E+02  0.43400735451E+02  0.00000000000E+00 0. -1.
         11    1    3    3    0    0  0.22311391602E+02 -0.32007066306E+01  0.87831674225E+01  0.24190633484E+02  0.51100000000E-03 0.  1.
        -11    1    3    3    0    0  0.33082241059E+01 -0.99093163596E+00  0.79948488440E+01  0.87088403672E+01  0.51100000000E-03 0. -1.
        -12    1    3    3    0    0  0.86608702919E+01 -0.10989910330E+02  0.50850278844E+01  0.14887790698E+02  0.00000000000E+00 0.  1.
</event>
<event>
 7    1  0.1813014E-010  0.4778727E+02  0.7816164E-02  0.1312668E+00
        -11   -1    0    0    0    0  0.00000000000E+00  0.00000000000E+00  0.45593999997E+02  0.45594000000E+02  0.51100000000E-03 0. -1.
         11   -1    0    0    0    0 -0.00000000000E+00 -0.00000000000E+00 -0.45593999997E+02  0.45594000000E+02  0.51100000000E-03 0.  1.
    9900012    2    1    2    0    0  0.24360043689E+02 -0.35918371197E+02  0.28661298942E+00  0.47787271147E+02  0.20000000467E+02 0.  0.
         12    1    1    2    0    0 -0.24360043689E+02  0.35918371197E+02 -0.28661298942E+00  0.43400728853E+02  0.00000000000E+00 0. -1.
         11    1    3    3    0    0  0.61226618849E+01 -0.18715958809E+02  0.26199709669E-01  0.19691998105E+02  0.51100000000E-03 0. -1.
        -11    1    3    3    0    0  0.19187797733E+02 -0.13945261347E+02  0.27612335057E+01  0.23880249300E+02  0.51100000000E-03 0.  1.
         12    1    3    3    0    0 -0.95041592894E+00 -0.32571510412E+01 -0.25008202260E+01  0.42150237420E+01  0.00000000000E+00 0. -1.
</event>
<event>
 7    1  0.1813014E-010  0.4778727E+02  0.7816164E-02  0.1312668E+00
        -11   -1    0    0    0    0  0.00000000000E+00  0.00000000000E+00  0.45593999997E+02  0.45594000000E+02  0.51100000000E-03 0.  1.
         11   -1    0    0    0    0 -0.00000000000E+00 -0.00000000000E+00 -0.45593999997E+02  0.45594000000E+02  0.51100000000E-03 0. -1.
    9900012    2    1    2    0    0  0.11385010826E+02 -0.29063547366E+02  0.30154856541E+02  0.47787266942E+02  0.19999981294E+02 0.  0.
         12    1    1    2    0    0 -0.11385010826E+02  0.29063547366E+02 -0.30154856541E+02  0.43400733058E+02  0.00000000000E+00 0. -1.
         11    1    3    3    0    0 -0.88842403693E+00 -0.17302176507E+02  0.13333873584E+02  0.21861994286E+02  0.51100000000E-03 0. -1.
        -11    1    3    3    0    0  0.87060673900E+01 -0.79030803406E+01  0.16996884435E+02  0.20667568048E+02  0.51100000000E-03 0.  1.
         12    1    3    3    0    0  0.35673674730E+01 -0.38582905187E+01 -0.17590147822E+00  0.52577046079E+01  0.00000000000E+00 0. -1.
</event>
<event>
 7    1  0.1813014E-010  0.4778728E+02  0.7816164E-02  0.1312668E+00
        -11   -1    0    0    0    0  0.00000000000E+00  0.00000000000E+00  0.45593999997E+02  0.45594000000E+02  0.51100000000E-03 0.  1.
         11   -1    0    0    0    0 -0.00000000000E+00 -0.00000000000E+00 -0.45593999997E+02  0.45594000000E+02  0.51100000000E-03 0. -1.
    9900012    2    1    2    0    0  0.19056108156E+02  0.18760637469E+02  0.34183711613E+02  0.47787275168E+02  0.20000018800E+02 0.  0.
         12    1    1    2    0    0 -0.19056108156E+02 -0.18760637469E+02 -0.34183711613E+02  0.43400724832E+02  0.00000000000E+00 0. -1.
         11    1    3    3    0    0  0.82921578982E+00 -0.33813934680E+01  0.41978370915E+01  0.54537379034E+01  0.51100000000E-03 0. -1.
        -11    1    3    3    0    0 -0.62551074312E-01  0.41433755455E+01  0.52896195656E+01  0.67194902305E+01  0.51100000000E-03 0.  1.
        -12    1    3    3    0    0  0.18289443440E+02  0.17998655392E+02  0.24696254956E+02  0.35614047034E+02  0.00000000000E+00 0.  1.
</event>
<event>
 7    1  0.2131134E-010  0.4778727E+02  0.7816164E-02  0.1312668E+00
        -11   -1    0    0    0    0  0.00000000000E+00  0.00000000000E+00  0.45593999997E+02  0.45594000000E+02  0.51100000000E-03 0.  1.
         11   -1    0    0    0    0 -0.00000000000E+00 -0.00000000000E+00 -0.45593999997E+02  0.45594000000E+02  0.51100000000E-03 0. -1.
    9900012    2    1    2    0    0  0.23211082739E+01  0.41122919754E+02 -0.13679951276E+02  0.47787272591E+02  0.20000007050E+02 0.  0.
         12    1    1    2    0    0 -0.23211082739E+01 -0.41122919754E+02  0.13679951276E+02  0.43400727409E+02  0.00000000000E+00 0. -1.
         11    1    3    3    0    0  0.25333766387E+01  0.86993364991E+01 -0.11565427917E+02  0.14692024227E+02  0.51100000000E-03 0. -1.
        -11    1    3    3    0    0  0.27247171331E+01  0.15251300523E+02 -0.23623744533E+01  0.15671855807E+02  0.51100000000E-03 0.  1.
         12    1    3    3    0    0 -0.29369854979E+01  0.17172282732E+02  0.24785109381E+00  0.17423392557E+02  0.00000000000E+00 0. -1.
</event>
<event>
 7    1  0.1813014E-010  0.4778728E+02  0.7816164E-02  0.1312668E+00
        -11   -1    0    0    0    0  0.00000000000E+00  0.00000000000E+00  0.45593999997E+02  0.45594000000E+02  0.51100000000E-03 0.  1.
         11   -1    0    0    0    0 -0.00000000000E+00 -0.00000000000E+00 -0.45593999997E+02  0.45594000000E+02  0.51100000000E-03 0. -1.
    9900012    2    1    2    0    0  0.14182762461E+02 -0.20446319576E+02  0.35558680106E+02  0.47787280351E+02  0.20000042430E+02 0.  0.
         12    1    1    2    0    0 -0.14182762461E+02  0.20446319576E+02 -0.35558680106E+02  0.43400719649E+02  0.00000000000E+00 0. -1.
         11    1    3    3    0    0  0.86812345857E+01 -0.22151138219E+01  0.57175697674E+01  0.10628319128E+02  0.51100000000E-03 0. -1.
        -11    1    3    3    0    0  0.26199028065E+01 -0.67316577523E+01  0.21452873608E+02  0.22636362188E+02  0.51100000000E-03 0.  1.
         12    1    3    3    0    0  0.28816250684E+01 -0.11499548002E+02  0.83882367308E+01  0.14522599035E+02  0.00000000000E+00 0. -1.
</event>
<event>
 7    1  0.1813014E-010  0.4778727E+02  0.7816164E-02  0.1312668E+00
        -11   -1    0    0    0    0  0.00000000000E+00  0.00000000000E+00  0.45593999997E+02  0.45594000000E+02  0.51100000000E-03 0.  1.
         11   -1    0    0    0    0 -0.00000000000E+00 -0.00000000000E+00 -0.45593999997E+02  0.45594000000E+02  0.51100000000E-03 0. -1.
    9900012    2    1    2    0    0  0.38625829899E+01 -0.22320584959E+02  0.37020203291E+02  0.47787268301E+02  0.19999987494E+02 0.  0.
         12    1    1    2    0    0 -0.38625829899E+01  0.22320584959E+02 -0.37020203291E+02  0.43400731699E+02  0.00000000000E+00 0. -1.
         11    1    3    3    0    0  0.40412575690E+01 -0.10847420805E+02  0.13799491644E+02  0.18011781443E+02  0.51100000000E-03 0. -1.
        -11    1    3    3    0    0  0.12016241622E+01  0.17569150807E+01  0.12531316720E+02  0.12710804468E+02  0.51100000000E-03 0.  1.
         12    1    3    3    0    0 -0.13802987412E+01 -0.13230079235E+02  0.10689394927E+02  0.17064682391E+02  0.00000000000E+00 0. -1.
</event>
<event>
 7    1  0.1813014E-010  0.4778727E+02  0.7816164E-02  0.1312668E+00
        -11   -1    0    0    0    0  0.00000000000E+00  0.00000000000E+00  0.45593999997E+02  0.45594000000E+02  0.51100000000E-03 0. -1.
         11   -1    0    0    0    0 -0.00000000000E+00 -0.00000000000E+00 -0.45593999997E+02  0.45594000000E+02  0.51100000000E-03 0.  1.
    9900012    2    1    2    0    0 -0.32698512359E+02 -0.31663780658E+01 -0.28362029222E+02  0.47787270028E+02  0.19999995364E+02 0.  0.
         12    1    1    2    0    0  0.32698512359E+02  0.31663780658E+01  0.28362029222E+02  0.43400729972E+02  0.00000000000E+00 0. -1.
         11    1    3    3    0    0 -0.18151172577E+01  0.37278428676E+01 -0.49247078221E+01  0.64377178021E+01  0.51100000000E-03 0. -1.
        -11    1    3    3    0    0 -0.13059753073E+02 -0.53316193147E+01 -0.34461255245E+01  0.14520988129E+02  0.51100000000E-03 0.  1.
         12    1    3    3    0    0 -0.17823642028E+02 -0.15626016188E+01 -0.19991195876E+02  0.26828564097E+02  0.00000000000E+00 0. -1.
</event>
<event>
 7    1  0.1813014E-010  0.4778727E+02  0.7816164E-02  0.1312668E+00
        -11   -1    0    0    0    0  0.00000000000E+00  0.00000000000E+00  0.45593999997E+02  0.45594000000E+02  0.51100000000E-03 0.  1.
         11   -1    0    0    0    0 -0.00000000000E+00 -0.00000000000E+00 -0.45593999997E+02  0.45594000000E+02  0.51100000000E-03 0. -1.
    9900012    2    1    2    0    0  0.13579246896E+02  0.40169021122E+02  0.92561803620E+01  0.47787273289E+02  0.20000010233E+02 0.  0.
         12    1    1    2    0    0 -0.13579246896E+02 -0.40169021122E+02 -0.92561803620E+01  0.43400726711E+02  0.00000000000E+00 0. -1.
         11    1    3    3    0    0  0.12984576125E+02  0.29126567293E+02  0.39992777477E+01  0.32139545146E+02  0.51100000000E-03 0. -1.
        -11    1    3    3    0    0 -0.79801585780E+00  0.12613401092E+02  0.44762151444E+01  0.13407878979E+02  0.51100000000E-03 0.  1.
         12    1    3    3    0    0  0.13926866286E+01 -0.15709472638E+01  0.78068746983E+00  0.22398491638E+01  0.00000000000E+00 0. -1.
</event>
<event>
 7    1  0.1813014E-010  0.4778727E+02  0.7816164E-02  0.1312668E+00
        -11   -1    0    0    0    0  0.00000000000E+00  0.00000000000E+00  0.45593999997E+02  0.45594000000E+02  0.51100000000E-03 0.  1.
         11   -1    0    0    0    0 -0.00000000000E+00 -0.00000000000E+00 -0.45593999997E+02  0.45594000000E+02  0.51100000000E-03 0. -1.
    9900012    2    1    2    0    0 -0.19854963363E+02  0.31667151114E+02 -0.22058901472E+02  0.47787272311E+02  0.20000005776E+02 0.  0.
         12    1    1    2    0    0  0.19854963363E+02 -0.31667151114E+02  0.22058901472E+02  0.43400727689E+02  0.00000000000E+00 0. -1.
         11    1    3    3    0    0  0.23545639799E+01  0.93417284025E+01 -0.44372542753E+01  0.10606652952E+02  0.51100000000E-03 0. -1.
        -11    1    3    3    0    0 -0.83545255092E+01  0.12376512226E+02 -0.12200446733E+02  0.19282817536E+02  0.51100000000E-03 0.  1.
        -12    1    3    3    0    0 -0.13855001833E+02  0.99489104848E+01 -0.54212004630E+01  0.17897801823E+02  0.00000000000E+00 0.  1.
</event>
<event>
 7    1  0.1813014E-010  0.4778728E+02  0.7816164E-02  0.1312668E+00
        -11   -1    0    0    0    0  0.00000000000E+00  0.00000000000E+00  0.45593999997E+02  0.45594000000E+02  0.51100000000E-03 0.  1.
         11   -1    0    0    0    0 -0.00000000000E+00 -0.00000000000E+00 -0.45593999997E+02  0.45594000000E+02  0.51100000000E-03 0. -1.
    9900012    2    1    2    0    0 -0.33675892643E+02 -0.27349203469E+02 -0.12562425971E+01  0.47787276260E+02  0.20000023781E+02 0.  0.
         12    1    1    2    0    0  0.33675892643E+02  0.27349203469E+02  0.12562425971E+01  0.43400723740E+02  0.00000000000E+00 0. -1.
         11    1    3    3    0    0 -0.26139139078E+02 -0.16999206462E+02 -0.64661540909E+01  0.31843975271E+02  0.51100000000E-03 0. -1.
        -11    1    3    3    0    0 -0.76188062150E+01 -0.49403261833E+01  0.53348694321E+01  0.10531565081E+02  0.51100000000E-03 0.  1.
        -12    1    3    3    0    0  0.82052650185E-01 -0.54096708229E+01 -0.12495793826E+00  0.54117359078E+01  0.00000000000E+00 0.  1.
</event>
<event>
 7    1  0.1813014E-010  0.4778727E+02  0.7816164E-02  0.1312668E+00
        -11   -1    0    0    0    0  0.00000000000E+00  0.00000000000E+00  0.45593999997E+02  0.45594000000E+02  0.51100000000E-03 0. -1.
         11   -1    0    0    0    0 -0.00000000000E+00 -0.00000000000E+00 -0.45593999997E+02  0.45594000000E+02  0.51100000000E-03 0.  1.
    9900012    2    1    2    0    0  0.38858963712E+02  0.10493651793E+02 -0.16232292503E+02  0.47787272948E+02  0.20000008679E+02 0.  0.
         12    1    1    2    0    0 -0.38858963712E+02 -0.10493651793E+02  0.16232292503E+02  0.43400727052E+02  0.00000000000E+00 0. -1.
         11    1    3    3    0    0  0.12483366089E+02 -0.17248186471E+01 -0.82430386481E+01  0.15058456584E+02  0.51100000000E-03 0. -1.
        -11    1    3    3    0    0  0.79445979989E+01  0.13652569621E+01  0.30992443172E+01  0.86363116858E+01  0.51100000000E-03 0.  1.
        -12    1    3    3    0    0  0.18430999625E+02  0.10853213479E+02 -0.11088498172E+02  0.24092504678E+02  0.00000000000E+00 0.  1.
</event>
<event>
 7    1  0.1813014E-010  0.4778727E+02  0.7816164E-02  0.1312668E+00
        -11   -1    0    0    0    0  0.00000000000E+00  0.00000000000E+00  0.45593999997E+02  0.45594000000E+02  0.51100000000E-03 0.  1.
         11   -1    0    0    0    0 -0.00000000000E+00 -0.00000000000E+00 -0.45593999997E+02  0.45594000000E+02  0.51100000000E-03 0. -1.
    9900012    2    1    2    0    0  0.38520347566E+02 -0.14465580206E+02  0.13804099456E+02  0.47787270178E+02  0.19999996047E+02 0.  0.
         12    1    1    2    0    0 -0.38520347566E+02  0.14465580206E+02 -0.13804099456E+02  0.43400729822E+02  0.00000000000E+00 0. -1.
         11    1    3    3    0    0  0.11445735572E+02 -0.39491956752E+01 -0.13481926561E+01  0.12182718620E+02  0.51100000000E-03 0. -1.
        -11    1    3    3    0    0  0.16693224740E+02 -0.78237420466E+00  0.13083437160E+02  0.21223858975E+02  0.51100000000E-03 0.  1.
        -12    1    3    3    0    0  0.10381387255E+02 -0.97340103259E+01  0.20688549527E+01  0.14380692583E+02  0.00000000000E+00 0.  1.
</event>
<event>
 7    1  0.1813014E-010  0.4778728E+02  0.7816164E-02  0.1312668E+00
        -11   -1    0    0    0    0  0.00000000000E+00  0.00000000000E+00  0.45593999997E+02  0.45594000000E+02  0.51100000000E-03 0.  1.
         11   -1    0    0    0    0 -0.00000000000E+00 -0.00000000000E+00 -0.45593999997E+02  0.45594000000E+02  0.51100000000E-03 0. -1.
    9900012    2    1    2    0    0  0.28418013714E+01  0.29572114184E+02  0.31639170626E+02  0.47787275464E+02  0.20000020151E+02 0.  0.
         12    1    1    2    0    0 -0.28418013714E+01 -0.29572114184E+02 -0.31639170626E+02  0.43400724536E+02  0.00000000000E+00 0. -1.
         11    1    3    3    0    0  0.18532989853E+01 -0.17156489144E+01  0.33123520662E+01  0.41653144896E+01  0.51100000000E-03 0. -1.
        -11    1    3    3    0    0  0.43539673154E+01  0.60992088494E+01  0.42501631147E+01  0.86151765353E+01  0.51100000000E-03 0.  1.
        -12    1    3    3    0    0 -0.33654649293E+01  0.25188554249E+02  0.24076655445E+02  0.35006784439E+02  0.00000000000E+00 0.  1.
</event>
<event>
 7    1  0.1813014E-010  0.4778727E+02  0.7816164E-02  0.1312668E+00
        -11   -1    0    0    0    0  0.00000000000E+00  0.00000000000E+00  0.45593999997E+02  0.45594000000E+02  0.51100000000E-03 0.  1.
         11   -1    0    0    0    0 -0.00000000000E+00 -0.00000000000E+00 -0.45593999997E+02  0.45594000000E+02  0.51100000000E-03 0. -1.
    9900012    2    1    2    0    0  0.13154315360E+02 -0.32091007966E+02  0.26091268824E+02  0.47787272889E+02  0.20000008411E+02 0.  0.
         12    1    1    2    0    0 -0.13154315360E+02  0.32091007966E+02 -0.26091268824E+02  0.43400727111E+02  0.00000000000E+00 0. -1.
         11    1    3    3    0    0  0.62584069466E+01 -0.23809513395E+02  0.75423527812E+01  0.25747770221E+02  0.51100000000E-03 0. -1.
        -11    1    3    3    0    0  0.13010334557E+01 -0.55052939609E+01  0.87702536932E+01  0.10436393043E+02  0.51100000000E-03 0.  1.
         12    1    3    3    0    0  0.55948749573E+01 -0.27762006105E+01  0.97786623499E+01  0.11603109625E+02  0.00000000000E+00 0. -1.
</event>
<event>
 7    1  0.1813014E-010  0.4778727E+02  0.7816164E-02  0.1312668E+00
        -11   -1    0    0    0    0  0.00000000000E+00  0.00000000000E+00  0.45593999997E+02  0.45594000000E+02  0.51100000000E-03 0. -1.
         11   -1    0    0    0    0 -0.00000000000E+00 -0.00000000000E+00 -0.45593999997E+02  0.45594000000E+02  0.51100000000E-03 0.  1.
    9900012    2    1    2    0    0 -0.87862282778E+01 -0.69169343865E+01 -0.41935443609E+02  0.47787271673E+02  0.20000002864E+02 0.  0.
         12    1    1    2    0    0  0.87862282778E+01  0.69169343865E+01  0.41935443609E+02  0.43400728327E+02  0.00000000000E+00 0. -1.
         11    1    3    3    0    0  0.92872444668E+00 -0.44595982458E+01 -0.97010512777E+01  0.10717319710E+02  0.51100000000E-03 0. -1.
        -11    1    3    3    0    0 -0.32414732506E+01  0.62042934580E+01 -0.17029034663E+02  0.18411638383E+02  0.51100000000E-03 0.  1.
        -12    1    3    3    0    0 -0.64734794739E+01 -0.86616295987E+01 -0.15205357668E+02  0.18658313579E+02  0.00000000000E+00 0.  1.
</event>
<event>
 7    1  0.1813014E-010  0.4778728E+02  0.7816164E-02  0.1312668E+00
        -11   -1    0    0    0    0  0.00000000000E+00  0.00000000000E+00  0.45593999997E+02  0.45594000000E+02  0.51100000000E-03 0.  1.
         11   -1    0    0    0    0 -0.00000000000E+00 -0.00000000000E+00 -0.45593999997E+02  0.45594000000E+02  0.51100000000E-03 0. -1.
    9900012    2    1    2    0    0  0.36544709329E+02  0.20354128582E+02  0.11567899925E+02  0.47787278359E+02  0.20000033349E+02 0.  0.
         12    1    1    2    0    0 -0.36544709329E+02 -0.20354128582E+02 -0.11567899925E+02  0.43400721641E+02  0.00000000000E+00 0. -1.
         11    1    3    3    0    0  0.70211574335E+00  0.20347467717E+01 -0.27125356969E+01  0.34628039376E+01  0.51100000000E-03 0. -1.
        -11    1    3    3    0    0  0.11101861309E+02  0.23577281329E+01  0.88337517205E+01  0.14382120018E+02  0.51100000000E-03 0.  1.
         12    1    3    3    0    0  0.24740732277E+02  0.15961653677E+02  0.54466839018E+01  0.29942354403E+02  0.00000000000E+00 0. -1.
</event>
<event>
 7    1  0.1813014E-010  0.4778727E+02  0.7816164E-02  0.1312668E+00
        -11   -1    0    0    0    0  0.00000000000E+00  0.00000000000E+00  0.45593999997E+02  0.45594000000E+02  0.51100000000E-03 0.  1.
         11   -1    0    0    0    0 -0.00000000000E+00 -0.00000000000E+00 -0.45593999997E+02  0.45594000000E+02  0.51100000000E-03 0. -1.
    9900012    2    1    2    0    0 -0.10825113011E+02 -0.41217536542E+02  0.82191694537E+01  0.47787272624E+02  0.20000007200E+02 0.  0.
         12    1    1    2    0    0  0.10825113011E+02  0.41217536542E+02 -0.82191694537E+01  0.43400727376E+02  0.00000000000E+00 0. -1.
         11    1    3    3    0    0 -0.53831248621E+01 -0.35149319630E+01  0.43625141213E+01  0.77694471943E+01  0.51100000000E-03 0.  1.
        -11    1    3    3    0    0 -0.84467211634E+01 -0.33155492372E+02  0.45804915567E+01  0.34519772248E+02  0.51100000000E-03 0. -1.
         12    1    3    3    0    0  0.30047330147E+01 -0.45471122067E+01 -0.72383622427E+00  0.54980531818E+01  0.00000000000E+00 0. -1.
</event>
<event>
 7    1  0.1813014E-010  0.4778727E+02  0.7816164E-02  0.1312668E+00
        -11   -1    0    0    0    0  0.00000000000E+00  0.00000000000E+00  0.45593999997E+02  0.45594000000E+02  0.51100000000E-03 0.  1.
         11   -1    0    0    0    0 -0.00000000000E+00 -0.00000000000E+00 -0.45593999997E+02  0.45594000000E+02  0.51100000000E-03 0. -1.
    9900012    2    1    2    0    0  0.36367388988E+02 -0.46468295630E+01  0.23225915921E+02  0.47787272159E+02  0.20000005082E+02 0.  0.
         12    1    1    2    0    0 -0.36367388988E+02  0.46468295630E+01 -0.23225915921E+02  0.43400727841E+02  0.00000000000E+00 0. -1.
         11    1    3    3    0    0  0.14940180452E+02  0.51395302869E+01  0.49148395886E+01  0.16546280910E+02  0.51100000000E-03 0. -1.
        -11    1    3    3    0    0  0.21193951052E+01  0.28253240281E+00  0.56756713517E+01  0.60650561188E+01  0.51100000000E-03 0.  1.
        -12    1    3    3    0    0  0.19307813431E+02 -0.10068892253E+02  0.12635404980E+02  0.25175935130E+02  0.00000000000E+00 0.  1.
</event>
<event>
 7    1  0.1813014E-010  0.4778727E+02  0.7816164E-02  0.1312668E+00
        -11   -1    0    0    0    0  0.00000000000E+00  0.00000000000E+00  0.45593999997E+02  0.45594000000E+02  0.51100000000E-03 0.  1.
         11   -1    0    0    0    0 -0.00000000000E+00 -0.00000000000E+00 -0.45593999997E+02  0.45594000000E+02  0.51100000000E-03 0. -1.
    9900012    2    1    2    0    0  0.42202283535E+02 -0.94218697351E+01  0.37173369960E+01  0.47787274670E+02  0.20000016530E+02 0.  0.
         12    1    1    2    0    0 -0.42202283535E+02  0.94218697351E+01 -0.37173369960E+01  0.43400725330E+02  0.00000000000E+00 0. -1.
         11    1    3    3    0    0  0.30390700460E+02 -0.97288544310E+01  0.27470913248E+01  0.32027984545E+02  0.51100000000E-03 0.  1.
        -11    1    3    3    0    0  0.12357217900E+02  0.32134749703E+01  0.92511103659E+00  0.12801682948E+02  0.51100000000E-03 0. -1.
         12    1    3    3    0    0 -0.54563482558E+00 -0.29064902744E+01  0.45134634591E-01  0.29576071770E+01  0.00000000000E+00 0. -1.
</event>
<event>
 7    1  0.1813014E-010  0.4778728E+02  0.7816164E-02  0.1312668E+00
        -11   -1    0    0    0    0  0.00000000000E+00  0.00000000000E+00  0.45593999997E+02  0.45594000000E+02  0.51100000000E-03 0.  1.
         11   -1    0    0    0    0 -0.00000000000E+00 -0.00000000000E+00 -0.45593999997E+02  0.45594000000E+02  0.51100000000E-03 0. -1.
    9900012    2    1    2    0    0 -0.40816210949E+01 -0.25493013770E+02  0.34886523449E+02  0.47787275349E+02  0.20000019627E+02 0.  0.
         12    1    1    2    0    0  0.40816210949E+01  0.25493013770E+02 -0.34886523449E+02  0.43400724651E+02  0.00000000000E+00 0. -1.
         11    1    3    3    0    0 -0.33214131758E+01 -0.38075560981E+01 -0.12707243204E+01  0.52099913133E+01  0.51100000000E-03 0. -1.
        -11    1    3    3    0    0  0.23952157689E+01 -0.62691068802E+01  0.11933012560E+02  0.13690710305E+02  0.51100000000E-03 0.  1.
        -12    1    3    3    0    0 -0.31554236880E+01 -0.15416350792E+02  0.24224235210E+02  0.28886573730E+02  0.00000000000E+00 0.  1.
</event>
<event>
 7    1  0.1813014E-010  0.4778728E+02  0.7816164E-02  0.1312668E+00
        -11   -1    0    0    0    0  0.00000000000E+00  0.00000000000E+00  0.45593999997E+02  0.45594000000E+02  0.51100000000E-03 0. -1.
         11   -1    0    0    0    0 -0.00000000000E+00 -0.00000000000E+00 -0.45593999997E+02  0.45594000000E+02  0.51100000000E-03 0.  1.
    9900012    2    1    2    0    0  0.30386275038E+02 -0.27659301573E+02  0.13973540473E+02  0.47787279873E+02  0.20000040252E+02 0.  0.
         12    1    1    2    0    0 -0.30386275038E+02  0.27659301573E+02 -0.13973540473E+02  0.43400720127E+02  0.00000000000E+00 0. -1.
         11    1    3    3    0    0  0.49382129784E+00 -0.39626908864E+01 -0.85410079360E+00  0.40836585266E+01  0.51100000000E-03 0. -1.
        -11    1    3    3    0    0 -0.91294901086E+00 -0.27947435969E+01  0.39418098153E+01  0.49175128419E+01  0.51100000000E-03 0.  1.
        -12    1    3    3    0    0  0.30805402751E+02 -0.20901867090E+02  0.10885831452E+02  0.38786108504E+02  0.00000000000E+00 0.  1.
</event>
<event>
 7    1  0.1813014E-010  0.4778728E+02  0.7816164E-02  0.1312668E+00
        -11   -1    0    0    0    0  0.00000000000E+00  0.00000000000E+00  0.45593999997E+02  0.45594000000E+02  0.51100000000E-03 0.  1.
         11   -1    0    0    0    0 -0.00000000000E+00 -0.00000000000E+00 -0.45593999997E+02  0.45594000000E+02  0.51100000000E-03 0. -1.
    9900012    2    1    2    0    0  0.41227443764E+02  0.72348101263E+01  0.11470755092E+02  0.47787276282E+02  0.20000023879E+02 0.  0.
         12    1    1    2    0    0 -0.41227443764E+02 -0.72348101263E+01 -0.11470755092E+02  0.43400723718E+02  0.00000000000E+00 0. -1.
         11    1    3    3    0    0  0.37522071731E+02  0.12469257267E+02  0.10822410030E+02  0.40994058141E+02  0.51100000000E-03 0. -1.
        -11    1    3    3    0    0  0.28527587219E+01 -0.22003673577E+01  0.50904143036E+00  0.36385398545E+01  0.51100000000E-03 0.  1.
         12    1    3    3    0    0  0.85261331172E+00 -0.30340797829E+01  0.13930363130E+00  0.31546782863E+01  0.00000000000E+00 0. -1.
</event>
<event>
 7    1  0.1813014E-010  0.4778727E+02  0.7816164E-02  0.1312668E+00
        -11   -1    0    0    0    0  0.00000000000E+00  0.00000000000E+00  0.45593999997E+02  0.45594000000E+02  0.51100000000E-03 0.  1.
         11   -1    0    0    0    0 -0.00000000000E+00 -0.00000000000E+00 -0.45593999997E+02  0.45594000000E+02  0.51100000000E-03 0. -1.
    9900012    2    1    2    0    0 -0.29482181722E+02 -0.18282524469E+02  0.26080133841E+02  0.47787272803E+02  0.20000008019E+02 0.  0.
         12    1    1    2    0    0  0.29482181722E+02  0.18282524469E+02 -0.26080133841E+02  0.43400727197E+02  0.00000000000E+00 0. -1.
         11    1    3    3    0    0 -0.67609999138E+01  0.23752348412E+01  0.28959520027E+01  0.77291266421E+01  0.51100000000E-03 0. -1.
        -11    1    3    3    0    0 -0.64510151164E+01 -0.90096519056E+01  0.26639997152E+01  0.11396767885E+02  0.51100000000E-03 0.  1.
        -12    1    3    3    0    0 -0.16270166691E+02 -0.11648107405E+02  0.20520182123E+02  0.28661378276E+02  0.00000000000E+00 0.  1.
</event>
<event>
 7    1  0.1813014E-010  0.4778727E+02  0.7816164E-02  0.1312668E+00
        -11   -1    0    0    0    0  0.00000000000E+00  0.00000000000E+00  0.45593999997E+02  0.45594000000E+02  0.51100000000E-03 0.  1.
         11   -1    0    0    0    0 -0.00000000000E+00 -0.00000000000E+00 -0.45593999997E+02  0.45594000000E+02  0.51100000000E-03 0. -1.
    9900012    2    1    2    0    0 -0.36084807690E+02  0.22906220018E+02 -0.75375576007E+01  0.47787273783E+02  0.20000012488E+02 0.  0.
         12    1    1    2    0    0  0.36084807690E+02 -0.22906220018E+02  0.75375576007E+01  0.43400726217E+02  0.00000000000E+00 0. -1.
         11    1    3    3    0    0  0.17985049720E+00  0.36762395169E+01 -0.42449742041E+01  0.56184419051E+01  0.51100000000E-03 0. -1.
        -11    1    3    3    0    0 -0.12575879244E+02  0.22205216474E+01  0.37635472288E+00  0.12775957823E+02  0.51100000000E-03 0.  1.
        -12    1    3    3    0    0 -0.23688778943E+02  0.17009458854E+02 -0.36689381195E+01  0.29392874055E+02  0.00000000000E+00 0.  1.
</event>
<event>
 7    1  0.1813014E-010  0.4778728E+02  0.7816164E-02  0.1312668E+00
        -11   -1    0    0    0    0  0.00000000000E+00  0.00000000000E+00  0.45593999997E+02  0.45594000000E+02  0.51100000000E-03 0. -1.
         11   -1    0    0    0    0 -0.00000000000E+00 -0.00000000000E+00 -0.45593999997E+02  0.45594000000E+02  0.51100000000E-03 0.  1.
    9900012    2    1    2    0    0 -0.43305299189E+02  0.23432986811E+01 -0.16681870643E+01  0.47787276104E+02  0.20000023071E+02 0.  0.
         12    1    1    2    0    0  0.43305299189E+02 -0.23432986811E+01  0.16681870643E+01  0.43400723896E+02  0.00000000000E+00 0. -1.
         11    1    3    3    0    0 -0.26771237630E+01  0.26876016038E+01 -0.69638132377E+00  0.38568304646E+01  0.51100000000E-03 0. -1.
        -11    1    3    3    0    0 -0.38052756232E+02 -0.38721704093E+01  0.25289507750E+01  0.38332773873E+02  0.51100000000E-03 0.  1.
        -12    1    3    3    0    0 -0.25754191945E+01  0.35278674866E+01 -0.35007565155E+01  0.55976717671E+01  0.00000000000E+00 0.  1.
</event>
<event>
 7    1  0.1813014E-010  0.4778727E+02  0.7816164E-02  0.1312668E+00
        -11   -1    0    0    0    0  0.00000000000E+00  0.00000000000E+00  0.45593999997E+02  0.45594000000E+02  0.51100000000E-03 0.  1.
         11   -1    0    0    0    0 -0.00000000000E+00 -0.00000000000E+00 -0.45593999997E+02  0.45594000000E+02  0.51100000000E-03 0. -1.
    9900012    2    1    2    0    0 -0.42560868688E+02  0.35525930245E+01  0.77184742352E+01  0.47787270684E+02  0.19999998357E+02 0.  0.
         12    1    1    2    0    0  0.42560868688E+02 -0.35525930245E+01 -0.77184742352E+01  0.43400729316E+02  0.00000000000E+00 0. -1.
         11    1    3    3    0    0 -0.75317643445E+01  0.18723753283E+01 -0.59944338707E+01  0.98064520191E+01  0.51100000000E-03 0. -1.
        -11    1    3    3    0    0 -0.67948118805E+01 -0.50476873830E+00  0.46430109361E+01  0.82451082943E+01  0.51100000000E-03 0.  1.
         12    1    3    3    0    0 -0.28234292463E+02  0.21849864345E+01  0.90698971698E+01  0.29735710371E+02  0.00000000000E+00 0. -1.
</event>
<event>
 7    1  0.1813014E-010  0.4778727E+02  0.7816164E-02  0.1312668E+00
        -11   -1    0    0    0    0  0.00000000000E+00  0.00000000000E+00  0.45593999997E+02  0.45594000000E+02  0.51100000000E-03 0.  1.
         11   -1    0    0    0    0 -0.00000000000E+00 -0.00000000000E+00 -0.45593999997E+02  0.45594000000E+02  0.51100000000E-03 0. -1.
    9900012    2    1    2    0    0  0.37618558748E+02  0.40263712256E+01  0.21266308444E+02  0.47787268413E+02  0.19999988000E+02 0.  0.
         12    1    1    2    0    0 -0.37618558748E+02 -0.40263712256E+01 -0.21266308444E+02  0.43400731587E+02  0.00000000000E+00 0. -1.
         11    1    3    3    0    0  0.31391496295E+01 -0.30305379407E+01 -0.23769662085E+01  0.49687412112E+01  0.51100000000E-03 0. -1.
        -11    1    3    3    0    0  0.10135167893E+02  0.14589580483E+00  0.91538084356E+01  0.13657786165E+02  0.51100000000E-03 0.  1.
         12    1    3    3    0    0  0.24344241225E+02  0.69110133615E+01  0.14489466217E+02  0.29160741036E+02  0.00000000000E+00 0. -1.
</event>
<event>
 7    1  0.1813014E-010  0.4778727E+02  0.7816164E-02  0.1312668E+00
        -11   -1    0    0    0    0  0.00000000000E+00  0.00000000000E+00  0.45593999997E+02  0.45594000000E+02  0.51100000000E-03 0.  1.
         11   -1    0    0    0    0 -0.00000000000E+00 -0.00000000000E+00 -0.45593999997E+02  0.45594000000E+02  0.51100000000E-03 0. -1.
    9900012    2    1    2    0    0  0.25185792125E+02 -0.28468043939E+02  0.20949217833E+02  0.47787269840E+02  0.19999994507E+02 0.  0.
         12    1    1    2    0    0 -0.25185792125E+02  0.28468043939E+02 -0.20949217833E+02  0.43400730160E+02  0.00000000000E+00 0. -1.
         11    1    3    3    0    0  0.19808159689E+02 -0.21660053494E+02  0.20111562535E+02  0.35580838319E+02  0.51100000000E-03 0.  1.
        -11    1    3    3    0    0  0.27831402593E+00  0.12504915135E+01  0.22272074158E+01  0.25693658471E+01  0.51100000000E-03 0. -1.
        -12    1    3    3    0    0  0.50993184101E+01 -0.80584819576E+01 -0.13895521174E+01  0.96370656735E+01  0.00000000000E+00 0.  1.
</event>
<event>
 7    1  0.1813014E-010  0.4778727E+02  0.7816164E-02  0.1312668E+00
        -11   -1    0    0    0    0  0.00000000000E+00  0.00000000000E+00  0.45593999997E+02  0.45594000000E+02  0.51100000000E-03 0.  1.
         11   -1    0    0    0    0 -0.00000000000E+00 -0.00000000000E+00 -0.45593999997E+02  0.45594000000E+02  0.51100000000E-03 0. -1.
    9900012    2    1    2    0    0 -0.69275372175E+01 -0.23945770768E+01  0.42777315761E+02  0.47787268266E+02  0.19999987333E+02 0.  0.
         12    1    1    2    0    0  0.69275372175E+01  0.23945770768E+01 -0.42777315761E+02  0.43400731734E+02  0.00000000000E+00 0. -1.
         11    1    3    3    0    0  0.40517964546E+01  0.85857453428E+00  0.67978956782E+01  0.79602506652E+01  0.51100000000E-03 0. -1.
        -11    1    3    3    0    0 -0.71816035268E+01 -0.71327899613E+01  0.30405830575E+02  0.32046320461E+02  0.51100000000E-03 0.  1.
         12    1    3    3    0    0 -0.37977301452E+01  0.38796383502E+01  0.55735895076E+01  0.77806971400E+01  0.00000000000E+00 0. -1.
</event>
<event>
 7    1  0.1813014E-010  0.4778726E+02  0.7816164E-02  0.1312668E+00
        -11   -1    0    0    0    0  0.00000000000E+00  0.00000000000E+00  0.45593999997E+02  0.45594000000E+02  0.51100000000E-03 0.  1.
         11   -1    0    0    0    0 -0.00000000000E+00 -0.00000000000E+00 -0.45593999997E+02  0.45594000000E+02  0.51100000000E-03 0. -1.
    9900012    2    1    2    0    0 -0.28737105750E+02 -0.18319427969E+02  0.26873800139E+02  0.47787264731E+02  0.19999971215E+02 0.  0.
         12    1    1    2    0    0  0.28737105750E+02  0.18319427969E+02 -0.26873800139E+02  0.43400735269E+02  0.00000000000E+00 0. -1.
         11    1    3    3    0    0 -0.15861916494E+02 -0.10585551497E+02  0.15572766242E+02  0.24620425343E+02  0.51100000000E-03 0. -1.
        -11    1    3    3    0    0 -0.45105039979E+01  0.25996201947E+01  0.78707914364E+01  0.94367382908E+01  0.51100000000E-03 0.  1.
         12    1    3    3    0    0 -0.83646852573E+01 -0.10333496666E+02  0.34302424609E+01  0.13730101098E+02  0.00000000000E+00 0. -1.
</event>
<event>
 7    1  0.1813014E-010  0.4778728E+02  0.7816164E-02  0.1312668E+00
        -11   -1    0    0    0    0  0.00000000000E+00  0.00000000000E+00  0.45593999997E+02  0.45594000000E+02  0.51100000000E-03 0.  1.
         11   -1    0    0    0    0 -0.00000000000E+00 -0.00000000000E+00 -0.45593999997E+02  0.45594000000E+02  0.51100000000E-03 0. -1.
    9900012    2    1    2    0    0  0.17615968181E+02 -0.11446575573E+02  0.37977314891E+02  0.47787275655E+02  0.20000021022E+02 0.  0.
         12    1    1    2    0    0 -0.17615968181E+02  0.11446575573E+02 -0.37977314891E+02  0.43400724345E+02  0.00000000000E+00 0. -1.
         11    1    3    3    0    0  0.58081842435E+01 -0.72554229734E+01  0.42632619098E+01  0.10225046166E+02  0.51100000000E-03 0. -1.
        -11    1    3    3    0    0  0.64456270840E+01 -0.68296770231E+01  0.13229663486E+02  0.16223889576E+02  0.51100000000E-03 0.  1.
        -12    1    3    3    0    0  0.53621568535E+01  0.26385244239E+01  0.20484389495E+02  0.21338339913E+02  0.00000000000E+00 0.  1.
</event>
<event>
 7    1  0.1813014E-010  0.4778727E+02  0.7816164E-02  0.1312668E+00
        -11   -1    0    0    0    0  0.00000000000E+00  0.00000000000E+00  0.45593999997E+02  0.45594000000E+02  0.51100000000E-03 0. -1.
         11   -1    0    0    0    0 -0.00000000000E+00 -0.00000000000E+00 -0.45593999997E+02  0.45594000000E+02  0.51100000000E-03 0.  1.
    9900012    2    1    2    0    0 -0.16308033661E+02 -0.39949654906E+02  0.46579337404E+01  0.47787271483E+02  0.20000002001E+02 0.  0.
         12    1    1    2    0    0  0.16308033661E+02  0.39949654906E+02 -0.46579337404E+01  0.43400728517E+02  0.00000000000E+00 0. -1.
         11    1    3    3    0    0 -0.26427338485E+00 -0.15194094116E+02 -0.83888674590E+00  0.15219529154E+02  0.51100000000E-03 0. -1.
        -11    1    3    3    0    0 -0.12171103812E+02 -0.17265808463E+02 -0.20868156353E+01  0.21227310466E+02  0.51100000000E-03 0.  1.
        -12    1    3    3    0    0 -0.38726564646E+01 -0.74897523278E+01  0.75836361216E+01  0.11340431863E+02  0.00000000000E+00 0.  1.
</event>
<event>
 7    1  0.1813014E-010  0.4778727E+02  0.7816164E-02  0.1312668E+00
        -11   -1    0    0    0    0  0.00000000000E+00  0.00000000000E+00  0.45593999997E+02  0.45594000000E+02  0.51100000000E-03 0.  1.
         11   -1    0    0    0    0 -0.00000000000E+00 -0.00000000000E+00 -0.45593999997E+02  0.45594000000E+02  0.51100000000E-03 0. -1.
    9900012    2    1    2    0    0 -0.28613764633E+02 -0.15415772257E+02  0.28761601428E+02  0.47787271003E+02  0.19999999810E+02 0.  0.
         12    1    1    2    0    0  0.28613764633E+02  0.15415772257E+02 -0.28761601428E+02  0.43400728997E+02  0.00000000000E+00 0. -1.
         11    1    3    3    0    0 -0.78861468767E+00 -0.25446932715E+01  0.47206898059E+00  0.27055916830E+01  0.51100000000E-03 0. -1.
        -11    1    3    3    0    0 -0.27889862240E+02 -0.74768625386E+01  0.27007720948E+02  0.39536880002E+02  0.51100000000E-03 0.  1.
        -12    1    3    3    0    0  0.64712294708E-01 -0.53942164470E+01  0.12818115001E+01  0.55447993183E+01  0.00000000000E+00 0.  1.
</event>
<event>
 7    1  0.1813014E-010  0.4778727E+02  0.7816164E-02  0.1312668E+00
        -11   -1    0    0    0    0  0.00000000000E+00  0.00000000000E+00  0.45593999997E+02  0.45594000000E+02  0.51100000000E-03 0.  1.
         11   -1    0    0    0    0 -0.00000000000E+00 -0.00000000000E+00 -0.45593999997E+02  0.45594000000E+02  0.51100000000E-03 0. -1.
    9900012    2    1    2    0    0  0.32776503581E+01  0.19827297910E+01  0.43231342474E+02  0.47787272110E+02  0.20000004857E+02 0.  0.
         12    1    1    2    0    0 -0.32776503581E+01 -0.19827297910E+01 -0.43231342474E+02  0.43400727890E+02  0.00000000000E+00 0. -1.
         11    1    3    3    0    0 -0.97539932821E+00  0.18221490600E+01  0.32959422571E+00  0.20929079438E+01  0.51100000000E-03 0. -1.
        -11    1    3    3    0    0  0.38918238642E+01 -0.27055518924E+00  0.13342655988E+01  0.41230762847E+01  0.51100000000E-03 0.  1.
        -12    1    3    3    0    0  0.36122582208E+00  0.43113592025E+00  0.41567482650E+02  0.41571287881E+02  0.00000000000E+00 0.  1.
</event>
<event>
 7    1  0.1813014E-010  0.4778727E+02  0.7816164E-02  0.1312668E+00
        -11   -1    0    0    0    0  0.00000000000E+00  0.00000000000E+00  0.45593999997E+02  0.45594000000E+02  0.51100000000E-03 0.  1.
         11   -1    0    0    0    0 -0.00000000000E+00 -0.00000000000E+00 -0.45593999997E+02  0.45594000000E+02  0.51100000000E-03 0. -1.
    9900012    2    1    2    0    0 -0.31623110009E+02  0.27105947208E+02  0.12201226295E+02  0.47787269778E+02  0.19999994227E+02 0.  0.
         12    1    1    2    0    0  0.31623110009E+02 -0.27105947208E+02 -0.12201226295E+02  0.43400730222E+02  0.00000000000E+00 0. -1.
         11    1    3    3    0    0 -0.93756076374E+01  0.61197157392E+01 -0.39534029525E+01  0.11873598211E+02  0.51100000000E-03 0. -1.
        -11    1    3    3    0    0 -0.11318458846E+02  0.44390640382E+01  0.48685941821E+01  0.13096412095E+02  0.51100000000E-03 0.  1.
         12    1    3    3    0    0 -0.10929043525E+02  0.16547167431E+02  0.11286035065E+02  0.22817259473E+02  0.00000000000E+00 0. -1.
</event>
<event>
 7    1  0.1813014E-010  0.4778727E+02  0.7816164E-02  0.1312668E+00
        -11   -1    0    0    0    0  0.00000000000E+00  0.00000000000E+00  0.45593999997E+02  0.45594000000E+02  0.51100000000E-03 0.  1.
         11   -1    0    0    0    0 -0.00000000000E+00 -0.00000000000E+00 -0.45593999997E+02  0.45594000000E+02  0.51100000000E-03 0. -1.
    9900012    2    1    2    0    0  0.15547541418E+02  0.89241102791E+01  0.39525406163E+02  0.47787268200E+02  0.19999987032E+02 0.  0.
         12    1    1    2    0    0 -0.15547541418E+02 -0.89241102791E+01 -0.39525406163E+02  0.43400731800E+02  0.00000000000E+00 0. -1.
         11    1    3    3    0    0  0.29014707640E+01 -0.38492212287E+01  0.10796756802E+02  0.11823916203E+02  0.51100000000E-03 0. -1.
        -11    1    3    3    0    0  0.32094655167E+01 -0.24286516580E+00  0.21030906604E+00  0.32255050079E+01  0.51100000000E-03 0.  1.
        -12    1    3    3    0    0  0.94366051373E+01  0.13016196674E+02  0.28518340295E+02  0.32737846990E+02  0.00000000000E+00 0.  1.
</event>
<event>
 7    1  0.1813014E-010  0.4778727E+02  0.7816164E-02  0.1312668E+00
        -11   -1    0    0    0    0  0.00000000000E+00  0.00000000000E+00  0.45593999997E+02  0.45594000000E+02  0.51100000000E-03 0.  1.
         11   -1    0    0    0    0 -0.00000000000E+00 -0.00000000000E+00 -0.45593999997E+02  0.45594000000E+02  0.51100000000E-03 0. -1.
    9900012    2    1    2    0    0  0.19424177098E+01 -0.16934977579E+02  0.39913121866E+02  0.47787265568E+02  0.19999975032E+02 0.  0.
         12    1    1    2    0    0 -0.19424177098E+01  0.16934977579E+02 -0.39913121866E+02  0.43400734432E+02  0.00000000000E+00 0. -1.
         11    1    3    3    0    0  0.39780227740E+01 -0.34831941699E+01  0.52393809253E+01  0.74436831984E+01  0.51100000000E-03 0.  1.
        -11    1    3    3    0    0 -0.79046326471E+01 -0.10511791569E+02  0.28238377243E+02  0.31151034154E+02  0.51100000000E-03 0. -1.
         12    1    3    3    0    0  0.58690275829E+01 -0.29399918401E+01  0.64353636969E+01  0.91925482158E+01  0.00000000000E+00 0. -1.
</event>
<event>
 7    1  0.1813014E-010  0.4778727E+02  0.7816164E-02  0.1312668E+00
        -11   -1    0    0    0    0  0.00000000000E+00  0.00000000000E+00  0.45593999997E+02  0.45594000000E+02  0.51100000000E-03 0.  1.
         11   -1    0    0    0    0 -0.00000000000E+00 -0.00000000000E+00 -0.45593999997E+02  0.45594000000E+02  0.51100000000E-03 0. -1.
    9900012    2    1    2    0    0  0.37823841950E+02 -0.17169089049E+02  0.12577852968E+02  0.47787273924E+02  0.20000013130E+02 0.  0.
         12    1    1    2    0    0 -0.37823841950E+02  0.17169089049E+02 -0.12577852968E+02  0.43400726076E+02  0.00000000000E+00 0. -1.
         11    1    3    3    0    0  0.10776849378E+02  0.11957570811E+01 -0.10290447585E+01  0.10891705601E+02  0.51100000000E-03 0. -1.
        -11    1    3    3    0    0  0.11052265967E+02 -0.49695075089E+01  0.10024875746E+02  0.15727260469E+02  0.51100000000E-03 0.  1.
         12    1    3    3    0    0  0.15994726605E+02 -0.13395338621E+02  0.35820219802E+01  0.21168307854E+02  0.00000000000E+00 0. -1.
</event>
<event>
 7    1  0.1813014E-010  0.4778727E+02  0.7816164E-02  0.1312668E+00
        -11   -1    0    0    0    0  0.00000000000E+00  0.00000000000E+00  0.45593999997E+02  0.45594000000E+02  0.51100000000E-03 0.  1.
         11   -1    0    0    0    0 -0.00000000000E+00 -0.00000000000E+00 -0.45593999997E+02  0.45594000000E+02  0.51100000000E-03 0. -1.
    9900012    2    1    2    0    0 -0.35495311002E+02 -0.21173605136E+02  0.13243293436E+02  0.47787268686E+02  0.19999989245E+02 0.  0.
         12    1    1    2    0    0  0.35495311002E+02  0.21173605136E+02 -0.13243293436E+02  0.43400731314E+02  0.00000000000E+00 0. -1.
         11    1    3    3    0    0 -0.14391879222E+02 -0.11616398790E+02  0.97365851507E+01  0.20901387491E+02  0.51100000000E-03 0. -1.
        -11    1    3    3    0    0 -0.13714643981E+02 -0.16606643814E+00  0.54889445097E+01  0.14773203771E+02  0.51100000000E-03 0.  1.
         12    1    3    3    0    0 -0.73887877997E+01 -0.93911399077E+01 -0.19822362243E+01  0.12112677423E+02  0.00000000000E+00 0. -1.
</event>
<event>
 7    1  0.1813014E-010  0.4778727E+02  0.7816164E-02  0.1312668E+00
        -11   -1    0    0    0    0  0.00000000000E+00  0.00000000000E+00  0.45593999997E+02  0.45594000000E+02  0.51100000000E-03 0. -1.
         11   -1    0    0    0    0 -0.00000000000E+00 -0.00000000000E+00 -0.45593999997E+02  0.45594000000E+02  0.51100000000E-03 0.  1.
    9900012    2    1    2    0    0  0.14252617057E+02 -0.40965295769E+02 -0.15266242768E+01  0.47787272678E+02  0.20000007446E+02 0.  0.
         12    1    1    2    0    0 -0.14252617057E+02  0.40965295769E+02  0.15266242768E+01  0.43400727322E+02  0.00000000000E+00 0. -1.
         11    1    3    3    0    0  0.18062654096E+01 -0.19053756746E+01 -0.55898445017E+01  0.61757115384E+01  0.51100000000E-03 0. -1.
        -11    1    3    3    0    0  0.37166266213E+01 -0.11377384118E+02  0.38878263328E+01  0.12584648452E+02  0.51100000000E-03 0.  1.
        -12    1    3    3    0    0  0.87297250264E+01 -0.27682535976E+02  0.17539389209E+00  0.29026912687E+02  0.00000000000E+00 0.  1.
</event>
<event>
 7    1  0.1813014E-010  0.4778727E+02  0.7816164E-02  0.1312668E+00
        -11   -1    0    0    0    0  0.00000000000E+00  0.00000000000E+00  0.45593999997E+02  0.45594000000E+02  0.51100000000E-03 0.  1.
         11   -1    0    0    0    0 -0.00000000000E+00 -0.00000000000E+00 -0.45593999997E+02  0.45594000000E+02  0.51100000000E-03 0. -1.
    9900012    2    1    2    0    0  0.18226146111E+01  0.41700257523E+02  0.11890749816E+02  0.47787270366E+02  0.19999996909E+02 0.  0.
         12    1    1    2    0    0 -0.18226146111E+01 -0.41700257523E+02 -0.11890749816E+02  0.43400729634E+02  0.00000000000E+00 0. -1.
         11    1    3    3    0    0 -0.44298828931E+01  0.16617380652E+02  0.30415114646E+01  0.17464592593E+02  0.51100000000E-03 0.  1.
        -11    1    3    3    0    0  0.64788211463E+01  0.21093964687E+02  0.16988664051E+01  0.22131801033E+02  0.51100000000E-03 0. -1.
         12    1    3    3    0    0 -0.22632364218E+00  0.39889121844E+01  0.71503719461E+01  0.81908767402E+01  0.00000000000E+00 0. -1.
</event>
<event>
 7    1  0.1813014E-010  0.4778727E+02  0.7816164E-02  0.1312668E+00
        -11   -1    0    0    0    0  0.00000000000E+00  0.00000000000E+00  0.45593999997E+02  0.45594000000E+02  0.51100000000E-03 0.  1.
         11   -1    0    0    0    0 -0.00000000000E+00 -0.00000000000E+00 -0.45593999997E+02  0.45594000000E+02  0.51100000000E-03 0. -1.
    9900012    2    1    2    0    0  0.21907186235E+02 -0.16978614450E+02  0.33397978734E+02  0.47787272576E+02  0.20000006985E+02 0.  0.
         12    1    1    2    0    0 -0.21907186235E+02  0.16978614450E+02 -0.33397978734E+02  0.43400727424E+02  0.00000000000E+00 0. -1.
         11    1    3    3    0    0  0.13686083265E+01 -0.61524852057E+01  0.67588193034E+01  0.92416341410E+01  0.51100000000E-03 0. -1.
        -11    1    3    3    0    0  0.79363349409E+01  0.33940568765E+01  0.61257718863E+01  0.10584427988E+02  0.51100000000E-03 0.  1.
        -12    1    3    3    0    0  0.12602242968E+02 -0.14220186121E+02  0.20513387544E+02  0.27961210447E+02  0.00000000000E+00 0.  1.
</event>
<event>
 7    1  0.1813014E-010  0.4778727E+02  0.7816164E-02  0.1312668E+00
        -11   -1    0    0    0    0  0.00000000000E+00  0.00000000000E+00  0.45593999997E+02  0.45594000000E+02  0.51100000000E-03 0.  1.
         11   -1    0    0    0    0 -0.00000000000E+00 -0.00000000000E+00 -0.45593999997E+02  0.45594000000E+02  0.51100000000E-03 0. -1.
    9900012    2    1    2    0    0  0.73685041096E+00  0.31650819711E+02  0.29686796914E+02  0.47787271344E+02  0.20000001365E+02 0.  0.
         12    1    1    2    0    0 -0.73685041096E+00 -0.31650819711E+02 -0.29686796914E+02  0.43400728656E+02  0.00000000000E+00 0. -1.
         11    1    3    3    0    0 -0.57402298921E+01  0.17796440667E+01  0.60237878656E+01  0.85090183176E+01  0.51100000000E-03 0. -1.
        -11    1    3    3    0    0  0.21001058141E+01  0.13235938970E+02  0.14662909484E+02  0.19864577510E+02  0.51100000000E-03 0.  1.
         12    1    3    3    0    0  0.43769744889E+01  0.16635236674E+02  0.90000995636E+01  0.19413675516E+02  0.00000000000E+00 0. -1.
</event>
<event>
 7    1  0.1813014E-010  0.4778727E+02  0.7816164E-02  0.1312668E+00
        -11   -1    0    0    0    0  0.00000000000E+00  0.00000000000E+00  0.45593999997E+02  0.45594000000E+02  0.51100000000E-03 0.  1.
         11   -1    0    0    0    0 -0.00000000000E+00 -0.00000000000E+00 -0.45593999997E+02  0.45594000000E+02  0.51100000000E-03 0. -1.
    9900012    2    1    2    0    0 -0.19743163901E+02 -0.12474936760E+02  0.36581506030E+02  0.47787272455E+02  0.20000006433E+02 0.  0.
         12    1    1    2    0    0  0.19743163901E+02  0.12474936760E+02 -0.36581506030E+02  0.43400727545E+02  0.00000000000E+00 0. -1.
         11    1    3    3    0    0 -0.38240285669E+01 -0.10291862738E+02  0.10979115170E+02  0.15526963749E+02  0.51100000000E-03 0. -1.
        -11    1    3    3    0    0 -0.26799684473E+01  0.28464065356E+01  0.12774072935E+01  0.41129102468E+01  0.51100000000E-03 0.  1.
        -12    1    3    3    0    0 -0.13239166887E+02 -0.50294805585E+01  0.24324983566E+02  0.28147398459E+02  0.00000000000E+00 0.  1.
</event>
<event>
 7    1  0.1813014E-010  0.4778727E+02  0.7816164E-02  0.1312668E+00
        -11   -1    0    0    0    0  0.00000000000E+00  0.00000000000E+00  0.45593999997E+02  0.45594000000E+02  0.51100000000E-03 0.  1.
         11   -1    0    0    0    0 -0.00000000000E+00 -0.00000000000E+00 -0.45593999997E+02  0.45594000000E+02  0.51100000000E-03 0. -1.
    9900012    2    1    2    0    0  0.64781060674E+01 -0.37617419405E+01  0.42749350154E+02  0.47787268448E+02  0.19999988163E+02 0.  0.
         12    1    1    2    0    0 -0.64781060674E+01  0.37617419405E+01 -0.42749350154E+02  0.43400731552E+02  0.00000000000E+00 0. -1.
         11    1    3    3    0    0 -0.15083224692E+00  0.37290198968E+00 -0.50766424802E-01  0.40544266133E+00  0.51100000000E-03 0. -1.
        -11    1    3    3    0    0  0.98057703466E+01 -0.23800025363E-01  0.94118894124E+01  0.13591812282E+02  0.51100000000E-03 0.  1.
        -12    1    3    3    0    0 -0.31768320323E+01 -0.41108439048E+01  0.33388227166E+02  0.33790013505E+02  0.00000000000E+00 0.  1.
</event>
<event>
 7    1  0.1813014E-010  0.4778727E+02  0.7816164E-02  0.1312668E+00
        -11   -1    0    0    0    0  0.00000000000E+00  0.00000000000E+00  0.45593999997E+02  0.45594000000E+02  0.51100000000E-03 0. -1.
         11   -1    0    0    0    0 -0.00000000000E+00 -0.00000000000E+00 -0.45593999997E+02  0.45594000000E+02  0.51100000000E-03 0.  1.
    9900012    2    1    2    0    0  0.22263468271E+02  0.29805008254E+02 -0.22352238709E+02  0.47787272912E+02  0.20000008513E+02 0.  0.
         12    1    1    2    0    0 -0.22263468271E+02 -0.29805008254E+02  0.22352238709E+02  0.43400727088E+02  0.00000000000E+00 0. -1.
         11    1    3    3    0    0  0.94241326174E+00 -0.64081309132E+00 -0.27761174458E+01  0.30009352722E+01  0.51100000000E-03 0. -1.
        -11    1    3    3    0    0  0.19880606533E+02  0.22430615131E+02 -0.87204964132E+01  0.31215670251E+02  0.51100000000E-03 0.  1.
         12    1    3    3    0    0  0.14404484767E+01  0.80152062147E+01 -0.10855624850E+02  0.13570667389E+02  0.00000000000E+00 0. -1.
</event>
<event>
 7    1  0.1813014E-010  0.4778727E+02  0.7816164E-02  0.1312668E+00
        -11   -1    0    0    0    0  0.00000000000E+00  0.00000000000E+00  0.45593999997E+02  0.45594000000E+02  0.51100000000E-03 0.  1.
         11   -1    0    0    0    0 -0.00000000000E+00 -0.00000000000E+00 -0.45593999997E+02  0.45594000000E+02  0.51100000000E-03 0. -1.
    9900012    2    1    2    0    0 -0.30493898113E+02 -0.16094427801E+02  0.26357440527E+02  0.47787273053E+02  0.20000009159E+02 0.  0.
         12    1    1    2    0    0  0.30493898113E+02  0.16094427801E+02 -0.26357440527E+02  0.43400726947E+02  0.00000000000E+00 0. -1.
         11    1    3    3    0    0 -0.28279593414E+02 -0.69124495394E+01  0.15688409818E+02  0.33070282206E+02  0.51100000000E-03 0. -1.
        -11    1    3    3    0    0  0.71405479477E+00 -0.11855428572E+01  0.27945140057E+01  0.31184443085E+01  0.51100000000E-03 0.  1.
         12    1    3    3    0    0 -0.29283594939E+01 -0.79964354045E+01  0.78745167034E+01  0.11598546539E+02  0.00000000000E+00 0. -1.
</event>
<event>
 7    1  0.1813014E-010  0.4778726E+02  0.7816164E-02  0.1312668E+00
        -11   -1    0    0    0    0  0.00000000000E+00  0.00000000000E+00  0.45593999997E+02  0.45594000000E+02  0.51100000000E-03 0.  1.
         11   -1    0    0    0    0 -0.00000000000E+00 -0.00000000000E+00 -0.45593999997E+02  0.45594000000E+02  0.51100000000E-03 0. -1.
    9900012    2    1    2    0    0 -0.42254388015E+02 -0.85971763484E+01 -0.49273914623E+01  0.47787263436E+02  0.19999965309E+02 0.  0.
         12    1    1    2    0    0  0.42254388015E+02  0.85971763484E+01  0.49273914623E+01  0.43400736564E+02  0.00000000000E+00 0. -1.
         11    1    3    3    0    0 -0.70059341310E+01 -0.47892007086E+01 -0.60582488337E+01  0.10426981139E+02  0.51100000000E-03 0. -1.
        -11    1    3    3    0    0 -0.11836341390E+02 -0.50098511387E+01  0.46222060132E+01  0.13658783790E+02  0.51100000000E-03 0.  1.
         12    1    3    3    0    0 -0.23412112494E+02  0.12018754989E+01 -0.34913486418E+01  0.23701498507E+02  0.00000000000E+00 0. -1.
</event>
<event>
 7    1  0.1813014E-010  0.4778727E+02  0.7816164E-02  0.1312668E+00
        -11   -1    0    0    0    0  0.00000000000E+00  0.00000000000E+00  0.45593999997E+02  0.45594000000E+02  0.51100000000E-03 0. -1.
         11   -1    0    0    0    0 -0.00000000000E+00 -0.00000000000E+00 -0.45593999997E+02  0.45594000000E+02  0.51100000000E-03 0.  1.
    9900012    2    1    2    0    0  0.68590001546E+01 -0.72493733414E+01 -0.42237710109E+02  0.47787268990E+02  0.19999990631E+02 0.  0.
         12    1    1    2    0    0 -0.68590001546E+01  0.72493733414E+01  0.42237710109E+02  0.43400731010E+02  0.00000000000E+00 0. -1.
         11    1    3    3    0    0  0.52322537646E+01 -0.49706642603E+01 -0.82636811745E+01  0.10971436071E+02  0.51100000000E-03 0.  1.
        -11    1    3    3    0    0  0.14559616600E+01  0.58039517912E+01 -0.12175761199E+02  0.13566681311E+02  0.51100000000E-03 0. -1.
         12    1    3    3    0    0  0.17078473003E+00 -0.80826608723E+01 -0.21798267736E+02  0.23249151608E+02  0.00000000000E+00 0. -1.
</event>
<event>
 7    1  0.1813014E-010  0.4778727E+02  0.7816164E-02  0.1312668E+00
        -11   -1    0    0    0    0  0.00000000000E+00  0.00000000000E+00  0.45593999997E+02  0.45594000000E+02  0.51100000000E-03 0.  1.
         11   -1    0    0    0    0 -0.00000000000E+00 -0.00000000000E+00 -0.45593999997E+02  0.45594000000E+02  0.51100000000E-03 0. -1.
    9900012    2    1    2    0    0  0.35621302698E+01 -0.37956580958E+02  0.20742050660E+02  0.47787268720E+02  0.19999989401E+02 0.  0.
         12    1    1    2    0    0 -0.35621302698E+01  0.37956580958E+02 -0.20742050660E+02  0.43400731280E+02  0.00000000000E+00 0. -1.
         11    1    3    3    0    0 -0.15584678632E+01 -0.16631623072E+02  0.23508402308E+01  0.16869088836E+02  0.51100000000E-03 0. -1.
        -11    1    3    3    0    0  0.46769915457E-01 -0.11748291847E+02  0.30550708670E+01  0.12139110635E+02  0.51100000000E-03 0.  1.
        -12    1    3    3    0    0  0.50738282176E+01 -0.95766660392E+01  0.15336139562E+02  0.18779069249E+02  0.00000000000E+00 0.  1.
</event>
<event>
 7    1  0.1813014E-010  0.4778727E+02  0.7816164E-02  0.1312668E+00
        -11   -1    0    0    0    0  0.00000000000E+00  0.00000000000E+00  0.45593999997E+02  0.45594000000E+02  0.51100000000E-03 0.  1.
         11   -1    0    0    0    0 -0.00000000000E+00 -0.00000000000E+00 -0.45593999997E+02  0.45594000000E+02  0.51100000000E-03 0. -1.
    9900012    2    1    2    0    0  0.14235656914E+02 -0.40861978755E+02  0.33567954207E+01  0.47787270617E+02  0.19999998049E+02 0.  0.
         12    1    1    2    0    0 -0.14235656914E+02  0.40861978755E+02 -0.33567954207E+01  0.43400729383E+02  0.00000000000E+00 0. -1.
         11    1    3    3    0    0  0.10482491275E+02 -0.77842646159E+01  0.46305607255E+01  0.13853501068E+02  0.51100000000E-03 0. -1.
        -11    1    3    3    0    0  0.40804173609E+01 -0.12784030139E+02 -0.22835591074E+01  0.13612342741E+02  0.51100000000E-03 0.  1.
        -12    1    3    3    0    0 -0.32725172259E+00 -0.20293683999E+02  0.10097938027E+01  0.20321426807E+02  0.00000000000E+00 0.  1.
</event>
<event>
 7    1  0.1813014E-010  0.4778727E+02  0.7816164E-02  0.1312668E+00
        -11   -1    0    0    0    0  0.00000000000E+00  0.00000000000E+00  0.45593999997E+02  0.45594000000E+02  0.51100000000E-03 0.  1.
         11   -1    0    0    0    0 -0.00000000000E+00 -0.00000000000E+00 -0.45593999997E+02  0.45594000000E+02  0.51100000000E-03 0. -1.
    9900012    2    1    2    0    0  0.10082539746E+02 -0.41964469860E+02  0.45770179716E+01  0.47787269224E+02  0.19999991701E+02 0.  0.
         12    1    1    2    0    0 -0.10082539746E+02  0.41964469860E+02 -0.45770179716E+01  0.43400730776E+02  0.00000000000E+00 0. -1.
         11    1    3    3    0    0 -0.78415229956E-01 -0.56593832506E+00  0.57504238222E+00  0.81062268568E+00  0.51100000000E-03 0. -1.
        -11    1    3    3    0    0  0.17623865056E+01 -0.15109985005E+02 -0.76410643552E+01  0.17023616472E+02  0.51100000000E-03 0.  1.
        -12    1    3    3    0    0  0.83985684703E+01 -0.26288546530E+02  0.11643039945E+02  0.29953030067E+02  0.00000000000E+00 0.  1.
</event>
<event>
 7    1  0.1813014E-010  0.4778727E+02  0.7816164E-02  0.1312668E+00
        -11   -1    0    0    0    0  0.00000000000E+00  0.00000000000E+00  0.45593999997E+02  0.45594000000E+02  0.51100000000E-03 0.  1.
         11   -1    0    0    0    0 -0.00000000000E+00 -0.00000000000E+00 -0.45593999997E+02  0.45594000000E+02  0.51100000000E-03 0. -1.
    9900012    2    1    2    0    0  0.33933881356E+02  0.31668367622E+01  0.26871655382E+02  0.47787273947E+02  0.20000013234E+02 0.  0.
         12    1    1    2    0    0 -0.33933881356E+02 -0.31668367622E+01 -0.26871655382E+02  0.43400726053E+02  0.00000000000E+00 0. -1.
         11    1    3    3    0    0  0.45657526004E+01  0.49543171428E+01  0.37743799252E+01  0.77225189699E+01  0.51100000000E-03 0. -1.
        -11    1    3    3    0    0  0.26428466535E+02 -0.64682199800E+01  0.19317698209E+02  0.33368775486E+02  0.51100000000E-03 0.  1.
        -12    1    3    3    0    0  0.29396622200E+01  0.46807395994E+01  0.37795772480E+01  0.66959794907E+01  0.00000000000E+00 0.  1.
</event>
<event>
 7    1  0.1813014E-010  0.4778727E+02  0.7816164E-02  0.1312668E+00
        -11   -1    0    0    0    0  0.00000000000E+00  0.00000000000E+00  0.45593999997E+02  0.45594000000E+02  0.51100000000E-03 0.  1.
         11   -1    0    0    0    0 -0.00000000000E+00 -0.00000000000E+00 -0.45593999997E+02  0.45594000000E+02  0.51100000000E-03 0. -1.
    9900012    2    1    2    0    0 -0.12730046362E+02  0.24871816216E+00  0.41491055660E+02  0.47787266816E+02  0.19999980722E+02 0.  0.
         12    1    1    2    0    0  0.12730046362E+02 -0.24871816216E+00 -0.41491055660E+02  0.43400733184E+02  0.00000000000E+00 0. -1.
         11    1    3    3    0    0 -0.30088498044E+01 -0.10697588098E+01  0.16512019680E+01  0.35950005920E+01  0.51100000000E-03 0. -1.
        -11    1    3    3    0    0 -0.77669156925E+00  0.15143190928E+01  0.32704293903E+02  0.32748545801E+02  0.51100000000E-03 0.  1.
        -12    1    3    3    0    0 -0.89445049888E+01 -0.19584212088E+00  0.71355597889E+01  0.11443720424E+02  0.00000000000E+00 0.  1.
</event>
<event>
 7    1  0.1813014E-010  0.4778722E+02  0.7816164E-02  0.1312668E+00
        -11   -1    0    0    0    0  0.00000000000E+00  0.00000000000E+00  0.45593999997E+02  0.45594000000E+02  0.51100000000E-03 0.  1.
         11   -1    0    0    0    0 -0.00000000000E+00 -0.00000000000E+00 -0.45593999997E+02  0.45594000000E+02  0.51100000000E-03 0. -1.
    9900012    2    1    2    0    0 -0.86395289992E+01 -0.36183368731E+02  0.22355090949E+02  0.47787219761E+02  0.19999766175E+02 0.  0.
         12    1    1    2    0    0  0.86395289992E+01  0.36183368731E+02 -0.22355090949E+02  0.43400780239E+02  0.00000000000E+00 0. -1.
         11    1    3    3    0    0  0.13338663294E+01  0.47566077282E+00 -0.16928006488E+01  0.22070402926E+01  0.51100000000E-03 0. -1.
        -11    1    3    3    0    0  0.41811894280E+00 -0.70117249914E+01  0.23785349046E+01  0.74159651670E+01  0.51100000000E-03 0.  1.
        -12    1    3    3    0    0 -0.10391514271E+02 -0.29647304512E+02  0.21669356693E+02  0.38164214301E+02  0.00000000000E+00 0.  1.
</event>
<event>
 7    1  0.1813014E-010  0.4778726E+02  0.7816164E-02  0.1312668E+00
        -11   -1    0    0    0    0  0.00000000000E+00  0.00000000000E+00  0.45593999997E+02  0.45594000000E+02  0.51100000000E-03 0.  1.
         11   -1    0    0    0    0 -0.00000000000E+00 -0.00000000000E+00 -0.45593999997E+02  0.45594000000E+02  0.51100000000E-03 0. -1.
    9900012    2    1    2    0    0  0.15795470473E+02 -0.13877722261E+02  0.37967565833E+02  0.47787261321E+02  0.19999955666E+02 0.  0.
         12    1    1    2    0    0 -0.15795470473E+02  0.13877722261E+02 -0.37967565833E+02  0.43400738679E+02  0.00000000000E+00 0. -1.
         11    1    3    3    0    0 -0.25643430579E-01 -0.56214510334E+01  0.71944243416E+01  0.91302306200E+01  0.51100000000E-03 0. -1.
        -11    1    3    3    0    0  0.85034903411E+01 -0.48506499592E+00  0.25230905615E+02  0.26629743417E+02  0.51100000000E-03 0.  1.
        -12    1    3    3    0    0  0.73176235630E+01 -0.77712062312E+01  0.55422358759E+01  0.12027287284E+02  0.00000000000E+00 0.  1.
</event>
<event>
 7    1  0.1813014E-010  0.4778727E+02  0.7816164E-02  0.1312668E+00
        -11   -1    0    0    0    0  0.00000000000E+00  0.00000000000E+00  0.45593999997E+02  0.45594000000E+02  0.51100000000E-03 0.  1.
         11   -1    0    0    0    0 -0.00000000000E+00 -0.00000000000E+00 -0.45593999997E+02  0.45594000000E+02  0.51100000000E-03 0. -1.
    9900012    2    1    2    0    0 -0.60007056822E+01 -0.42921033223E+02 -0.23237001255E+01  0.47787272542E+02  0.20000006829E+02 0.  0.
         12    1    1    2    0    0  0.60007056822E+01  0.42921033223E+02  0.23237001255E+01  0.43400727458E+02  0.00000000000E+00 0. -1.
         11    1    3    3    0    0 -0.12317672758E+00 -0.19803134430E+02 -0.32416679837E+01  0.20067080438E+02  0.51100000000E-03 0. -1.
        -11    1    3    3    0    0 -0.17052077192E+01 -0.13644944315E+02 -0.62751240014E+01  0.15115204935E+02  0.51100000000E-03 0.  1.
         12    1    3    3    0    0 -0.41723212354E+01 -0.94729544780E+01  0.71930918596E+01  0.12604987169E+02  0.00000000000E+00 0. -1.
</event>
<event>
 7    1  0.1813014E-010  0.4778729E+02  0.7816164E-02  0.1312668E+00
        -11   -1    0    0    0    0  0.00000000000E+00  0.00000000000E+00  0.45593999997E+02  0.45594000000E+02  0.51100000000E-03 0.  1.
         11   -1    0    0    0    0 -0.00000000000E+00 -0.00000000000E+00 -0.45593999997E+02  0.45594000000E+02  0.51100000000E-03 0. -1.
    9900012    2    1    2    0    0  0.19132402287E+02  0.19868742457E+02  0.33508291559E+02  0.47787293240E+02  0.20000101197E+02 0.  0.
         12    1    1    2    0    0 -0.19132402287E+02 -0.19868742457E+02 -0.33508291559E+02  0.43400706760E+02  0.00000000000E+00 0. -1.
         11    1    3    3    0    0  0.61730627968E+01  0.30910390182E+01  0.63808257120E+01  0.94008597230E+01  0.51100000000E-03 0. -1.
        -11    1    3    3    0    0  0.13452618304E+02  0.98221065265E+01  0.89317449809E+01  0.18900338212E+02  0.51100000000E-03 0.  1.
        -12    1    3    3    0    0 -0.49327881366E+00  0.69555969121E+01  0.18195720866E+02  0.19486095305E+02  0.00000000000E+00 0.  1.
</event>
<event>
 7    1  0.1813014E-010  0.4778727E+02  0.7816164E-02  0.1312668E+00
        -11   -1    0    0    0    0  0.00000000000E+00  0.00000000000E+00  0.45593999997E+02  0.45594000000E+02  0.51100000000E-03 0. -1.
         11   -1    0    0    0    0 -0.00000000000E+00 -0.00000000000E+00 -0.45593999997E+02  0.45594000000E+02  0.51100000000E-03 0.  1.
    9900012    2    1    2    0    0 -0.29216243185E+02 -0.32084236332E+02 -0.79767727751E+00  0.47787269869E+02  0.19999994642E+02 0.  0.
         12    1    1    2    0    0  0.29216243185E+02  0.32084236332E+02  0.79767727751E+00  0.43400730131E+02  0.00000000000E+00 0. -1.
         11    1    3    3    0    0 -0.15565109978E+01 -0.34843765526E+01  0.40434720108E+01  0.55599705583E+01  0.51100000000E-03 0. -1.
        -11    1    3    3    0    0 -0.65066221428E+01 -0.87091256791E+01 -0.72881864438E+01  0.13088264350E+02  0.51100000000E-03 0.  1.
        -12    1    3    3    0    0 -0.21153110044E+02 -0.19890734100E+02  0.24470371556E+01  0.29139034961E+02  0.00000000000E+00 0.  1.
</event>
<event>
 7    1  0.1813014E-010  0.4778727E+02  0.7816164E-02  0.1312668E+00
        -11   -1    0    0    0    0  0.00000000000E+00  0.00000000000E+00  0.45593999997E+02  0.45594000000E+02  0.51100000000E-03 0. -1.
         11   -1    0    0    0    0 -0.00000000000E+00 -0.00000000000E+00 -0.45593999997E+02  0.45594000000E+02  0.51100000000E-03 0.  1.
    9900012    2    1    2    0    0 -0.28813397508E+02  0.20678408255E+02  0.25016288735E+02  0.47787272518E+02  0.20000006718E+02 0.  0.
         12    1    1    2    0    0  0.28813397508E+02 -0.20678408255E+02 -0.25016288735E+02  0.43400727482E+02  0.00000000000E+00 0. -1.
         11    1    3    3    0    0 -0.10927867885E+02  0.40494215633E-01  0.13049268158E+02  0.17020673783E+02  0.51100000000E-03 0. -1.
        -11    1    3    3    0    0 -0.11032166351E+02  0.12790307321E+02  0.11308515453E+02  0.20326907728E+02  0.51100000000E-03 0.  1.
        -12    1    3    3    0    0 -0.68533632715E+01  0.78476067177E+01  0.65850512445E+00  0.10439691007E+02  0.00000000000E+00 0.  1.
</event>
<event>
 7    1  0.1813014E-010  0.4778727E+02  0.7816164E-02  0.1312668E+00
        -11   -1    0    0    0    0  0.00000000000E+00  0.00000000000E+00  0.45593999997E+02  0.45594000000E+02  0.51100000000E-03 0. -1.
         11   -1    0    0    0    0 -0.00000000000E+00 -0.00000000000E+00 -0.45593999997E+02  0.45594000000E+02  0.51100000000E-03 0.  1.
    9900012    2    1    2    0    0  0.99614246989E+01 -0.19052060307E+01 -0.42199092912E+02  0.47787271497E+02  0.20000002062E+02 0.  0.
         12    1    1    2    0    0 -0.99614246989E+01  0.19052060307E+01  0.42199092912E+02  0.43400728503E+02  0.00000000000E+00 0. -1.
         11    1    3    3    0    0  0.55252142729E+01 -0.39645197505E+01 -0.11486430702E+02  0.13348539251E+02  0.51100000000E-03 0. -1.
        -11    1    3    3    0    0  0.15229398411E+01  0.25519545899E+01 -0.31287820006E+02  0.31428641380E+02  0.51100000000E-03 0.  1.
        -12    1    3    3    0    0  0.29132705849E+01 -0.49264087003E+00  0.57515779632E+00  0.30100908655E+01  0.00000000000E+00 0.  1.
</event>
<event>
 7    1  0.1813014E-010  0.4778726E+02  0.7816164E-02  0.1312668E+00
        -11   -1    0    0    0    0  0.00000000000E+00  0.00000000000E+00  0.45593999997E+02  0.45594000000E+02  0.51100000000E-03 0.  1.
         11   -1    0    0    0    0 -0.00000000000E+00 -0.00000000000E+00 -0.45593999997E+02  0.45594000000E+02  0.51100000000E-03 0. -1.
    9900012    2    1    2    0    0  0.10537338508E+02  0.12022554450E+02  0.40349058378E+02  0.47787264634E+02  0.19999970771E+02 0.  0.
         12    1    1    2    0    0 -0.10537338508E+02 -0.12022554450E+02 -0.40349058378E+02  0.43400735366E+02  0.00000000000E+00 0. -1.
         11    1    3    3    0    0 -0.22565618926E+01  0.70859700763E+01  0.14509033914E+02  0.16303837244E+02  0.51100000000E-03 0. -1.
        -11    1    3    3    0    0  0.51417215238E+01 -0.18857147710E+01  0.17282151543E+02  0.18129147322E+02  0.51100000000E-03 0.  1.
         12    1    3    3    0    0  0.76521788766E+01  0.68222991448E+01  0.85578729207E+01  0.13354280067E+02  0.00000000000E+00 0. -1.
</event>
<event>
 7    1  0.1813014E-010  0.4778731E+02  0.7816164E-02  0.1312668E+00
        -11   -1    0    0    0    0  0.00000000000E+00  0.00000000000E+00  0.45593999997E+02  0.45594000000E+02  0.51100000000E-03 0.  1.
         11   -1    0    0    0    0 -0.00000000000E+00 -0.00000000000E+00 -0.45593999997E+02  0.45594000000E+02  0.51100000000E-03 0. -1.
    9900012    2    1    2    0    0  0.13564693352E+01 -0.14780621128E+02  0.40783733384E+02  0.47787312462E+02  0.20000188840E+02 0.  0.
         12    1    1    2    0    0 -0.13564693352E+01  0.14780621128E+02 -0.40783733384E+02  0.43400687538E+02  0.00000000000E+00 0. -1.
         11    1    3    3    0    0 -0.29992990120E+01  0.16348911292E+01  0.15374434798E+02  0.15749346310E+02  0.51100000000E-03 0.  1.
        -11    1    3    3    0    0 -0.25140169013E+01 -0.20647638311E+01  0.23117372989E+01  0.39909472883E+01  0.51100000000E-03 0. -1.
        -12    1    3    3    0    0  0.68697852484E+01 -0.14350748426E+02  0.23097561287E+02  0.28047018864E+02  0.00000000000E+00 0.  1.
</event>
<event>
 7    1  0.1813014E-010  0.4778727E+02  0.7816164E-02  0.1312668E+00
        -11   -1    0    0    0    0  0.00000000000E+00  0.00000000000E+00  0.45593999997E+02  0.45594000000E+02  0.51100000000E-03 0.  1.
         11   -1    0    0    0    0 -0.00000000000E+00 -0.00000000000E+00 -0.45593999997E+02  0.45594000000E+02  0.51100000000E-03 0. -1.
    9900012    2    1    2    0    0 -0.11951277876E+01  0.30669466014E+02  0.30685153945E+02  0.47787272488E+02  0.20000006580E+02 0.  0.
         12    1    1    2    0    0  0.11951277876E+01 -0.30669466014E+02 -0.30685153945E+02  0.43400727512E+02  0.00000000000E+00 0. -1.
         11    1    3    3    0    0 -0.34760616744E+01  0.33088094867E+01  0.91388938376E+01  0.10322335289E+02  0.51100000000E-03 0. -1.
        -11    1    3    3    0    0 -0.29493312726E+00  0.16410886165E+02  0.44606432365E+01  0.17008865589E+02  0.51100000000E-03 0.  1.
         12    1    3    3    0    0  0.25758670141E+01  0.10949770362E+02  0.17085616871E+02  0.20456071610E+02  0.00000000000E+00 0. -1.
</event>
<event>
 7    1  0.1813014E-010  0.4778726E+02  0.7816164E-02  0.1312668E+00
        -11   -1    0    0    0    0  0.00000000000E+00  0.00000000000E+00  0.45593999997E+02  0.45594000000E+02  0.51100000000E-03 0.  1.
         11   -1    0    0    0    0 -0.00000000000E+00 -0.00000000000E+00 -0.45593999997E+02  0.45594000000E+02  0.51100000000E-03 0. -1.
    9900012    2    1    2    0    0 -0.18778600181E+01 -0.51609231410E+00  0.43357019918E+02  0.47787263996E+02  0.19999967865E+02 0.  0.
         12    1    1    2    0    0  0.18778600181E+01  0.51609231410E+00 -0.43357019918E+02  0.43400736004E+02  0.00000000000E+00 0. -1.
         11    1    3    3    0    0 -0.27048665121E+01  0.88894088396E+00  0.18229980596E+02  0.18450981317E+02  0.51100000000E-03 0.  1.
        -11    1    3    3    0    0 -0.24165590058E+01  0.13224239999E+01  0.24942724412E+02  0.25094383117E+02  0.51100000000E-03 0. -1.
         12    1    3    3    0    0  0.32435654998E+01 -0.27274571980E+01  0.18431490968E+00  0.42418995632E+01  0.00000000000E+00 0. -1.
</event>
<event>
 7    1  0.1813014E-010  0.4778727E+02  0.7816164E-02  0.1312668E+00
        -11   -1    0    0    0    0  0.00000000000E+00  0.00000000000E+00  0.45593999997E+02  0.45594000000E+02  0.51100000000E-03 0.  1.
         11   -1    0    0    0    0 -0.00000000000E+00 -0.00000000000E+00 -0.45593999997E+02  0.45594000000E+02  0.51100000000E-03 0. -1.
    9900012    2    1    2    0    0 -0.64447888072E+01 -0.18550312835E+02  0.38703665871E+02  0.47787272346E+02  0.20000005934E+02 0.  0.
         12    1    1    2    0    0  0.64447888072E+01  0.18550312835E+02 -0.38703665871E+02  0.43400727654E+02  0.00000000000E+00 0. -1.
         11    1    3    3    0    0 -0.50740233144E+01 -0.10819636403E+02  0.18092842933E+02  0.21683201105E+02  0.51100000000E-03 0. -1.
        -11    1    3    3    0    0 -0.16514125122E+01 -0.27640802690E+01 -0.14196828642E+01  0.35189206747E+01  0.51100000000E-03 0.  1.
        -12    1    3    3    0    0  0.28064701944E+00 -0.49665961623E+01  0.22030505803E+02  0.22585150567E+02  0.00000000000E+00 0.  1.
</event>
<event>
 7    1  0.1813014E-010  0.4778728E+02  0.7816164E-02  0.1312668E+00
        -11   -1    0    0    0    0  0.00000000000E+00  0.00000000000E+00  0.45593999997E+02  0.45594000000E+02  0.51100000000E-03 0.  1.
         11   -1    0    0    0    0 -0.00000000000E+00 -0.00000000000E+00 -0.45593999997E+02  0.45594000000E+02  0.51100000000E-03 0. -1.
    9900012    2    1    2    0    0 -0.19578349849E+02  0.38577320305E+02 -0.34787102596E+01  0.47787275931E+02  0.20000022278E+02 0.  0.
         12    1    1    2    0    0  0.19578349849E+02 -0.38577320305E+02  0.34787102596E+01  0.43400724069E+02  0.00000000000E+00 0. -1.
         11    1    3    3    0    0  0.22289349378E+00  0.67928778539E+00 -0.24614777665E+01  0.25631984826E+01  0.51100000000E-03 0. -1.
        -11    1    3    3    0    0 -0.19192945720E+02  0.22100189046E+02  0.98964873099E+00  0.29287658256E+02  0.51100000000E-03 0.  1.
        -12    1    3    3    0    0 -0.60829762253E+00  0.15797843473E+02 -0.20068812241E+01  0.15936419192E+02  0.00000000000E+00 0.  1.
</event>
<event>
 7    1  0.1813014E-010  0.4778727E+02  0.7816164E-02  0.1312668E+00
        -11   -1    0    0    0    0  0.00000000000E+00  0.00000000000E+00  0.45593999997E+02  0.45594000000E+02  0.51100000000E-03 0.  1.
         11   -1    0    0    0    0 -0.00000000000E+00 -0.00000000000E+00 -0.45593999997E+02  0.45594000000E+02  0.51100000000E-03 0. -1.
    9900012    2    1    2    0    0 -0.41620425424E+02  0.57898113864E+01  0.10855485591E+02  0.47787270792E+02  0.19999998849E+02 0.  0.
         12    1    1    2    0    0  0.41620425424E+02 -0.57898113864E+01 -0.10855485591E+02  0.43400729208E+02  0.00000000000E+00 0. -1.
         11    1    3    3    0    0 -0.56293170509E+01  0.20456666755E+01 -0.19327201516E+01  0.62935975445E+01  0.51100000000E-03 0. -1.
        -11    1    3    3    0    0 -0.30454698233E+02  0.81360185725E+01  0.13694543154E+02  0.34368938813E+02  0.51100000000E-03 0.  1.
        -12    1    3    3    0    0 -0.55364101404E+01 -0.43918738616E+01 -0.90633741155E+00  0.71247344345E+01  0.00000000000E+00 0.  1.
</event>
<event>
 7    1  0.1813014E-010  0.4778727E+02  0.7816164E-02  0.1312668E+00
        -11   -1    0    0    0    0  0.00000000000E+00  0.00000000000E+00  0.45593999997E+02  0.45594000000E+02  0.51100000000E-03 0.  1.
         11   -1    0    0    0    0 -0.00000000000E+00 -0.00000000000E+00 -0.45593999997E+02  0.45594000000E+02  0.51100000000E-03 0. -1.
    9900012    2    1    2    0    0 -0.11921894027E+02 -0.25159693920E+02  0.33293871810E+02  0.47787266649E+02  0.19999979957E+02 0.  0.
         12    1    1    2    0    0  0.11921894027E+02  0.25159693920E+02 -0.33293871810E+02  0.43400733351E+02  0.00000000000E+00 0. -1.
         11    1    3    3    0    0 -0.46624520774E+01 -0.25538848756E+02  0.22784548836E+02  0.34541379838E+02  0.51100000000E-03 0. -1.
        -11    1    3    3    0    0  0.35258162937E+00  0.10915765212E+00  0.17655521681E+00  0.40914692238E+00  0.51100000000E-03 0.  1.
        -12    1    3    3    0    0 -0.76120235788E+01  0.26999718393E+00  0.10332767757E+02  0.12836739888E+02  0.00000000000E+00 0.  1.
</event>
<event>
 7    1  0.1813014E-010  0.4778727E+02  0.7816164E-02  0.1312668E+00
        -11   -1    0    0    0    0  0.00000000000E+00  0.00000000000E+00  0.45593999997E+02  0.45594000000E+02  0.51100000000E-03 0.  1.
         11   -1    0    0    0    0 -0.00000000000E+00 -0.00000000000E+00 -0.45593999997E+02  0.45594000000E+02  0.51100000000E-03 0. -1.
    9900012    2    1    2    0    0  0.43331880118E+02 -0.17399193631E+01  0.17158529524E+01  0.47787270682E+02  0.19999998347E+02 0.  0.
         12    1    1    2    0    0 -0.43331880118E+02  0.17399193631E+01 -0.17158529524E+01  0.43400729318E+02  0.00000000000E+00 0. -1.
         11    1    3    3    0    0 -0.36585472442E+00 -0.34212854451E+00 -0.50504400213E+00  0.71131661415E+00  0.51100000000E-03 0. -1.
        -11    1    3    3    0    0  0.33617434794E+02 -0.80990401527E+01 -0.84353597431E+00  0.34589563841E+02  0.51100000000E-03 0.  1.
         12    1    3    3    0    0  0.10080300049E+02  0.67012493341E+01  0.30644329289E+01  0.12486390226E+02  0.00000000000E+00 0. -1.
</event>
<event>
 7    1  0.1813014E-010  0.4778727E+02  0.7816164E-02  0.1312668E+00
        -11   -1    0    0    0    0  0.00000000000E+00  0.00000000000E+00  0.45593999997E+02  0.45594000000E+02  0.51100000000E-03 0.  1.
         11   -1    0    0    0    0 -0.00000000000E+00 -0.00000000000E+00 -0.45593999997E+02  0.45594000000E+02  0.51100000000E-03 0. -1.
    9900012    2    1    2    0    0 -0.33264725201E+02  0.19993971920E+02  0.19424790572E+02  0.47787270230E+02  0.19999996286E+02 0.  0.
         12    1    1    2    0    0  0.33264725201E+02 -0.19993971920E+02 -0.19424790572E+02  0.43400729770E+02  0.00000000000E+00 0. -1.
         11    1    3    3    0    0 -0.10567885970E+02 -0.17316205063E+00  0.87109082390E+01  0.13696354317E+02  0.51100000000E-03 0.  1.
        -11    1    3    3    0    0 -0.12380428252E+01  0.70912564793E+01  0.30638530134E+01  0.78234176701E+01  0.51100000000E-03 0. -1.
        -12    1    3    3    0    0 -0.21458796405E+02  0.13075877491E+02  0.76500293193E+01  0.26267498242E+02  0.00000000000E+00 0.  1.
</event>
<event>
 7    1  0.1813014E-010  0.4778726E+02  0.7816164E-02  0.1312668E+00
        -11   -1    0    0    0    0  0.00000000000E+00  0.00000000000E+00  0.45593999997E+02  0.45594000000E+02  0.51100000000E-03 0.  1.
         11   -1    0    0    0    0 -0.00000000000E+00 -0.00000000000E+00 -0.45593999997E+02  0.45594000000E+02  0.51100000000E-03 0. -1.
    9900012    2    1    2    0    0 -0.22690326281E+01  0.30661714842E+02  0.30632257519E+02  0.47787257301E+02  0.19999937339E+02 0.  0.
         12    1    1    2    0    0  0.22690326281E+01 -0.30661714842E+02 -0.30632257519E+02  0.43400742699E+02  0.00000000000E+00 0. -1.
         11    1    3    3    0    0  0.21639787775E+00 -0.80979088043E+00  0.21464016052E+01  0.23042633147E+01  0.51100000000E-03 0. -1.
        -11    1    3    3    0    0  0.68888949545E+01  0.12867168275E+02  0.10819493038E+02  0.18168167849E+02  0.51100000000E-03 0.  1.
        -12    1    3    3    0    0 -0.93743254603E+01  0.18604337447E+02  0.17666362876E+02  0.27314826138E+02  0.00000000000E+00 0.  1.
</event>
<event>
 7    1  0.1813014E-010  0.4778727E+02  0.7816164E-02  0.1312668E+00
        -11   -1    0    0    0    0  0.00000000000E+00  0.00000000000E+00  0.45593999997E+02  0.45594000000E+02  0.51100000000E-03 0. -1.
         11   -1    0    0    0    0 -0.00000000000E+00 -0.00000000000E+00 -0.45593999997E+02  0.45594000000E+02  0.51100000000E-03 0.  1.
    9900012    2    1    2    0    0  0.23366445189E+02  0.32340104978E+02 -0.17080701866E+02  0.47787268128E+02  0.19999986702E+02 0.  0.
         12    1    1    2    0    0 -0.23366445189E+02 -0.32340104978E+02  0.17080701866E+02  0.43400731872E+02  0.00000000000E+00 0. -1.
         11    1    3    3    0    0  0.18651005176E+01  0.33840033065E+01  0.20685857931E+01  0.43828216669E+01  0.51100000000E-03 0. -1.
        -11    1    3    3    0    0  0.19973363971E+02  0.17565987534E+02 -0.17388275470E+02  0.31778157757E+02  0.51100000000E-03 0.  1.
        -12    1    3    3    0    0  0.15279807007E+01  0.11390114138E+02 -0.17610121891E+01  0.11626288704E+02  0.00000000000E+00 0.  1.
</event>
<event>
 7    1  0.1813014E-010  0.4778727E+02  0.7816164E-02  0.1312668E+00
        -11   -1    0    0    0    0  0.00000000000E+00  0.00000000000E+00  0.45593999997E+02  0.45594000000E+02  0.51100000000E-03 0. -1.
         11   -1    0    0    0    0 -0.00000000000E+00 -0.00000000000E+00 -0.45593999997E+02  0.45594000000E+02  0.51100000000E-03 0.  1.
    9900012    2    1    2    0    0  0.17119031882E+02  0.33938345923E+01 -0.39737184693E+02  0.47787271744E+02  0.20000003188E+02 0.  0.
         12    1    1    2    0    0 -0.17119031882E+02 -0.33938345923E+01  0.39737184693E+02  0.43400728256E+02  0.00000000000E+00 0. -1.
         11    1    3    3    0    0  0.12904105049E+02 -0.29824311844E+01 -0.36686550455E+02  0.39004022964E+02  0.51100000000E-03 0.  1.
        -11    1    3    3    0    0  0.14251856395E+01  0.15424311877E+01  0.51254864994E+00  0.21617017499E+01  0.51100000000E-03 0. -1.
        -12    1    3    3    0    0  0.27897411942E+01  0.48338345890E+01 -0.35631828885E+01  0.66215470293E+01  0.00000000000E+00 0.  1.
</event>
<event>
 7    1  0.1813014E-010  0.4778727E+02  0.7816164E-02  0.1312668E+00
        -11   -1    0    0    0    0  0.00000000000E+00  0.00000000000E+00  0.45593999997E+02  0.45594000000E+02  0.51100000000E-03 0.  1.
         11   -1    0    0    0    0 -0.00000000000E+00 -0.00000000000E+00 -0.45593999997E+02  0.45594000000E+02  0.51100000000E-03 0. -1.
    9900012    2    1    2    0    0 -0.18296851426E+02 -0.23261697492E+01  0.39286606077E+02  0.47787271263E+02  0.20000000997E+02 0.  0.
         12    1    1    2    0    0  0.18296851426E+02  0.23261697492E+01 -0.39286606077E+02  0.43400728737E+02  0.00000000000E+00 0. -1.
         11    1    3    3    0    0 -0.12589400480E+02  0.83976682091E-01  0.86853047646E+01  0.15294919929E+02  0.51100000000E-03 0. -1.
        -11    1    3    3    0    0 -0.30427943068E+01  0.33284059279E+01  0.14785748144E+02  0.15458176854E+02  0.51100000000E-03 0.  1.
        -12    1    3    3    0    0 -0.26646566400E+01 -0.57385523592E+01  0.15815553169E+02  0.17034174480E+02  0.00000000000E+00 0.  1.
</event>
<event>
 7    1  0.1813014E-010  0.4778726E+02  0.7816164E-02  0.1312668E+00
        -11   -1    0    0    0    0  0.00000000000E+00  0.00000000000E+00  0.45593999997E+02  0.45594000000E+02  0.51100000000E-03 0.  1.
         11   -1    0    0    0    0 -0.00000000000E+00 -0.00000000000E+00 -0.45593999997E+02  0.45594000000E+02  0.51100000000E-03 0. -1.
    9900012    2    1    2    0    0  0.20926347333E+02  0.33791956909E+00  0.38021017168E+02  0.47787263269E+02  0.19999964547E+02 0.  0.
         12    1    1    2    0    0 -0.20926347333E+02 -0.33791956909E+00 -0.38021017168E+02  0.43400736731E+02  0.00000000000E+00 0. -1.
         11    1    3    3    0    0  0.11506122672E+01  0.42028354749E+00  0.74645845507E+01  0.75644279113E+01  0.51100000000E-03 0. -1.
        -11    1    3    3    0    0  0.12743994019E+02  0.61236068300E+01  0.26434842451E+02  0.29978472941E+02  0.51100000000E-03 0.  1.
         12    1    3    3    0    0  0.70317410474E+01 -0.62059708084E+01  0.41215901658E+01  0.10244362417E+02  0.00000000000E+00 0. -1.
</event>
<event>
 7    1  0.1813014E-010  0.4778727E+02  0.7816164E-02  0.1312668E+00
        -11   -1    0    0    0    0  0.00000000000E+00  0.00000000000E+00  0.45593999997E+02  0.45594000000E+02  0.51100000000E-03 0.  1.
         11   -1    0    0    0    0 -0.00000000000E+00 -0.00000000000E+00 -0.45593999997E+02  0.45594000000E+02  0.51100000000E-03 0. -1.
    9900012    2    1    2    0    0 -0.97817550933E+01  0.33892389794E+02  0.25283323323E+02  0.47787271240E+02  0.20000000892E+02 0.  0.
         12    1    1    2    0    0  0.97817550933E+01 -0.33892389794E+02 -0.25283323323E+02  0.43400728760E+02  0.00000000000E+00 0. -1.
         11    1    3    3    0    0 -0.39758041364E+01  0.14373397913E+02  0.51537604436E+01  0.15778556115E+02  0.51100000000E-03 0. -1.
        -11    1    3    3    0    0 -0.83032707018E+00  0.19841189881E+02  0.15321332874E+02  0.25081975604E+02  0.51100000000E-03 0.  1.
        -12    1    3    3    0    0 -0.49756238867E+01 -0.32219799941E+00  0.48082300049E+01  0.69267395211E+01  0.00000000000E+00 0.  1.
</event>
<event>
 7    1  0.1813014E-010  0.4778727E+02  0.7816164E-02  0.1312668E+00
        -11   -1    0    0    0    0  0.00000000000E+00  0.00000000000E+00  0.45593999997E+02  0.45594000000E+02  0.51100000000E-03 0. -1.
         11   -1    0    0    0    0 -0.00000000000E+00 -0.00000000000E+00 -0.45593999997E+02  0.45594000000E+02  0.51100000000E-03 0.  1.
    9900012    2    1    2    0    0  0.42716776873E+02 -0.57671236783E+01  0.50636489255E+01  0.47787270946E+02  0.19999999552E+02 0.  0.
         12    1    1    2    0    0 -0.42716776873E+02  0.57671236783E+01 -0.50636489255E+01  0.43400729054E+02  0.00000000000E+00 0. -1.
         11    1    3    3    0    0  0.34791784641E+02 -0.43199518090E+01  0.10678389203E+02  0.36649123569E+02  0.51100000000E-03 0. -1.
        -11    1    3    3    0    0  0.38357299819E+01  0.19434382507E+01 -0.27285835072E+01  0.50926363453E+01  0.51100000000E-03 0.  1.
        -12    1    3    3    0    0  0.40892622503E+01 -0.33906101201E+01 -0.28861567700E+01  0.60455110321E+01  0.00000000000E+00 0.  1.
</event>
<event>
 7    1  0.1813014E-010  0.4778727E+02  0.7816164E-02  0.1312668E+00
        -11   -1    0    0    0    0  0.00000000000E+00  0.00000000000E+00  0.45593999997E+02  0.45594000000E+02  0.51100000000E-03 0.  1.
         11   -1    0    0    0    0 -0.00000000000E+00 -0.00000000000E+00 -0.45593999997E+02  0.45594000000E+02  0.51100000000E-03 0. -1.
    9900012    2    1    2    0    0 -0.12548790969E+02 -0.15154386204E+02  0.38684571316E+02  0.47787266896E+02  0.19999981087E+02 0.  0.
         12    1    1    2    0    0  0.12548790969E+02  0.15154386204E+02 -0.38684571316E+02  0.43400733104E+02  0.00000000000E+00 0. -1.
         11    1    3    3    0    0  0.53216279940E+00 -0.30030686960E+01 -0.10373327726E+01  0.32214404201E+01  0.51100000000E-03 0. -1.
        -11    1    3    3    0    0 -0.72399146422E+01 -0.10433069033E+02  0.18152177040E+02  0.22153257662E+02  0.51100000000E-03 0.  1.
         12    1    3    3    0    0 -0.58410391265E+01 -0.17182484744E+01  0.21569727049E+02  0.22412568814E+02  0.00000000000E+00 0. -1.
</event>
<event>
 7    1  0.1813014E-010  0.4778727E+02  0.7816164E-02  0.1312668E+00
        -11   -1    0    0    0    0  0.00000000000E+00  0.00000000000E+00  0.45593999997E+02  0.45594000000E+02  0.51100000000E-03 0.  1.
         11   -1    0    0    0    0 -0.00000000000E+00 -0.00000000000E+00 -0.45593999997E+02  0.45594000000E+02  0.51100000000E-03 0. -1.
    9900012    2    1    2    0    0 -0.27552882620E+02  0.23699157567E+02  0.23723657754E+02  0.47787270199E+02  0.19999996146E+02 0.  0.
         12    1    1    2    0    0  0.27552882620E+02 -0.23699157567E+02 -0.23723657754E+02  0.43400729801E+02  0.00000000000E+00 0. -1.
         11    1    3    3    0    0 -0.48937877700E+01 -0.19225146737E+01 -0.68511994693E+00  0.53023212852E+01  0.51100000000E-03 0. -1.
        -11    1    3    3    0    0 -0.24836359473E+01  0.13504622887E+01  0.40051487962E+01  0.49023885049E+01  0.51100000000E-03 0.  1.
        -12    1    3    3    0    0 -0.20175458902E+02  0.24271209951E+02  0.20403628905E+02  0.37582560409E+02  0.00000000000E+00 0.  1.
</event>
<event>
 7    1  0.1813014E-010  0.4778727E+02  0.7816164E-02  0.1312668E+00
        -11   -1    0    0    0    0  0.00000000000E+00  0.00000000000E+00  0.45593999997E+02  0.45594000000E+02  0.51100000000E-03 0.  1.
         11   -1    0    0    0    0 -0.00000000000E+00 -0.00000000000E+00 -0.45593999997E+02  0.45594000000E+02  0.51100000000E-03 0. -1.
    9900012    2    1    2    0    0 -0.21475965381E+02  0.98161605137E+01  0.36414957648E+02  0.47787271472E+02  0.20000001950E+02 0.  0.
         12    1    1    2    0    0  0.21475965381E+02 -0.98161605137E+01 -0.36414957648E+02  0.43400728528E+02  0.00000000000E+00 0. -1.
         11    1    3    3    0    0  0.17606110439E+01  0.56906849673E-01 -0.84364801830E-01  0.17635496359E+01  0.51100000000E-03 0. -1.
        -11    1    3    3    0    0 -0.88542212268E+01  0.10370642084E+02  0.17377917775E+02  0.22089352123E+02  0.51100000000E-03 0.  1.
         12    1    3    3    0    0 -0.14382355198E+02 -0.61138841979E+00  0.19121404675E+02  0.23934369713E+02  0.00000000000E+00 0. -1.
</event>
<event>
 7    1  0.1813014E-010  0.4778727E+02  0.7816164E-02  0.1312668E+00
        -11   -1    0    0    0    0  0.00000000000E+00  0.00000000000E+00  0.45593999997E+02  0.45594000000E+02  0.51100000000E-03 0.  1.
         11   -1    0    0    0    0 -0.00000000000E+00 -0.00000000000E+00 -0.45593999997E+02  0.45594000000E+02  0.51100000000E-03 0. -1.
    9900012    2    1    2    0    0  0.58670295356E+01 -0.74710682582E+00  0.42995845551E+02  0.47787274904E+02  0.20000017599E+02 0.  0.
         12    1    1    2    0    0 -0.58670295356E+01  0.74710682582E+00 -0.42995845551E+02  0.43400725096E+02  0.00000000000E+00 0. -1.
         11    1    3    3    0    0  0.43079879234E-02 -0.35956790463E+01  0.19007397340E+02  0.19344510339E+02  0.51100000000E-03 0. -1.
        -11    1    3    3    0    0  0.44144368123E+01  0.75711830434E+01  0.20779922690E+02  0.22552499912E+02  0.51100000000E-03 0.  1.
         12    1    3    3    0    0  0.14482847354E+01 -0.47226108229E+01  0.32085255217E+01  0.58902646531E+01  0.00000000000E+00 0. -1.
</event>
<event>
 7    1  0.1813014E-010  0.4778728E+02  0.7816164E-02  0.1312668E+00
        -11   -1    0    0    0    0  0.00000000000E+00  0.00000000000E+00  0.45593999997E+02  0.45594000000E+02  0.51100000000E-03 0.  1.
         11   -1    0    0    0    0 -0.00000000000E+00 -0.00000000000E+00 -0.45593999997E+02  0.45594000000E+02  0.51100000000E-03 0. -1.
    9900012    2    1    2    0    0 -0.23352962103E+02  0.31171237549E+02 -0.19147204444E+02  0.47787281949E+02  0.20000049719E+02 0.  0.
         12    1    1    2    0    0  0.23352962103E+02 -0.31171237549E+02  0.19147204444E+02  0.43400718051E+02  0.00000000000E+00 0. -1.
         11    1    3    3    0    0 -0.21676714242E+01 -0.12654358846E+01 -0.31928381890E+01  0.40613228564E+01  0.51100000000E-03 0. -1.
        -11    1    3    3    0    0 -0.19240712265E+02  0.19919906095E+02 -0.13553555763E+02  0.30833529499E+02  0.51100000000E-03 0.  1.
        -12    1    3    3    0    0 -0.19445784137E+01  0.12516767339E+02 -0.24008104927E+01  0.12892429594E+02  0.00000000000E+00 0.  1.
</event>
<event>
 7    1  0.1813014E-010  0.4778727E+02  0.7816164E-02  0.1312668E+00
        -11   -1    0    0    0    0  0.00000000000E+00  0.00000000000E+00  0.45593999997E+02  0.45594000000E+02  0.51100000000E-03 0.  1.
         11   -1    0    0    0    0 -0.00000000000E+00 -0.00000000000E+00 -0.45593999997E+02  0.45594000000E+02  0.51100000000E-03 0. -1.
    9900012    2    1    2    0    0  0.43111738076E+02 -0.26926942013E+01 -0.42131638096E+01  0.47787270614E+02  0.19999998035E+02 0.  0.
         12    1    1    2    0    0 -0.43111738076E+02  0.26926942013E+01  0.42131638096E+01  0.43400729386E+02  0.00000000000E+00 0. -1.
         11    1    3    3    0    0  0.14461389624E+01  0.22345069001E+01  0.16807105576E+01  0.31478766216E+01  0.51100000000E-03 0. -1.
        -11    1    3    3    0    0  0.16521518351E+02 -0.76458806120E+01 -0.65302992187E+01  0.19340756632E+02  0.51100000000E-03 0.  1.
        -12    1    3    3    0    0  0.25144080762E+02  0.27186795105E+01  0.63642485152E+00  0.25298637360E+02  0.00000000000E+00 0.  1.
</event>
<event>
 7    1  0.2287959E-010  0.4778727E+02  0.7816164E-02  0.1312668E+00
        -11   -1    0    0    0    0  0.00000000000E+00  0.00000000000E+00  0.45593999997E+02  0.45594000000E+02  0.51100000000E-03 0.  1.
         11   -1    0    0    0    0 -0.00000000000E+00 -0.00000000000E+00 -0.45593999997E+02  0.45594000000E+02  0.51100000000E-03 0. -1.
    9900012    2    1    2    0    0 -0.12660386373E+02 -0.38359837395E+02 -0.15870121597E+02  0.47787271117E+02  0.20000000331E+02 0.  0.
         12    1    1    2    0    0  0.12660386373E+02  0.38359837395E+02  0.15870121597E+02  0.43400728883E+02  0.00000000000E+00 0. -1.
         11    1    3    3    0    0 -0.10342608256E+02 -0.14515531476E+02 -0.44721798707E+01  0.18375815428E+02  0.51100000000E-03 0.  1.
        -11    1    3    3    0    0 -0.42816887167E+01 -0.17751164889E+02 -0.13460832545E+02  0.22685473904E+02  0.51100000000E-03 0. -1.
         12    1    3    3    0    0  0.19639105998E+01 -0.60931410290E+01  0.20628908183E+01  0.67259817849E+01  0.00000000000E+00 0. -1.
</event>
<event>
 7    1  0.1813014E-010  0.4778727E+02  0.7816164E-02  0.1312668E+00
        -11   -1    0    0    0    0  0.00000000000E+00  0.00000000000E+00  0.45593999997E+02  0.45594000000E+02  0.51100000000E-03 0.  1.
         11   -1    0    0    0    0 -0.00000000000E+00 -0.00000000000E+00 -0.45593999997E+02  0.45594000000E+02  0.51100000000E-03 0. -1.
    9900012    2    1    2    0    0  0.39865657974E+02 -0.20983752667E+00  0.17155419613E+02  0.47787272592E+02  0.20000007054E+02 0.  0.
         12    1    1    2    0    0 -0.39865657974E+02  0.20983752667E+00 -0.17155419613E+02  0.43400727408E+02  0.00000000000E+00 0. -1.
         11    1    3    3    0    0 -0.78245076099E+00 -0.46107450571E+00 -0.20858003448E+01  0.22749466439E+01  0.51100000000E-03 0. -1.
        -11    1    3    3    0    0  0.21861619597E+02  0.35933624861E+01  0.98755808208E+01  0.24256334475E+02  0.51100000000E-03 0.  1.
         12    1    3    3    0    0  0.18786489138E+02 -0.33421255071E+01  0.93656391371E+01  0.21255991473E+02  0.00000000000E+00 0. -1.
</event>
<event>
 7    1  0.1813014E-010  0.4778727E+02  0.7816164E-02  0.1312668E+00
        -11   -1    0    0    0    0  0.00000000000E+00  0.00000000000E+00  0.45593999997E+02  0.45594000000E+02  0.51100000000E-03 0.  1.
         11   -1    0    0    0    0 -0.00000000000E+00 -0.00000000000E+00 -0.45593999997E+02  0.45594000000E+02  0.51100000000E-03 0. -1.
    9900012    2    1    2    0    0  0.46968371937E+00  0.38654101293E+02 -0.19729753961E+02  0.47787270272E+02  0.19999996479E+02 0.  0.
         12    1    1    2    0    0 -0.46968371937E+00 -0.38654101293E+02  0.19729753961E+02  0.43400729728E+02  0.00000000000E+00 0. -1.
         11    1    3    3    0    0  0.47815340591E+01  0.86357063402E+01  0.85769016326E+00  0.99082856555E+01  0.51100000000E-03 0. -1.
        -11    1    3    3    0    0  0.22159169901E+01  0.15691785053E+02 -0.12472594850E+02  0.20167003466E+02  0.51100000000E-03 0.  1.
        -12    1    3    3    0    0 -0.65277673298E+01  0.14326609900E+02 -0.81148492739E+01  0.17711981151E+02  0.00000000000E+00 0.  1.
</event>
<event>
 7    1  0.1813014E-010  0.4778727E+02  0.7816164E-02  0.1312668E+00
        -11   -1    0    0    0    0  0.00000000000E+00  0.00000000000E+00  0.45593999997E+02  0.45594000000E+02  0.51100000000E-03 0.  1.
         11   -1    0    0    0    0 -0.00000000000E+00 -0.00000000000E+00 -0.45593999997E+02  0.45594000000E+02  0.51100000000E-03 0. -1.
    9900012    2    1    2    0    0  0.23609731089E+01 -0.29752514874E+02  0.31509322181E+02  0.47787265909E+02  0.19999976585E+02 0.  0.
         12    1    1    2    0    0 -0.23609731089E+01  0.29752514874E+02 -0.31509322181E+02  0.43400734091E+02  0.00000000000E+00 0. -1.
         11    1    3    3    0    0  0.63942248121E+01 -0.92424308827E+01  0.87634633409E+01  0.14251558847E+02  0.51100000000E-03 0. -1.
        -11    1    3    3    0    0 -0.14403611312E+01 -0.21211079342E+02  0.22304771891E+02  0.30813753041E+02  0.51100000000E-03 0.  1.
         12    1    3    3    0    0 -0.25928905721E+01  0.70099535067E+00  0.44108694809E+00  0.27219540217E+01  0.00000000000E+00 0. -1.
</event>
<event>
 7    1  0.1813014E-010  0.4778727E+02  0.7816164E-02  0.1312668E+00
        -11   -1    0    0    0    0  0.00000000000E+00  0.00000000000E+00  0.45593999997E+02  0.45594000000E+02  0.51100000000E-03 0.  1.
         11   -1    0    0    0    0 -0.00000000000E+00 -0.00000000000E+00 -0.45593999997E+02  0.45594000000E+02  0.51100000000E-03 0. -1.
    9900012    2    1    2    0    0  0.28704389797E+02 -0.24382566345E+02  0.21567845788E+02  0.47787268357E+02  0.19999987747E+02 0.  0.
         12    1    1    2    0    0 -0.28704389797E+02  0.24382566345E+02 -0.21567845788E+02  0.43400731643E+02  0.00000000000E+00 0. -1.
         11    1    3    3    0    0  0.11900512721E+02 -0.32551378931E+01  0.23076193382E+01  0.12551622724E+02  0.51100000000E-03 0. -1.
        -11    1    3    3    0    0 -0.14768456166E+01 -0.44766038134E+01  0.39693907637E+01  0.61625577460E+01  0.51100000000E-03 0.  1.
        -12    1    3    3    0    0  0.18280722693E+02 -0.16650824638E+02  0.15290835686E+02  0.29073087887E+02  0.00000000000E+00 0.  1.
</event>
<event>
 7    1  0.1813014E-010  0.4778727E+02  0.7816164E-02  0.1312668E+00
        -11   -1    0    0    0    0  0.00000000000E+00  0.00000000000E+00  0.45593999997E+02  0.45594000000E+02  0.51100000000E-03 0.  1.
         11   -1    0    0    0    0 -0.00000000000E+00 -0.00000000000E+00 -0.45593999997E+02  0.45594000000E+02  0.51100000000E-03 0. -1.
    9900012    2    1    2    0    0  0.21587833790E+02 -0.37208012443E+02 -0.57578236054E+01  0.47787270855E+02  0.19999999135E+02 0.  0.
         12    1    1    2    0    0 -0.21587833790E+02  0.37208012443E+02  0.57578236054E+01  0.43400729145E+02  0.00000000000E+00 0. -1.
         11    1    3    3    0    0  0.87610343208E+01 -0.32723295705E+01  0.12051266178E+00  0.93529881189E+01  0.51100000000E-03 0. -1.
        -11    1    3    3    0    0  0.13036580635E+02 -0.22485529283E+02 -0.70276028944E+01  0.26924685040E+02  0.51100000000E-03 0.  1.
        -12    1    3    3    0    0 -0.20978116532E+00 -0.11450153589E+02  0.11492666272E+01  0.11509597696E+02  0.00000000000E+00 0.  1.
</event>
<event>
 7    1  0.1813014E-010  0.4778727E+02  0.7816164E-02  0.1312668E+00
        -11   -1    0    0    0    0  0.00000000000E+00  0.00000000000E+00  0.45593999997E+02  0.45594000000E+02  0.51100000000E-03 0.  1.
         11   -1    0    0    0    0 -0.00000000000E+00 -0.00000000000E+00 -0.45593999997E+02  0.45594000000E+02  0.51100000000E-03 0. -1.
    9900012    2    1    2    0    0 -0.35960744410E+02  0.98452367825E+01  0.22215305790E+02  0.47787266859E+02  0.19999980919E+02 0.  0.
         12    1    1    2    0    0  0.35960744410E+02 -0.98452367825E+01 -0.22215305790E+02  0.43400733141E+02  0.00000000000E+00 0. -1.
         11    1    3    3    0    0 -0.16007499764E+02 -0.48072052524E+00  0.46769844740E+01  0.16683684394E+02  0.51100000000E-03 0. -1.
        -11    1    3    3    0    0 -0.14496359616E+02  0.51299609712E+01  0.44618490778E+01  0.16011528320E+02  0.51100000000E-03 0.  1.
        -12    1    3    3    0    0 -0.54568850298E+01  0.51959963366E+01  0.13076472238E+02  0.15092054146E+02  0.00000000000E+00 0.  1.
</event>
<event>
 7    1  0.1813014E-010  0.4778727E+02  0.7816164E-02  0.1312668E+00
        -11   -1    0    0    0    0  0.00000000000E+00  0.00000000000E+00  0.45593999997E+02  0.45594000000E+02  0.51100000000E-03 0.  1.
         11   -1    0    0    0    0 -0.00000000000E+00 -0.00000000000E+00 -0.45593999997E+02  0.45594000000E+02  0.51100000000E-03 0. -1.
    9900012    2    1    2    0    0  0.31207306807E+02  0.10206183359E+02  0.28382416265E+02  0.47787265790E+02  0.19999976044E+02 0.  0.
         12    1    1    2    0    0 -0.31207306807E+02 -0.10206183359E+02 -0.28382416265E+02  0.43400734210E+02  0.00000000000E+00 0. -1.
         11    1    3    3    0    0  0.18774463634E+01 -0.31818102096E+01  0.30552556385E+01  0.47940909811E+01  0.51100000000E-03 0. -1.
        -11    1    3    3    0    0  0.22189330648E+02  0.55382711586E+01  0.11603031038E+02  0.25645061348E+02  0.51100000000E-03 0.  1.
         12    1    3    3    0    0  0.71405297953E+01  0.78497224099E+01  0.13724129589E+02  0.17348113461E+02  0.00000000000E+00 0. -1.
</event>
<event>
 7    1  0.1813014E-010  0.4778725E+02  0.7816164E-02  0.1312668E+00
        -11   -1    0    0    0    0  0.00000000000E+00  0.00000000000E+00  0.45593999997E+02  0.45594000000E+02  0.51100000000E-03 0.  1.
         11   -1    0    0    0    0 -0.00000000000E+00 -0.00000000000E+00 -0.45593999997E+02  0.45594000000E+02  0.51100000000E-03 0. -1.
    9900012    2    1    2    0    0 -0.39407780971E+02 -0.17089095234E+02 -0.62140517020E+01  0.47787253283E+02  0.19999919020E+02 0.  0.
         12    1    1    2    0    0  0.39407780971E+02  0.17089095234E+02  0.62140517020E+01  0.43400746717E+02  0.00000000000E+00 0. -1.
         11    1    3    3    0    0 -0.19235090305E+02 -0.13161645144E+02 -0.27885634600E+01  0.23473254746E+02  0.51100000000E-03 0. -1.
        -11    1    3    3    0    0 -0.20739061728E+02 -0.21005824754E+01 -0.53999337982E+00  0.20852163466E+02  0.51100000000E-03 0.  1.
         12    1    3    3    0    0  0.56637106174E+00 -0.18268676146E+01 -0.28854948622E+01  0.34618350713E+01  0.00000000000E+00 0. -1.
</event>
<event>
 7    1  0.1813014E-010  0.4778728E+02  0.7816164E-02  0.1312668E+00
        -11   -1    0    0    0    0  0.00000000000E+00  0.00000000000E+00  0.45593999997E+02  0.45594000000E+02  0.51100000000E-03 0.  1.
         11   -1    0    0    0    0 -0.00000000000E+00 -0.00000000000E+00 -0.45593999997E+02  0.45594000000E+02  0.51100000000E-03 0. -1.
    9900012    2    1    2    0    0 -0.20983009866E+02 -0.11972937165E+02  0.36055299001E+02  0.47787279806E+02  0.20000039946E+02 0.  0.
         12    1    1    2    0    0  0.20983009866E+02  0.11972937165E+02 -0.36055299001E+02  0.43400720194E+02  0.00000000000E+00 0. -1.
         11    1    3    3    0    0 -0.71724658957E+01 -0.31773775697E+01  0.11091880310E+01  0.79227705756E+01  0.51100000000E-03 0. -1.
        -11    1    3    3    0    0  0.57131106069E+00 -0.36622168906E+01  0.93702867278E+01  0.10076730745E+02  0.51100000000E-03 0.  1.
        -12    1    3    3    0    0 -0.14381855031E+02 -0.51333427044E+01  0.25575824242E+02  0.29787778485E+02  0.00000000000E+00 0.  1.
</event>
<event>
 7    1  0.1813014E-010  0.4778728E+02  0.7816164E-02  0.1312668E+00
        -11   -1    0    0    0    0  0.00000000000E+00  0.00000000000E+00  0.45593999997E+02  0.45594000000E+02  0.51100000000E-03 0.  1.
         11   -1    0    0    0    0 -0.00000000000E+00 -0.00000000000E+00 -0.45593999997E+02  0.45594000000E+02  0.51100000000E-03 0. -1.
    9900012    2    1    2    0    0  0.18774778333E+02  0.63778753572E+01  0.38606380858E+02  0.47787282973E+02  0.20000054387E+02 0.  0.
         12    1    1    2    0    0 -0.18774778333E+02 -0.63778753572E+01 -0.38606380858E+02  0.43400717027E+02  0.00000000000E+00 0. -1.
         11    1    3    3    0    0 -0.26800957434E+01  0.33722639973E+00  0.15281397439E+01  0.31035215766E+01  0.51100000000E-03 0. -1.
        -11    1    3    3    0    0  0.10382912583E+02  0.74914525170E+01  0.25856164760E+02  0.28852521395E+02  0.51100000000E-03 0.  1.
         12    1    3    3    0    0  0.11071961493E+02 -0.14508035596E+01  0.11222076354E+02  0.15831240001E+02  0.00000000000E+00 0. -1.
</event>
<event>
 7    1  0.1813014E-010  0.4778726E+02  0.7816164E-02  0.1312668E+00
        -11   -1    0    0    0    0  0.00000000000E+00  0.00000000000E+00  0.45593999997E+02  0.45594000000E+02  0.51100000000E-03 0. -1.
         11   -1    0    0    0    0 -0.00000000000E+00 -0.00000000000E+00 -0.45593999997E+02  0.45594000000E+02  0.51100000000E-03 0.  1.
    9900012    2    1    2    0    0 -0.34242741191E+02  0.25306787901E+02  0.84038674019E+01  0.47787264690E+02  0.19999971029E+02 0.  0.
         12    1    1    2    0    0  0.34242741191E+02 -0.25306787901E+02 -0.84038674019E+01  0.43400735310E+02  0.00000000000E+00 0. -1.
         11    1    3    3    0    0  0.22676035680E+00  0.17753275775E+01  0.28346470478E+01  0.33523771288E+01  0.51100000000E-03 0. -1.
        -11    1    3    3    0    0 -0.26681674866E+02  0.11984357208E+02  0.79367079237E+01  0.30307225611E+02  0.51100000000E-03 0.  1.
        -12    1    3    3    0    0 -0.77878266821E+01  0.11547103116E+02 -0.23674875696E+01  0.14127661950E+02  0.00000000000E+00 0.  1.
</event>
<event>
 7    1  0.1813014E-010  0.4778726E+02  0.7816164E-02  0.1312668E+00
        -11   -1    0    0    0    0  0.00000000000E+00  0.00000000000E+00  0.45593999997E+02  0.45594000000E+02  0.51100000000E-03 0.  1.
         11   -1    0    0    0    0 -0.00000000000E+00 -0.00000000000E+00 -0.45593999997E+02  0.45594000000E+02  0.51100000000E-03 0. -1.
    9900012    2    1    2    0    0 -0.13509152210E+02 -0.59027517398E+01  0.40820145312E+02  0.47787263429E+02  0.19999965280E+02 0.  0.
         12    1    1    2    0    0  0.13509152210E+02  0.59027517398E+01 -0.40820145312E+02  0.43400736571E+02  0.00000000000E+00 0. -1.
         11    1    3    3    0    0 -0.39656941157E+00  0.16407250784E+01  0.20338515653E+02  0.20408441031E+02  0.51100000000E-03 0. -1.
        -11    1    3    3    0    0 -0.99701005124E+01 -0.21226817954E+01  0.17906192547E+02  0.20604378516E+02  0.51100000000E-03 0.  1.
         12    1    3    3    0    0 -0.31424822865E+01 -0.54207950227E+01  0.25754371122E+01  0.67744438826E+01  0.00000000000E+00 0. -1.
</event>
<event>
 7    1  0.1813014E-010  0.4778725E+02  0.7816164E-02  0.1312668E+00
        -11   -1    0    0    0    0  0.00000000000E+00  0.00000000000E+00  0.45593999997E+02  0.45594000000E+02  0.51100000000E-03 0. -1.
         11   -1    0    0    0    0 -0.00000000000E+00 -0.00000000000E+00 -0.45593999997E+02  0.45594000000E+02  0.51100000000E-03 0.  1.
    9900012    2    1    2    0    0 -0.42865935242E+02 -0.53996335392E+01 -0.41207455080E+01  0.47787251272E+02  0.19999909851E+02 0.  0.
         12    1    1    2    0    0  0.42865935242E+02  0.53996335392E+01  0.41207455080E+01  0.43400748728E+02  0.00000000000E+00 0. -1.
         11    1    3    3    0    0 -0.12084432553E+02  0.13281271529E+01 -0.70681354450E+01  0.14062573406E+02  0.51100000000E-03 0. -1.
        -11    1    3    3    0    0 -0.13467923954E+02  0.17271592447E+01  0.47208834932E+01  0.14375492893E+02  0.51100000000E-03 0.  1.
         12    1    3    3    0    0 -0.17313578736E+02 -0.84549199369E+01 -0.17734935562E+01  0.19349184974E+02  0.00000000000E+00 0. -1.
</event>
<event>
 7    1  0.1813014E-010  0.4778727E+02  0.7816164E-02  0.1312668E+00
        -11   -1    0    0    0    0  0.00000000000E+00  0.00000000000E+00  0.45593999997E+02  0.45594000000E+02  0.51100000000E-03 0. -1.
         11   -1    0    0    0    0 -0.00000000000E+00 -0.00000000000E+00 -0.45593999997E+02  0.45594000000E+02  0.51100000000E-03 0.  1.
    9900012    2    1    2    0    0 -0.31451940622E+02  0.17272117186E+02 -0.24414597673E+02  0.47787272120E+02  0.20000004903E+02 0.  0.
         12    1    1    2    0    0  0.31451940622E+02 -0.17272117186E+02  0.24414597673E+02  0.43400727880E+02  0.00000000000E+00 0. -1.
         11    1    3    3    0    0 -0.11866442127E+02  0.67677585645E+01 -0.59497206452E+01  0.14900140293E+02  0.51100000000E-03 0. -1.
        -11    1    3    3    0    0 -0.20794705970E+02  0.97220295505E+01 -0.20238191760E+02  0.30602647940E+02  0.51100000000E-03 0.  1.
         12    1    3    3    0    0  0.12092074744E+01  0.78232907098E+00  0.17733147320E+01  0.22844838871E+01  0.00000000000E+00 0. -1.
</event>
<event>
 7    1  0.1813014E-010  0.4778727E+02  0.7816164E-02  0.1312668E+00
        -11   -1    0    0    0    0  0.00000000000E+00  0.00000000000E+00  0.45593999997E+02  0.45594000000E+02  0.51100000000E-03 0.  1.
         11   -1    0    0    0    0 -0.00000000000E+00 -0.00000000000E+00 -0.45593999997E+02  0.45594000000E+02  0.51100000000E-03 0. -1.
    9900012    2    1    2    0    0 -0.40039514135E+02 -0.11141639128E+02  0.12502973175E+02  0.47787272439E+02  0.20000006357E+02 0.  0.
         12    1    1    2    0    0  0.40039514135E+02  0.11141639128E+02 -0.12502973175E+02  0.43400727561E+02  0.00000000000E+00 0. -1.
         11    1    3    3    0    0 -0.94756023547E+01 -0.85432220891E+01  0.10035776063E+02  0.16232389999E+02  0.51100000000E-03 0. -1.
        -11    1    3    3    0    0 -0.68650690263E+01 -0.11578957043E+01 -0.23123528968E+01  0.73359983219E+01  0.51100000000E-03 0.  1.
        -12    1    3    3    0    0 -0.23698842754E+02 -0.14405213345E+01  0.47795500085E+01  0.24218884117E+02  0.00000000000E+00 0.  1.
</event>
<event>
 7    1  0.1813014E-010  0.4778727E+02  0.7816164E-02  0.1312668E+00
        -11   -1    0    0    0    0  0.00000000000E+00  0.00000000000E+00  0.45593999997E+02  0.45594000000E+02  0.51100000000E-03 0. -1.
         11   -1    0    0    0    0 -0.00000000000E+00 -0.00000000000E+00 -0.45593999997E+02  0.45594000000E+02  0.51100000000E-03 0.  1.
    9900012    2    1    2    0    0  0.36051854967E+02  0.10594059745E+02  0.21717570087E+02  0.47787271908E+02  0.20000003936E+02 0.  0.
         12    1    1    2    0    0 -0.36051854967E+02 -0.10594059745E+02 -0.21717570087E+02  0.43400728092E+02  0.00000000000E+00 0. -1.
         11    1    3    3    0    0  0.22730953802E+02  0.50865789687E+01  0.15272462464E+02  0.27853503484E+02  0.51100000000E-03 0. -1.
        -11    1    3    3    0    0  0.10019473942E+02  0.67454835436E+01 -0.55980709202E+00  0.12091517297E+02  0.51100000000E-03 0.  1.
         12    1    3    3    0    0  0.33014272232E+01 -0.12380027672E+01  0.70049147151E+01  0.78422511263E+01  0.00000000000E+00 0. -1.
</event>
<event>
 7    1  0.1813014E-010  0.4778727E+02  0.7816164E-02  0.1312668E+00
        -11   -1    0    0    0    0  0.00000000000E+00  0.00000000000E+00  0.45593999997E+02  0.45594000000E+02  0.51100000000E-03 0.  1.
         11   -1    0    0    0    0 -0.00000000000E+00 -0.00000000000E+00 -0.45593999997E+02  0.45594000000E+02  0.51100000000E-03 0. -1.
    9900012    2    1    2    0    0 -0.34447557180E+02  0.16623407024E+02  0.20509788495E+02  0.47787270964E+02  0.19999999632E+02 0.  0.
         12    1    1    2    0    0  0.34447557180E+02 -0.16623407024E+02 -0.20509788495E+02  0.43400729036E+02  0.00000000000E+00 0. -1.
         11    1    3    3    0    0  0.14857753517E+01  0.10243974820E+01  0.19321866286E+01  0.26439107447E+01  0.51100000000E-03 0. -1.
        -11    1    3    3    0    0 -0.18427711316E+02  0.27255311609E+01  0.12980060868E+02  0.22704427869E+02  0.51100000000E-03 0.  1.
        -12    1    3    3    0    0 -0.17505621215E+02  0.12873478381E+02  0.55975409985E+01  0.22438932350E+02  0.00000000000E+00 0.  1.
</event>
<event>
 7    1  0.1813014E-010  0.4778727E+02  0.7816164E-02  0.1312668E+00
        -11   -1    0    0    0    0  0.00000000000E+00  0.00000000000E+00  0.45593999997E+02  0.45594000000E+02  0.51100000000E-03 0.  1.
         11   -1    0    0    0    0 -0.00000000000E+00 -0.00000000000E+00 -0.45593999997E+02  0.45594000000E+02  0.51100000000E-03 0. -1.
    9900012    2    1    2    0    0  0.14121427776E+02  0.62707210021E+01  0.40557200141E+02  0.47787272499E+02  0.20000006633E+02 0.  0.
         12    1    1    2    0    0 -0.14121427776E+02 -0.62707210021E+01 -0.40557200141E+02  0.43400727501E+02  0.00000000000E+00 0. -1.
         11    1    3    3    0    0  0.75817798148E+01  0.21125895587E+01  0.17462622895E+02  0.19154362909E+02  0.51100000000E-03 0. -1.
        -11    1    3    3    0    0  0.67539330576E+01  0.41035786455E+01  0.25254274259E+02  0.26461922418E+02  0.51100000000E-03 0.  1.
         12    1    3    3    0    0 -0.21428509592E+00  0.54552797936E-01 -0.21596970136E+01  0.21709871720E+01  0.00000000000E+00 0. -1.
</event>
<event>
 7    1  0.1813014E-010  0.4778724E+02  0.7816164E-02  0.1312668E+00
        -11   -1    0    0    0    0  0.00000000000E+00  0.00000000000E+00  0.45593999997E+02  0.45594000000E+02  0.51100000000E-03 0. -1.
         11   -1    0    0    0    0 -0.00000000000E+00 -0.00000000000E+00 -0.45593999997E+02  0.45594000000E+02  0.51100000000E-03 0.  1.
    9900012    2    1    2    0    0 -0.22396932863E+00  0.42243034629E+02  0.99549769652E+01  0.47787243056E+02  0.19999872389E+02 0.  0.
         12    1    1    2    0    0  0.22396932863E+00 -0.42243034629E+02 -0.99549769652E+01  0.43400756944E+02  0.00000000000E+00 0. -1.
         11    1    3    3    0    0 -0.58256854194E+01  0.30554313612E+01 -0.80100712162E+00  0.66269060714E+01  0.51100000000E-03 0. -1.
        -11    1    3    3    0    0  0.23276713915E+01  0.15995422910E+02  0.26774293078E+01  0.16384145878E+02  0.51100000000E-03 0.  1.
        -12    1    3    3    0    0  0.32740446993E+01  0.23192180358E+02  0.80785547791E+01  0.24776191107E+02  0.00000000000E+00 0.  1.
</event>
<event>
 7    1  0.1813014E-010  0.4778727E+02  0.7816164E-02  0.1312668E+00
        -11   -1    0    0    0    0  0.00000000000E+00  0.00000000000E+00  0.45593999997E+02  0.45594000000E+02  0.51100000000E-03 0.  1.
         11   -1    0    0    0    0 -0.00000000000E+00 -0.00000000000E+00 -0.45593999997E+02  0.45594000000E+02  0.51100000000E-03 0. -1.
    9900012    2    1    2    0    0  0.29233312468E+02  0.20199443115E+02  0.24920261248E+02  0.47787268661E+02  0.19999989134E+02 0.  0.
         12    1    1    2    0    0 -0.29233312468E+02 -0.20199443115E+02 -0.24920261248E+02  0.43400731339E+02  0.00000000000E+00 0. -1.
         11    1    3    3    0    0  0.25539262306E+01  0.59567567919E+00 -0.17817886756E+01  0.31705109764E+01  0.51100000000E-03 0. -1.
        -11    1    3    3    0    0  0.68466664067E+01  0.11556995290E+02  0.15321545279E+02  0.20376229559E+02  0.51100000000E-03 0.  1.
         12    1    3    3    0    0  0.19832719831E+02  0.80467721459E+01  0.11380504645E+02  0.24240528126E+02  0.00000000000E+00 0. -1.
</event>
<event>
 7    1  0.1813014E-010  0.4778727E+02  0.7816164E-02  0.1312668E+00
        -11   -1    0    0    0    0  0.00000000000E+00  0.00000000000E+00  0.45593999997E+02  0.45594000000E+02  0.51100000000E-03 0.  1.
         11   -1    0    0    0    0 -0.00000000000E+00 -0.00000000000E+00 -0.45593999997E+02  0.45594000000E+02  0.51100000000E-03 0. -1.
    9900012    2    1    2    0    0  0.27090923654E+02 -0.25303933091E+02  0.22570249589E+02  0.47787270273E+02  0.19999996484E+02 0.  0.
         12    1    1    2    0    0 -0.27090923654E+02  0.25303933091E+02 -0.22570249589E+02  0.43400729727E+02  0.00000000000E+00 0. -1.
         11    1    3    3    0    0  0.87325982281E+00 -0.55391203086E+01 -0.24884726995E+01  0.61348947138E+01  0.51100000000E-03 0. -1.
        -11    1    3    3    0    0  0.70454252776E+01 -0.38545342987E+01  0.87410912757E+01  0.11870220257E+02  0.51100000000E-03 0.  1.
        -12    1    3    3    0    0  0.19172238553E+02 -0.15910278484E+02  0.16317631013E+02  0.29782155302E+02  0.00000000000E+00 0.  1.
</event>
<event>
 7    1  0.1813014E-010  0.4778727E+02  0.7816164E-02  0.1312668E+00
        -11   -1    0    0    0    0  0.00000000000E+00  0.00000000000E+00  0.45593999997E+02  0.45594000000E+02  0.51100000000E-03 0. -1.
         11   -1    0    0    0    0 -0.00000000000E+00 -0.00000000000E+00 -0.45593999997E+02  0.45594000000E+02  0.51100000000E-03 0.  1.
    9900012    2    1    2    0    0  0.15099763526E+02 -0.87235854829E+00 -0.40679962319E+02  0.47787271870E+02  0.20000003764E+02 0.  0.
         12    1    1    2    0    0 -0.15099763526E+02  0.87235854829E+00  0.40679962319E+02  0.43400728130E+02  0.00000000000E+00 0. -1.
         11    1    3    3    0    0  0.71681992403E+01 -0.32254450275E+01 -0.29580360879E+02  0.30606932646E+02  0.51100000000E-03 0.  1.
        -11    1    3    3    0    0  0.21298534261E+01  0.51462049584E+01 -0.86564132988E+01  0.10293356719E+02  0.51100000000E-03 0. -1.
         12    1    3    3    0    0  0.58017108594E+01 -0.27931184792E+01 -0.24431881406E+01  0.68869825051E+01  0.00000000000E+00 0. -1.
</event>
<event>
 7    1  0.1813014E-010  0.4778727E+02  0.7816164E-02  0.1312668E+00
        -11   -1    0    0    0    0  0.00000000000E+00  0.00000000000E+00  0.45593999997E+02  0.45594000000E+02  0.51100000000E-03 0.  1.
         11   -1    0    0    0    0 -0.00000000000E+00 -0.00000000000E+00 -0.45593999997E+02  0.45594000000E+02  0.51100000000E-03 0. -1.
    9900012    2    1    2    0    0 -0.16700509729E+02 -0.16559267999E+01  0.40024666592E+02  0.47787273570E+02  0.20000011517E+02 0.  0.
         12    1    1    2    0    0  0.16700509729E+02  0.16559267999E+01 -0.40024666592E+02  0.43400726430E+02  0.00000000000E+00 0. -1.
         11    1    3    3    0    0 -0.73824215366E+01  0.44130619601E+00  0.75709100696E+01  0.10583646746E+02  0.51100000000E-03 0. -1.
        -11    1    3    3    0    0 -0.12963923220E+02 -0.42859213880E+01  0.21683974186E+02  0.25624737348E+02  0.51100000000E-03 0.  1.
        -12    1    3    3    0    0  0.36458350274E+01  0.21886883921E+01  0.10769782336E+02  0.11578889476E+02  0.00000000000E+00 0.  1.
</event>
<event>
 7    1  0.1813014E-010  0.4778727E+02  0.7816164E-02  0.1312668E+00
        -11   -1    0    0    0    0  0.00000000000E+00  0.00000000000E+00  0.45593999997E+02  0.45594000000E+02  0.51100000000E-03 0.  1.
         11   -1    0    0    0    0 -0.00000000000E+00 -0.00000000000E+00 -0.45593999997E+02  0.45594000000E+02  0.51100000000E-03 0. -1.
    9900012    2    1    2    0    0  0.10258252621E+02 -0.33903445269E+02  0.25078835600E+02  0.47787270249E+02  0.19999996371E+02 0.  0.
         12    1    1    2    0    0 -0.10258252621E+02  0.33903445269E+02 -0.25078835600E+02  0.43400729751E+02  0.00000000000E+00 0. -1.
         11    1    3    3    0    0  0.45483244256E+01 -0.17247430170E+02  0.12549873252E+02  0.21809640562E+02  0.51100000000E-03 0.  1.
        -11    1    3    3    0    0 -0.10655852767E+01 -0.12055920929E+02  0.13016173059E+02  0.17773617043E+02  0.51100000000E-03 0. -1.
         12    1    3    3    0    0  0.67755134723E+01 -0.46000941697E+01 -0.48721071073E+00  0.82040126438E+01  0.00000000000E+00 0. -1.
</event>
<event>
 7    1  0.1813014E-010  0.4778727E+02  0.7816164E-02  0.1312668E+00
        -11   -1    0    0    0    0  0.00000000000E+00  0.00000000000E+00  0.45593999997E+02  0.45594000000E+02  0.51100000000E-03 0. -1.
         11   -1    0    0    0    0 -0.00000000000E+00 -0.00000000000E+00 -0.45593999997E+02  0.45594000000E+02  0.51100000000E-03 0.  1.
    9900012    2    1    2    0    0  0.23610166479E-02  0.36234315072E+02 -0.23889282048E+02  0.47787269695E+02  0.19999993845E+02 0.  0.
         12    1    1    2    0    0 -0.23610166479E-02 -0.36234315072E+02  0.23889282048E+02  0.43400730305E+02  0.00000000000E+00 0. -1.
         11    1    3    3    0    0  0.28077789716E+01  0.16694143088E+02 -0.30530205924E+01  0.17201714194E+02  0.51100000000E-03 0. -1.
        -11    1    3    3    0    0  0.31579294260E+01  0.13106660632E+02 -0.10948461196E+02  0.17367379595E+02  0.51100000000E-03 0.  1.
         12    1    3    3    0    0 -0.59633473810E+01  0.64335113509E+01 -0.98878002600E+01  0.13218175906E+02  0.00000000000E+00 0. -1.
</event>
<event>
 7    1  0.1813014E-010  0.4778727E+02  0.7816164E-02  0.1312668E+00
        -11   -1    0    0    0    0  0.00000000000E+00  0.00000000000E+00  0.45593999997E+02  0.45594000000E+02  0.51100000000E-03 0.  1.
         11   -1    0    0    0    0 -0.00000000000E+00 -0.00000000000E+00 -0.45593999997E+02  0.45594000000E+02  0.51100000000E-03 0. -1.
    9900012    2    1    2    0    0 -0.41021852504E+02 -0.12936338223E+02  0.57863723500E+01  0.47787270346E+02  0.19999996817E+02 0.  0.
         12    1    1    2    0    0  0.41021852504E+02  0.12936338223E+02 -0.57863723500E+01  0.43400729654E+02  0.00000000000E+00 0. -1.
         11    1    3    3    0    0 -0.50922152929E+01  0.16909856314E+01  0.53256952906E+01  0.75599682264E+01  0.51100000000E-03 0. -1.
        -11    1    3    3    0    0 -0.24302806509E+02 -0.47813221732E+01 -0.17575452878E+01  0.24830956720E+02  0.51100000000E-03 0.  1.
         12    1    3    3    0    0 -0.11626830702E+02 -0.98460016809E+01  0.22182223472E+01  0.15396345399E+02  0.00000000000E+00 0. -1.
</event>
<event>
 7    1  0.1813014E-010  0.4778729E+02  0.7816164E-02  0.1312668E+00
        -11   -1    0    0    0    0  0.00000000000E+00  0.00000000000E+00  0.45593999997E+02  0.45594000000E+02  0.51100000000E-03 0.  1.
         11   -1    0    0    0    0 -0.00000000000E+00 -0.00000000000E+00 -0.45593999997E+02  0.45594000000E+02  0.51100000000E-03 0. -1.
    9900012    2    1    2    0    0 -0.35655443323E+02  0.95622785386E+00  0.24726442466E+02  0.47787286097E+02  0.20000068630E+02 0.  0.
         12    1    1    2    0    0  0.35655443323E+02 -0.95622785386E+00 -0.24726442466E+02  0.43400713903E+02  0.00000000000E+00 0. -1.
         11    1    3    3    0    0 -0.92944895097E+00 -0.45348560518E+01  0.12968213254E+01  0.48073423609E+01  0.51100000000E-03 0. -1.
        -11    1    3    3    0    0 -0.13825558509E+02  0.56646049091E+01  0.11961796821E+02  0.19139446186E+02  0.51100000000E-03 0.  1.
        -12    1    3    3    0    0 -0.20900435863E+02 -0.17352100347E+00  0.11467824320E+02  0.23840497550E+02  0.00000000000E+00 0.  1.
</event>
<event>
 7    1  0.1813014E-010  0.4778727E+02  0.7816164E-02  0.1312668E+00
        -11   -1    0    0    0    0  0.00000000000E+00  0.00000000000E+00  0.45593999997E+02  0.45594000000E+02  0.51100000000E-03 0.  1.
         11   -1    0    0    0    0 -0.00000000000E+00 -0.00000000000E+00 -0.45593999997E+02  0.45594000000E+02  0.51100000000E-03 0. -1.
    9900012    2    1    2    0    0 -0.57813756695E+01  0.70200119244E+01  0.42437229325E+02  0.47787270688E+02  0.19999998374E+02 0.  0.
         12    1    1    2    0    0  0.57813756695E+01 -0.70200119244E+01 -0.42437229325E+02  0.43400729312E+02  0.00000000000E+00 0. -1.
         11    1    3    3    0    0  0.64507529558E+00  0.16520831926E+01 -0.12963254043E+01  0.21968069618E+01  0.51100000000E-03 0. -1.
        -11    1    3    3    0    0  0.18557479812E+01  0.39524683081E+01  0.17898769164E+02  0.18423673470E+02  0.51100000000E-03 0.  1.
        -12    1    3    3    0    0 -0.82821989463E+01  0.14154604237E+01  0.25834785565E+02  0.27166790256E+02  0.00000000000E+00 0.  1.
</event>
<event>
 7    1  0.1813014E-010  0.4778727E+02  0.7816164E-02  0.1312668E+00
        -11   -1    0    0    0    0  0.00000000000E+00  0.00000000000E+00  0.45593999997E+02  0.45594000000E+02  0.51100000000E-03 0.  1.
         11   -1    0    0    0    0 -0.00000000000E+00 -0.00000000000E+00 -0.45593999997E+02  0.45594000000E+02  0.51100000000E-03 0. -1.
    9900012    2    1    2    0    0 -0.30754600817E+02  0.11140910579E+02  0.28524686369E+02  0.47787273135E+02  0.20000009531E+02 0.  0.
         12    1    1    2    0    0  0.30754600817E+02 -0.11140910579E+02 -0.28524686369E+02  0.43400726865E+02  0.00000000000E+00 0. -1.
         11    1    3    3    0    0 -0.24895705942E+00  0.39629547832E+00 -0.23001055620E+01  0.23472357318E+01  0.51100000000E-03 0. -1.
        -11    1    3    3    0    0 -0.17210993760E+02  0.51834570271E+01  0.11519241886E+02  0.21348992173E+02  0.51100000000E-03 0.  1.
        -12    1    3    3    0    0 -0.13294649998E+02  0.55611580734E+01  0.19305550046E+02  0.24091045230E+02  0.00000000000E+00 0.  1.
</event>
<event>
 7    1  0.1813014E-010  0.4778727E+02  0.7816164E-02  0.1312668E+00
        -11   -1    0    0    0    0  0.00000000000E+00  0.00000000000E+00  0.45593999997E+02  0.45594000000E+02  0.51100000000E-03 0.  1.
         11   -1    0    0    0    0 -0.00000000000E+00 -0.00000000000E+00 -0.45593999997E+02  0.45594000000E+02  0.51100000000E-03 0. -1.
    9900012    2    1    2    0    0 -0.68427649351E+01 -0.33895965504E+02  0.26227149399E+02  0.47787271031E+02  0.19999999941E+02 0.  0.
         12    1    1    2    0    0  0.68427649351E+01  0.33895965504E+02 -0.26227149399E+02  0.43400728969E+02  0.00000000000E+00 0. -1.
         11    1    3    3    0    0 -0.28030447427E+01 -0.44797573410E+01 -0.84947893272E-02  0.52844449175E+01  0.51100000000E-03 0. -1.
        -11    1    3    3    0    0  0.40435708486E+00 -0.51260176520E+01  0.14060222271E+02  0.14970952280E+02  0.51100000000E-03 0.  1.
        -12    1    3    3    0    0 -0.44440772773E+01 -0.24290190511E+02  0.12175421918E+02  0.27531873833E+02  0.00000000000E+00 0.  1.
</event>
<event>
 7    1  0.1813014E-010  0.4778727E+02  0.7816164E-02  0.1312668E+00
        -11   -1    0    0    0    0  0.00000000000E+00  0.00000000000E+00  0.45593999997E+02  0.45594000000E+02  0.51100000000E-03 0.  1.
         11   -1    0    0    0    0 -0.00000000000E+00 -0.00000000000E+00 -0.45593999997E+02  0.45594000000E+02  0.51100000000E-03 0. -1.
    9900012    2    1    2    0    0 -0.29137105761E+02  0.90784192002E+01  0.30858301000E+02  0.47787269962E+02  0.19999995063E+02 0.  0.
         12    1    1    2    0    0  0.29137105761E+02 -0.90784192002E+01 -0.30858301000E+02  0.43400730038E+02  0.00000000000E+00 0. -1.
         11    1    3    3    0    0 -0.16612005093E+02  0.32725028098E+01  0.61613990760E+01  0.18017514442E+02  0.51100000000E-03 0. -1.
        -11    1    3    3    0    0 -0.12364678058E+02  0.18238212787E+01  0.16972936589E+02  0.21078239116E+02  0.51100000000E-03 0.  1.
         12    1    3    3    0    0 -0.16042260986E+00  0.39820951117E+01  0.77239653345E+01  0.86915164029E+01  0.00000000000E+00 0. -1.
</event>
<event>
 7    1  0.1813014E-010  0.4778727E+02  0.7816164E-02  0.1312668E+00
        -11   -1    0    0    0    0  0.00000000000E+00  0.00000000000E+00  0.45593999997E+02  0.45594000000E+02  0.51100000000E-03 0. -1.
         11   -1    0    0    0    0 -0.00000000000E+00 -0.00000000000E+00 -0.45593999997E+02  0.45594000000E+02  0.51100000000E-03 0.  1.
    9900012    2    1    2    0    0  0.21218468567E+02 -0.70598632933E+01 -0.37196218605E+02  0.47787265484E+02  0.19999974646E+02 0.  0.
         12    1    1    2    0    0 -0.21218468567E+02  0.70598632933E+01  0.37196218605E+02  0.43400734516E+02  0.00000000000E+00 0. -1.
         11    1    3    3    0    0  0.38855088587E+01 -0.36079565736E+01 -0.21373161853E+01  0.57168741866E+01  0.51100000000E-03 0. -1.
        -11    1    3    3    0    0  0.54868727358E+01  0.15050805240E+01 -0.25326281553E+02  0.25957495592E+02  0.51100000000E-03 0.  1.
        -12    1    3    3    0    0  0.11846086972E+02 -0.49569872437E+01 -0.97326208663E+01  0.16112895706E+02  0.00000000000E+00 0.  1.
</event>
<event>
 7    1  0.1813014E-010  0.4778727E+02  0.7816164E-02  0.1312668E+00
        -11   -1    0    0    0    0  0.00000000000E+00  0.00000000000E+00  0.45593999997E+02  0.45594000000E+02  0.51100000000E-03 0.  1.
         11   -1    0    0    0    0 -0.00000000000E+00 -0.00000000000E+00 -0.45593999997E+02  0.45594000000E+02  0.51100000000E-03 0. -1.
    9900012    2    1    2    0    0  0.14787970176E+02 -0.20375124906E+02  0.35352416160E+02  0.47787272988E+02  0.20000008860E+02 0.  0.
         12    1    1    2    0    0 -0.14787970176E+02  0.20375124906E+02 -0.35352416160E+02  0.43400727012E+02  0.00000000000E+00 0. -1.
         11    1    3    3    0    0  0.35044586211E+01 -0.10333723860E+02  0.30581432553E+01  0.11332224825E+02  0.51100000000E-03 0. -1.
        -11    1    3    3    0    0  0.67702794457E+01 -0.62462008232E+01  0.10940205499E+02  0.14301741332E+02  0.51100000000E-03 0.  1.
        -12    1    3    3    0    0  0.45132321091E+01 -0.37952002221E+01  0.21354067406E+02  0.22153306831E+02  0.00000000000E+00 0.  1.
</event>
<event>
 7    1  0.1813014E-010  0.4778727E+02  0.7816164E-02  0.1312668E+00
        -11   -1    0    0    0    0  0.00000000000E+00  0.00000000000E+00  0.45593999997E+02  0.45594000000E+02  0.51100000000E-03 0.  1.
         11   -1    0    0    0    0 -0.00000000000E+00 -0.00000000000E+00 -0.45593999997E+02  0.45594000000E+02  0.51100000000E-03 0. -1.
    9900012    2    1    2    0    0 -0.18229574144E+02 -0.13473452182E+02  0.37010430531E+02  0.47787271259E+02  0.20000000978E+02 0.  0.
         12    1    1    2    0    0  0.18229574144E+02  0.13473452182E+02 -0.37010430531E+02  0.43400728741E+02  0.00000000000E+00 0. -1.
         11    1    3    3    0    0 -0.14940982824E+02 -0.47511629822E+01  0.21240612076E+02  0.26400191648E+02  0.51100000000E-03 0. -1.
        -11    1    3    3    0    0 -0.38154488670E+01 -0.95501348762E+01  0.16966214218E+02  0.19839736676E+02  0.51100000000E-03 0.  1.
        -12    1    3    3    0    0  0.52685754687E+00  0.82784567665E+00 -0.11963957627E+01  0.15473429355E+01  0.00000000000E+00 0.  1.
</event>
<event>
 7    1  0.1813014E-010  0.4778727E+02  0.7816164E-02  0.1312668E+00
        -11   -1    0    0    0    0  0.00000000000E+00  0.00000000000E+00  0.45593999997E+02  0.45594000000E+02  0.51100000000E-03 0. -1.
         11   -1    0    0    0    0 -0.00000000000E+00 -0.00000000000E+00 -0.45593999997E+02  0.45594000000E+02  0.51100000000E-03 0.  1.
    9900012    2    1    2    0    0  0.25773121408E+02  0.34462044456E+02 -0.56335454903E+01  0.47787272702E+02  0.20000007557E+02 0.  0.
         12    1    1    2    0    0 -0.25773121408E+02 -0.34462044456E+02  0.56335454903E+01  0.43400727298E+02  0.00000000000E+00 0. -1.
         11    1    3    3    0    0  0.80701518569E+01  0.61328044687E+01  0.63827614279E+01  0.11978242164E+02  0.51100000000E-03 0. -1.
        -11    1    3    3    0    0  0.89616752333E+01  0.10174039272E+02 -0.55054194484E+01  0.14633261484E+02  0.51100000000E-03 0.  1.
        -12    1    3    3    0    0  0.87412943182E+01  0.18155200715E+02 -0.65108874697E+01  0.21175769053E+02  0.00000000000E+00 0.  1.
</event>
<event>
 7    1  0.1813014E-010  0.4778728E+02  0.7816164E-02  0.1312668E+00
        -11   -1    0    0    0    0  0.00000000000E+00  0.00000000000E+00  0.45593999997E+02  0.45594000000E+02  0.51100000000E-03 0. -1.
         11   -1    0    0    0    0 -0.00000000000E+00 -0.00000000000E+00 -0.45593999997E+02  0.45594000000E+02  0.51100000000E-03 0.  1.
    9900012    2    1    2    0    0  0.32778751040E+02 -0.27201106889E+02  0.83231839363E+01  0.47787284262E+02  0.20000060263E+02 0.  0.
         12    1    1    2    0    0 -0.32778751040E+02  0.27201106889E+02 -0.83231839363E+01  0.43400715738E+02  0.00000000000E+00 0. -1.
         11    1    3    3    0    0  0.16056089395E+01 -0.95792073586E+01  0.48470012659E+01  0.10855073248E+02  0.51100000000E-03 0. -1.
        -11    1    3    3    0    0  0.74006392687E+01 -0.30537633003E+01 -0.25596089896E+01  0.84051490362E+01  0.51100000000E-03 0.  1.
         12    1    3    3    0    0  0.23772502832E+02 -0.14568136231E+02  0.60357916600E+01  0.28527061978E+02  0.00000000000E+00 0. -1.
</event>
<event>
 7    1  0.1813014E-010  0.4778726E+02  0.7816164E-02  0.1312668E+00
        -11   -1    0    0    0    0  0.00000000000E+00  0.00000000000E+00  0.45593999997E+02  0.45594000000E+02  0.51100000000E-03 0.  1.
         11   -1    0    0    0    0 -0.00000000000E+00 -0.00000000000E+00 -0.45593999997E+02  0.45594000000E+02  0.51100000000E-03 0. -1.
    9900012    2    1    2    0    0 -0.36975087805E+02 -0.74415324501E+01  0.21473024948E+02  0.47787258949E+02  0.19999944850E+02 0.  0.
         12    1    1    2    0    0  0.36975087805E+02  0.74415324501E+01 -0.21473024948E+02  0.43400741051E+02  0.00000000000E+00 0. -1.
         11    1    3    3    0    0 -0.11197894115E+02 -0.94614653450E+00  0.12921694800E+02  0.17124783872E+02  0.51100000000E-03 0. -1.
        -11    1    3    3    0    0 -0.24828167752E+02 -0.30759879124E+01  0.47550298587E+01  0.25465858022E+02  0.51100000000E-03 0.  1.
         12    1    3    3    0    0 -0.94902593799E+00 -0.34193980032E+01  0.37963002888E+01  0.51966170552E+01  0.00000000000E+00 0. -1.
</event>
<event>
 7    1  0.1813014E-010  0.4778727E+02  0.7816164E-02  0.1312668E+00
        -11   -1    0    0    0    0  0.00000000000E+00  0.00000000000E+00  0.45593999997E+02  0.45594000000E+02  0.51100000000E-03 0.  1.
         11   -1    0    0    0    0 -0.00000000000E+00 -0.00000000000E+00 -0.45593999997E+02  0.45594000000E+02  0.51100000000E-03 0. -1.
    9900012    2    1    2    0    0  0.21173131949E+02 -0.15241948426E+02  0.34684363394E+02  0.47787267605E+02  0.19999984319E+02 0.  0.
         12    1    1    2    0    0 -0.21173131949E+02  0.15241948426E+02 -0.34684363394E+02  0.43400732395E+02  0.00000000000E+00 0. -1.
         11    1    3    3    0    0 -0.66996832814E+00 -0.98739860662E+00  0.86802682235E+01  0.87618987818E+01  0.51100000000E-03 0. -1.
        -11    1    3    3    0    0  0.15488416612E+02 -0.27409852006E+01  0.16527272902E+02  0.22815670028E+02  0.51100000000E-03 0.  1.
         12    1    3    3    0    0  0.63546836657E+01 -0.11513564619E+02  0.94768222690E+01  0.16209698795E+02  0.00000000000E+00 0. -1.
</event>
<event>
 7    1  0.1813014E-010  0.4778727E+02  0.7816164E-02  0.1312668E+00
        -11   -1    0    0    0    0  0.00000000000E+00  0.00000000000E+00  0.45593999997E+02  0.45594000000E+02  0.51100000000E-03 0.  1.
         11   -1    0    0    0    0 -0.00000000000E+00 -0.00000000000E+00 -0.45593999997E+02  0.45594000000E+02  0.51100000000E-03 0. -1.
    9900012    2    1    2    0    0 -0.37687529199E+02 -0.13108045674E+02  0.17071982684E+02  0.47787270614E+02  0.19999998037E+02 0.  0.
         12    1    1    2    0    0  0.37687529199E+02  0.13108045674E+02 -0.17071982684E+02  0.43400729386E+02  0.00000000000E+00 0. -1.
         11    1    3    3    0    0 -0.68561507994E+01 -0.44952648149E+01  0.49032080022E+01  0.95527827629E+01  0.51100000000E-03 0. -1.
        -11    1    3    3    0    0 -0.32536797974E+02 -0.96982273238E+01  0.12512907115E+02  0.36183859390E+02  0.51100000000E-03 0.  1.
         12    1    3    3    0    0  0.17054195747E+01  0.10854464646E+01 -0.34413243359E+00  0.20506284610E+01  0.00000000000E+00 0. -1.
</event>
<event>
 7    1  0.1813014E-010  0.4778727E+02  0.7816164E-02  0.1312668E+00
        -11   -1    0    0    0    0  0.00000000000E+00  0.00000000000E+00  0.45593999997E+02  0.45594000000E+02  0.51100000000E-03 0.  1.
         11   -1    0    0    0    0 -0.00000000000E+00 -0.00000000000E+00 -0.45593999997E+02  0.45594000000E+02  0.51100000000E-03 0. -1.
    9900012    2    1    2    0    0 -0.15093748848E+02  0.39276694770E+01  0.40501549004E+02  0.47787270587E+02  0.19999997915E+02 0.  0.
         12    1    1    2    0    0  0.15093748848E+02 -0.39276694770E+01 -0.40501549004E+02  0.43400729413E+02  0.00000000000E+00 0. -1.
         11    1    3    3    0    0 -0.72560840821E+01  0.70984881948E+01  0.72806776308E+01  0.12491899691E+02  0.51100000000E-03 0. -1.
        -11    1    3    3    0    0  0.13592603676E+01 -0.58495457267E+00  0.11119938174E+02  0.11217967100E+02  0.51100000000E-03 0.  1.
        -12    1    3    3    0    0 -0.91969251339E+01 -0.25858641451E+01  0.22100933200E+02  0.24077403797E+02  0.00000000000E+00 0.  1.
</event>
<event>
 7    1  0.1813014E-010  0.4778726E+02  0.7816164E-02  0.1312668E+00
        -11   -1    0    0    0    0  0.00000000000E+00  0.00000000000E+00  0.45593999997E+02  0.45594000000E+02  0.51100000000E-03 0.  1.
         11   -1    0    0    0    0 -0.00000000000E+00 -0.00000000000E+00 -0.45593999997E+02  0.45594000000E+02  0.51100000000E-03 0. -1.
    9900012    2    1    2    0    0 -0.25113972275E+02  0.33281758494E+02  0.12051423794E+02  0.47787264208E+02  0.19999968828E+02 0.  0.
         12    1    1    2    0    0  0.25113972275E+02 -0.33281758494E+02 -0.12051423794E+02  0.43400735792E+02  0.00000000000E+00 0. -1.
         11    1    3    3    0    0 -0.41391620832E+01  0.12393842310E+02  0.86640043942E+01  0.15678168336E+02  0.51100000000E-03 0. -1.
        -11    1    3    3    0    0 -0.20256201617E+02  0.20497167850E+02  0.59446321338E+01  0.29424245875E+02  0.51100000000E-03 0.  1.
        -12    1    3    3    0    0 -0.71860857440E+00  0.39074833388E+00 -0.25572127336E+01  0.26848499974E+01  0.00000000000E+00 0.  1.
</event>
<event>
 7    1  0.1813014E-010  0.4778726E+02  0.7816164E-02  0.1312668E+00
        -11   -1    0    0    0    0  0.00000000000E+00  0.00000000000E+00  0.45593999997E+02  0.45594000000E+02  0.51100000000E-03 0. -1.
         11   -1    0    0    0    0 -0.00000000000E+00 -0.00000000000E+00 -0.45593999997E+02  0.45594000000E+02  0.51100000000E-03 0.  1.
    9900012    2    1    2    0    0  0.31574362257E+02 -0.22100288093E+02 -0.19956471941E+02  0.47787264314E+02  0.19999969313E+02 0.  0.
         12    1    1    2    0    0 -0.31574362257E+02  0.22100288093E+02  0.19956471941E+02  0.43400735686E+02  0.00000000000E+00 0. -1.
         11    1    3    3    0    0 -0.11485125509E+01 -0.23235628779E+01 -0.51615375075E+01  0.57757679341E+01  0.51100000000E-03 0. -1.
        -11    1    3    3    0    0  0.12319922307E+02 -0.11063791625E+02 -0.28087597266E+01  0.16795151153E+02  0.51100000000E-03 0.  1.
        -12    1    3    3    0    0  0.20402952501E+02 -0.87129335899E+01 -0.11986174707E+02  0.25216345227E+02  0.00000000000E+00 0.  1.
</event>
<event>
 7    1  0.1813014E-010  0.4778727E+02  0.7816164E-02  0.1312668E+00
        -11   -1    0    0    0    0  0.00000000000E+00  0.00000000000E+00  0.45593999997E+02  0.45594000000E+02  0.51100000000E-03 0.  1.
         11   -1    0    0    0    0 -0.00000000000E+00 -0.00000000000E+00 -0.45593999997E+02  0.45594000000E+02  0.51100000000E-03 0. -1.
    9900012    2    1    2    0    0 -0.22523252298E+02  0.16040331310E+02  0.33451964398E+02  0.47787273685E+02  0.20000012039E+02 0.  0.
         12    1    1    2    0    0  0.22523252298E+02 -0.16040331310E+02 -0.33451964398E+02  0.43400726315E+02  0.00000000000E+00 0. -1.
         11    1    3    3    0    0  0.93529947204E+00 -0.17872435651E+01  0.15163954634E+01  0.25235847768E+01  0.51100000000E-03 0. -1.
        -11    1    3    3    0    0 -0.86893424811E+01  0.14262511344E+02  0.14306652839E+02  0.21991003123E+02  0.51100000000E-03 0.  1.
        -12    1    3    3    0    0 -0.14769209289E+02  0.35650635309E+01  0.17628916095E+02  0.23272685786E+02  0.00000000000E+00 0.  1.
</event>
<event>
 7    1  0.1813014E-010  0.4778726E+02  0.7816164E-02  0.1312668E+00
        -11   -1    0    0    0    0  0.00000000000E+00  0.00000000000E+00  0.45593999997E+02  0.45594000000E+02  0.51100000000E-03 0.  1.
         11   -1    0    0    0    0 -0.00000000000E+00 -0.00000000000E+00 -0.45593999997E+02  0.45594000000E+02  0.51100000000E-03 0. -1.
    9900012    2    1    2    0    0 -0.41673718427E+02  0.63394700340E+01  0.10331324611E+02  0.47787263185E+02  0.19999964165E+02 0.  0.
         12    1    1    2    0    0  0.41673718427E+02 -0.63394700340E+01 -0.10331324611E+02  0.43400736815E+02  0.00000000000E+00 0. -1.
         11    1    3    3    0    0 -0.51865915634E+01  0.23506965122E+01 -0.28488285638E+01  0.63672859670E+01  0.51100000000E-03 0. -1.
        -11    1    3    3    0    0 -0.75710758254E+00  0.31715933489E+01 -0.17855113649E+00  0.32655929066E+01  0.51100000000E-03 0.  1.
        -12    1    3    3    0    0 -0.35730019281E+02  0.81718017293E+00  0.13358704311E+02  0.38154384311E+02  0.00000000000E+00 0.  1.
</event>
<event>
 7    1  0.1813014E-010  0.4778727E+02  0.7816164E-02  0.1312668E+00
        -11   -1    0    0    0    0  0.00000000000E+00  0.00000000000E+00  0.45593999997E+02  0.45594000000E+02  0.51100000000E-03 0. -1.
         11   -1    0    0    0    0 -0.00000000000E+00 -0.00000000000E+00 -0.45593999997E+02  0.45594000000E+02  0.51100000000E-03 0.  1.
    9900012    2    1    2    0    0 -0.27338877222E+02  0.30949785893E+02 -0.13353650918E+02  0.47787269045E+02  0.19999990885E+02 0.  0.
         12    1    1    2    0    0  0.27338877222E+02 -0.30949785893E+02  0.13353650918E+02  0.43400730955E+02  0.00000000000E+00 0. -1.
         11    1    3    3    0    0 -0.10201193378E+02  0.80996876695E+01 -0.11338236142E+02  0.17269188914E+02  0.51100000000E-03 0. -1.
        -11    1    3    3    0    0  0.37570619078E+00  0.55729042076E+01  0.11840569426E+01  0.57096766593E+01  0.51100000000E-03 0.  1.
        -12    1    3    3    0    0 -0.17513390034E+02  0.17277194016E+02 -0.31994717189E+01  0.24808403472E+02  0.00000000000E+00 0.  1.
</event>
<event>
 7    1  0.1813014E-010  0.4778727E+02  0.7816164E-02  0.1312668E+00
        -11   -1    0    0    0    0  0.00000000000E+00  0.00000000000E+00  0.45593999997E+02  0.45594000000E+02  0.51100000000E-03 0.  1.
         11   -1    0    0    0    0 -0.00000000000E+00 -0.00000000000E+00 -0.45593999997E+02  0.45594000000E+02  0.51100000000E-03 0. -1.
    9900012    2    1    2    0    0 -0.22242810978E+00 -0.19565036792E+02  0.38739940212E+02  0.47787272972E+02  0.20000008789E+02 0.  0.
         12    1    1    2    0    0  0.22242810978E+00  0.19565036792E+02 -0.38739940212E+02  0.43400727028E+02  0.00000000000E+00 0. -1.
         11    1    3    3    0    0 -0.24802604317E+00 -0.14827604055E+02  0.12365759296E+02  0.19308841553E+02  0.51100000000E-03 0. -1.
        -11    1    3    3    0    0  0.58386603260E+00 -0.75955666241E+01  0.21387243087E+02  0.22703473281E+02  0.51100000000E-03 0.  1.
         12    1    3    3    0    0 -0.55826809920E+00  0.28581338865E+01  0.49869378289E+01  0.57749581378E+01  0.00000000000E+00 0. -1.
</event>
<event>
 7    1  0.1813014E-010  0.4778727E+02  0.7816164E-02  0.1312668E+00
        -11   -1    0    0    0    0  0.00000000000E+00  0.00000000000E+00  0.45593999997E+02  0.45594000000E+02  0.51100000000E-03 0.  1.
         11   -1    0    0    0    0 -0.00000000000E+00 -0.00000000000E+00 -0.45593999997E+02  0.45594000000E+02  0.51100000000E-03 0. -1.
    9900012    2    1    2    0    0 -0.27205874404E+02 -0.24217100948E+01  0.33728318415E+02  0.47787265618E+02  0.19999975256E+02 0.  0.
         12    1    1    2    0    0  0.27205874404E+02  0.24217100948E+01 -0.33728318415E+02  0.43400734382E+02  0.00000000000E+00 0. -1.
         11    1    3    3    0    0 -0.55936212142E+01  0.49088480841E+01  0.11518030055E+02  0.13713147137E+02  0.51100000000E-03 0. -1.
        -11    1    3    3    0    0 -0.11972546800E+02  0.12848601190E+01  0.15119923698E+02  0.19328860166E+02  0.51100000000E-03 0.  1.
         12    1    3    3    0    0 -0.96397063894E+01 -0.86154182980E+01  0.70903646613E+01  0.14745258314E+02  0.00000000000E+00 0. -1.
</event>
<event>
 7    1  0.1813014E-010  0.4778727E+02  0.7816164E-02  0.1312668E+00
        -11   -1    0    0    0    0  0.00000000000E+00  0.00000000000E+00  0.45593999997E+02  0.45594000000E+02  0.51100000000E-03 0.  1.
         11   -1    0    0    0    0 -0.00000000000E+00 -0.00000000000E+00 -0.45593999997E+02  0.45594000000E+02  0.51100000000E-03 0. -1.
    9900012    2    1    2    0    0  0.35725920551E+02 -0.18310586712E+02  0.16492552158E+02  0.47787271185E+02  0.20000000643E+02 0.  0.
         12    1    1    2    0    0 -0.35725920551E+02  0.18310586712E+02 -0.16492552158E+02  0.43400728815E+02  0.00000000000E+00 0. -1.
         11    1    3    3    0    0  0.18212736655E+02 -0.69626267892E+00  0.71461930045E+01  0.19576941357E+02  0.51100000000E-03 0. -1.
        -11    1    3    3    0    0  0.89004992678E+01 -0.74312816739E+01 -0.54190559657E+00  0.11607605113E+02  0.51100000000E-03 0.  1.
         12    1    3    3    0    0  0.86126846285E+01 -0.10183042359E+02  0.98882647502E+01  0.16602724715E+02  0.00000000000E+00 0. -1.
</event>
<event>
 7    1  0.1813014E-010  0.4778727E+02  0.7816164E-02  0.1312668E+00
        -11   -1    0    0    0    0  0.00000000000E+00  0.00000000000E+00  0.45593999997E+02  0.45594000000E+02  0.51100000000E-03 0.  1.
         11   -1    0    0    0    0 -0.00000000000E+00 -0.00000000000E+00 -0.45593999997E+02  0.45594000000E+02  0.51100000000E-03 0. -1.
    9900012    2    1    2    0    0 -0.18482627496E+02  0.11584577217E+02  0.37520839354E+02  0.47787270349E+02  0.19999996828E+02 0.  0.
         12    1    1    2    0    0  0.18482627496E+02 -0.11584577217E+02 -0.37520839354E+02  0.43400729651E+02  0.00000000000E+00 0. -1.
         11    1    3    3    0    0  0.53706140780E+00  0.25565165280E+01  0.12706857052E+01  0.29049705913E+01  0.51100000000E-03 0. -1.
        -11    1    3    3    0    0 -0.16884503115E+02  0.71225878450E+01  0.37516451376E+02  0.41752866095E+02  0.51100000000E-03 0.  1.
         12    1    3    3    0    0 -0.21351857888E+01  0.19054728436E+01 -0.12662977275E+01  0.31294336620E+01  0.00000000000E+00 0. -1.
</event>
<event>
 7    1  0.1813014E-010  0.4778727E+02  0.7816164E-02  0.1312668E+00
        -11   -1    0    0    0    0  0.00000000000E+00  0.00000000000E+00  0.45593999997E+02  0.45594000000E+02  0.51100000000E-03 0. -1.
         11   -1    0    0    0    0 -0.00000000000E+00 -0.00000000000E+00 -0.45593999997E+02  0.45594000000E+02  0.51100000000E-03 0.  1.
    9900012    2    1    2    0    0  0.20738202260E+02  0.63921766129E+01 -0.37585770272E+02  0.47787273258E+02  0.20000010091E+02 0.  0.
         12    1    1    2    0    0 -0.20738202260E+02 -0.63921766129E+01  0.37585770272E+02  0.43400726742E+02  0.00000000000E+00 0. -1.
         11    1    3    3    0    0  0.34068677619E+01  0.46402540290E+00 -0.17203963685E+01  0.38447147420E+01  0.51100000000E-03 0. -1.
        -11    1    3    3    0    0  0.15525394095E+02  0.10642861866E+02 -0.33365464683E+02  0.38308779729E+02  0.51100000000E-03 0.  1.
        -12    1    3    3    0    0  0.18059404025E+01 -0.47147106562E+01 -0.24999092206E+01  0.56337787869E+01  0.00000000000E+00 0.  1.
</event>
<event>
 7    1  0.1813014E-010  0.4778727E+02  0.7816164E-02  0.1312668E+00
        -11   -1    0    0    0    0  0.00000000000E+00  0.00000000000E+00  0.45593999997E+02  0.45594000000E+02  0.51100000000E-03 0.  1.
         11   -1    0    0    0    0 -0.00000000000E+00 -0.00000000000E+00 -0.45593999997E+02  0.45594000000E+02  0.51100000000E-03 0. -1.
    9900012    2    1    2    0    0  0.95425078278E+01  0.17913877106E+02  0.38362177413E+02  0.47787272996E+02  0.20000008898E+02 0.  0.
         12    1    1    2    0    0 -0.95425078278E+01 -0.17913877106E+02 -0.38362177413E+02  0.43400727004E+02  0.00000000000E+00 0. -1.
         11    1    3    3    0    0 -0.45199567855E+00  0.20552885161E+01  0.16413745051E+01  0.26688239929E+01  0.51100000000E-03 0. -1.
        -11    1    3    3    0    0  0.13884234308E+02  0.10031341916E+02  0.16763002180E+02  0.23966602290E+02  0.51100000000E-03 0.  1.
        -12    1    3    3    0    0 -0.38897308017E+01  0.58272466732E+01  0.19957800728E+02  0.21151846713E+02  0.00000000000E+00 0.  1.
</event>
<event>
 7    1  0.1813014E-010  0.4778727E+02  0.7816164E-02  0.1312668E+00
        -11   -1    0    0    0    0  0.00000000000E+00  0.00000000000E+00  0.45593999997E+02  0.45594000000E+02  0.51100000000E-03 0.  1.
         11   -1    0    0    0    0 -0.00000000000E+00 -0.00000000000E+00 -0.45593999997E+02  0.45594000000E+02  0.51100000000E-03 0. -1.
    9900012    2    1    2    0    0  0.16165577472E+02  0.27304549667E+02  0.29610116281E+02  0.47787270586E+02  0.19999997909E+02 0.  0.
         12    1    1    2    0    0 -0.16165577472E+02 -0.27304549667E+02 -0.29610116281E+02  0.43400729414E+02  0.00000000000E+00 0. -1.
         11    1    3    3    0    0  0.56024725969E+01  0.18991516162E+02  0.17315506623E+02  0.26303842974E+02  0.51100000000E-03 0. -1.
        -11    1    3    3    0    0 -0.55716414972E+00  0.61545308236E+01  0.55088495138E+01  0.82786535606E+01  0.51100000000E-03 0.  1.
         12    1    3    3    0    0  0.11120269025E+02  0.21585026812E+01  0.67857601438E+01  0.13204774051E+02  0.00000000000E+00 0. -1.
</event>
<event>
 7    1  0.1813014E-010  0.4778728E+02  0.7816164E-02  0.1312668E+00
        -11   -1    0    0    0    0  0.00000000000E+00  0.00000000000E+00  0.45593999997E+02  0.45594000000E+02  0.51100000000E-03 0.  1.
         11   -1    0    0    0    0 -0.00000000000E+00 -0.00000000000E+00 -0.45593999997E+02  0.45594000000E+02  0.51100000000E-03 0. -1.
    9900012    2    1    2    0    0 -0.91621891981E+01 -0.25868687369E+02  0.33622733208E+02  0.47787275519E+02  0.20000020401E+02 0.  0.
         12    1    1    2    0    0  0.91621891981E+01  0.25868687369E+02 -0.33622733208E+02  0.43400724481E+02  0.00000000000E+00 0. -1.
         11    1    3    3    0    0  0.26539749916E+01 -0.75455741383E+01  0.22132149045E+01  0.82992525450E+01  0.51100000000E-03 0. -1.
        -11    1    3    3    0    0 -0.72964543477E+01 -0.12660754435E+02  0.12470650353E+02  0.19210675922E+02  0.51100000000E-03 0.  1.
        -12    1    3    3    0    0 -0.45197098420E+01 -0.56623587958E+01  0.18938867951E+02  0.20277347052E+02  0.00000000000E+00 0.  1.
</event>
<event>
 7    1  0.1813014E-010  0.4778727E+02  0.7816164E-02  0.1312668E+00
        -11   -1    0    0    0    0  0.00000000000E+00  0.00000000000E+00  0.45593999997E+02  0.45594000000E+02  0.51100000000E-03 0.  1.
         11   -1    0    0    0    0 -0.00000000000E+00 -0.00000000000E+00 -0.45593999997E+02  0.45594000000E+02  0.51100000000E-03 0. -1.
    9900012    2    1    2    0    0 -0.20937786260E+02 -0.24427964007E+02  0.29129137122E+02  0.47787274793E+02  0.20000017092E+02 0.  0.
         12    1    1    2    0    0  0.20937786260E+02  0.24427964007E+02 -0.29129137122E+02  0.43400725207E+02  0.00000000000E+00 0. -1.
         11    1    3    3    0    0 -0.53287597348E+01 -0.57629379087E+01 -0.72657811931E+00  0.78825788722E+01  0.51100000000E-03 0. -1.
        -11    1    3    3    0    0 -0.65644297883E+00  0.13172702757E+01  0.22625717078E+01  0.26991386326E+01  0.51100000000E-03 0.  1.
        -12    1    3    3    0    0 -0.14952583546E+02 -0.19982296375E+02  0.27593143533E+02  0.37205557289E+02  0.00000000000E+00 0.  1.
</event>
<event>
 7    1  0.1813014E-010  0.4778728E+02  0.7816164E-02  0.1312668E+00
        -11   -1    0    0    0    0  0.00000000000E+00  0.00000000000E+00  0.45593999997E+02  0.45594000000E+02  0.51100000000E-03 0.  1.
         11   -1    0    0    0    0 -0.00000000000E+00 -0.00000000000E+00 -0.45593999997E+02  0.45594000000E+02  0.51100000000E-03 0. -1.
    9900012    2    1    2    0    0  0.69263905037E+01  0.19453612837E+02  0.38173349798E+02  0.47787279123E+02  0.20000036833E+02 0.  0.
         12    1    1    2    0    0 -0.69263905037E+01 -0.19453612837E+02 -0.38173349798E+02  0.43400720877E+02  0.00000000000E+00 0. -1.
         11    1    3    3    0    0 -0.35984259069E+01 -0.52493878220E+00  0.31171419455E+01  0.47896559273E+01  0.51100000000E-03 0. -1.
        -11    1    3    3    0    0  0.89157441223E+01  0.63229144011E+01  0.18371669420E+02  0.21377277126E+02  0.51100000000E-03 0.  1.
         12    1    3    3    0    0  0.16090722883E+01  0.13655637218E+02  0.16684538433E+02  0.21620346070E+02  0.00000000000E+00 0. -1.
</event>
<event>
 7    1  0.1939659E-010  0.4778727E+02  0.7816164E-02  0.1312668E+00
        -11   -1    0    0    0    0  0.00000000000E+00  0.00000000000E+00  0.45593999997E+02  0.45594000000E+02  0.51100000000E-03 0. -1.
         11   -1    0    0    0    0 -0.00000000000E+00 -0.00000000000E+00 -0.45593999997E+02  0.45594000000E+02  0.51100000000E-03 0.  1.
    9900012    2    1    2    0    0  0.25184180765E+02  0.22869178038E+02 -0.26951453688E+02  0.47787272807E+02  0.20000008038E+02 0.  0.
         12    1    1    2    0    0 -0.25184180765E+02 -0.22869178038E+02  0.26951453688E+02  0.43400727193E+02  0.00000000000E+00 0. -1.
         11    1    3    3    0    0 -0.18070712607E+00  0.43096742913E+01  0.21514040576E+01  0.48202165141E+01  0.51100000000E-03 0. -1.
        -11    1    3    3    0    0  0.68499354815E+01  0.59129059616E+01 -0.10246928742E+02  0.13670538465E+02  0.51100000000E-03 0.  1.
         12    1    3    3    0    0  0.18514952409E+02  0.12646597785E+02 -0.18855929004E+02  0.29296517828E+02  0.00000000000E+00 0. -1.
</event>
<event>
 7    1  0.1813014E-010  0.4778727E+02  0.7816164E-02  0.1312668E+00
        -11   -1    0    0    0    0  0.00000000000E+00  0.00000000000E+00  0.45593999997E+02  0.45594000000E+02  0.51100000000E-03 0. -1.
         11   -1    0    0    0    0 -0.00000000000E+00 -0.00000000000E+00 -0.45593999997E+02  0.45594000000E+02  0.51100000000E-03 0.  1.
    9900012    2    1    2    0    0  0.64922458428E+01 -0.87346414221E+01 -0.42014045102E+02  0.47787271864E+02  0.20000003738E+02 0.  0.
         12    1    1    2    0    0 -0.64922458428E+01  0.87346414221E+01  0.42014045102E+02  0.43400728136E+02  0.00000000000E+00 0. -1.
         11    1    3    3    0    0 -0.37936745895E+01 -0.60559168525E+01 -0.17373110852E+02  0.18785395304E+02  0.51100000000E-03 0. -1.
        -11    1    3    3    0    0  0.16308546331E+01  0.36460078932E+01 -0.35530265110E+01  0.53457514009E+01  0.51100000000E-03 0.  1.
        -12    1    3    3    0    0  0.86550657992E+01 -0.63247324628E+01 -0.21087907739E+02  0.23656125159E+02  0.00000000000E+00 0.  1.
</event>
<event>
 7    1  0.1813014E-010  0.4778727E+02  0.7816164E-02  0.1312668E+00
        -11   -1    0    0    0    0  0.00000000000E+00  0.00000000000E+00  0.45593999997E+02  0.45594000000E+02  0.51100000000E-03 0. -1.
         11   -1    0    0    0    0 -0.00000000000E+00 -0.00000000000E+00 -0.45593999997E+02  0.45594000000E+02  0.51100000000E-03 0.  1.
    9900012    2    1    2    0    0 -0.41498821259E+01 -0.30379564549E+02 -0.30716180430E+02  0.47787271849E+02  0.20000003667E+02 0.  0.
         12    1    1    2    0    0  0.41498821259E+01  0.30379564549E+02  0.30716180430E+02  0.43400728151E+02  0.00000000000E+00 0. -1.
         11    1    3    3    0    0 -0.12091995758E+01 -0.18163046798E+02 -0.12726051418E+02  0.22210601467E+02  0.51100000000E-03 0. -1.
        -11    1    3    3    0    0  0.47357867555E+01 -0.23242927385E+01 -0.30893509250E+01  0.61134362127E+01  0.51100000000E-03 0.  1.
        -12    1    3    3    0    0 -0.76764693057E+01 -0.98922250128E+01 -0.14900778087E+02  0.19463234169E+02  0.00000000000E+00 0.  1.
</event>
<event>
 7    1  0.1813014E-010  0.4778727E+02  0.7816164E-02  0.1312668E+00
        -11   -1    0    0    0    0  0.00000000000E+00  0.00000000000E+00  0.45593999997E+02  0.45594000000E+02  0.51100000000E-03 0.  1.
         11   -1    0    0    0    0 -0.00000000000E+00 -0.00000000000E+00 -0.45593999997E+02  0.45594000000E+02  0.51100000000E-03 0. -1.
    9900012    2    1    2    0    0  0.10322712042E+02 -0.39315326615E+02  0.15210852278E+02  0.47787270539E+02  0.19999997694E+02 0.  0.
         12    1    1    2    0    0 -0.10322712042E+02  0.39315326615E+02 -0.15210852278E+02  0.43400729461E+02  0.00000000000E+00 0. -1.
         11    1    3    3    0    0 -0.62868983719E+00 -0.31964319044E+01 -0.22000080544E+01  0.39309621635E+01  0.51100000000E-03 0. -1.
        -11    1    3    3    0    0  0.51478823953E+01 -0.10934111927E+02  0.12799221943E+02  0.17603283199E+02  0.51100000000E-03 0.  1.
         12    1    3    3    0    0  0.58035194836E+01 -0.25184782783E+02  0.46116383900E+01  0.26253025176E+02  0.00000000000E+00 0. -1.
</event>
<event>
 7    1  0.1813014E-010  0.4778727E+02  0.7816164E-02  0.1312668E+00
        -11   -1    0    0    0    0  0.00000000000E+00  0.00000000000E+00  0.45593999997E+02  0.45594000000E+02  0.51100000000E-03 0.  1.
         11   -1    0    0    0    0 -0.00000000000E+00 -0.00000000000E+00 -0.45593999997E+02  0.45594000000E+02  0.51100000000E-03 0. -1.
    9900012    2    1    2    0    0 -0.26899746091E+02  0.13986387081E+01  0.34030444926E+02  0.47787265999E+02  0.19999976996E+02 0.  0.
         12    1    1    2    0    0  0.26899746091E+02 -0.13986387081E+01 -0.34030444926E+02  0.43400734001E+02  0.00000000000E+00 0. -1.
         11    1    3    3    0    0 -0.11839058488E+02  0.22734453737E+01  0.12028812546E+02  0.17030096632E+02  0.51100000000E-03 0. -1.
        -11    1    3    3    0    0  0.78704834271E+00 -0.49005681827E+01  0.35445862371E+01  0.60991069396E+01  0.51100000000E-03 0.  1.
        -12    1    3    3    0    0 -0.15847735945E+02  0.40257615171E+01  0.18457046142E+02  0.24658062428E+02  0.00000000000E+00 0.  1.
</event>
<event>
 7    1  0.1813014E-010  0.4778727E+02  0.7816164E-02  0.1312668E+00
        -11   -1    0    0    0    0  0.00000000000E+00  0.00000000000E+00  0.45593999997E+02  0.45594000000E+02  0.51100000000E-03 0.  1.
         11   -1    0    0    0    0 -0.00000000000E+00 -0.00000000000E+00 -0.45593999997E+02  0.45594000000E+02  0.51100000000E-03 0. -1.
    9900012    2    1    2    0    0 -0.61268363804E+01  0.42705303640E+02 -0.47267526091E+01  0.47787271052E+02  0.20000000033E+02 0.  0.
         12    1    1    2    0    0  0.61268363804E+01 -0.42705303640E+02  0.47267526091E+01  0.43400728948E+02  0.00000000000E+00 0. -1.
         11    1    3    3    0    0 -0.40771382686E+01  0.23766454643E+02 -0.61313465466E+01  0.24880933132E+02  0.51100000000E-03 0. -1.
        -11    1    3    3    0    0 -0.10295327083E+01  0.19688494174E+02  0.39098821520E+01  0.20099351212E+02  0.51100000000E-03 0.  1.
         12    1    3    3    0    0 -0.10201654036E+01 -0.74964517689E+00 -0.25052882146E+01  0.28069867082E+01  0.00000000000E+00 0. -1.
</event>
<event>
 7    1  0.1813014E-010  0.4778727E+02  0.7816164E-02  0.1312668E+00
        -11   -1    0    0    0    0  0.00000000000E+00  0.00000000000E+00  0.45593999997E+02  0.45594000000E+02  0.51100000000E-03 0. -1.
         11   -1    0    0    0    0 -0.00000000000E+00 -0.00000000000E+00 -0.45593999997E+02  0.45594000000E+02  0.51100000000E-03 0.  1.
    9900012    2    1    2    0    0  0.27533163805E+02  0.19506083670E+02 -0.27295803547E+02  0.47787270737E+02  0.19999998600E+02 0.  0.
         12    1    1    2    0    0 -0.27533163805E+02 -0.19506083670E+02  0.27295803547E+02  0.43400729263E+02  0.00000000000E+00 0. -1.
         11    1    3    3    0    0 -0.10122277624E+01 -0.77579679175E+00  0.12009849163E+01  0.17518078477E+01  0.51100000000E-03 0. -1.
        -11    1    3    3    0    0  0.84492034985E+01  0.11111469273E+02 -0.12773906613E+02  0.18921587660E+02  0.51100000000E-03 0.  1.
         12    1    3    3    0    0  0.20096188069E+02  0.91704111883E+01 -0.15722881851E+02  0.27113875229E+02  0.00000000000E+00 0. -1.
</event>
<event>
 7    1  0.1813014E-010  0.4778728E+02  0.7816164E-02  0.1312668E+00
        -11   -1    0    0    0    0  0.00000000000E+00  0.00000000000E+00  0.45593999997E+02  0.45594000000E+02  0.51100000000E-03 0.  1.
         11   -1    0    0    0    0 -0.00000000000E+00 -0.00000000000E+00 -0.45593999997E+02  0.45594000000E+02  0.51100000000E-03 0. -1.
    9900012    2    1    2    0    0 -0.40209209526E+02 -0.16181548090E+02  0.22360135666E+01  0.47787276666E+02  0.20000025630E+02 0.  0.
         12    1    1    2    0    0  0.40209209526E+02  0.16181548090E+02 -0.22360135666E+01  0.43400723334E+02  0.00000000000E+00 0. -1.
         11    1    3    3    0    0 -0.10639150488E+02 -0.23695449808E+01 -0.52476483539E+01  0.12097275727E+02  0.51100000000E-03 0. -1.
        -11    1    3    3    0    0 -0.23864516975E+02 -0.62166727745E+01  0.86169329549E+01  0.26123049682E+02  0.51100000000E-03 0.  1.
         12    1    3    3    0    0 -0.57055420624E+01 -0.75953303343E+01 -0.11332710344E+01  0.95669512568E+01  0.00000000000E+00 0. -1.
</event>
<event>
 7    1  0.1813014E-010  0.4778728E+02  0.7816164E-02  0.1312668E+00
        -11   -1    0    0    0    0  0.00000000000E+00  0.00000000000E+00  0.45593999997E+02  0.45594000000E+02  0.51100000000E-03 0. -1.
         11   -1    0    0    0    0 -0.00000000000E+00 -0.00000000000E+00 -0.45593999997E+02  0.45594000000E+02  0.51100000000E-03 0.  1.
    9900012    2    1    2    0    0 -0.39515830325E+02 -0.36280067182E+01 -0.17577231313E+02  0.47787281807E+02  0.20000049070E+02 0.  0.
         12    1    1    2    0    0  0.39515830325E+02  0.36280067182E+01  0.17577231313E+02  0.43400718193E+02  0.00000000000E+00 0. -1.
         11    1    3    3    0    0 -0.10005598418E+02 -0.17721919191E+01  0.22442529841E+01  0.10406216201E+02  0.51100000000E-03 0. -1.
        -11    1    3    3    0    0 -0.95584628404E+01 -0.36916385137E+01 -0.17415544866E+01  0.10393527749E+02  0.51100000000E-03 0.  1.
        -12    1    3    3    0    0 -0.19951769067E+02  0.18358237146E+01 -0.18079929810E+02  0.26987537857E+02  0.00000000000E+00 0.  1.
</event>
<event>
 7    1  0.1813014E-010  0.4778727E+02  0.7816164E-02  0.1312668E+00
        -11   -1    0    0    0    0  0.00000000000E+00  0.00000000000E+00  0.45593999997E+02  0.45594000000E+02  0.51100000000E-03 0. -1.
         11   -1    0    0    0    0 -0.00000000000E+00 -0.00000000000E+00 -0.45593999997E+02  0.45594000000E+02  0.51100000000E-03 0.  1.
    9900012    2    1    2    0    0 -0.91746332828E+01  0.40242099746E+02 -0.13417254687E+02  0.47787271767E+02  0.20000003293E+02 0.  0.
         12    1    1    2    0    0  0.91746332828E+01 -0.40242099746E+02  0.13417254687E+02  0.43400728233E+02  0.00000000000E+00 0. -1.
         11    1    3    3    0    0 -0.11474805794E+01  0.30620514054E+02 -0.36109035355E+01  0.30854030810E+02  0.51100000000E-03 0. -1.
        -11    1    3    3    0    0 -0.47039078068E+01  0.93065666343E+01 -0.68700911564E+01  0.12487477084E+02  0.51100000000E-03 0.  1.
         12    1    3    3    0    0 -0.33232448966E+01  0.31501905743E+00 -0.29362599953E+01  0.44457638725E+01  0.00000000000E+00 0. -1.
</event>
<event>
 7    1  0.1813014E-010  0.4778727E+02  0.7816164E-02  0.1312668E+00
        -11   -1    0    0    0    0  0.00000000000E+00  0.00000000000E+00  0.45593999997E+02  0.45594000000E+02  0.51100000000E-03 0.  1.
         11   -1    0    0    0    0 -0.00000000000E+00 -0.00000000000E+00 -0.45593999997E+02  0.45594000000E+02  0.51100000000E-03 0. -1.
    9900012    2    1    2    0    0  0.24272054203E+02 -0.26973290240E+02  0.23810341960E+02  0.47787269754E+02  0.19999994118E+02 0.  0.
         12    1    1    2    0    0 -0.24272054203E+02  0.26973290240E+02 -0.23810341960E+02  0.43400730246E+02  0.00000000000E+00 0. -1.
         11    1    3    3    0    0  0.12383157302E+02 -0.13099376879E+02  0.75625527818E+00  0.18041845296E+02  0.51100000000E-03 0. -1.
        -11    1    3    3    0    0  0.70522633016E+01 -0.49140180673E+01  0.98921581943E+01  0.13104838238E+02  0.51100000000E-03 0.  1.
         12    1    3    3    0    0  0.48366335992E+01 -0.89598952944E+01  0.13161928488E+02  0.16640586221E+02  0.00000000000E+00 0. -1.
</event>
<event>
 7    1  0.1813014E-010  0.4778727E+02  0.7816164E-02  0.1312668E+00
        -11   -1    0    0    0    0  0.00000000000E+00  0.00000000000E+00  0.45593999997E+02  0.45594000000E+02  0.51100000000E-03 0. -1.
         11   -1    0    0    0    0 -0.00000000000E+00 -0.00000000000E+00 -0.45593999997E+02  0.45594000000E+02  0.51100000000E-03 0.  1.
    9900012    2    1    2    0    0  0.30968697557E+02 -0.30390266677E+02 -0.99730766816E+00  0.47787272360E+02  0.20000006000E+02 0.  0.
         12    1    1    2    0    0 -0.30968697557E+02  0.30390266677E+02  0.99730766816E+00  0.43400727640E+02  0.00000000000E+00 0. -1.
         11    1    3    3    0    0  0.19996486227E+01 -0.12843280982E+01  0.34826002949E+01  0.42162303487E+01  0.51100000000E-03 0. -1.
        -11    1    3    3    0    0  0.89788210160E+01 -0.16394487954E+02 -0.65132953150E+01  0.19794481004E+02  0.51100000000E-03 0.  1.
         12    1    3    3    0    0  0.19990227918E+02 -0.12711450625E+02  0.20333873519E+01  0.23776561007E+02  0.00000000000E+00 0. -1.
</event>
<event>
 7    1  0.1813014E-010  0.4778727E+02  0.7816164E-02  0.1312668E+00
        -11   -1    0    0    0    0  0.00000000000E+00  0.00000000000E+00  0.45593999997E+02  0.45594000000E+02  0.51100000000E-03 0.  1.
         11   -1    0    0    0    0 -0.00000000000E+00 -0.00000000000E+00 -0.45593999997E+02  0.45594000000E+02  0.51100000000E-03 0. -1.
    9900012    2    1    2    0    0 -0.32351640201E+02  0.15010857128E+02  0.24731939064E+02  0.47787271143E+02  0.20000000451E+02 0.  0.
         12    1    1    2    0    0  0.32351640201E+02 -0.15010857128E+02 -0.24731939064E+02  0.43400728857E+02  0.00000000000E+00 0. -1.
         11    1    3    3    0    0 -0.14170594822E+02  0.80618151757E+01  0.42771536601E+01  0.16855048657E+02  0.51100000000E-03 0. -1.
        -11    1    3    3    0    0 -0.24777732552E+01 -0.33004910516E+01  0.18708265437E+01  0.45312905119E+01  0.51100000000E-03 0.  1.
        -12    1    3    3    0    0 -0.15703272124E+02  0.10249533004E+02  0.18583958860E+02  0.26400931975E+02  0.00000000000E+00 0.  1.
</event>
<event>
 7    1  0.1813014E-010  0.4778727E+02  0.7816164E-02  0.1312668E+00
        -11   -1    0    0    0    0  0.00000000000E+00  0.00000000000E+00  0.45593999997E+02  0.45594000000E+02  0.51100000000E-03 0.  1.
         11   -1    0    0    0    0 -0.00000000000E+00 -0.00000000000E+00 -0.45593999997E+02  0.45594000000E+02  0.51100000000E-03 0. -1.
    9900012    2    1    2    0    0  0.22385459466E+02  0.20448837388E+02  0.31054135235E+02  0.47787273494E+02  0.20000011169E+02 0.  0.
         12    1    1    2    0    0 -0.22385459466E+02 -0.20448837388E+02 -0.31054135235E+02  0.43400726506E+02  0.00000000000E+00 0. -1.
         11    1    3    3    0    0  0.91589614118E+00  0.65820029314E+01  0.29787943448E+01  0.72825026152E+01  0.51100000000E-03 0. -1.
        -11    1    3    3    0    0  0.11848494371E+00  0.45597209963E+01  0.78815406061E+00  0.46288531334E+01  0.51100000000E-03 0.  1.
         12    1    3    3    0    0  0.21351078381E+02  0.93071134599E+01  0.27287186830E+02  0.35875917746E+02  0.00000000000E+00 0. -1.
</event>
<event>
 7    1  0.1813014E-010  0.4778729E+02  0.7816164E-02  0.1312668E+00
        -11   -1    0    0    0    0  0.00000000000E+00  0.00000000000E+00  0.45593999997E+02  0.45594000000E+02  0.51100000000E-03 0.  1.
         11   -1    0    0    0    0 -0.00000000000E+00 -0.00000000000E+00 -0.45593999997E+02  0.45594000000E+02  0.51100000000E-03 0. -1.
    9900012    2    1    2    0    0  0.33487359361E+02  0.27604110649E+02  0.48090227513E+00  0.47787292302E+02  0.20000096922E+02 0.  0.
         12    1    1    2    0    0 -0.33487359361E+02 -0.27604110649E+02 -0.48090227513E+00  0.43400707698E+02  0.00000000000E+00 0. -1.
         11    1    3    3    0    0 -0.95009098116E+00  0.53208312508E+01 -0.33435522921E+01  0.63555692320E+01  0.51100000000E-03 0. -1.
        -11    1    3    3    0    0  0.16878028165E+01  0.23818342149E+01  0.26359731131E-02  0.29192156111E+01  0.51100000000E-03 0.  1.
         12    1    3    3    0    0  0.32749647525E+02  0.19901445183E+02  0.38218185941E+01  0.38512507459E+02  0.00000000000E+00 0. -1.
</event>
<event>
 7    1  0.2137801E-010  0.4778727E+02  0.7816164E-02  0.1312668E+00
        -11   -1    0    0    0    0  0.00000000000E+00  0.00000000000E+00  0.45593999997E+02  0.45594000000E+02  0.51100000000E-03 0. -1.
         11   -1    0    0    0    0 -0.00000000000E+00 -0.00000000000E+00 -0.45593999997E+02  0.45594000000E+02  0.51100000000E-03 0.  1.
    9900012    2    1    2    0    0  0.16703419148E+02  0.23014911074E+02 -0.32786165941E+02  0.47787273968E+02  0.20000013330E+02 0.  0.
         12    1    1    2    0    0 -0.16703419148E+02 -0.23014911074E+02  0.32786165941E+02  0.43400726032E+02  0.00000000000E+00 0. -1.
         11    1    3    3    0    0  0.46460454681E+01  0.60385438249E+00 -0.10880134223E+02  0.11845999307E+02  0.51100000000E-03 0. -1.
        -11    1    3    3    0    0  0.55671477299E+01  0.19028847248E+02 -0.20442362093E+02  0.28477716370E+02  0.51100000000E-03 0.  1.
         12    1    3    3    0    0  0.64902259499E+01  0.33822094437E+01 -0.14636696252E+01  0.74635582917E+01  0.00000000000E+00 0. -1.
</event>
<event>
 7    1  0.1813014E-010  0.4778725E+02  0.7816164E-02  0.1312668E+00
        -11   -1    0    0    0    0  0.00000000000E+00  0.00000000000E+00  0.45593999997E+02  0.45594000000E+02  0.51100000000E-03 0.  1.
         11   -1    0    0    0    0 -0.00000000000E+00 -0.00000000000E+00 -0.45593999997E+02  0.45594000000E+02  0.51100000000E-03 0. -1.
    9900012    2    1    2    0    0 -0.22504181324E+01 -0.43320232344E+02  0.13849828449E+01  0.47787250127E+02  0.19999904628E+02 0.  0.
         12    1    1    2    0    0  0.22504181324E+01  0.43320232344E+02 -0.13849828449E+01  0.43400749873E+02  0.00000000000E+00 0. -1.
         11    1    3    3    0    0  0.69694433946E+00 -0.57748801667E+01 -0.55433820028E+01  0.80351762048E+01  0.51100000000E-03 0. -1.
        -11    1    3    3    0    0 -0.62517289050E+01 -0.23522816085E+02  0.16009576176E+01  0.24392008044E+02  0.51100000000E-03 0.  1.
        -12    1    3    3    0    0  0.33043664331E+01 -0.14022536092E+02  0.53274072301E+01  0.15360065878E+02  0.00000000000E+00 0.  1.
</event>
<event>
 7    1  0.1813014E-010  0.4778727E+02  0.7816164E-02  0.1312668E+00
        -11   -1    0    0    0    0  0.00000000000E+00  0.00000000000E+00  0.45593999997E+02  0.45594000000E+02  0.51100000000E-03 0.  1.
         11   -1    0    0    0    0 -0.00000000000E+00 -0.00000000000E+00 -0.45593999997E+02  0.45594000000E+02  0.51100000000E-03 0. -1.
    9900012    2    1    2    0    0  0.20172541775E+02  0.74523159932E+01  0.37698208424E+02  0.47787269895E+02  0.19999994757E+02 0.  0.
         12    1    1    2    0    0 -0.20172541775E+02 -0.74523159932E+01 -0.37698208424E+02  0.43400730105E+02  0.00000000000E+00 0. -1.
         11    1    3    3    0    0  0.67010753501E+01 -0.28830842465E+01  0.10930399716E+02  0.13141165239E+02  0.51100000000E-03 0. -1.
        -11    1    3    3    0    0  0.54739901314E+01  0.28921626469E+01  0.21767727390E+02  0.22631021380E+02  0.51100000000E-03 0.  1.
        -12    1    3    3    0    0  0.79974762935E+01  0.74432375927E+01  0.50000813175E+01  0.12015083275E+02  0.00000000000E+00 0.  1.
</event>
<event>
 7    1  0.1813014E-010  0.4778728E+02  0.7816164E-02  0.1312668E+00
        -11   -1    0    0    0    0  0.00000000000E+00  0.00000000000E+00  0.45593999997E+02  0.45594000000E+02  0.51100000000E-03 0. -1.
         11   -1    0    0    0    0 -0.00000000000E+00 -0.00000000000E+00 -0.45593999997E+02  0.45594000000E+02  0.51100000000E-03 0.  1.
    9900012    2    1    2    0    0  0.41140749845E+02 -0.66930674607E+01 -0.12093979342E+02  0.47787276663E+02  0.20000025617E+02 0.  0.
         12    1    1    2    0    0 -0.41140749845E+02  0.66930674607E+01  0.12093979342E+02  0.43400723337E+02  0.00000000000E+00 0. -1.
         11    1    3    3    0    0  0.99108686522E+01 -0.43084695050E+00 -0.71895753178E+01  0.12251568881E+02  0.51100000000E-03 0. -1.
        -11    1    3    3    0    0  0.31994251958E+02 -0.59845664798E+01 -0.69951822461E+01  0.33292337995E+02  0.51100000000E-03 0.  1.
         12    1    3    3    0    0 -0.76437076491E+00 -0.27765403041E+00  0.20907782215E+01  0.22433697864E+01  0.00000000000E+00 0. -1.
</event>
<event>
 7    1  0.1813014E-010  0.4778725E+02  0.7816164E-02  0.1312668E+00
        -11   -1    0    0    0    0  0.00000000000E+00  0.00000000000E+00  0.45593999997E+02  0.45594000000E+02  0.51100000000E-03 0.  1.
         11   -1    0    0    0    0 -0.00000000000E+00 -0.00000000000E+00 -0.45593999997E+02  0.45594000000E+02  0.51100000000E-03 0. -1.
    9900012    2    1    2    0    0  0.26693990885E+02 -0.83873424969E+01  0.33176930280E+02  0.47787246938E+02  0.19999890090E+02 0.  0.
         12    1    1    2    0    0 -0.26693990885E+02  0.83873424969E+01 -0.33176930280E+02  0.43400753062E+02  0.00000000000E+00 0. -1.
         11    1    3    3    0    0 -0.11098833907E+00 -0.38212643895E+01  0.10153042920E+02  0.10848901361E+02  0.51100000000E-03 0. -1.
        -11    1    3    3    0    0  0.10193880309E+02 -0.17762611025E+01  0.30028844179E+01  0.10774396241E+02  0.51100000000E-03 0.  1.
        -12    1    3    3    0    0  0.16611098915E+02 -0.27898170049E+01  0.20021002941E+02  0.26163949336E+02  0.00000000000E+00 0.  1.
</event>
<event>
 7    1  0.1813014E-010  0.4778727E+02  0.7816164E-02  0.1312668E+00
        -11   -1    0    0    0    0  0.00000000000E+00  0.00000000000E+00  0.45593999997E+02  0.45594000000E+02  0.51100000000E-03 0.  1.
         11   -1    0    0    0    0 -0.00000000000E+00 -0.00000000000E+00 -0.45593999997E+02  0.45594000000E+02  0.51100000000E-03 0. -1.
    9900012    2    1    2    0    0 -0.18067072577E+02  0.71730881804E+01  0.38804005174E+02  0.47787272782E+02  0.20000007921E+02 0.  0.
         12    1    1    2    0    0  0.18067072577E+02 -0.71730881804E+01 -0.38804005174E+02  0.43400727218E+02  0.00000000000E+00 0. -1.
         11    1    3    3    0    0  0.10308344831E+01  0.21228640089E+01  0.11105953947E+01  0.26081782384E+01  0.51100000000E-03 0. -1.
        -11    1    3    3    0    0 -0.21883983852E+00  0.58140003537E+01  0.66321429348E+01  0.88224606066E+01  0.51100000000E-03 0.  1.
        -12    1    3    3    0    0 -0.18879067222E+02 -0.76377618210E+00  0.31061266844E+02  0.36356633937E+02  0.00000000000E+00 0.  1.
</event>
<event>
 7    1  0.1813014E-010  0.4778727E+02  0.7816164E-02  0.1312668E+00
        -11   -1    0    0    0    0  0.00000000000E+00  0.00000000000E+00  0.45593999997E+02  0.45594000000E+02  0.51100000000E-03 0. -1.
         11   -1    0    0    0    0 -0.00000000000E+00 -0.00000000000E+00 -0.45593999997E+02  0.45594000000E+02  0.51100000000E-03 0.  1.
    9900012    2    1    2    0    0  0.26341175351E+02 -0.23186706414E+02 -0.25537086129E+02  0.47787266813E+02  0.19999980705E+02 0.  0.
         12    1    1    2    0    0 -0.26341175351E+02  0.23186706414E+02  0.25537086129E+02  0.43400733187E+02  0.00000000000E+00 0. -1.
         11    1    3    3    0    0 -0.12840775964E+01 -0.52323647057E+01 -0.72767964846E+00  0.54365442718E+01  0.51100000000E-03 0. -1.
        -11    1    3    3    0    0  0.15229721450E+02 -0.95661288363E+01 -0.19354434868E+02  0.26420624249E+02  0.51100000000E-03 0.  1.
        -12    1    3    3    0    0  0.12395531497E+02 -0.83882128724E+01 -0.54549716125E+01  0.15930098292E+02  0.00000000000E+00 0.  1.
</event>
<event>
 7    1  0.1813014E-010  0.4778727E+02  0.7816164E-02  0.1312668E+00
        -11   -1    0    0    0    0  0.00000000000E+00  0.00000000000E+00  0.45593999997E+02  0.45594000000E+02  0.51100000000E-03 0. -1.
         11   -1    0    0    0    0 -0.00000000000E+00 -0.00000000000E+00 -0.45593999997E+02  0.45594000000E+02  0.51100000000E-03 0.  1.
    9900012    2    1    2    0    0 -0.13496532858E+01  0.35992737216E+02 -0.24214148870E+02  0.47787266114E+02  0.19999977522E+02 0.  0.
         12    1    1    2    0    0  0.13496532858E+01 -0.35992737216E+02  0.24214148870E+02  0.43400733886E+02  0.00000000000E+00 0. -1.
         11    1    3    3    0    0  0.89514429415E+00 -0.84061416552E+00  0.70224651736E-01  0.12299785549E+01  0.51100000000E-03 0. -1.
        -11    1    3    3    0    0  0.98687731143E+00  0.32280554454E+02 -0.14741125821E+02  0.35500829757E+02  0.51100000000E-03 0.  1.
        -12    1    3    3    0    0 -0.32316748914E+01  0.45527969279E+01 -0.95432477008E+01  0.11056457803E+02  0.00000000000E+00 0.  1.
</event>
<event>
 7    1  0.1813014E-010  0.4778727E+02  0.7816164E-02  0.1312668E+00
        -11   -1    0    0    0    0  0.00000000000E+00  0.00000000000E+00  0.45593999997E+02  0.45594000000E+02  0.51100000000E-03 0.  1.
         11   -1    0    0    0    0 -0.00000000000E+00 -0.00000000000E+00 -0.45593999997E+02  0.45594000000E+02  0.51100000000E-03 0. -1.
    9900012    2    1    2    0    0 -0.98717637928E+01 -0.20209674584E+02  0.37117925060E+02  0.47787273878E+02  0.20000012920E+02 0.  0.
         12    1    1    2    0    0  0.98717637928E+01  0.20209674584E+02 -0.37117925060E+02  0.43400726122E+02  0.00000000000E+00 0. -1.
         11    1    3    3    0    0 -0.54058567138E+01 -0.91308096210E+01  0.14214889710E+02  0.17738603690E+02  0.51100000000E-03 0. -1.
        -11    1    3    3    0    0 -0.56653315558E+01 -0.12755376600E+02  0.23962625274E+02  0.27730903774E+02  0.51100000000E-03 0.  1.
         12    1    3    3    0    0  0.11994244769E+01  0.16765116368E+01 -0.10595899241E+01  0.23177664143E+01  0.00000000000E+00 0. -1.
</event>
<event>
 7    1  0.1813014E-010  0.4778728E+02  0.7816164E-02  0.1312668E+00
        -11   -1    0    0    0    0  0.00000000000E+00  0.00000000000E+00  0.45593999997E+02  0.45594000000E+02  0.51100000000E-03 0.  1.
         11   -1    0    0    0    0 -0.00000000000E+00 -0.00000000000E+00 -0.45593999997E+02  0.45594000000E+02  0.51100000000E-03 0. -1.
    9900012    2    1    2    0    0 -0.43166172374E+02  0.30102004246E+01  0.33530795732E+01  0.47787275506E+02  0.20000020342E+02 0.  0.
         12    1    1    2    0    0  0.43166172374E+02 -0.30102004246E+01 -0.33530795732E+01  0.43400724494E+02  0.00000000000E+00 0. -1.
         11    1    3    3    0    0 -0.90672287027E+01  0.19586552744E+01 -0.48174798854E+01  0.10452706804E+02  0.51100000000E-03 0. -1.
        -11    1    3    3    0    0 -0.36274948955E+01 -0.13968744218E+01  0.53806390960E+01  0.66378652223E+01  0.51100000000E-03 0.  1.
        -12    1    3    3    0    0 -0.30471448775E+02  0.24484195720E+01  0.27899203626E+01  0.30696703479E+02  0.00000000000E+00 0.  1.
</event>
<event>
 7    1  0.1813014E-010  0.4778727E+02  0.7816164E-02  0.1312668E+00
        -11   -1    0    0    0    0  0.00000000000E+00  0.00000000000E+00  0.45593999997E+02  0.45594000000E+02  0.51100000000E-03 0.  1.
         11   -1    0    0    0    0 -0.00000000000E+00 -0.00000000000E+00 -0.45593999997E+02  0.45594000000E+02  0.51100000000E-03 0. -1.
    9900012    2    1    2    0    0  0.25256404380E+02  0.18143807460E+02  0.30274402145E+02  0.47787272626E+02  0.20000007212E+02 0.  0.
         12    1    1    2    0    0 -0.25256404380E+02 -0.18143807460E+02 -0.30274402145E+02  0.43400727374E+02  0.00000000000E+00 0. -1.
         11    1    3    3    0    0  0.48700298510E+01  0.29553734087E+01  0.13200035265E+00  0.56981441794E+01  0.51100000000E-03 0. -1.
        -11    1    3    3    0    0  0.48584426969E+01  0.12239659202E+00  0.14768166012E+02  0.15547288317E+02  0.51100000000E-03 0.  1.
        -12    1    3    3    0    0  0.15527931832E+02  0.15066037459E+02  0.15374235780E+02  0.26541840130E+02  0.00000000000E+00 0.  1.
</event>
<event>
 7    1  0.1813014E-010  0.4778728E+02  0.7816164E-02  0.1312668E+00
        -11   -1    0    0    0    0  0.00000000000E+00  0.00000000000E+00  0.45593999997E+02  0.45594000000E+02  0.51100000000E-03 0.  1.
         11   -1    0    0    0    0 -0.00000000000E+00 -0.00000000000E+00 -0.45593999997E+02  0.45594000000E+02  0.51100000000E-03 0. -1.
    9900012    2    1    2    0    0  0.93033962831E+01  0.26123846905E+01  0.42311288981E+02  0.47787275220E+02  0.20000019038E+02 0.  0.
         12    1    1    2    0    0 -0.93033962831E+01 -0.26123846905E+01 -0.42311288981E+02  0.43400724780E+02  0.00000000000E+00 0. -1.
         11    1    3    3    0    0  0.14157455639E+01 -0.72553605571E+00 -0.55094017884E+00  0.16835300448E+01  0.51100000000E-03 0. -1.
        -11    1    3    3    0    0  0.69377262572E+01 -0.38413029344E+01  0.32554139027E+02  0.33506113202E+02  0.51100000000E-03 0.  1.
         12    1    3    3    0    0  0.94992446201E+00  0.71792236806E+01  0.10308090133E+02  0.12597631973E+02  0.00000000000E+00 0. -1.
</event>
<event>
 7    1  0.1813014E-010  0.4778727E+02  0.7816164E-02  0.1312668E+00
        -11   -1    0    0    0    0  0.00000000000E+00  0.00000000000E+00  0.45593999997E+02  0.45594000000E+02  0.51100000000E-03 0.  1.
         11   -1    0    0    0    0 -0.00000000000E+00 -0.00000000000E+00 -0.45593999997E+02  0.45594000000E+02  0.51100000000E-03 0. -1.
    9900012    2    1    2    0    0  0.37801306700E+01  0.18962162827E+02  0.38855762611E+02  0.47787270801E+02  0.19999998891E+02 0.  0.
         12    1    1    2    0    0 -0.37801306700E+01 -0.18962162827E+02 -0.38855762611E+02  0.43400729199E+02  0.00000000000E+00 0. -1.
         11    1    3    3    0    0 -0.31619218273E+01  0.13619314153E+01  0.66084027933E+00  0.35056122088E+01  0.51100000000E-03 0. -1.
        -11    1    3    3    0    0 -0.11328039558E+01  0.96033024732E+01  0.25346045056E+02  0.27128005150E+02  0.51100000000E-03 0.  1.
        -12    1    3    3    0    0  0.80748564531E+01  0.79969289380E+01  0.12848877275E+02  0.17153653442E+02  0.00000000000E+00 0.  1.
</event>
<event>
 7    1  0.1813014E-010  0.4778727E+02  0.7816164E-02  0.1312668E+00
        -11   -1    0    0    0    0  0.00000000000E+00  0.00000000000E+00  0.45593999997E+02  0.45594000000E+02  0.51100000000E-03 0. -1.
         11   -1    0    0    0    0 -0.00000000000E+00 -0.00000000000E+00 -0.45593999997E+02  0.45594000000E+02  0.51100000000E-03 0.  1.
    9900012    2    1    2    0    0  0.42503875858E+02 -0.33054211660E+01  0.81313056267E+01  0.47787269555E+02  0.19999993207E+02 0.  0.
         12    1    1    2    0    0 -0.42503875858E+02  0.33054211660E+01 -0.81313056267E+01  0.43400730445E+02  0.00000000000E+00 0. -1.
         11    1    3    3    0    0  0.36072815679E+01  0.77045059615E+00  0.57114166308E+01  0.67989965894E+01  0.51100000000E-03 0. -1.
        -11    1    3    3    0    0  0.26249607620E+02 -0.65274723022E+01  0.58127696328E+01  0.27666551753E+02  0.51100000000E-03 0.  1.
         12    1    3    3    0    0  0.12646986670E+02  0.24516005401E+01 -0.33928806369E+01  0.13321721212E+02  0.00000000000E+00 0. -1.
</event>
<event>
 7    1  0.1813014E-010  0.4778727E+02  0.7816164E-02  0.1312668E+00
        -11   -1    0    0    0    0  0.00000000000E+00  0.00000000000E+00  0.45593999997E+02  0.45594000000E+02  0.51100000000E-03 0. -1.
         11   -1    0    0    0    0 -0.00000000000E+00 -0.00000000000E+00 -0.45593999997E+02  0.45594000000E+02  0.51100000000E-03 0.  1.
    9900012    2    1    2    0    0 -0.26723661372E+02 -0.14223532414E+02 -0.31099202679E+02  0.47787270067E+02  0.19999995543E+02 0.  0.
         12    1    1    2    0    0  0.26723661372E+02  0.14223532414E+02  0.31099202679E+02  0.43400729933E+02  0.00000000000E+00 0. -1.
         11    1    3    3    0    0 -0.13682322646E+02 -0.10839759529E+02 -0.10056999386E+02  0.20145708639E+02  0.51100000000E-03 0. -1.
        -11    1    3    3    0    0 -0.25382593183E+01 -0.56190274981E+01 -0.35455574403E+01  0.71124685036E+01  0.51100000000E-03 0.  1.
         12    1    3    3    0    0 -0.10503079408E+02  0.22352546132E+01 -0.17496645852E+02  0.20529092925E+02  0.00000000000E+00 0. -1.
</event>
<event>
 7    1  0.1813014E-010  0.4778726E+02  0.7816164E-02  0.1312668E+00
        -11   -1    0    0    0    0  0.00000000000E+00  0.00000000000E+00  0.45593999997E+02  0.45594000000E+02  0.51100000000E-03 0. -1.
         11   -1    0    0    0    0 -0.00000000000E+00 -0.00000000000E+00 -0.45593999997E+02  0.45594000000E+02  0.51100000000E-03 0.  1.
    9900012    2    1    2    0    0 -0.28970821646E+02  0.29842932805E+02  0.12398180312E+02  0.47787262445E+02  0.19999960791E+02 0.  0.
         12    1    1    2    0    0  0.28970821646E+02 -0.29842932805E+02 -0.12398180312E+02  0.43400737555E+02  0.00000000000E+00 0. -1.
         11    1    3    3    0    0 -0.79399951798E+01  0.87080374237E+01  0.10973475877E+02  0.16102503293E+02  0.51100000000E-03 0. -1.
        -11    1    3    3    0    0 -0.19250379214E+02  0.14989128354E+02  0.41174431277E+01  0.24742764738E+02  0.51100000000E-03 0.  1.
        -12    1    3    3    0    0 -0.17804472526E+01  0.61457670279E+01 -0.26927386926E+01  0.69419944142E+01  0.00000000000E+00 0.  1.
</event>
<event>
 7    1  0.1813014E-010  0.4778727E+02  0.7816164E-02  0.1312668E+00
        -11   -1    0    0    0    0  0.00000000000E+00  0.00000000000E+00  0.45593999997E+02  0.45594000000E+02  0.51100000000E-03 0. -1.
         11   -1    0    0    0    0 -0.00000000000E+00 -0.00000000000E+00 -0.45593999997E+02  0.45594000000E+02  0.51100000000E-03 0.  1.
    9900012    2    1    2    0    0 -0.39516203300E+02 -0.17945029094E+02 -0.26250733352E+00  0.47787270714E+02  0.19999998495E+02 0.  0.
         12    1    1    2    0    0  0.39516203300E+02  0.17945029094E+02  0.26250733352E+00  0.43400729286E+02  0.00000000000E+00 0. -1.
         11    1    3    3    0    0 -0.22460884861E+01  0.11134278982E+01 -0.36140948511E+01  0.43984448418E+01  0.51100000000E-03 0. -1.
        -11    1    3    3    0    0 -0.23145606387E+02 -0.11303533786E+02 -0.32758544347E+01  0.25965750396E+02  0.51100000000E-03 0.  1.
         12    1    3    3    0    0 -0.14124508427E+02 -0.77549232056E+01  0.66274419524E+01  0.17423075476E+02  0.00000000000E+00 0. -1.
</event>
<event>
 7    1  0.1813014E-010  0.4778726E+02  0.7816164E-02  0.1312668E+00
        -11   -1    0    0    0    0  0.00000000000E+00  0.00000000000E+00  0.45593999997E+02  0.45594000000E+02  0.51100000000E-03 0.  1.
         11   -1    0    0    0    0 -0.00000000000E+00 -0.00000000000E+00 -0.45593999997E+02  0.45594000000E+02  0.51100000000E-03 0. -1.
    9900012    2    1    2    0    0 -0.35124407994E+02 -0.24437644688E+02  0.72595709010E+01  0.47787264010E+02  0.19999967926E+02 0.  0.
         12    1    1    2    0    0  0.35124407994E+02  0.24437644688E+02 -0.72595709010E+01  0.43400735990E+02  0.00000000000E+00 0. -1.
         11    1    3    3    0    0 -0.19713842131E+02 -0.13794573522E+02 -0.44801912316E+01  0.24474434497E+02  0.51100000000E-03 0. -1.
        -11    1    3    3    0    0 -0.10399285399E+02 -0.10200144284E+02  0.62045766102E+01  0.15833030392E+02  0.51100000000E-03 0.  1.
         12    1    3    3    0    0 -0.50112804644E+01 -0.44292688132E+00  0.55351855224E+01  0.74797991205E+01  0.00000000000E+00 0. -1.
</event>
<event>
 7    1  0.1813014E-010  0.4778727E+02  0.7816164E-02  0.1312668E+00
        -11   -1    0    0    0    0  0.00000000000E+00  0.00000000000E+00  0.45593999997E+02  0.45594000000E+02  0.51100000000E-03 0.  1.
         11   -1    0    0    0    0 -0.00000000000E+00 -0.00000000000E+00 -0.45593999997E+02  0.45594000000E+02  0.51100000000E-03 0. -1.
    9900012    2    1    2    0    0 -0.73995744212E+01  0.35559323588E+01  0.42617191395E+02  0.47787270064E+02  0.19999995531E+02 0.  0.
         12    1    1    2    0    0  0.73995744212E+01 -0.35559323588E+01 -0.42617191395E+02  0.43400729936E+02  0.00000000000E+00 0. -1.
         11    1    3    3    0    0 -0.16844590106E+01  0.64070427116E+00 -0.56953734753E+00  0.18900468706E+01  0.51100000000E-03 0. -1.
        -11    1    3    3    0    0 -0.76412888136E+01  0.68504650046E+01  0.36400743274E+02  0.37819733958E+02  0.51100000000E-03 0.  1.
        -12    1    3    3    0    0  0.19261734030E+01 -0.39352369169E+01  0.67859854688E+01  0.80774892358E+01  0.00000000000E+00 0.  1.
</event>
<event>
 7    1  0.1813014E-010  0.4778727E+02  0.7816164E-02  0.1312668E+00
        -11   -1    0    0    0    0  0.00000000000E+00  0.00000000000E+00  0.45593999997E+02  0.45594000000E+02  0.51100000000E-03 0.  1.
         11   -1    0    0    0    0 -0.00000000000E+00 -0.00000000000E+00 -0.45593999997E+02  0.45594000000E+02  0.51100000000E-03 0. -1.
    9900012    2    1    2    0    0 -0.13744652815E+02 -0.35033674448E+01  0.41017486294E+02  0.47787271362E+02  0.20000001447E+02 0.  0.
         12    1    1    2    0    0  0.13744652815E+02  0.35033674448E+01 -0.41017486294E+02  0.43400728638E+02  0.00000000000E+00 0. -1.
         11    1    3    3    0    0 -0.75539751036E+01  0.10640334722E+01  0.72345809805E+01  0.10513508897E+02  0.51100000000E-03 0. -1.
        -11    1    3    3    0    0 -0.71862439167E+01 -0.58896441645E+01  0.10864679677E+02  0.14295848165E+02  0.51100000000E-03 0.  1.
        -12    1    3    3    0    0  0.99556620499E+00  0.13222432475E+01  0.22918225636E+02  0.22977914300E+02  0.00000000000E+00 0.  1.
</event>
<event>
 7    1  0.1813014E-010  0.4778727E+02  0.7816164E-02  0.1312668E+00
        -11   -1    0    0    0    0  0.00000000000E+00  0.00000000000E+00  0.45593999997E+02  0.45594000000E+02  0.51100000000E-03 0.  1.
         11   -1    0    0    0    0 -0.00000000000E+00 -0.00000000000E+00 -0.45593999997E+02  0.45594000000E+02  0.51100000000E-03 0. -1.
    9900012    2    1    2    0    0 -0.27142116772E+02 -0.18699210096E+02  0.28235943182E+02  0.47787269033E+02  0.19999990829E+02 0.  0.
         12    1    1    2    0    0  0.27142116772E+02  0.18699210096E+02 -0.28235943182E+02  0.43400730967E+02  0.00000000000E+00 0. -1.
         11    1    3    3    0    0 -0.16005524313E+02 -0.15859857667E+02  0.17384033809E+02  0.28459032406E+02  0.51100000000E-03 0. -1.
        -11    1    3    3    0    0  0.12364110333E+01 -0.29560406408E+01  0.60101099335E+00  0.32600771446E+01  0.51100000000E-03 0.  1.
         12    1    3    3    0    0 -0.12373003493E+02  0.11668821139E+00  0.10250898380E+02  0.16068159483E+02  0.00000000000E+00 0. -1.
</event>
<event>
 7    1  0.1813014E-010  0.4778727E+02  0.7816164E-02  0.1312668E+00
        -11   -1    0    0    0    0  0.00000000000E+00  0.00000000000E+00  0.45593999997E+02  0.45594000000E+02  0.51100000000E-03 0. -1.
         11   -1    0    0    0    0 -0.00000000000E+00 -0.00000000000E+00 -0.45593999997E+02  0.45594000000E+02  0.51100000000E-03 0.  1.
    9900012    2    1    2    0    0  0.27309199802E+02 -0.31968399361E+02  0.10763456146E+02  0.47787274894E+02  0.20000017553E+02 0.  0.
         12    1    1    2    0    0 -0.27309199802E+02  0.31968399361E+02 -0.10763456146E+02  0.43400725106E+02  0.00000000000E+00 0. -1.
         11    1    3    3    0    0  0.53473841889E+01 -0.74558498492E+01  0.62575317632E+01  0.11105895671E+02  0.51100000000E-03 0. -1.
        -11    1    3    3    0    0  0.14394083698E+02 -0.54585302788E+01 -0.10800354246E+01  0.15432163655E+02  0.51100000000E-03 0.  1.
        -12    1    3    3    0    0  0.75677319149E+01 -0.19054019233E+02  0.55859598076E+01  0.21249215568E+02  0.00000000000E+00 0.  1.
</event>
<event>
 7    1  0.1813014E-010  0.4778728E+02  0.7816164E-02  0.1312668E+00
        -11   -1    0    0    0    0  0.00000000000E+00  0.00000000000E+00  0.45593999997E+02  0.45594000000E+02  0.51100000000E-03 0.  1.
         11   -1    0    0    0    0 -0.00000000000E+00 -0.00000000000E+00 -0.45593999997E+02  0.45594000000E+02  0.51100000000E-03 0. -1.
    9900012    2    1    2    0    0 -0.30735438829E+02  0.23042241563E+02  0.20199269350E+02  0.47787279055E+02  0.20000036525E+02 0.  0.
         12    1    1    2    0    0  0.30735438829E+02 -0.23042241563E+02 -0.20199269350E+02  0.43400720945E+02  0.00000000000E+00 0. -1.
         11    1    3    3    0    0 -0.61758905729E+01 -0.21761803490E+00  0.92934391851E+01  0.11160510478E+02  0.51100000000E-03 0. -1.
        -11    1    3    3    0    0 -0.23829135562E+02  0.23620957517E+02  0.11655660997E+02  0.35519456206E+02  0.51100000000E-03 0.  1.
        -12    1    3    3    0    0 -0.73041269402E+00 -0.36109791949E+00 -0.74983083168E+00  0.11073123711E+01  0.00000000000E+00 0.  1.
</event>
<event>
 7    1  0.1813014E-010  0.4778727E+02  0.7816164E-02  0.1312668E+00
        -11   -1    0    0    0    0  0.00000000000E+00  0.00000000000E+00  0.45593999997E+02  0.45594000000E+02  0.51100000000E-03 0. -1.
         11   -1    0    0    0    0 -0.00000000000E+00 -0.00000000000E+00 -0.45593999997E+02  0.45594000000E+02  0.51100000000E-03 0.  1.
    9900012    2    1    2    0    0  0.32271278462E+02 -0.26588041898E+02  0.11630302919E+02  0.47787270380E+02  0.19999996971E+02 0.  0.
         12    1    1    2    0    0 -0.32271278462E+02  0.26588041898E+02 -0.11630302919E+02  0.43400729620E+02  0.00000000000E+00 0. -1.
         11    1    3    3    0    0  0.64391339570E+01  0.67450319213E+00 -0.26141400055E+01  0.69822008638E+01  0.51100000000E-03 0. -1.
        -11    1    3    3    0    0  0.10296555961E+02 -0.16051362091E+02  0.66478520949E+01  0.20195524934E+02  0.51100000000E-03 0.  1.
        -12    1    3    3    0    0  0.15535588544E+02 -0.11211183000E+02  0.75965908301E+01  0.20609544582E+02  0.00000000000E+00 0.  1.
</event>
<event>
 7    1  0.1813014E-010  0.4778728E+02  0.7816164E-02  0.1312668E+00
        -11   -1    0    0    0    0  0.00000000000E+00  0.00000000000E+00  0.45593999997E+02  0.45594000000E+02  0.51100000000E-03 0. -1.
         11   -1    0    0    0    0 -0.00000000000E+00 -0.00000000000E+00 -0.45593999997E+02  0.45594000000E+02  0.51100000000E-03 0.  1.
    9900012    2    1    2    0    0 -0.30534651728E+02 -0.30075818572E+02  0.68339507552E+01  0.47787277635E+02  0.20000030048E+02 0.  0.
         12    1    1    2    0    0  0.30534651728E+02  0.30075818572E+02 -0.68339507552E+01  0.43400722365E+02  0.00000000000E+00 0. -1.
         11    1    3    3    0    0 -0.17406839305E+01 -0.60512268810E+01  0.10790746002E+01  0.63884058704E+01  0.51100000000E-03 0. -1.
        -11    1    3    3    0    0 -0.29084170091E+02 -0.17880058656E+02  0.76007295269E+01  0.34976514078E+02  0.51100000000E-03 0.  1.
        -12    1    3    3    0    0  0.29020229401E+00 -0.61445330347E+01 -0.18458533718E+01  0.64223576867E+01  0.00000000000E+00 0.  1.
</event>
<event>
 7    1  0.1813014E-010  0.4778727E+02  0.7816164E-02  0.1312668E+00
        -11   -1    0    0    0    0  0.00000000000E+00  0.00000000000E+00  0.45593999997E+02  0.45594000000E+02  0.51100000000E-03 0.  1.
         11   -1    0    0    0    0 -0.00000000000E+00 -0.00000000000E+00 -0.45593999997E+02  0.45594000000E+02  0.51100000000E-03 0. -1.
    9900012    2    1    2    0    0 -0.30959118908E+02 -0.37733079322E+01  0.30181422955E+02  0.47787272035E+02  0.20000004516E+02 0.  0.
         12    1    1    2    0    0  0.30959118908E+02  0.37733079322E+01 -0.30181422955E+02  0.43400727965E+02  0.00000000000E+00 0. -1.
         11    1    3    3    0    0 -0.30074770513E+01 -0.13760394528E+01 -0.17573873825E+01  0.37452387726E+01  0.51100000000E-03 0. -1.
        -11    1    3    3    0    0 -0.21873038543E+02 -0.42358578259E+01  0.17711505031E+02  0.28461723724E+02  0.51100000000E-03 0.  1.
        -12    1    3    3    0    0 -0.60786033138E+01  0.18385893465E+01  0.14227305306E+02  0.15580309538E+02  0.00000000000E+00 0.  1.
</event>
<event>
 7    1  0.1813014E-010  0.4778726E+02  0.7816164E-02  0.1312668E+00
        -11   -1    0    0    0    0  0.00000000000E+00  0.00000000000E+00  0.45593999997E+02  0.45594000000E+02  0.51100000000E-03 0.  1.
         11   -1    0    0    0    0 -0.00000000000E+00 -0.00000000000E+00 -0.45593999997E+02  0.45594000000E+02  0.51100000000E-03 0. -1.
    9900012    2    1    2    0    0  0.34493207342E+02  0.12263598380E+02  0.23311952134E+02  0.47787259105E+02  0.19999945561E+02 0.  0.
         12    1    1    2    0    0 -0.34493207342E+02 -0.12263598380E+02 -0.23311952134E+02  0.43400740895E+02  0.00000000000E+00 0. -1.
         11    1    3    3    0    0  0.24877586911E+02  0.74580601943E+01  0.19091388785E+02  0.32233493736E+02  0.51100000000E-03 0.  1.
        -11    1    3    3    0    0  0.81934449104E+01 -0.72841681448E+00 -0.35545780751E+00  0.82334367715E+01  0.51100000000E-03 0. -1.
         12    1    3    3    0    0  0.14221755207E+01  0.55339550003E+01  0.45760211560E+01  0.73203285976E+01  0.00000000000E+00 0. -1.
</event>
<event>
 7    1  0.1813014E-010  0.4778727E+02  0.7816164E-02  0.1312668E+00
        -11   -1    0    0    0    0  0.00000000000E+00  0.00000000000E+00  0.45593999997E+02  0.45594000000E+02  0.51100000000E-03 0.  1.
         11   -1    0    0    0    0 -0.00000000000E+00 -0.00000000000E+00 -0.45593999997E+02  0.45594000000E+02  0.51100000000E-03 0. -1.
    9900012    2    1    2    0    0 -0.30988095123E+02 -0.29528766895E+02  0.71702875827E+01  0.47787272613E+02  0.20000007151E+02 0.  0.
         12    1    1    2    0    0  0.30988095123E+02  0.29528766895E+02 -0.71702875827E+01  0.43400727387E+02  0.00000000000E+00 0. -1.
         11    1    3    3    0    0 -0.31611875938E+01 -0.11101967291E+02  0.57369618061E+01  0.12890287653E+02  0.51100000000E-03 0. -1.
        -11    1    3    3    0    0 -0.19845803782E+02 -0.14267179459E+02  0.54486226058E+01  0.25041881439E+02  0.51100000000E-03 0.  1.
        -12    1    3    3    0    0 -0.79811037479E+01 -0.41596201450E+01 -0.40152968292E+01  0.98551035212E+01  0.00000000000E+00 0.  1.
</event>
<event>
 7    1  0.1813014E-010  0.4778729E+02  0.7816164E-02  0.1312668E+00
        -11   -1    0    0    0    0  0.00000000000E+00  0.00000000000E+00  0.45593999997E+02  0.45594000000E+02  0.51100000000E-03 0.  1.
         11   -1    0    0    0    0 -0.00000000000E+00 -0.00000000000E+00 -0.45593999997E+02  0.45594000000E+02  0.51100000000E-03 0. -1.
    9900012    2    1    2    0    0 -0.17503843522E+02 -0.19543880887E+02  0.34572736376E+02  0.47787286657E+02  0.20000071184E+02 0.  0.
         12    1    1    2    0    0  0.17503843522E+02  0.19543880887E+02 -0.34572736376E+02  0.43400713343E+02  0.00000000000E+00 0. -1.
         11    1    3    3    0    0 -0.93658270757E+01  0.51639633829E+00  0.10566962211E+02  0.14129616861E+02  0.51100000000E-03 0. -1.
        -11    1    3    3    0    0 -0.48524148729E+01 -0.13705211162E+02  0.21739567627E+02  0.26153155526E+02  0.51100000000E-03 0.  1.
        -12    1    3    3    0    0 -0.32856015735E+01 -0.63550660632E+01  0.22662065379E+01  0.75045142707E+01  0.00000000000E+00 0.  1.
</event>
<event>
 7    1  0.1813014E-010  0.4778727E+02  0.7816164E-02  0.1312668E+00
        -11   -1    0    0    0    0  0.00000000000E+00  0.00000000000E+00  0.45593999997E+02  0.45594000000E+02  0.51100000000E-03 0. -1.
         11   -1    0    0    0    0 -0.00000000000E+00 -0.00000000000E+00 -0.45593999997E+02  0.45594000000E+02  0.51100000000E-03 0.  1.
    9900012    2    1    2    0    0  0.41421098271E+02 -0.79545736396E+01 -0.10229405277E+02  0.47787270097E+02  0.19999995681E+02 0.  0.
         12    1    1    2    0    0 -0.41421098271E+02  0.79545736396E+01  0.10229405277E+02  0.43400729903E+02  0.00000000000E+00 0. -1.
         11    1    3    3    0    0  0.16421199801E+02  0.22190057152E+01 -0.21500492273E-01  0.16570463235E+02  0.51100000000E-03 0. -1.
        -11    1    3    3    0    0  0.22086238607E+00 -0.39351422017E+01 -0.11339749825E+01  0.41012222402E+01  0.51100000000E-03 0.  1.
         12    1    3    3    0    0  0.24779036084E+02 -0.62384371530E+01 -0.90739298020E+01  0.27115584622E+02  0.00000000000E+00 0. -1.
</event>
<event>
 7    1  0.1813014E-010  0.4778727E+02  0.7816164E-02  0.1312668E+00
        -11   -1    0    0    0    0  0.00000000000E+00  0.00000000000E+00  0.45593999997E+02  0.45594000000E+02  0.51100000000E-03 0. -1.
         11   -1    0    0    0    0 -0.00000000000E+00 -0.00000000000E+00 -0.45593999997E+02  0.45594000000E+02  0.51100000000E-03 0.  1.
    9900012    2    1    2    0    0  0.58292562993E+01  0.38745328461E+02  0.18666625938E+02  0.47787266936E+02  0.19999981270E+02 0.  0.
         12    1    1    2    0    0 -0.58292562993E+01 -0.38745328461E+02 -0.18666625938E+02  0.43400733064E+02  0.00000000000E+00 0. -1.
         11    1    3    3    0    0  0.64772632596E+01  0.21690634298E+01  0.56673097732E+01  0.88757070604E+01  0.51100000000E-03 0. -1.
        -11    1    3    3    0    0 -0.50046766223E+00  0.11966810897E+02  0.55366714317E+01  0.13195065810E+02  0.51100000000E-03 0.  1.
         12    1    3    3    0    0 -0.14753929805E+00  0.24609454134E+02  0.74626447329E+01  0.25716494066E+02  0.00000000000E+00 0. -1.
</event>
<event>
 7    1  0.2155135E-010  0.4778727E+02  0.7816164E-02  0.1312668E+00
        -11   -1    0    0    0    0  0.00000000000E+00  0.00000000000E+00  0.45593999997E+02  0.45594000000E+02  0.51100000000E-03 0. -1.
         11   -1    0    0    0    0 -0.00000000000E+00 -0.00000000000E+00 -0.45593999997E+02  0.45594000000E+02  0.51100000000E-03 0.  1.
    9900012    2    1    2    0    0  0.70824033597E+01  0.80725460313E+00 -0.42811342301E+02  0.47787272737E+02  0.20000007717E+02 0.  0.
         12    1    1    2    0    0 -0.70824033597E+01 -0.80725460313E+00  0.42811342301E+02  0.43400727263E+02  0.00000000000E+00 0. -1.
         11    1    3    3    0    0  0.26725633037E+01  0.79566875635E+01 -0.81641820552E+01  0.11709198969E+02  0.51100000000E-03 0. -1.
        -11    1    3    3    0    0  0.27928457323E+01 -0.36836461833E+01 -0.87121168544E+01  0.98625664425E+01  0.51100000000E-03 0.  1.
         12    1    3    3    0    0  0.16169943237E+01 -0.34657867771E+01 -0.25935043391E+02  0.26215507326E+02  0.00000000000E+00 0. -1.
</event>
<event>
 7    1  0.1813014E-010  0.4778727E+02  0.7816164E-02  0.1312668E+00
        -11   -1    0    0    0    0  0.00000000000E+00  0.00000000000E+00  0.45593999997E+02  0.45594000000E+02  0.51100000000E-03 0.  1.
         11   -1    0    0    0    0 -0.00000000000E+00 -0.00000000000E+00 -0.45593999997E+02  0.45594000000E+02  0.51100000000E-03 0. -1.
    9900012    2    1    2    0    0 -0.35302418616E+02  0.13344917717E+02  0.21430718745E+02  0.47787270802E+02  0.19999998895E+02 0.  0.
         12    1    1    2    0    0  0.35302418616E+02 -0.13344917717E+02 -0.21430718745E+02  0.43400729198E+02  0.00000000000E+00 0. -1.
         11    1    3    3    0    0 -0.57640157970E+01  0.69706069010E+01  0.11145720676E+02  0.14354104930E+02  0.51100000000E-03 0. -1.
        -11    1    3    3    0    0 -0.24351796095E+02  0.85386240095E+01  0.10373601458E+02  0.27812401559E+02  0.51100000000E-03 0.  1.
        -12    1    3    3    0    0 -0.51866067234E+01 -0.21643131935E+01 -0.88603389185E-01  0.56207643132E+01  0.00000000000E+00 0.  1.
</event>
<event>
 7    1  0.1813014E-010  0.4778727E+02  0.7816164E-02  0.1312668E+00
        -11   -1    0    0    0    0  0.00000000000E+00  0.00000000000E+00  0.45593999997E+02  0.45594000000E+02  0.51100000000E-03 0.  1.
         11   -1    0    0    0    0 -0.00000000000E+00 -0.00000000000E+00 -0.45593999997E+02  0.45594000000E+02  0.51100000000E-03 0. -1.
    9900012    2    1    2    0    0  0.27029788685E+02 -0.96665793257E+01  0.32551054341E+02  0.47787269926E+02  0.19999994902E+02 0.  0.
         12    1    1    2    0    0 -0.27029788685E+02  0.96665793257E+01 -0.32551054341E+02  0.43400730074E+02  0.00000000000E+00 0. -1.
         11    1    3    3    0    0  0.32498247317E+01 -0.13495890036E+01  0.14329934831E+02  0.14755669547E+02  0.51100000000E-03 0. -1.
        -11    1    3    3    0    0  0.21233378919E+02 -0.46416497954E+01  0.18513253535E+02  0.28550689131E+02  0.51100000000E-03 0.  1.
         12    1    3    3    0    0  0.25465850336E+01 -0.36753405267E+01 -0.29213402474E+00  0.44809112476E+01  0.00000000000E+00 0. -1.
</event>
<event>
 7    1  0.1813014E-010  0.4778727E+02  0.7816164E-02  0.1312668E+00
        -11   -1    0    0    0    0  0.00000000000E+00  0.00000000000E+00  0.45593999997E+02  0.45594000000E+02  0.51100000000E-03 0. -1.
         11   -1    0    0    0    0 -0.00000000000E+00 -0.00000000000E+00 -0.45593999997E+02  0.45594000000E+02  0.51100000000E-03 0.  1.
    9900012    2    1    2    0    0  0.33158153296E+02  0.24084769305E+02  0.14285798821E+02  0.47787270853E+02  0.19999999129E+02 0.  0.
         12    1    1    2    0    0 -0.33158153296E+02 -0.24084769305E+02 -0.14285798821E+02  0.43400729147E+02  0.00000000000E+00 0. -1.
         11    1    3    3    0    0  0.23727609845E+02  0.13775771077E+02  0.97211536899E+01  0.29107939931E+02  0.51100000000E-03 0. -1.
        -11    1    3    3    0    0  0.99283218671E+01  0.11381143485E+02  0.12435644482E+01  0.15154156358E+02  0.51100000000E-03 0.  1.
         12    1    3    3    0    0 -0.49777841575E+00 -0.10721452571E+01  0.33210806830E+01  0.35251745640E+01  0.00000000000E+00 0. -1.
</event>
<event>
 7    1  0.1813014E-010  0.4778727E+02  0.7816164E-02  0.1312668E+00
        -11   -1    0    0    0    0  0.00000000000E+00  0.00000000000E+00  0.45593999997E+02  0.45594000000E+02  0.51100000000E-03 0. -1.
         11   -1    0    0    0    0 -0.00000000000E+00 -0.00000000000E+00 -0.45593999997E+02  0.45594000000E+02  0.51100000000E-03 0.  1.
    9900012    2    1    2    0    0 -0.29049783137E+02 -0.28212979128E+02  0.15612854649E+02  0.47787270492E+02  0.19999997479E+02 0.  0.
         12    1    1    2    0    0  0.29049783137E+02  0.28212979128E+02 -0.15612854649E+02  0.43400729508E+02  0.00000000000E+00 0. -1.
         11    1    3    3    0    0 -0.11833143981E+02 -0.79557456613E+01 -0.19752693214E+01  0.14395098981E+02  0.51100000000E-03 0. -1.
        -11    1    3    3    0    0 -0.99382742448E+01 -0.55226176515E+01  0.39504648259E+01  0.12036393700E+02  0.51100000000E-03 0.  1.
         12    1    3    3    0    0 -0.72783649110E+01 -0.14734615815E+02  0.13637659144E+02  0.21355777811E+02  0.00000000000E+00 0. -1.
</event>
<event>
 7    1  0.1813014E-010  0.4778729E+02  0.7816164E-02  0.1312668E+00
        -11   -1    0    0    0    0  0.00000000000E+00  0.00000000000E+00  0.45593999997E+02  0.45594000000E+02  0.51100000000E-03 0.  1.
         11   -1    0    0    0    0 -0.00000000000E+00 -0.00000000000E+00 -0.45593999997E+02  0.45594000000E+02  0.51100000000E-03 0. -1.
    9900012    2    1    2    0    0  0.31382196334E+02 -0.85316323007E+01  0.28740060115E+02  0.47787285122E+02  0.20000064186E+02 0.  0.
         12    1    1    2    0    0 -0.31382196334E+02  0.85316323007E+01 -0.28740060115E+02  0.43400714878E+02  0.00000000000E+00 0. -1.
         11    1    3    3    0    0  0.38364447194E+01 -0.27660796857E+00  0.92582483818E+01  0.10025466743E+02  0.51100000000E-03 0. -1.
        -11    1    3    3    0    0  0.65558055710E+01 -0.61163957400E+01 -0.11427273607E+00  0.89667130016E+01  0.51100000000E-03 0.  1.
         12    1    3    3    0    0  0.20989946044E+02 -0.21386285921E+01  0.19596084469E+02  0.28795105378E+02  0.00000000000E+00 0. -1.
</event>
<event>
 7    1  0.1813014E-010  0.4778727E+02  0.7816164E-02  0.1312668E+00
        -11   -1    0    0    0    0  0.00000000000E+00  0.00000000000E+00  0.45593999997E+02  0.45594000000E+02  0.51100000000E-03 0.  1.
         11   -1    0    0    0    0 -0.00000000000E+00 -0.00000000000E+00 -0.45593999997E+02  0.45594000000E+02  0.51100000000E-03 0. -1.
    9900012    2    1    2    0    0 -0.17369081237E+02  0.37384793628E+02  0.13576283327E+02  0.47787271359E+02  0.20000001433E+02 0.  0.
         12    1    1    2    0    0  0.17369081237E+02 -0.37384793628E+02 -0.13576283327E+02  0.43400728641E+02  0.00000000000E+00 0. -1.
         11    1    3    3    0    0 -0.44041167836E+01  0.43165208874E+01  0.31947577962E+01  0.69451475760E+01  0.51100000000E-03 0. -1.
        -11    1    3    3    0    0 -0.16611037759E+02  0.30197869784E+02  0.71813141880E+01  0.35205243767E+02  0.51100000000E-03 0.  1.
         12    1    3    3    0    0  0.36460733053E+01  0.28704029561E+01  0.32002113426E+01  0.56368800161E+01  0.00000000000E+00 0. -1.
</event>
<event>
 7    1  0.1813014E-010  0.4778727E+02  0.7816164E-02  0.1312668E+00
        -11   -1    0    0    0    0  0.00000000000E+00  0.00000000000E+00  0.45593999997E+02  0.45594000000E+02  0.51100000000E-03 0. -1.
         11   -1    0    0    0    0 -0.00000000000E+00 -0.00000000000E+00 -0.45593999997E+02  0.45594000000E+02  0.51100000000E-03 0.  1.
    9900012    2    1    2    0    0  0.11883816272E+02  0.25791318462E+02 -0.32820818342E+02  0.47787270585E+02  0.19999997904E+02 0.  0.
         12    1    1    2    0    0 -0.11883816272E+02 -0.25791318462E+02  0.32820818342E+02  0.43400729415E+02  0.00000000000E+00 0. -1.
         11    1    3    3    0    0 -0.16332659248E+01  0.43976287855E+01  0.20285601665E+00  0.46955135332E+01  0.51100000000E-03 0. -1.
        -11    1    3    3    0    0  0.99189933117E+01  0.56408477036E+01 -0.15611586735E+02  0.19337198137E+02  0.51100000000E-03 0.  1.
         12    1    3    3    0    0  0.35980888848E+01  0.15752841972E+02 -0.17412087623E+02  0.23754558914E+02  0.00000000000E+00 0. -1.
</event>
<event>
 7    1  0.1813014E-010  0.4778726E+02  0.7816164E-02  0.1312668E+00
        -11   -1    0    0    0    0  0.00000000000E+00  0.00000000000E+00  0.45593999997E+02  0.45594000000E+02  0.51100000000E-03 0. -1.
         11   -1    0    0    0    0 -0.00000000000E+00 -0.00000000000E+00 -0.45593999997E+02  0.45594000000E+02  0.51100000000E-03 0.  1.
    9900012    2    1    2    0    0 -0.36377995814E+02 -0.22584847132E+02  0.70845132499E+01  0.47787260060E+02  0.19999949917E+02 0.  0.
         12    1    1    2    0    0  0.36377995814E+02  0.22584847132E+02 -0.70845132499E+01  0.43400739940E+02  0.00000000000E+00 0. -1.
         11    1    3    3    0    0 -0.52796556845E+00 -0.43936003805E+00 -0.18671585491E+01  0.19894889276E+01  0.51100000000E-03 0. -1.
        -11    1    3    3    0    0 -0.22630083844E+02 -0.67466024431E+01 -0.44265956771E-02  0.23614346469E+02  0.51100000000E-03 0.  1.
         12    1    3    3    0    0 -0.13219946401E+02 -0.15398884650E+02  0.89560983947E+01  0.22183424663E+02  0.00000000000E+00 0. -1.
</event>
<event>
 7    1  0.1813014E-010  0.4778727E+02  0.7816164E-02  0.1312668E+00
        -11   -1    0    0    0    0  0.00000000000E+00  0.00000000000E+00  0.45593999997E+02  0.45594000000E+02  0.51100000000E-03 0.  1.
         11   -1    0    0    0    0 -0.00000000000E+00 -0.00000000000E+00 -0.45593999997E+02  0.45594000000E+02  0.51100000000E-03 0. -1.
    9900012    2    1    2    0    0  0.28589310304E+02 -0.32467927316E+02  0.34797099972E+01  0.47787270173E+02  0.19999996029E+02 0.  0.
         12    1    1    2    0    0 -0.28589310304E+02  0.32467927316E+02 -0.34797099972E+01  0.43400729827E+02  0.00000000000E+00 0. -1.
         11    1    3    3    0    0 -0.16166401028E+00  0.10397494223E+01  0.19504764014E+01  0.22162067970E+01  0.51100000000E-03 0. -1.
        -11    1    3    3    0    0  0.15813439389E+02 -0.17505118988E+02  0.63621206471E+01  0.24432982534E+02  0.51100000000E-03 0.  1.
        -12    1    3    3    0    0  0.12937534924E+02 -0.16002557750E+02 -0.48328870512E+01  0.21138080843E+02  0.00000000000E+00 0.  1.
</event>
<event>
 7    1  0.1813014E-010  0.4778727E+02  0.7816164E-02  0.1312668E+00
        -11   -1    0    0    0    0  0.00000000000E+00  0.00000000000E+00  0.45593999997E+02  0.45594000000E+02  0.51100000000E-03 0.  1.
         11   -1    0    0    0    0 -0.00000000000E+00 -0.00000000000E+00 -0.45593999997E+02  0.45594000000E+02  0.51100000000E-03 0. -1.
    9900012    2    1    2    0    0  0.17663876092E+01  0.17264494184E+02  0.39779900443E+02  0.47787270008E+02  0.19999995275E+02 0.  0.
         12    1    1    2    0    0 -0.17663876092E+01 -0.17264494184E+02 -0.39779900443E+02  0.43400729992E+02  0.00000000000E+00 0. -1.
         11    1    3    3    0    0  0.55405651967E+01  0.69897621687E+00  0.35443567048E+01  0.66142947593E+01  0.51100000000E-03 0. -1.
        -11    1    3    3    0    0  0.17705804011E+01  0.12392440211E+02  0.21351860313E+02  0.24750948839E+02  0.51100000000E-03 0.  1.
        -12    1    3    3    0    0 -0.55447579886E+01  0.41730777557E+01  0.14883683425E+02  0.16422026410E+02  0.00000000000E+00 0.  1.
</event>
<event>
 7    1  0.1813014E-010  0.4778727E+02  0.7816164E-02  0.1312668E+00
        -11   -1    0    0    0    0  0.00000000000E+00  0.00000000000E+00  0.45593999997E+02  0.45594000000E+02  0.51100000000E-03 0. -1.
         11   -1    0    0    0    0 -0.00000000000E+00 -0.00000000000E+00 -0.45593999997E+02  0.45594000000E+02  0.51100000000E-03 0.  1.
    9900012    2    1    2    0    0  0.17883324634E+01  0.43119916080E+02 -0.45932494690E+01  0.47787271476E+02  0.20000001967E+02 0.  0.
         12    1    1    2    0    0 -0.17883324634E+01 -0.43119916080E+02  0.45932494690E+01  0.43400728524E+02  0.00000000000E+00 0. -1.
         11    1    3    3    0    0 -0.21788526623E+01  0.13072589821E+02  0.63099771048E+00  0.13267937365E+02  0.51100000000E-03 0. -1.
        -11    1    3    3    0    0  0.99042229934E+01  0.15535827816E+02 -0.22577714997E+01  0.18562141887E+02  0.51100000000E-03 0.  1.
        -12    1    3    3    0    0 -0.59370378677E+01  0.14511498443E+02 -0.29664756798E+01  0.15957192224E+02  0.00000000000E+00 0.  1.
</event>
<event>
 7    1  0.1813014E-010  0.4778727E+02  0.7816164E-02  0.1312668E+00
        -11   -1    0    0    0    0  0.00000000000E+00  0.00000000000E+00  0.45593999997E+02  0.45594000000E+02  0.51100000000E-03 0. -1.
         11   -1    0    0    0    0 -0.00000000000E+00 -0.00000000000E+00 -0.45593999997E+02  0.45594000000E+02  0.51100000000E-03 0.  1.
    9900012    2    1    2    0    0 -0.10695575161E+02 -0.31405587261E+02 -0.27980656948E+02  0.47787269563E+02  0.19999993246E+02 0.  0.
         12    1    1    2    0    0  0.10695575161E+02  0.31405587261E+02  0.27980656948E+02  0.43400730437E+02  0.00000000000E+00 0. -1.
         11    1    3    3    0    0 -0.11141556298E+02 -0.20516773226E+02 -0.17337094225E+02  0.29080011980E+02  0.51100000000E-03 0.  1.
        -11    1    3    3    0    0 -0.64436645928E+00 -0.68192208273E+01  0.42620169630E+00  0.68628440877E+01  0.51100000000E-03 0. -1.
         12    1    3    3    0    0  0.10903475956E+01 -0.40695932077E+01 -0.11069764419E+02  0.11844413495E+02  0.00000000000E+00 0. -1.
</event>
<event>
 7    1  0.1813014E-010  0.4778728E+02  0.7816164E-02  0.1312668E+00
        -11   -1    0    0    0    0  0.00000000000E+00  0.00000000000E+00  0.45593999997E+02  0.45594000000E+02  0.51100000000E-03 0. -1.
         11   -1    0    0    0    0 -0.00000000000E+00 -0.00000000000E+00 -0.45593999997E+02  0.45594000000E+02  0.51100000000E-03 0.  1.
    9900012    2    1    2    0    0 -0.41920957784E+02  0.73278715932E+01  0.85181274360E+01  0.47787275368E+02  0.20000019712E+02 0.  0.
         12    1    1    2    0    0  0.41920957784E+02 -0.73278715932E+01 -0.85181274360E+01  0.43400724632E+02  0.00000000000E+00 0. -1.
         11    1    3    3    0    0 -0.11183940165E+02  0.65478981587E+01  0.90878245910E+01  0.15828583132E+02  0.51100000000E-03 0. -1.
        -11    1    3    3    0    0 -0.13140897908E+02  0.42760267559E+01 -0.19938109972E+01  0.13962194856E+02  0.51100000000E-03 0.  1.
         12    1    3    3    0    0 -0.17596119710E+02 -0.34960533214E+01  0.14241138423E+01  0.17996497379E+02  0.00000000000E+00 0. -1.
</event>
<event>
 7    1  0.1954329E-010  0.4778727E+02  0.7816164E-02  0.1312668E+00
        -11   -1    0    0    0    0  0.00000000000E+00  0.00000000000E+00  0.45593999997E+02  0.45594000000E+02  0.51100000000E-03 0. -1.
         11   -1    0    0    0    0 -0.00000000000E+00 -0.00000000000E+00 -0.45593999997E+02  0.45594000000E+02  0.51100000000E-03 0.  1.
    9900012    2    1    2    0    0  0.71293938341E+00  0.31372732935E+02 -0.29981105171E+02  0.47787270494E+02  0.19999997491E+02 0.  0.
         12    1    1    2    0    0 -0.71293938341E+00 -0.31372732935E+02  0.29981105171E+02  0.43400729506E+02  0.00000000000E+00 0. -1.
         11    1    3    3    0    0 -0.78905872357E+01  0.10191989756E+02 -0.47811084762E+01  0.13747618726E+02  0.51100000000E-03 0. -1.
        -11    1    3    3    0    0  0.28531802580E+01  0.83234571352E+01 -0.97300305048E+01  0.13118462949E+02  0.51100000000E-03 0.  1.
         12    1    3    3    0    0  0.57503463611E+01  0.12857286044E+02 -0.15469966190E+02  0.20921188819E+02  0.00000000000E+00 0. -1.
</event>
<event>
 7    1  0.1813014E-010  0.4778727E+02  0.7816164E-02  0.1312668E+00
        -11   -1    0    0    0    0  0.00000000000E+00  0.00000000000E+00  0.45593999997E+02  0.45594000000E+02  0.51100000000E-03 0.  1.
         11   -1    0    0    0    0 -0.00000000000E+00 -0.00000000000E+00 -0.45593999997E+02  0.45594000000E+02  0.51100000000E-03 0. -1.
    9900012    2    1    2    0    0 -0.16322516390E+02 -0.98069326430E+01  0.39000294781E+02  0.47787268875E+02  0.19999990111E+02 0.  0.
         12    1    1    2    0    0  0.16322516390E+02  0.98069326430E+01 -0.39000294781E+02  0.43400731125E+02  0.00000000000E+00 0. -1.
         11    1    3    3    0    0 -0.32109189777E+01 -0.45425965535E+01  0.65280409663E+01  0.85767419949E+01  0.51100000000E-03 0. -1.
        -11    1    3    3    0    0 -0.91710780600E+01 -0.85940859576E+01  0.97415185079E+01  0.15901703347E+02  0.51100000000E-03 0.  1.
         12    1    3    3    0    0 -0.39405193519E+01  0.33297498681E+01  0.22730735307E+02  0.23308823534E+02  0.00000000000E+00 0. -1.
</event>
<event>
 7    1  0.1813014E-010  0.4778727E+02  0.7816164E-02  0.1312668E+00
        -11   -1    0    0    0    0  0.00000000000E+00  0.00000000000E+00  0.45593999997E+02  0.45594000000E+02  0.51100000000E-03 0.  1.
         11   -1    0    0    0    0 -0.00000000000E+00 -0.00000000000E+00 -0.45593999997E+02  0.45594000000E+02  0.51100000000E-03 0. -1.
    9900012    2    1    2    0    0 -0.15516079318E+02 -0.13507869911E+02  0.38215336525E+02  0.47787271749E+02  0.20000003214E+02 0.  0.
         12    1    1    2    0    0  0.15516079318E+02  0.13507869911E+02 -0.38215336525E+02  0.43400728251E+02  0.00000000000E+00 0. -1.
         11    1    3    3    0    0 -0.11572591607E+02 -0.68620343302E+01  0.10906318527E+02  0.17319358409E+02  0.51100000000E-03 0. -1.
        -11    1    3    3    0    0 -0.77392667122E+01 -0.32156579645E+01  0.16305675143E+02  0.18333350690E+02  0.51100000000E-03 0.  1.
         12    1    3    3    0    0  0.37957790011E+01 -0.34301776166E+01  0.11003342856E+02  0.12134562650E+02  0.00000000000E+00 0. -1.
</event>
<event>
 7    1  0.1813014E-010  0.4778727E+02  0.7816164E-02  0.1312668E+00
        -11   -1    0    0    0    0  0.00000000000E+00  0.00000000000E+00  0.45593999997E+02  0.45594000000E+02  0.51100000000E-03 0.  1.
         11   -1    0    0    0    0 -0.00000000000E+00 -0.00000000000E+00 -0.45593999997E+02  0.45594000000E+02  0.51100000000E-03 0. -1.
    9900012    2    1    2    0    0  0.37312428869E+02 -0.20625848010E+02  0.81228146705E+01  0.47787273365E+02  0.20000010581E+02 0.  0.
         12    1    1    2    0    0 -0.37312428869E+02  0.20625848010E+02 -0.81228146705E+01  0.43400726635E+02  0.00000000000E+00 0. -1.
         11    1    3    3    0    0  0.73914964674E+01  0.22885021643E+01 -0.57785987136E+00  0.77592128774E+01  0.51100000000E-03 0. -1.
        -11    1    3    3    0    0  0.14300852590E+02 -0.85958978325E+01  0.87451024922E+01  0.18838276519E+02  0.51100000000E-03 0.  1.
         12    1    3    3    0    0  0.15620079812E+02 -0.14318452342E+02 -0.44427950324E-01  0.21189783969E+02  0.00000000000E+00 0. -1.
</event>
<event>
 7    1  0.1813014E-010  0.4778728E+02  0.7816164E-02  0.1312668E+00
        -11   -1    0    0    0    0  0.00000000000E+00  0.00000000000E+00  0.45593999997E+02  0.45594000000E+02  0.51100000000E-03 0.  1.
         11   -1    0    0    0    0 -0.00000000000E+00 -0.00000000000E+00 -0.45593999997E+02  0.45594000000E+02  0.51100000000E-03 0. -1.
    9900012    2    1    2    0    0  0.25708898377E+02  0.34862595902E+02  0.26971830486E+01  0.47787275983E+02  0.20000022517E+02 0.  0.
         12    1    1    2    0    0 -0.25708898377E+02 -0.34862595902E+02 -0.26971830486E+01  0.43400724017E+02  0.00000000000E+00 0. -1.
         11    1    3    3    0    0  0.61726859220E+01  0.42771748691E+01  0.40190306340E+01  0.85175632578E+01  0.51100000000E-03 0. -1.
        -11    1    3    3    0    0 -0.31218157022E+00  0.12042132596E+02 -0.12098522645E+01  0.12106781470E+02  0.51100000000E-03 0.  1.
         12    1    3    3    0    0  0.19848394025E+02  0.18543288437E+02 -0.11199532090E+00  0.27162931256E+02  0.00000000000E+00 0. -1.
</event>
<event>
 7    1  0.1813014E-010  0.4778727E+02  0.7816164E-02  0.1312668E+00
        -11   -1    0    0    0    0  0.00000000000E+00  0.00000000000E+00  0.45593999997E+02  0.45594000000E+02  0.51100000000E-03 0. -1.
         11   -1    0    0    0    0 -0.00000000000E+00 -0.00000000000E+00 -0.45593999997E+02  0.45594000000E+02  0.51100000000E-03 0.  1.
    9900012    2    1    2    0    0  0.74419699283E+01  0.38313418784E+02  0.18982158207E+02  0.47787270680E+02  0.19999998340E+02 0.  0.
         12    1    1    2    0    0 -0.74419699283E+01 -0.38313418784E+02 -0.18982158207E+02  0.43400729320E+02  0.00000000000E+00 0. -1.
         11    1    3    3    0    0  0.18641323999E+00  0.12033226451E+02  0.55454486486E+01  0.13250859961E+02  0.51100000000E-03 0. -1.
        -11    1    3    3    0    0  0.18206053357E+01 -0.21519644288E+01  0.65937929318E+00  0.28948810001E+01  0.51100000000E-03 0.  1.
        -12    1    3    3    0    0  0.54349513526E+01  0.28432156761E+02  0.12777330265E+02  0.31641529719E+02  0.00000000000E+00 0.  1.
</event>
<event>
 7    1  0.1813014E-010  0.4778727E+02  0.7816164E-02  0.1312668E+00
        -11   -1    0    0    0    0  0.00000000000E+00  0.00000000000E+00  0.45593999997E+02  0.45594000000E+02  0.51100000000E-03 0. -1.
         11   -1    0    0    0    0 -0.00000000000E+00 -0.00000000000E+00 -0.45593999997E+02  0.45594000000E+02  0.51100000000E-03 0.  1.
    9900012    2    1    2    0    0 -0.20536391358E+02  0.26586899015E+02 -0.27477571856E+02  0.47787268159E+02  0.19999986842E+02 0.  0.
         12    1    1    2    0    0  0.20536391358E+02 -0.26586899015E+02  0.27477571856E+02  0.43400731841E+02  0.00000000000E+00 0. -1.
         11    1    3    3    0    0  0.11571363237E+01  0.76913428622E+01 -0.22052196537E+01  0.80844736055E+01  0.51100000000E-03 0. -1.
        -11    1    3    3    0    0 -0.13256019120E+02  0.13879935804E+02 -0.22352553718E+02  0.29462031817E+02  0.51100000000E-03 0.  1.
         12    1    3    3    0    0 -0.84375085621E+01  0.50156203492E+01 -0.29197984843E+01  0.10240762736E+02  0.00000000000E+00 0. -1.
</event>
<event>
 7    1  0.1813014E-010  0.4778727E+02  0.7816164E-02  0.1312668E+00
        -11   -1    0    0    0    0  0.00000000000E+00  0.00000000000E+00  0.45593999997E+02  0.45594000000E+02  0.51100000000E-03 0.  1.
         11   -1    0    0    0    0 -0.00000000000E+00 -0.00000000000E+00 -0.45593999997E+02  0.45594000000E+02  0.51100000000E-03 0. -1.
    9900012    2    1    2    0    0 -0.43242587975E+02  0.35129537737E+01 -0.11667033989E+01  0.47787268948E+02  0.19999990441E+02 0.  0.
         12    1    1    2    0    0  0.43242587975E+02 -0.35129537737E+01  0.11667033989E+01  0.43400731052E+02  0.00000000000E+00 0. -1.
         11    1    3    3    0    0 -0.14015859733E+02  0.52272290909E+01  0.82782521996E+00  0.14981773689E+02  0.51100000000E-03 0. -1.
        -11    1    3    3    0    0 -0.23347224667E+02 -0.54508741476E+00 -0.76394778029E+01  0.24571358150E+02  0.51100000000E-03 0.  1.
         12    1    3    3    0    0 -0.58795035754E+01 -0.11691879024E+01  0.56449491840E+01  0.82341371093E+01  0.00000000000E+00 0. -1.
</event>
<event>
 7    1  0.1813014E-010  0.4778728E+02  0.7816164E-02  0.1312668E+00
        -11   -1    0    0    0    0  0.00000000000E+00  0.00000000000E+00  0.45593999997E+02  0.45594000000E+02  0.51100000000E-03 0.  1.
         11   -1    0    0    0    0 -0.00000000000E+00 -0.00000000000E+00 -0.45593999997E+02  0.45594000000E+02  0.51100000000E-03 0. -1.
    9900012    2    1    2    0    0  0.58548053918E+01 -0.41862794008E+02  0.98412553983E+01  0.47787279083E+02  0.20000036651E+02 0.  0.
         12    1    1    2    0    0 -0.58548053918E+01  0.41862794008E+02 -0.98412553983E+01  0.43400720917E+02  0.00000000000E+00 0. -1.
         11    1    3    3    0    0 -0.20400780734E+01 -0.53549992198E+01 -0.93676215869E+00  0.58065014245E+01  0.51100000000E-03 0. -1.
        -11    1    3    3    0    0  0.86994881339E+01 -0.37674705822E+02  0.89869844203E+01  0.39696730870E+02  0.51100000000E-03 0.  1.
        -12    1    3    3    0    0 -0.80460466876E+00  0.11669110341E+01  0.17910331367E+01  0.22840467883E+01  0.00000000000E+00 0.  1.
</event>
<event>
 7    1  0.1813014E-010  0.4778727E+02  0.7816164E-02  0.1312668E+00
        -11   -1    0    0    0    0  0.00000000000E+00  0.00000000000E+00  0.45593999997E+02  0.45594000000E+02  0.51100000000E-03 0.  1.
         11   -1    0    0    0    0 -0.00000000000E+00 -0.00000000000E+00 -0.45593999997E+02  0.45594000000E+02  0.51100000000E-03 0. -1.
    9900012    2    1    2    0    0  0.42954012247E+02 -0.41662259979E+01  0.46063767497E+01  0.47787270582E+02  0.19999997894E+02 0.  0.
         12    1    1    2    0    0 -0.42954012247E+02  0.41662259979E+01 -0.46063767497E+01  0.43400729418E+02  0.00000000000E+00 0. -1.
         11    1    3    3    0    0  0.57774366348E-01  0.19722571361E+00 -0.13442522057E+01  0.13598713591E+01  0.51100000000E-03 0. -1.
        -11    1    3    3    0    0  0.42378421331E+02 -0.18979488312E+01  0.29700472764E+01  0.42524745565E+02  0.51100000000E-03 0.  1.
        -12    1    3    3    0    0  0.51781654985E+00 -0.24655028802E+01  0.29805816790E+01  0.39026536584E+01  0.00000000000E+00 0.  1.
</event>
<event>
 7    1  0.1813014E-010  0.4778727E+02  0.7816164E-02  0.1312668E+00
        -11   -1    0    0    0    0  0.00000000000E+00  0.00000000000E+00  0.45593999997E+02  0.45594000000E+02  0.51100000000E-03 0. -1.
         11   -1    0    0    0    0 -0.00000000000E+00 -0.00000000000E+00 -0.45593999997E+02  0.45594000000E+02  0.51100000000E-03 0.  1.
    9900012    2    1    2    0    0 -0.11273475892E+02  0.29241635007E+02 -0.30024308467E+02  0.47787267569E+02  0.19999984155E+02 0.  0.
         12    1    1    2    0    0  0.11273475892E+02 -0.29241635007E+02  0.30024308467E+02  0.43400732431E+02  0.00000000000E+00 0. -1.
         11    1    3    3    0    0 -0.92213318981E+00  0.14990006784E+02 -0.12551645233E+02  0.19572798250E+02  0.51100000000E-03 0. -1.
        -11    1    3    3    0    0 -0.47406251295E+01  0.65828092059E+01 -0.16839080491E+02  0.18691215469E+02  0.51100000000E-03 0.  1.
        -12    1    3    3    0    0 -0.56107175727E+01  0.76688190176E+01 -0.63358274276E+00  0.95232538503E+01  0.00000000000E+00 0.  1.
</event>
<event>
 7    1  0.1813014E-010  0.4778728E+02  0.7816164E-02  0.1312668E+00
        -11   -1    0    0    0    0  0.00000000000E+00  0.00000000000E+00  0.45593999997E+02  0.45594000000E+02  0.51100000000E-03 0.  1.
         11   -1    0    0    0    0 -0.00000000000E+00 -0.00000000000E+00 -0.45593999997E+02  0.45594000000E+02  0.51100000000E-03 0. -1.
    9900012    2    1    2    0    0  0.21345893600E+02  0.13247042967E+02  0.35390552849E+02  0.47787279362E+02  0.20000037922E+02 0.  0.
         12    1    1    2    0    0 -0.21345893600E+02 -0.13247042967E+02 -0.35390552849E+02  0.43400720638E+02  0.00000000000E+00 0. -1.
         11    1    3    3    0    0 -0.99049926074E+00  0.47274163111E+01  0.93961089149E+00  0.49206120201E+01  0.51100000000E-03 0. -1.
        -11    1    3    3    0    0  0.90456872432E+01 -0.10383043564E+01  0.11283763768E+02  0.14499167516E+02  0.51100000000E-03 0.  1.
        -12    1    3    3    0    0  0.13290705618E+02  0.95579310125E+01  0.23167178190E+02  0.28367499825E+02  0.00000000000E+00 0.  1.
</event>
<event>
 7    1  0.1813014E-010  0.4778727E+02  0.7816164E-02  0.1312668E+00
        -11   -1    0    0    0    0  0.00000000000E+00  0.00000000000E+00  0.45593999997E+02  0.45594000000E+02  0.51100000000E-03 0. -1.
         11   -1    0    0    0    0 -0.00000000000E+00 -0.00000000000E+00 -0.45593999997E+02  0.45594000000E+02  0.51100000000E-03 0.  1.
    9900012    2    1    2    0    0  0.94523463524E-01  0.11896183786E+02 -0.41738415154E+02  0.47787269328E+02  0.19999992173E+02 0.  0.
         12    1    1    2    0    0 -0.94523463524E-01 -0.11896183786E+02  0.41738415154E+02  0.43400730672E+02  0.00000000000E+00 0. -1.
         11    1    3    3    0    0 -0.39604247745E+01  0.38621043016E+01 -0.70041246523E+01  0.89251653450E+01  0.51100000000E-03 0.  1.
        -11    1    3    3    0    0  0.70783681069E+01  0.22984623446E+01 -0.29797597479E+02  0.30712913245E+02  0.51100000000E-03 0. -1.
         12    1    3    3    0    0 -0.30234198689E+01  0.57356171401E+01 -0.49366930218E+01  0.81491907373E+01  0.00000000000E+00 0. -1.
</event>
<event>
 7    1  0.1813014E-010  0.4778727E+02  0.7816164E-02  0.1312668E+00
        -11   -1    0    0    0    0  0.00000000000E+00  0.00000000000E+00  0.45593999997E+02  0.45594000000E+02  0.51100000000E-03 0. -1.
         11   -1    0    0    0    0 -0.00000000000E+00 -0.00000000000E+00 -0.45593999997E+02  0.45594000000E+02  0.51100000000E-03 0.  1.
    9900012    2    1    2    0    0 -0.16159194547E+02 -0.39462756314E+02 -0.80743203817E+01  0.47787270122E+02  0.19999995796E+02 0.  0.
         12    1    1    2    0    0  0.16159194547E+02  0.39462756314E+02  0.80743203817E+01  0.43400729878E+02  0.00000000000E+00 0. -1.
         11    1    3    3    0    0 -0.17161782108E+02 -0.23536123789E+02 -0.56575900189E+01  0.29672954238E+02  0.51100000000E-03 0. -1.
        -11    1    3    3    0    0 -0.42217505655E+00 -0.13118139667E+02 -0.49960231161E+01  0.14043648647E+02  0.51100000000E-03 0.  1.
        -12    1    3    3    0    0  0.14247626170E+01 -0.28084928578E+01  0.25792927533E+01  0.40706672370E+01  0.00000000000E+00 0.  1.
</event>
<event>
 7    1  0.1813014E-010  0.4778727E+02  0.7816164E-02  0.1312668E+00
        -11   -1    0    0    0    0  0.00000000000E+00  0.00000000000E+00  0.45593999997E+02  0.45594000000E+02  0.51100000000E-03 0.  1.
         11   -1    0    0    0    0 -0.00000000000E+00 -0.00000000000E+00 -0.45593999997E+02  0.45594000000E+02  0.51100000000E-03 0. -1.
    9900012    2    1    2    0    0 -0.98111268559E+01 -0.35644718597E+02 -0.22733650673E+02  0.47787273659E+02  0.20000011920E+02 0.  0.
         12    1    1    2    0    0  0.98111268559E+01  0.35644718597E+02  0.22733650673E+02  0.43400726341E+02  0.00000000000E+00 0. -1.
         11    1    3    3    0    0 -0.56381358120E+01 -0.99578384838E+01 -0.11793728971E+00  0.11443820698E+02  0.51100000000E-03 0. -1.
        -11    1    3    3    0    0  0.19448091364E+01 -0.11522799284E+02 -0.15343188642E+02  0.19286539966E+02  0.51100000000E-03 0.  1.
         12    1    3    3    0    0 -0.61178001803E+01 -0.14164080829E+02 -0.72725247415E+01  0.17056912994E+02  0.00000000000E+00 0. -1.
</event>
<event>
 7    1  0.1813014E-010  0.4778727E+02  0.7816164E-02  0.1312668E+00
        -11   -1    0    0    0    0  0.00000000000E+00  0.00000000000E+00  0.45593999997E+02  0.45594000000E+02  0.51100000000E-03 0.  1.
         11   -1    0    0    0    0 -0.00000000000E+00 -0.00000000000E+00 -0.45593999997E+02  0.45594000000E+02  0.51100000000E-03 0. -1.
    9900012    2    1    2    0    0 -0.36005341085E+02  0.16564976789E+02  0.17687291421E+02  0.47787270507E+02  0.19999997551E+02 0.  0.
         12    1    1    2    0    0  0.36005341085E+02 -0.16564976789E+02 -0.17687291421E+02  0.43400729493E+02  0.00000000000E+00 0. -1.
         11    1    3    3    0    0  0.87476277191E+00  0.25310098803E+01  0.45920525659E+01  0.53158412270E+01  0.51100000000E-03 0. -1.
        -11    1    3    3    0    0 -0.21628139503E+02  0.12166355771E+02  0.59137578927E+01  0.25510177651E+02  0.51100000000E-03 0.  1.
        -12    1    3    3    0    0 -0.15251964354E+02  0.18676111380E+01  0.71814809627E+01  0.16961251629E+02  0.00000000000E+00 0.  1.
</event>
<event>
 7    1  0.1813014E-010  0.4778727E+02  0.7816164E-02  0.1312668E+00
        -11   -1    0    0    0    0  0.00000000000E+00  0.00000000000E+00  0.45593999997E+02  0.45594000000E+02  0.51100000000E-03 0. -1.
         11   -1    0    0    0    0 -0.00000000000E+00 -0.00000000000E+00 -0.45593999997E+02  0.45594000000E+02  0.51100000000E-03 0.  1.
    9900012    2    1    2    0    0 -0.32645860857E+02 -0.28156245753E+02 -0.50096806018E+01  0.47787270677E+02  0.19999998326E+02 0.  0.
         12    1    1    2    0    0  0.32645860857E+02  0.28156245753E+02  0.50096806018E+01  0.43400729323E+02  0.00000000000E+00 0. -1.
         11    1    3    3    0    0 -0.22021591410E+02 -0.20458156503E+02  0.31548157888E+01  0.30223161957E+02  0.51100000000E-03 0. -1.
        -11    1    3    3    0    0  0.26056380918E-01  0.12396358113E+01  0.31423344234E+00  0.12791085947E+01  0.51100000000E-03 0.  1.
        -12    1    3    3    0    0 -0.10650325828E+02 -0.89377250618E+01 -0.84787298330E+01  0.16285000126E+02  0.00000000000E+00 0.  1.
</event>
<event>
 7    1  0.1813014E-010  0.4778727E+02  0.7816164E-02  0.1312668E+00
        -11   -1    0    0    0    0  0.00000000000E+00  0.00000000000E+00  0.45593999997E+02  0.45594000000E+02  0.51100000000E-03 0.  1.
         11   -1    0    0    0    0 -0.00000000000E+00 -0.00000000000E+00 -0.45593999997E+02  0.45594000000E+02  0.51100000000E-03 0. -1.
    9900012    2    1    2    0    0  0.22801751363E+02 -0.30908717692E+02  0.20207785202E+02  0.47787271004E+02  0.19999999816E+02 0.  0.
         12    1    1    2    0    0 -0.22801751363E+02  0.30908717692E+02 -0.20207785202E+02  0.43400728996E+02  0.00000000000E+00 0. -1.
         11    1    3    3    0    0  0.31254632400E+01 -0.33591472264E+01 -0.15799341672E+01  0.48526882021E+01  0.51100000000E-03 0. -1.
        -11    1    3    3    0    0  0.64321049255E+01 -0.48563080696E+01  0.12873621792E+02  0.15188345537E+02  0.51100000000E-03 0.  1.
        -12    1    3    3    0    0  0.13244183197E+02 -0.22693262396E+02  0.89140975776E+01  0.27746237265E+02  0.00000000000E+00 0.  1.
</event>
<event>
 7    1  0.1813014E-010  0.4778727E+02  0.7816164E-02  0.1312668E+00
        -11   -1    0    0    0    0  0.00000000000E+00  0.00000000000E+00  0.45593999997E+02  0.45594000000E+02  0.51100000000E-03 0.  1.
         11   -1    0    0    0    0 -0.00000000000E+00 -0.00000000000E+00 -0.45593999997E+02  0.45594000000E+02  0.51100000000E-03 0. -1.
    9900012    2    1    2    0    0 -0.13124396334E+02  0.37726904928E+02  0.16972152094E+02  0.47787273264E+02  0.20000010118E+02 0.  0.
         12    1    1    2    0    0  0.13124396334E+02 -0.37726904928E+02 -0.16972152094E+02  0.43400726736E+02  0.00000000000E+00 0. -1.
         11    1    3    3    0    0  0.41183805912E+01  0.86687377315E+01  0.59107173617E+01  0.11271408632E+02  0.51100000000E-03 0. -1.
        -11    1    3    3    0    0 -0.67477585067E+01  0.10593457902E+02  0.84018823593E+01  0.15111096010E+02  0.51100000000E-03 0.  1.
         12    1    3    3    0    0 -0.10495018419E+02  0.18464709294E+02  0.26595523725E+01  0.21404768622E+02  0.00000000000E+00 0. -1.
</event>
<event>
 7    1  0.1813014E-010  0.4778727E+02  0.7816164E-02  0.1312668E+00
        -11   -1    0    0    0    0  0.00000000000E+00  0.00000000000E+00  0.45593999997E+02  0.45594000000E+02  0.51100000000E-03 0.  1.
         11   -1    0    0    0    0 -0.00000000000E+00 -0.00000000000E+00 -0.45593999997E+02  0.45594000000E+02  0.51100000000E-03 0. -1.
    9900012    2    1    2    0    0 -0.11898773613E+02  0.13056446101E+02  0.39643054926E+02  0.47787269567E+02  0.19999993263E+02 0.  0.
         12    1    1    2    0    0  0.11898773613E+02 -0.13056446101E+02 -0.39643054926E+02  0.43400730433E+02  0.00000000000E+00 0. -1.
         11    1    3    3    0    0  0.18225690141E+01  0.60919850830E+00 -0.43027310356E+00  0.19692678433E+01  0.51100000000E-03 0. -1.
        -11    1    3    3    0    0 -0.89976613091E+01  0.23907695050E+00  0.14011517267E+02  0.16653458596E+02  0.51100000000E-03 0.  1.
        -12    1    3    3    0    0 -0.47236813183E+01  0.12208170642E+02  0.26061810762E+02  0.29164543127E+02  0.00000000000E+00 0.  1.
</event>
<event>
 7    1  0.1813014E-010  0.4778728E+02  0.7816164E-02  0.1312668E+00
        -11   -1    0    0    0    0  0.00000000000E+00  0.00000000000E+00  0.45593999997E+02  0.45594000000E+02  0.51100000000E-03 0.  1.
         11   -1    0    0    0    0 -0.00000000000E+00 -0.00000000000E+00 -0.45593999997E+02  0.45594000000E+02  0.51100000000E-03 0. -1.
    9900012    2    1    2    0    0 -0.17170769137E+02 -0.80915282575E+01  0.39029663871E+02  0.47787276455E+02  0.20000024671E+02 0.  0.
         12    1    1    2    0    0  0.17170769137E+02  0.80915282575E+01 -0.39029663871E+02  0.43400723545E+02  0.00000000000E+00 0. -1.
         11    1    3    3    0    0 -0.72653316475E+01 -0.31165569620E+01  0.26286218861E+01  0.83311238454E+01  0.51100000000E-03 0. -1.
        -11    1    3    3    0    0 -0.11224634448E+02 -0.37928589887E+01  0.22371752739E+02  0.25315479823E+02  0.51100000000E-03 0.  1.
         12    1    3    3    0    0  0.13191969580E+01 -0.11821123068E+01  0.14029289246E+02  0.14140672787E+02  0.00000000000E+00 0. -1.
</event>
<event>
 7    1  0.1813014E-010  0.4778729E+02  0.7816164E-02  0.1312668E+00
        -11   -1    0    0    0    0  0.00000000000E+00  0.00000000000E+00  0.45593999997E+02  0.45594000000E+02  0.51100000000E-03 0.  1.
         11   -1    0    0    0    0 -0.00000000000E+00 -0.00000000000E+00 -0.45593999997E+02  0.45594000000E+02  0.51100000000E-03 0. -1.
    9900012    2    1    2    0    0 -0.11126636008E+02  0.17274027847E+02  0.38228627135E+02  0.47787285725E+02  0.20000066935E+02 0.  0.
         12    1    1    2    0    0  0.11126636008E+02 -0.17274027847E+02 -0.38228627135E+02  0.43400714275E+02  0.00000000000E+00 0. -1.
         11    1    3    3    0    0 -0.24761157339E+01  0.96836667710E+01  0.97744745771E+01  0.13980161114E+02  0.51100000000E-03 0. -1.
        -11    1    3    3    0    0 -0.77385812900E+01 -0.74261034277E+00  0.59420183302E+01  0.97849216962E+01  0.51100000000E-03 0.  1.
        -12    1    3    3    0    0 -0.91193898430E+00  0.83329714187E+01  0.22512134228E+02  0.24022202915E+02  0.00000000000E+00 0.  1.
</event>
<event>
 7    1  0.1813014E-010  0.4778727E+02  0.7816164E-02  0.1312668E+00
        -11   -1    0    0    0    0  0.00000000000E+00  0.00000000000E+00  0.45593999997E+02  0.45594000000E+02  0.51100000000E-03 0.  1.
         11   -1    0    0    0    0 -0.00000000000E+00 -0.00000000000E+00 -0.45593999997E+02  0.45594000000E+02  0.51100000000E-03 0. -1.
    9900012    2    1    2    0    0 -0.42549812801E+02  0.83584652913E+01  0.18091560945E+01  0.47787267780E+02  0.19999985117E+02 0.  0.
         12    1    1    2    0    0  0.42549812801E+02 -0.83584652913E+01 -0.18091560945E+01  0.43400732220E+02  0.00000000000E+00 0. -1.
         11    1    3    3    0    0 -0.10917890946E+02  0.42862767546E+00  0.46728132489E+00  0.10936288972E+02  0.51100000000E-03 0. -1.
        -11    1    3    3    0    0 -0.31078665078E+02  0.32401271663E+01  0.38846609543E+01  0.31487655329E+02  0.51100000000E-03 0.  1.
         12    1    3    3    0    0 -0.55325677705E+00  0.46897104495E+01 -0.25427861847E+01  0.53633234792E+01  0.00000000000E+00 0. -1.
</event>
<event>
 7    1  0.1813014E-010  0.4778727E+02  0.7816164E-02  0.1312668E+00
        -11   -1    0    0    0    0  0.00000000000E+00  0.00000000000E+00  0.45593999997E+02  0.45594000000E+02  0.51100000000E-03 0.  1.
         11   -1    0    0    0    0 -0.00000000000E+00 -0.00000000000E+00 -0.45593999997E+02  0.45594000000E+02  0.51100000000E-03 0. -1.
    9900012    2    1    2    0    0  0.27450748048E+02  0.24532561514E+01  0.33527024788E+02  0.47787269300E+02  0.19999992048E+02 0.  0.
         12    1    1    2    0    0 -0.27450748048E+02 -0.24532561514E+01 -0.33527024788E+02  0.43400730700E+02  0.00000000000E+00 0. -1.
         11    1    3    3    0    0  0.74534484154E+00 -0.21941799098E+01  0.96977651390E+00  0.25120571565E+01  0.51100000000E-03 0. -1.
        -11    1    3    3    0    0 -0.20887544845E+01  0.54980616681E+00  0.10679853107E+01  0.24095175871E+01  0.51100000000E-03 0.  1.
        -12    1    3    3    0    0  0.28794157691E+02  0.40976298944E+01  0.31489262963E+02  0.42865694557E+02  0.00000000000E+00 0.  1.
</event>
<event>
 7    1  0.1813014E-010  0.4778724E+02  0.7816164E-02  0.1312668E+00
        -11   -1    0    0    0    0  0.00000000000E+00  0.00000000000E+00  0.45593999997E+02  0.45594000000E+02  0.51100000000E-03 0.  1.
         11   -1    0    0    0    0 -0.00000000000E+00 -0.00000000000E+00 -0.45593999997E+02  0.45594000000E+02  0.51100000000E-03 0. -1.
    9900012    2    1    2    0    0  0.51849904788E+01 -0.41344860730E+02  0.12138550190E+02  0.47787239226E+02  0.19999854926E+02 0.  0.
         12    1    1    2    0    0 -0.51849904788E+01  0.41344860730E+02 -0.12138550190E+02  0.43400760774E+02  0.00000000000E+00 0. -1.
         11    1    3    3    0    0 -0.35436294567E+01 -0.31573577799E+02  0.96322001498E+01  0.33199810312E+02  0.51100000000E-03 0. -1.
        -11    1    3    3    0    0  0.14013573924E+01 -0.10491149563E+00  0.20037447933E+01  0.24474072855E+01  0.51100000000E-03 0.  1.
        -12    1    3    3    0    0  0.73272625431E+01 -0.96663714353E+01  0.50260524720E+00  0.12140021628E+02  0.00000000000E+00 0.  1.
</event>
<event>
 7    1  0.1813014E-010  0.4778727E+02  0.7816164E-02  0.1312668E+00
        -11   -1    0    0    0    0  0.00000000000E+00  0.00000000000E+00  0.45593999997E+02  0.45594000000E+02  0.51100000000E-03 0. -1.
         11   -1    0    0    0    0 -0.00000000000E+00 -0.00000000000E+00 -0.45593999997E+02  0.45594000000E+02  0.51100000000E-03 0.  1.
    9900012    2    1    2    0    0 -0.25944324342E+02  0.14315991669E+02 -0.31710688866E+02  0.47787269921E+02  0.19999994877E+02 0.  0.
         12    1    1    2    0    0  0.25944324342E+02 -0.14315991669E+02  0.31710688866E+02  0.43400730079E+02  0.00000000000E+00 0. -1.
         11    1    3    3    0    0 -0.59288224926E+01 -0.30728581151E+01 -0.67617259659E+01  0.95033852623E+01  0.51100000000E-03 0. -1.
        -11    1    3    3    0    0 -0.18502181658E+02  0.96244372668E+01 -0.20322356097E+02  0.29119730019E+02  0.51100000000E-03 0.  1.
        -12    1    3    3    0    0 -0.15133201923E+01  0.77644125177E+01 -0.46266068030E+01  0.91641546396E+01  0.00000000000E+00 0.  1.
</event>
<event>
 7    1  0.1813014E-010  0.4778727E+02  0.7816164E-02  0.1312668E+00
        -11   -1    0    0    0    0  0.00000000000E+00  0.00000000000E+00  0.45593999997E+02  0.45594000000E+02  0.51100000000E-03 0.  1.
         11   -1    0    0    0    0 -0.00000000000E+00 -0.00000000000E+00 -0.45593999997E+02  0.45594000000E+02  0.51100000000E-03 0. -1.
    9900012    2    1    2    0    0  0.57050433041E+01  0.29807228847E+01  0.42920753979E+02  0.47787270166E+02  0.19999995994E+02 0.  0.
         12    1    1    2    0    0 -0.57050433041E+01 -0.29807228847E+01 -0.42920753979E+02  0.43400729834E+02  0.00000000000E+00 0. -1.
         11    1    3    3    0    0  0.36021100739E+01 -0.67819084377E+00  0.30201988343E+01  0.47493937576E+01  0.51100000000E-03 0. -1.
        -11    1    3    3    0    0 -0.22337817701E+01  0.43164891108E+01  0.37911327736E+02  0.38221599001E+02  0.51100000000E-03 0.  1.
        -12    1    3    3    0    0  0.43367150003E+01 -0.65757538230E+00  0.19892274086E+01  0.48162774069E+01  0.00000000000E+00 0.  1.
</event>
<event>
 7    1  0.1813014E-010  0.4778727E+02  0.7816164E-02  0.1312668E+00
        -11   -1    0    0    0    0  0.00000000000E+00  0.00000000000E+00  0.45593999997E+02  0.45594000000E+02  0.51100000000E-03 0. -1.
         11   -1    0    0    0    0 -0.00000000000E+00 -0.00000000000E+00 -0.45593999997E+02  0.45594000000E+02  0.51100000000E-03 0.  1.
    9900012    2    1    2    0    0 -0.41485399411E+01  0.37926833969E+02 -0.20687385430E+02  0.47787273802E+02  0.20000012574E+02 0.  0.
         12    1    1    2    0    0  0.41485399411E+01 -0.37926833969E+02  0.20687385430E+02  0.43400726198E+02  0.00000000000E+00 0. -1.
         11    1    3    3    0    0 -0.38778963750E+01  0.49985066320E+01 -0.82565067468E+01  0.10401588954E+02  0.51100000000E-03 0. -1.
        -11    1    3    3    0    0 -0.38710435320E+01  0.49920990913E+01 -0.55055117937E+01  0.83795400671E+01  0.51100000000E-03 0.  1.
        -12    1    3    3    0    0  0.36003999659E+01  0.27936228246E+02 -0.69253668895E+01  0.29006144781E+02  0.00000000000E+00 0.  1.
</event>
<event>
 7    1  0.1813014E-010  0.4778728E+02  0.7816164E-02  0.1312668E+00
        -11   -1    0    0    0    0  0.00000000000E+00  0.00000000000E+00  0.45593999997E+02  0.45594000000E+02  0.51100000000E-03 0.  1.
         11   -1    0    0    0    0 -0.00000000000E+00 -0.00000000000E+00 -0.45593999997E+02  0.45594000000E+02  0.51100000000E-03 0. -1.
    9900012    2    1    2    0    0  0.28934820533E+01  0.31867686215E+02  0.29320660701E+02  0.47787276423E+02  0.20000024522E+02 0.  0.
         12    1    1    2    0    0 -0.28934820533E+01 -0.31867686215E+02 -0.29320660701E+02  0.43400723577E+02  0.00000000000E+00 0. -1.
         11    1    3    3    0    0  0.52595222767E+01  0.35450651867E+01  0.12231388714E+01  0.64595766670E+01  0.51100000000E-03 0. -1.
        -11    1    3    3    0    0 -0.32094951452E+01  0.13910137829E+02  0.73643846290E+01  0.16063217447E+02  0.51100000000E-03 0.  1.
        -12    1    3    3    0    0  0.84345492180E+00  0.14412483199E+02  0.20733137200E+02  0.25264482309E+02  0.00000000000E+00 0.  1.
</event>
<event>
 7    1  0.1813014E-010  0.4778727E+02  0.7816164E-02  0.1312668E+00
        -11   -1    0    0    0    0  0.00000000000E+00  0.00000000000E+00  0.45593999997E+02  0.45594000000E+02  0.51100000000E-03 0. -1.
         11   -1    0    0    0    0 -0.00000000000E+00 -0.00000000000E+00 -0.45593999997E+02  0.45594000000E+02  0.51100000000E-03 0.  1.
    9900012    2    1    2    0    0 -0.25652481995E+02 -0.89556725767E+01 -0.33843305730E+02  0.47787271359E+02  0.20000001435E+02 0.  0.
         12    1    1    2    0    0  0.25652481995E+02  0.89556725767E+01  0.33843305730E+02  0.43400728641E+02  0.00000000000E+00 0. -1.
         11    1    3    3    0    0  0.53239001697E+00 -0.32668391554E+01 -0.34135697008E+01  0.47548013166E+01  0.51100000000E-03 0. -1.
        -11    1    3    3    0    0 -0.12620819529E+01  0.35901547262E+01 -0.44389371293E+01  0.58468987432E+01  0.51100000000E-03 0.  1.
        -12    1    3    3    0    0 -0.24922790059E+02 -0.92789881476E+01 -0.25990798900E+02  0.37185571299E+02  0.00000000000E+00 0.  1.
</event>
<event>
 7    1  0.1813014E-010  0.4778727E+02  0.7816164E-02  0.1312668E+00
        -11   -1    0    0    0    0  0.00000000000E+00  0.00000000000E+00  0.45593999997E+02  0.45594000000E+02  0.51100000000E-03 0.  1.
         11   -1    0    0    0    0 -0.00000000000E+00 -0.00000000000E+00 -0.45593999997E+02  0.45594000000E+02  0.51100000000E-03 0. -1.
    9900012    2    1    2    0    0 -0.28697210061E+02  0.20827180571E+02  0.25026428742E+02  0.47787268999E+02  0.19999990674E+02 0.  0.
         12    1    1    2    0    0  0.28697210061E+02 -0.20827180571E+02 -0.25026428742E+02  0.43400731001E+02  0.00000000000E+00 0. -1.
         11    1    3    3    0    0 -0.21736952915E+02  0.63810150261E+01  0.10240796856E+02  0.24861343393E+02  0.51100000000E-03 0. -1.
        -11    1    3    3    0    0 -0.75517760347E+01  0.11962688696E+02  0.94554406699E+01  0.17015892590E+02  0.51100000000E-03 0.  1.
         12    1    3    3    0    0  0.59151888810E+00  0.24834768488E+01  0.53301912161E+01  0.59100330163E+01  0.00000000000E+00 0. -1.
</event>
<event>
 7    1  0.2103314E-010  0.4778728E+02  0.7816164E-02  0.1312668E+00
        -11   -1    0    0    0    0  0.00000000000E+00  0.00000000000E+00  0.45593999997E+02  0.45594000000E+02  0.51100000000E-03 0.  1.
         11   -1    0    0    0    0 -0.00000000000E+00 -0.00000000000E+00 -0.45593999997E+02  0.45594000000E+02  0.51100000000E-03 0. -1.
    9900012    2    1    2    0    0  0.14876985036E+02  0.39547455548E+02  0.99144754776E+01  0.47787277101E+02  0.20000027616E+02 0.  0.
         12    1    1    2    0    0 -0.14876985036E+02 -0.39547455548E+02 -0.99144754776E+01  0.43400722899E+02  0.00000000000E+00 0. -1.
         11    1    3    3    0    0 -0.14214082265E+00 -0.10891460587E+01 -0.66907071683E+00  0.12861178157E+01  0.51100000000E-03 0. -1.
        -11    1    3    3    0    0  0.14153896575E+02  0.27385975104E+02  0.24392220788E+01  0.30923683889E+02  0.51100000000E-03 0.  1.
         12    1    3    3    0    0  0.86522928400E+00  0.13250626503E+02  0.81443241156E+01  0.15577475397E+02  0.00000000000E+00 0. -1.
</event>
<event>
 7    1  0.2396354E-010  0.4778724E+02  0.7816164E-02  0.1312668E+00
        -11   -1    0    0    0    0  0.00000000000E+00  0.00000000000E+00  0.45593999997E+02  0.45594000000E+02  0.51100000000E-03 0.  1.
         11   -1    0    0    0    0 -0.00000000000E+00 -0.00000000000E+00 -0.45593999997E+02  0.45594000000E+02  0.51100000000E-03 0. -1.
    9900012    2    1    2    0    0  0.14674625675E+02  0.38412698395E+02 -0.13883287620E+02  0.47787242958E+02  0.19999871942E+02 0.  0.
         12    1    1    2    0    0 -0.14674625675E+02 -0.38412698395E+02  0.13883287620E+02  0.43400757042E+02  0.00000000000E+00 0. -1.
         11    1    3    3    0    0  0.81139174333E+00  0.76939368892E+01  0.42427840870E+01  0.88236182197E+01  0.51100000000E-03 0. -1.
        -11    1    3    3    0    0  0.83606342246E+01  0.12454401293E+02 -0.50130556669E+01  0.15815911089E+02  0.51100000000E-03 0.  1.
         12    1    3    3    0    0  0.55025997076E+01  0.18264360212E+02 -0.13113016040E+02  0.23147713649E+02  0.00000000000E+00 0. -1.
</event>
<event>
 7    1  0.1813014E-010  0.4778727E+02  0.7816164E-02  0.1312668E+00
        -11   -1    0    0    0    0  0.00000000000E+00  0.00000000000E+00  0.45593999997E+02  0.45594000000E+02  0.51100000000E-03 0. -1.
         11   -1    0    0    0    0 -0.00000000000E+00 -0.00000000000E+00 -0.45593999997E+02  0.45594000000E+02  0.51100000000E-03 0.  1.
    9900012    2    1    2    0    0 -0.25705543823E+02 -0.38629642414E+01 -0.34755230686E+02  0.47787268025E+02  0.19999986231E+02 0.  0.
         12    1    1    2    0    0  0.25705543823E+02  0.38629642414E+01  0.34755230686E+02  0.43400731975E+02  0.00000000000E+00 0. -1.
         11    1    3    3    0    0 -0.94953448002E+01  0.12556481609E+00 -0.40131117904E+01  0.10309335861E+02  0.51100000000E-03 0. -1.
        -11    1    3    3    0    0 -0.70801959780E+01  0.46026617327E+01 -0.87293065028E+01  0.12145553194E+02  0.51100000000E-03 0.  1.
        -12    1    3    3    0    0 -0.91300030448E+01 -0.85911907903E+01 -0.22012812393E+02  0.25332378969E+02  0.00000000000E+00 0.  1.
</event>
<event>
 7    1  0.1813014E-010  0.4778727E+02  0.7816164E-02  0.1312668E+00
        -11   -1    0    0    0    0  0.00000000000E+00  0.00000000000E+00  0.45593999997E+02  0.45594000000E+02  0.51100000000E-03 0.  1.
         11   -1    0    0    0    0 -0.00000000000E+00 -0.00000000000E+00 -0.45593999997E+02  0.45594000000E+02  0.51100000000E-03 0. -1.
    9900012    2    1    2    0    0  0.12880377636E+02 -0.21106760145E+02  0.35668249191E+02  0.47787268990E+02  0.19999990634E+02 0.  0.
         12    1    1    2    0    0 -0.12880377636E+02  0.21106760145E+02 -0.35668249191E+02  0.43400731010E+02  0.00000000000E+00 0. -1.
         11    1    3    3    0    0 -0.37213133187E+01 -0.95529058002E+01  0.13265617762E+02  0.16765524057E+02  0.51100000000E-03 0. -1.
        -11    1    3    3    0    0  0.76891550510E+01 -0.59260686568E+01  0.56597685021E+01  0.11237187143E+02  0.51100000000E-03 0.  1.
        -12    1    3    3    0    0  0.89125359035E+01 -0.56277856880E+01  0.16742862927E+02  0.19784557790E+02  0.00000000000E+00 0.  1.
</event>
<event>
 7    1  0.1813014E-010  0.4778727E+02  0.7816164E-02  0.1312668E+00
        -11   -1    0    0    0    0  0.00000000000E+00  0.00000000000E+00  0.45593999997E+02  0.45594000000E+02  0.51100000000E-03 0. -1.
         11   -1    0    0    0    0 -0.00000000000E+00 -0.00000000000E+00 -0.45593999997E+02  0.45594000000E+02  0.51100000000E-03 0.  1.
    9900012    2    1    2    0    0 -0.31377241689E+02 -0.53050940969E+01 -0.29511825514E+02  0.47787272304E+02  0.20000005742E+02 0.  0.
         12    1    1    2    0    0  0.31377241689E+02  0.53050940969E+01  0.29511825514E+02  0.43400727696E+02  0.00000000000E+00 0. -1.
         11    1    3    3    0    0 -0.25351149978E+01  0.35630297152E+01 -0.15572450461E+01  0.46418747504E+01  0.51100000000E-03 0. -1.
        -11    1    3    3    0    0 -0.64072623022E+01 -0.80467193063E+01 -0.10594183753E+02  0.14766158317E+02  0.51100000000E-03 0.  1.
        -12    1    3    3    0    0 -0.22434864389E+02 -0.82140450587E+00 -0.17360396715E+02  0.28379239236E+02  0.00000000000E+00 0.  1.
</event>
<event>
 7    1  0.1813014E-010  0.4778727E+02  0.7816164E-02  0.1312668E+00
        -11   -1    0    0    0    0  0.00000000000E+00  0.00000000000E+00  0.45593999997E+02  0.45594000000E+02  0.51100000000E-03 0.  1.
         11   -1    0    0    0    0 -0.00000000000E+00 -0.00000000000E+00 -0.45593999997E+02  0.45594000000E+02  0.51100000000E-03 0. -1.
    9900012    2    1    2    0    0  0.10688158925E+02  0.36279693697E+02  0.21287799653E+02  0.47787270398E+02  0.19999997053E+02 0.  0.
         12    1    1    2    0    0 -0.10688158925E+02 -0.36279693697E+02 -0.21287799653E+02  0.43400729602E+02  0.00000000000E+00 0. -1.
         11    1    3    3    0    0 -0.57078670203E+01  0.10671904672E+02  0.53507992569E+01  0.13232548817E+02  0.51100000000E-03 0. -1.
        -11    1    3    3    0    0  0.12051452936E+01  0.37441588153E+01  0.30468837808E+01  0.49753996270E+01  0.51100000000E-03 0.  1.
         12    1    3    3    0    0  0.15190880651E+02  0.21863630209E+02  0.12890116615E+02  0.29579321954E+02  0.00000000000E+00 0. -1.
</event>
<event>
 7    1  0.1813014E-010  0.4778728E+02  0.7816164E-02  0.1312668E+00
        -11   -1    0    0    0    0  0.00000000000E+00  0.00000000000E+00  0.45593999997E+02  0.45594000000E+02  0.51100000000E-03 0.  1.
         11   -1    0    0    0    0 -0.00000000000E+00 -0.00000000000E+00 -0.45593999997E+02  0.45594000000E+02  0.51100000000E-03 0. -1.
    9900012    2    1    2    0    0  0.37611617136E+02 -0.42307345577E+01  0.21238879071E+02  0.47787276013E+02  0.20000022651E+02 0.  0.
         12    1    1    2    0    0 -0.37611617136E+02  0.42307345577E+01 -0.21238879071E+02  0.43400723987E+02  0.00000000000E+00 0. -1.
         11    1    3    3    0    0  0.28568526642E+02 -0.30350045511E+01  0.77995283503E+01  0.29769188936E+02  0.51100000000E-03 0. -1.
        -11    1    3    3    0    0  0.10451986040E+02 -0.14267323763E+01  0.11439509624E+02  0.15560911225E+02  0.51100000000E-03 0.  1.
        -12    1    3    3    0    0 -0.14088955467E+01  0.23100236977E+00  0.19998410959E+01  0.24571758515E+01  0.00000000000E+00 0.  1.
</event>
<event>
 7    1  0.1813014E-010  0.4778728E+02  0.7816164E-02  0.1312668E+00
        -11   -1    0    0    0    0  0.00000000000E+00  0.00000000000E+00  0.45593999997E+02  0.45594000000E+02  0.51100000000E-03 0.  1.
         11   -1    0    0    0    0 -0.00000000000E+00 -0.00000000000E+00 -0.45593999997E+02  0.45594000000E+02  0.51100000000E-03 0. -1.
    9900012    2    1    2    0    0  0.28292971642E+02 -0.98572667093E+01  0.31400065693E+02  0.47787284835E+02  0.20000062876E+02 0.  0.
         12    1    1    2    0    0 -0.28292971642E+02  0.98572667093E+01 -0.31400065693E+02  0.43400715165E+02  0.00000000000E+00 0. -1.
         11    1    3    3    0    0  0.22041844320E+01  0.37759917205E+01  0.34608577550E+01  0.55762065192E+01  0.51100000000E-03 0. -1.
        -11    1    3    3    0    0  0.16007772997E+02 -0.72919049521E+01  0.87996362007E+01  0.19668611330E+02  0.51100000000E-03 0.  1.
        -12    1    3    3    0    0  0.10081014214E+02 -0.63413534777E+01  0.19139571737E+02  0.22542466985E+02  0.00000000000E+00 0.  1.
</event>
<event>
 7    1  0.1813014E-010  0.4778727E+02  0.7816164E-02  0.1312668E+00
        -11   -1    0    0    0    0  0.00000000000E+00  0.00000000000E+00  0.45593999997E+02  0.45594000000E+02  0.51100000000E-03 0. -1.
         11   -1    0    0    0    0 -0.00000000000E+00 -0.00000000000E+00 -0.45593999997E+02  0.45594000000E+02  0.51100000000E-03 0.  1.
    9900012    2    1    2    0    0  0.17319162345E+02 -0.39779371419E+02  0.11276138402E+01  0.47787270884E+02  0.19999999270E+02 0.  0.
         12    1    1    2    0    0 -0.17319162345E+02  0.39779371419E+02 -0.11276138402E+01  0.43400729116E+02  0.00000000000E+00 0. -1.
         11    1    3    3    0    0  0.13861993439E+02 -0.36805093231E+02 -0.17447322808E+01  0.39367675076E+02  0.51100000000E-03 0.  1.
        -11    1    3    3    0    0  0.33644573728E+01 -0.37596217253E+01  0.44032644455E+01  0.66964966190E+01  0.51100000000E-03 0. -1.
        -12    1    3    3    0    0  0.92711533110E-01  0.78534353792E+00 -0.15309183244E+01  0.17230991895E+01  0.00000000000E+00 0.  1.
</event>
<event>
 7    1  0.1813014E-010  0.4778727E+02  0.7816164E-02  0.1312668E+00
        -11   -1    0    0    0    0  0.00000000000E+00  0.00000000000E+00  0.45593999997E+02  0.45594000000E+02  0.51100000000E-03 0. -1.
         11   -1    0    0    0    0 -0.00000000000E+00 -0.00000000000E+00 -0.45593999997E+02  0.45594000000E+02  0.51100000000E-03 0.  1.
    9900012    2    1    2    0    0  0.20968599083E+01  0.11537865319E+02 -0.41786409088E+02  0.47787272563E+02  0.20000006926E+02 0.  0.
         12    1    1    2    0    0 -0.20968599083E+01 -0.11537865319E+02  0.41786409088E+02  0.43400727437E+02  0.00000000000E+00 0. -1.
         11    1    3    3    0    0 -0.16811560552E+01  0.68789477276E+01 -0.16033423325E+02  0.17527603125E+02  0.51100000000E-03 0. -1.
        -11    1    3    3    0    0  0.21872677284E+01 -0.45753461936E+01 -0.15781827486E+02  0.16576610389E+02  0.51100000000E-03 0.  1.
        -12    1    3    3    0    0  0.15907482352E+01  0.92342637848E+01 -0.99711582762E+01  0.13683059050E+02  0.00000000000E+00 0.  1.
</event>
<event>
 7    1  0.1813014E-010  0.4778728E+02  0.7816164E-02  0.1312668E+00
        -11   -1    0    0    0    0  0.00000000000E+00  0.00000000000E+00  0.45593999997E+02  0.45594000000E+02  0.51100000000E-03 0. -1.
         11   -1    0    0    0    0 -0.00000000000E+00 -0.00000000000E+00 -0.45593999997E+02  0.45594000000E+02  0.51100000000E-03 0.  1.
    9900012    2    1    2    0    0 -0.69462335579E+01  0.19350409750E+02 -0.38222170688E+02  0.47787275925E+02  0.20000022251E+02 0.  0.
         12    1    1    2    0    0  0.69462335579E+01 -0.19350409750E+02  0.38222170688E+02  0.43400724075E+02  0.00000000000E+00 0. -1.
         11    1    3    3    0    0 -0.38811919202E+01 -0.86220442063E+00 -0.11863417631E+02  0.12511903346E+02  0.51100000000E-03 0. -1.
        -11    1    3    3    0    0 -0.31544586906E+01  0.79091728367E+00 -0.76307742357E+01  0.82948704316E+01  0.51100000000E-03 0.  1.
        -12    1    3    3    0    0  0.89417052951E-01  0.19421696887E+02 -0.18727978822E+02  0.26980502147E+02  0.00000000000E+00 0.  1.
</event>
<event>
 7    1  0.1813014E-010  0.4778727E+02  0.7816164E-02  0.1312668E+00
        -11   -1    0    0    0    0  0.00000000000E+00  0.00000000000E+00  0.45593999997E+02  0.45594000000E+02  0.51100000000E-03 0.  1.
         11   -1    0    0    0    0 -0.00000000000E+00 -0.00000000000E+00 -0.45593999997E+02  0.45594000000E+02  0.51100000000E-03 0. -1.
    9900012    2    1    2    0    0  0.27357849184E+02 -0.31060726937E+02  0.13053831867E+02  0.47787271939E+02  0.20000004079E+02 0.  0.
         12    1    1    2    0    0 -0.27357849184E+02  0.31060726937E+02 -0.13053831867E+02  0.43400728061E+02  0.00000000000E+00 0. -1.
         11    1    3    3    0    0  0.13451476822E+02 -0.11968784731E+02  0.40120440636E+01  0.18446965454E+02  0.51100000000E-03 0. -1.
        -11    1    3    3    0    0  0.16970015490E+02 -0.15440655405E+02  0.87829653348E+01  0.24566964513E+02  0.51100000000E-03 0.  1.
         12    1    3    3    0    0 -0.30636431273E+01 -0.36512868004E+01  0.25882246819E+00  0.47733419718E+01  0.00000000000E+00 0. -1.
</event>
<event>
 7    1  0.1813014E-010  0.4778727E+02  0.7816164E-02  0.1312668E+00
        -11   -1    0    0    0    0  0.00000000000E+00  0.00000000000E+00  0.45593999997E+02  0.45594000000E+02  0.51100000000E-03 0.  1.
         11   -1    0    0    0    0 -0.00000000000E+00 -0.00000000000E+00 -0.45593999997E+02  0.45594000000E+02  0.51100000000E-03 0. -1.
    9900012    2    1    2    0    0  0.24286278393E+01 -0.80278791138E+01  0.42582608922E+02  0.47787266609E+02  0.19999979779E+02 0.  0.
         12    1    1    2    0    0 -0.24286278393E+01  0.80278791138E+01 -0.42582608922E+02  0.43400733391E+02  0.00000000000E+00 0. -1.
         11    1    3    3    0    0  0.94682019081E+00 -0.26191926716E+01  0.24682904751E+01  0.37214374716E+01  0.51100000000E-03 0. -1.
        -11    1    3    3    0    0  0.88565095859E+00  0.10199826873E+01  0.36770018228E+02  0.36794822775E+02  0.51100000000E-03 0.  1.
        -12    1    3    3    0    0  0.59615668992E+00 -0.64286691295E+01  0.33443002189E+01  0.72710063629E+01  0.00000000000E+00 0.  1.
</event>
<event>
 7    1  0.1813014E-010  0.4778727E+02  0.7816164E-02  0.1312668E+00
        -11   -1    0    0    0    0  0.00000000000E+00  0.00000000000E+00  0.45593999997E+02  0.45594000000E+02  0.51100000000E-03 0. -1.
         11   -1    0    0    0    0 -0.00000000000E+00 -0.00000000000E+00 -0.45593999997E+02  0.45594000000E+02  0.51100000000E-03 0.  1.
    9900012    2    1    2    0    0 -0.12354418100E+02 -0.37744943238E+02  0.17501741387E+02  0.47787270303E+02  0.19999996621E+02 0.  0.
         12    1    1    2    0    0  0.12354418100E+02  0.37744943238E+02 -0.17501741387E+02  0.43400729697E+02  0.00000000000E+00 0. -1.
         11    1    3    3    0    0  0.19567902157E+01 -0.42677009306E+01  0.39625341509E+01  0.61436126456E+01  0.51100000000E-03 0. -1.
        -11    1    3    3    0    0 -0.10052516055E+02 -0.31478328031E+02  0.73200028932E+01  0.33845541172E+02  0.51100000000E-03 0.  1.
         12    1    3    3    0    0 -0.42586922608E+01 -0.19989142766E+01  0.62192043430E+01  0.77981164853E+01  0.00000000000E+00 0. -1.
</event>
<event>
 7    1  0.1813014E-010  0.4778727E+02  0.7816164E-02  0.1312668E+00
        -11   -1    0    0    0    0  0.00000000000E+00  0.00000000000E+00  0.45593999997E+02  0.45594000000E+02  0.51100000000E-03 0.  1.
         11   -1    0    0    0    0 -0.00000000000E+00 -0.00000000000E+00 -0.45593999997E+02  0.45594000000E+02  0.51100000000E-03 0. -1.
    9900012    2    1    2    0    0  0.18748234534E+02 -0.38822543257E+02  0.49937064313E+01  0.47787271124E+02  0.20000000362E+02 0.  0.
         12    1    1    2    0    0 -0.18748234534E+02  0.38822543257E+02 -0.49937064313E+01  0.43400728876E+02  0.00000000000E+00 0. -1.
         11    1    3    3    0    0 -0.39793298696E+00 -0.11817841216E+02 -0.17130552507E+01  0.11947982265E+02  0.51100000000E-03 0. -1.
        -11    1    3    3    0    0  0.53600655781E+01 -0.85223209280E+01  0.78301790758E+01  0.12754291890E+02  0.51100000000E-03 0.  1.
        -12    1    3    3    0    0  0.13786101942E+02 -0.18482381113E+02 -0.11234173938E+01  0.23084996968E+02  0.00000000000E+00 0.  1.
</event>
<event>
 7    1  0.1813014E-010  0.4778727E+02  0.7816164E-02  0.1312668E+00
        -11   -1    0    0    0    0  0.00000000000E+00  0.00000000000E+00  0.45593999997E+02  0.45594000000E+02  0.51100000000E-03 0.  1.
         11   -1    0    0    0    0 -0.00000000000E+00 -0.00000000000E+00 -0.45593999997E+02  0.45594000000E+02  0.51100000000E-03 0. -1.
    9900012    2    1    2    0    0  0.13972492220E+02  0.40927896441E+02  0.36469302414E+01  0.47787270213E+02  0.19999996208E+02 0.  0.
         12    1    1    2    0    0 -0.13972492220E+02 -0.40927896441E+02 -0.36469302414E+01  0.43400729787E+02  0.00000000000E+00 0. -1.
         11    1    3    3    0    0 -0.44535959489E+00  0.49877692069E+01  0.16319351005E+00  0.50102713712E+01  0.51100000000E-03 0. -1.
        -11    1    3    3    0    0  0.96241632589E+01  0.33573716816E+02 -0.21734686199E+01  0.34993470039E+02  0.51100000000E-03 0.  1.
         12    1    3    3    0    0  0.47936885557E+01  0.23664104181E+01  0.56572053512E+01  0.77835288026E+01  0.00000000000E+00 0. -1.
</event>
<event>
 7    1  0.1813014E-010  0.4778727E+02  0.7816164E-02  0.1312668E+00
        -11   -1    0    0    0    0  0.00000000000E+00  0.00000000000E+00  0.45593999997E+02  0.45594000000E+02  0.51100000000E-03 0.  1.
         11   -1    0    0    0    0 -0.00000000000E+00 -0.00000000000E+00 -0.45593999997E+02  0.45594000000E+02  0.51100000000E-03 0. -1.
    9900012    2    1    2    0    0  0.39509607305E+02 -0.45663069560E+01  0.17371326639E+02  0.47787271690E+02  0.20000002943E+02 0.  0.
         12    1    1    2    0    0 -0.39509607305E+02  0.45663069560E+01 -0.17371326639E+02  0.43400728310E+02  0.00000000000E+00 0. -1.
         11    1    3    3    0    0  0.66743626815E+01  0.45192877903E+01  0.34476338942E+01  0.87668271949E+01  0.51100000000E-03 0. -1.
        -11    1    3    3    0    0  0.13820737697E+02 -0.10398465675E+01 -0.44347729572E+00  0.13866893804E+02  0.51100000000E-03 0.  1.
         12    1    3    3    0    0  0.19014506926E+02 -0.80457481788E+01  0.14367170041E+02  0.25153550691E+02  0.00000000000E+00 0. -1.
</event>
<event>
 7    1  0.1813014E-010  0.4778727E+02  0.7816164E-02  0.1312668E+00
        -11   -1    0    0    0    0  0.00000000000E+00  0.00000000000E+00  0.45593999997E+02  0.45594000000E+02  0.51100000000E-03 0. -1.
         11   -1    0    0    0    0 -0.00000000000E+00 -0.00000000000E+00 -0.45593999997E+02  0.45594000000E+02  0.51100000000E-03 0.  1.
    9900012    2    1    2    0    0 -0.37258129671E+02 -0.22049839646E+02 -0.30429344245E+01  0.47787272991E+02  0.20000008876E+02 0.  0.
         12    1    1    2    0    0  0.37258129671E+02  0.22049839646E+02  0.30429344245E+01  0.43400727009E+02  0.00000000000E+00 0. -1.
         11    1    3    3    0    0 -0.14997601839E+02 -0.98344410830E+01 -0.33984661165E+01  0.18253598674E+02  0.51100000000E-03 0.  1.
        -11    1    3    3    0    0 -0.54281836052E+01  0.21064566244E+01 -0.39253218140E+01  0.70221427191E+01  0.51100000000E-03 0. -1.
         12    1    3    3    0    0 -0.16832344227E+02 -0.14321855187E+02  0.42808535060E+01  0.22511531598E+02  0.00000000000E+00 0. -1.
</event>
<event>
 7    1  0.1813014E-010  0.4778729E+02  0.7816164E-02  0.1312668E+00
        -11   -1    0    0    0    0  0.00000000000E+00  0.00000000000E+00  0.45593999997E+02  0.45594000000E+02  0.51100000000E-03 0.  1.
         11   -1    0    0    0    0 -0.00000000000E+00 -0.00000000000E+00 -0.45593999997E+02  0.45594000000E+02  0.51100000000E-03 0. -1.
    9900012    2    1    2    0    0  0.12596260147E+02  0.38758889698E+02  0.14923293401E+02  0.47787285879E+02  0.20000067637E+02 0.  0.
         12    1    1    2    0    0 -0.12596260147E+02 -0.38758889698E+02 -0.14923293401E+02  0.43400714121E+02  0.00000000000E+00 0. -1.
         11    1    3    3    0    0  0.24534969180E+01  0.21860178722E+02  0.17454661212E+01  0.22066574567E+02  0.51100000000E-03 0. -1.
        -11    1    3    3    0    0 -0.13796241862E+01  0.50182115440E+01  0.13446624041E+01  0.53753071761E+01  0.51100000000E-03 0.  1.
         12    1    3    3    0    0  0.11522387415E+02  0.11880499432E+02  0.11833164875E+02  0.20345404136E+02  0.00000000000E+00 0. -1.
</event>
<event>
 7    1  0.1813014E-010  0.4778727E+02  0.7816164E-02  0.1312668E+00
        -11   -1    0    0    0    0  0.00000000000E+00  0.00000000000E+00  0.45593999997E+02  0.45594000000E+02  0.51100000000E-03 0.  1.
         11   -1    0    0    0    0 -0.00000000000E+00 -0.00000000000E+00 -0.45593999997E+02  0.45594000000E+02  0.51100000000E-03 0. -1.
    9900012    2    1    2    0    0  0.46297924480E-01  0.25385897780E+02  0.35201952767E+02  0.47787269266E+02  0.19999991893E+02 0.  0.
         12    1    1    2    0    0 -0.46297924480E-01 -0.25385897780E+02 -0.35201952767E+02  0.43400730734E+02  0.00000000000E+00 0. -1.
         11    1    3    3    0    0 -0.22701341105E+01  0.72908233706E+00  0.13915570294E+02  0.14118362752E+02  0.51100000000E-03 0. -1.
        -11    1    3    3    0    0  0.45325263679E+01  0.73451726330E+01  0.72467100627E+01  0.11269878583E+02  0.51100000000E-03 0.  1.
         12    1    3    3    0    0 -0.22160943329E+01  0.17311642810E+02  0.14039672411E+02  0.22399027931E+02  0.00000000000E+00 0. -1.
</event>
<event>
 7    1  0.1813014E-010  0.4778728E+02  0.7816164E-02  0.1312668E+00
        -11   -1    0    0    0    0  0.00000000000E+00  0.00000000000E+00  0.45593999997E+02  0.45594000000E+02  0.51100000000E-03 0.  1.
         11   -1    0    0    0    0 -0.00000000000E+00 -0.00000000000E+00 -0.45593999997E+02  0.45594000000E+02  0.51100000000E-03 0. -1.
    9900012    2    1    2    0    0 -0.12328106111E+02  0.36432382408E+02  0.20107761675E+02  0.47787276875E+02  0.20000026582E+02 0.  0.
         12    1    1    2    0    0  0.12328106111E+02 -0.36432382408E+02 -0.20107761675E+02  0.43400723125E+02  0.00000000000E+00 0. -1.
         11    1    3    3    0    0  0.16972538682E+01  0.12124782096E+02  0.34023610108E+00  0.12247725194E+02  0.51100000000E-03 0. -1.
        -11    1    3    3    0    0 -0.29683080237E+01  0.32097322819E+01  0.76588572696E+01  0.88188054056E+01  0.51100000000E-03 0.  1.
        -12    1    3    3    0    0 -0.11057051956E+02  0.21097868030E+02  0.12108668304E+02  0.26720746275E+02  0.00000000000E+00 0.  1.
</event>
<event>
 7    1  0.1813014E-010  0.4778728E+02  0.7816164E-02  0.1312668E+00
        -11   -1    0    0    0    0  0.00000000000E+00  0.00000000000E+00  0.45593999997E+02  0.45594000000E+02  0.51100000000E-03 0. -1.
         11   -1    0    0    0    0 -0.00000000000E+00 -0.00000000000E+00 -0.45593999997E+02  0.45594000000E+02  0.51100000000E-03 0.  1.
    9900012    2    1    2    0    0  0.38385384824E+02 -0.11323156120E+02 -0.16791999211E+02  0.47787275696E+02  0.20000021210E+02 0.  0.
         12    1    1    2    0    0 -0.38385384824E+02  0.11323156120E+02  0.16791999211E+02  0.43400724304E+02  0.00000000000E+00 0. -1.
         11    1    3    3    0    0  0.24303250514E+02 -0.75808646228E+01 -0.14979920649E+02  0.29538373634E+02  0.51100000000E-03 0.  1.
        -11    1    3    3    0    0 -0.28839649243E+00  0.10867775046E+01 -0.28393971125E+01  0.30539211033E+01  0.51100000000E-03 0. -1.
         12    1    3    3    0    0  0.14370530802E+02 -0.48290690023E+01  0.10273185509E+01  0.15194980959E+02  0.00000000000E+00 0. -1.
</event>
<event>
 7    1  0.1813014E-010  0.4778727E+02  0.7816164E-02  0.1312668E+00
        -11   -1    0    0    0    0  0.00000000000E+00  0.00000000000E+00  0.45593999997E+02  0.45594000000E+02  0.51100000000E-03 0.  1.
         11   -1    0    0    0    0 -0.00000000000E+00 -0.00000000000E+00 -0.45593999997E+02  0.45594000000E+02  0.51100000000E-03 0. -1.
    9900012    2    1    2    0    0 -0.88491612498E+01 -0.42120655821E+02 -0.55826419351E+01  0.47787271981E+02  0.20000004268E+02 0.  0.
         12    1    1    2    0    0  0.88491612498E+01  0.42120655821E+02  0.55826419351E+01  0.43400728019E+02  0.00000000000E+00 0. -1.
         11    1    3    3    0    0  0.18949414770E+01 -0.16713715419E+02  0.19719360816E+01  0.16935985902E+02  0.51100000000E-03 0. -1.
        -11    1    3    3    0    0 -0.60980897845E+01 -0.22666929581E+02 -0.92010021949E+01  0.25211799565E+02  0.51100000000E-03 0.  1.
         12    1    3    3    0    0 -0.46460129423E+01 -0.27400108211E+01  0.16464241782E+01  0.56394865134E+01  0.00000000000E+00 0. -1.
</event>
<event>
 7    1  0.1813014E-010  0.4778728E+02  0.7816164E-02  0.1312668E+00
        -11   -1    0    0    0    0  0.00000000000E+00  0.00000000000E+00  0.45593999997E+02  0.45594000000E+02  0.51100000000E-03 0.  1.
         11   -1    0    0    0    0 -0.00000000000E+00 -0.00000000000E+00 -0.45593999997E+02  0.45594000000E+02  0.51100000000E-03 0. -1.
    9900012    2    1    2    0    0 -0.30464434394E+02  0.30895385429E+02 -0.10079545425E+01  0.47787279084E+02  0.20000036653E+02 0.  0.
         12    1    1    2    0    0  0.30464434394E+02 -0.30895385429E+02  0.10079545425E+01  0.43400720916E+02  0.00000000000E+00 0. -1.
         11    1    3    3    0    0 -0.13102791820E+02  0.75481611832E+01  0.38457472794E+01  0.15602809463E+02  0.51100000000E-03 0. -1.
        -11    1    3    3    0    0 -0.39538562628E+01  0.16783020987E+01 -0.51436313204E+01  0.67012402361E+01  0.51100000000E-03 0.  1.
        -12    1    3    3    0    0 -0.13407786310E+02  0.21668922147E+02  0.28992949846E+00  0.25483229384E+02  0.00000000000E+00 0.  1.
</event>
<event>
 7    1  0.1813014E-010  0.4778727E+02  0.7816164E-02  0.1312668E+00
        -11   -1    0    0    0    0  0.00000000000E+00  0.00000000000E+00  0.45593999997E+02  0.45594000000E+02  0.51100000000E-03 0. -1.
         11   -1    0    0    0    0 -0.00000000000E+00 -0.00000000000E+00 -0.45593999997E+02  0.45594000000E+02  0.51100000000E-03 0.  1.
    9900012    2    1    2    0    0 -0.23466333335E+02  0.36003950598E+02 -0.60555911062E+01  0.47787269102E+02  0.19999991142E+02 0.  0.
         12    1    1    2    0    0  0.23466333335E+02 -0.36003950598E+02  0.60555911062E+01  0.43400730898E+02  0.00000000000E+00 0. -1.
         11    1    3    3    0    0  0.19403839042E+01  0.57765822450E+01 -0.40226176866E+01  0.73017426306E+01  0.51100000000E-03 0. -1.
        -11    1    3    3    0    0 -0.12957177493E+02  0.19757449455E+02 -0.44423719496E+01  0.24041213080E+02  0.51100000000E-03 0.  1.
        -12    1    3    3    0    0 -0.12449539747E+02  0.10469918898E+02  0.24093985300E+01  0.16444313391E+02  0.00000000000E+00 0.  1.
</event>
<event>
 7    1  0.1813014E-010  0.4778727E+02  0.7816164E-02  0.1312668E+00
        -11   -1    0    0    0    0  0.00000000000E+00  0.00000000000E+00  0.45593999997E+02  0.45594000000E+02  0.51100000000E-03 0.  1.
         11   -1    0    0    0    0 -0.00000000000E+00 -0.00000000000E+00 -0.45593999997E+02  0.45594000000E+02  0.51100000000E-03 0. -1.
    9900012    2    1    2    0    0  0.31474755788E+02  0.24029407666E+02  0.17763743170E+02  0.47787271250E+02  0.20000000935E+02 0.  0.
         12    1    1    2    0    0 -0.31474755788E+02 -0.24029407666E+02 -0.17763743170E+02  0.43400728750E+02  0.00000000000E+00 0. -1.
         11    1    3    3    0    0  0.95551332804E+00  0.37961962757E+01  0.26668553616E+00  0.39236759958E+01  0.51100000000E-03 0. -1.
        -11    1    3    3    0    0  0.30360425966E+02  0.15955543999E+02  0.19141920940E+02  0.39277830728E+02  0.51100000000E-03 0.  1.
        -12    1    3    3    0    0  0.15881649349E+00  0.42776673908E+01 -0.16448633068E+01  0.45857645255E+01  0.00000000000E+00 0.  1.
</event>
<event>
 7    1  0.1813014E-010  0.4778727E+02  0.7816164E-02  0.1312668E+00
        -11   -1    0    0    0    0  0.00000000000E+00  0.00000000000E+00  0.45593999997E+02  0.45594000000E+02  0.51100000000E-03 0.  1.
         11   -1    0    0    0    0 -0.00000000000E+00 -0.00000000000E+00 -0.45593999997E+02  0.45594000000E+02  0.51100000000E-03 0. -1.
    9900012    2    1    2    0    0 -0.38686469392E+02  0.11681923264E+02 -0.15827610148E+02  0.47787268575E+02  0.19999988743E+02 0.  0.
         12    1    1    2    0    0  0.38686469392E+02 -0.11681923264E+02  0.15827610148E+02  0.43400731425E+02  0.00000000000E+00 0. -1.
         11    1    3    3    0    0 -0.13470285172E+02  0.86291558590E+01 -0.52073616555E+01  0.16823422040E+02  0.51100000000E-03 0. -1.
        -11    1    3    3    0    0 -0.24928130545E+02 -0.23098487129E+00 -0.66449064025E+01  0.25799609064E+02  0.51100000000E-03 0.  1.
         12    1    3    3    0    0 -0.28805367497E+00  0.32837522763E+01 -0.39753420903E+01  0.51642374720E+01  0.00000000000E+00 0. -1.
</event>
<event>
 7    1  0.1813014E-010  0.4778723E+02  0.7816164E-02  0.1312668E+00
        -11   -1    0    0    0    0  0.00000000000E+00  0.00000000000E+00  0.45593999997E+02  0.45594000000E+02  0.51100000000E-03 0.  1.
         11   -1    0    0    0    0 -0.00000000000E+00 -0.00000000000E+00 -0.45593999997E+02  0.45594000000E+02  0.51100000000E-03 0. -1.
    9900012    2    1    2    0    0  0.39045027142E+02  0.15079499559E+02  0.11476990718E+02  0.47787230797E+02  0.19999816495E+02 0.  0.
         12    1    1    2    0    0 -0.39045027142E+02 -0.15079499559E+02 -0.11476990718E+02  0.43400769203E+02  0.00000000000E+00 0. -1.
         11    1    3    3    0    0  0.25003474979E+02  0.17152187370E+02  0.63034625481E+01  0.30969419319E+02  0.51100000000E-03 0. -1.
        -11    1    3    3    0    0  0.12163056756E+02  0.84173868527E+00  0.25157084727E+01  0.12448986427E+02  0.51100000000E-03 0.  1.
         12    1    3    3    0    0  0.18784954068E+01 -0.29144264957E+01  0.26578196967E+01  0.43688250517E+01  0.00000000000E+00 0. -1.
</event>
<event>
 7    1  0.1813014E-010  0.4778727E+02  0.7816164E-02  0.1312668E+00
        -11   -1    0    0    0    0  0.00000000000E+00  0.00000000000E+00  0.45593999997E+02  0.45594000000E+02  0.51100000000E-03 0.  1.
         11   -1    0    0    0    0 -0.00000000000E+00 -0.00000000000E+00 -0.45593999997E+02  0.45594000000E+02  0.51100000000E-03 0. -1.
    9900012    2    1    2    0    0 -0.16033013561E+01 -0.14320640654E+02  0.40938634771E+02  0.47787272577E+02  0.20000006985E+02 0.  0.
         12    1    1    2    0    0  0.16033013561E+01  0.14320640654E+02 -0.40938634771E+02  0.43400727423E+02  0.00000000000E+00 0. -1.
         11    1    3    3    0    0 -0.17816622428E+01 -0.74055628608E+01  0.13679087614E+02  0.15656759558E+02  0.51100000000E-03 0. -1.
        -11    1    3    3    0    0 -0.32869401939E+01 -0.82998881803E+01  0.26945259813E+02  0.28385544672E+02  0.51100000000E-03 0.  1.
         12    1    3    3    0    0  0.34653010805E+01  0.13848103869E+01  0.31428734348E+00  0.37449683471E+01  0.00000000000E+00 0. -1.
</event>
<event>
 7    1  0.1813014E-010  0.4778727E+02  0.7816164E-02  0.1312668E+00
        -11   -1    0    0    0    0  0.00000000000E+00  0.00000000000E+00  0.45593999997E+02  0.45594000000E+02  0.51100000000E-03 0. -1.
         11   -1    0    0    0    0 -0.00000000000E+00 -0.00000000000E+00 -0.45593999997E+02  0.45594000000E+02  0.51100000000E-03 0.  1.
    9900012    2    1    2    0    0 -0.17320859389E+00  0.64964923069E+01 -0.42911409778E+02  0.47787268409E+02  0.19999987982E+02 0.  0.
         12    1    1    2    0    0  0.17320859389E+00 -0.64964923069E+01  0.42911409778E+02  0.43400731591E+02  0.00000000000E+00 0. -1.
         11    1    3    3    0    0 -0.45021408207E+01  0.16236604429E+01 -0.24875605478E+02  0.25331823728E+02  0.51100000000E-03 0. -1.
        -11    1    3    3    0    0  0.43709977518E+01  0.83316350202E+01 -0.15625435553E+02  0.18239407884E+02  0.51100000000E-03 0.  1.
         12    1    3    3    0    0 -0.42065524920E-01 -0.34588031562E+01 -0.24103687468E+01  0.42160367974E+01  0.00000000000E+00 0. -1.
</event>
<event>
 7    1  0.1813014E-010  0.4778728E+02  0.7816164E-02  0.1312668E+00
        -11   -1    0    0    0    0  0.00000000000E+00  0.00000000000E+00  0.45593999997E+02  0.45594000000E+02  0.51100000000E-03 0.  1.
         11   -1    0    0    0    0 -0.00000000000E+00 -0.00000000000E+00 -0.45593999997E+02  0.45594000000E+02  0.51100000000E-03 0. -1.
    9900012    2    1    2    0    0  0.28148131902E+02 -0.25447959812E+01  0.32936745394E+02  0.47787279806E+02  0.20000039950E+02 0.  0.
         12    1    1    2    0    0 -0.28148131902E+02  0.25447959812E+01 -0.32936745394E+02  0.43400720194E+02  0.00000000000E+00 0. -1.
         11    1    3    3    0    0  0.76774104171E+01 -0.48060564072E+01  0.28230200596E+01  0.94873732624E+01  0.51100000000E-03 0. -1.
        -11    1    3    3    0    0  0.13734283475E+02 -0.33640351885E+01  0.23016157584E+02  0.27012789296E+02  0.51100000000E-03 0.  1.
         12    1    3    3    0    0  0.67364380092E+01  0.56252956145E+01  0.70975677503E+01  0.11287117248E+02  0.00000000000E+00 0. -1.
</event>
<event>
 7    1  0.1813014E-010  0.4778727E+02  0.7816164E-02  0.1312668E+00
        -11   -1    0    0    0    0  0.00000000000E+00  0.00000000000E+00  0.45593999997E+02  0.45594000000E+02  0.51100000000E-03 0.  1.
         11   -1    0    0    0    0 -0.00000000000E+00 -0.00000000000E+00 -0.45593999997E+02  0.45594000000E+02  0.51100000000E-03 0. -1.
    9900012    2    1    2    0    0 -0.25135512508E+02  0.18717183119E+02  0.30024929536E+02  0.47787270437E+02  0.19999997231E+02 0.  0.
         12    1    1    2    0    0  0.25135512508E+02 -0.18717183119E+02 -0.30024929536E+02  0.43400729563E+02  0.00000000000E+00 0. -1.
         11    1    3    3    0    0 -0.74519569317E+00 -0.18201869670E+01 -0.11365346144E+01  0.22715871999E+01  0.51100000000E-03 0. -1.
        -11    1    3    3    0    0 -0.83703962883E+01  0.12387912275E+02  0.16957388387E+02  0.22607010544E+02  0.51100000000E-03 0.  1.
        -12    1    3    3    0    0 -0.16019920526E+02  0.81494578116E+01  0.14204075763E+02  0.22908672693E+02  0.00000000000E+00 0.  1.
</event>
<event>
 7    1  0.1813014E-010  0.4778727E+02  0.7816164E-02  0.1312668E+00
        -11   -1    0    0    0    0  0.00000000000E+00  0.00000000000E+00  0.45593999997E+02  0.45594000000E+02  0.51100000000E-03 0.  1.
         11   -1    0    0    0    0 -0.00000000000E+00 -0.00000000000E+00 -0.45593999997E+02  0.45594000000E+02  0.51100000000E-03 0. -1.
    9900012    2    1    2    0    0 -0.17726722588E+02 -0.39116899267E+02 -0.62653591279E+01  0.47787271585E+02  0.20000002464E+02 0.  0.
         12    1    1    2    0    0  0.17726722588E+02  0.39116899267E+02  0.62653591279E+01  0.43400728415E+02  0.00000000000E+00 0. -1.
         11    1    3    3    0    0 -0.54128334008E+01 -0.75391819581E+00  0.18768024499E+01  0.57783687809E+01  0.51100000000E-03 0. -1.
        -11    1    3    3    0    0 -0.27936453681E+01 -0.19638413843E+02 -0.11481211078E+01  0.19869321454E+02  0.51100000000E-03 0.  1.
        -12    1    3    3    0    0 -0.95202438194E+01 -0.18724567228E+02 -0.69940404700E+01  0.22139581350E+02  0.00000000000E+00 0.  1.
</event>
<event>
 7    1  0.1813014E-010  0.4778727E+02  0.7816164E-02  0.1312668E+00
        -11   -1    0    0    0    0  0.00000000000E+00  0.00000000000E+00  0.45593999997E+02  0.45594000000E+02  0.51100000000E-03 0.  1.
         11   -1    0    0    0    0 -0.00000000000E+00 -0.00000000000E+00 -0.45593999997E+02  0.45594000000E+02  0.51100000000E-03 0. -1.
    9900012    2    1    2    0    0  0.13840967387E+02 -0.65844429986E+01  0.40604138184E+02  0.47787270680E+02  0.19999998338E+02 0.  0.
         12    1    1    2    0    0 -0.13840967387E+02  0.65844429986E+01 -0.40604138184E+02  0.43400729320E+02  0.00000000000E+00 0. -1.
         11    1    3    3    0    0  0.31341866833E+00  0.87067007565E-01  0.12795068672E+02  0.12799202886E+02  0.51100000000E-03 0. -1.
        -11    1    3    3    0    0  0.13097908695E+02 -0.10707214377E+02  0.24381352762E+02  0.29675747920E+02  0.51100000000E-03 0.  1.
         12    1    3    3    0    0  0.42964002360E+00  0.40357043705E+01  0.34277167509E+01  0.53123198737E+01  0.00000000000E+00 0. -1.
</event>
<event>
 7    1  0.1813014E-010  0.4778727E+02  0.7816164E-02  0.1312668E+00
        -11   -1    0    0    0    0  0.00000000000E+00  0.00000000000E+00  0.45593999997E+02  0.45594000000E+02  0.51100000000E-03 0. -1.
         11   -1    0    0    0    0 -0.00000000000E+00 -0.00000000000E+00 -0.45593999997E+02  0.45594000000E+02  0.51100000000E-03 0.  1.
    9900012    2    1    2    0    0  0.26697484934E+02 -0.33540138307E+02 -0.67769138516E+01  0.47787272578E+02  0.20000006991E+02 0.  0.
         12    1    1    2    0    0 -0.26697484934E+02  0.33540138307E+02  0.67769138516E+01  0.43400727422E+02  0.00000000000E+00 0. -1.
         11    1    3    3    0    0  0.67206875299E+01 -0.12291326003E+01 -0.37469661501E+01  0.77921860485E+01  0.51100000000E-03 0. -1.
        -11    1    3    3    0    0  0.30068340471E+01 -0.16191334648E+02 -0.89981614286E+00  0.16492726822E+02  0.51100000000E-03 0.  1.
         12    1    3    3    0    0  0.16969963357E+02 -0.16119671058E+02 -0.21301315587E+01  0.23502359707E+02  0.00000000000E+00 0. -1.
</event>
<event>
 7    1  0.1813014E-010  0.4778727E+02  0.7816164E-02  0.1312668E+00
        -11   -1    0    0    0    0  0.00000000000E+00  0.00000000000E+00  0.45593999997E+02  0.45594000000E+02  0.51100000000E-03 0.  1.
         11   -1    0    0    0    0 -0.00000000000E+00 -0.00000000000E+00 -0.45593999997E+02  0.45594000000E+02  0.51100000000E-03 0. -1.
    9900012    2    1    2    0    0 -0.90757826309E+01  0.18210145813E+02 -0.38335936186E+02  0.47787271387E+02  0.20000001563E+02 0.  0.
         12    1    1    2    0    0  0.90757826309E+01 -0.18210145813E+02  0.38335936186E+02  0.43400728613E+02  0.00000000000E+00 0. -1.
         11    1    3    3    0    0 -0.26570483069E+01 -0.20247252678E+00 -0.86188048661E+01  0.90213468180E+01  0.51100000000E-03 0.  1.
        -11    1    3    3    0    0 -0.77374977221E+00  0.13202611556E+01 -0.16157417701E+02  0.16229723512E+02  0.51100000000E-03 0. -1.
        -12    1    3    3    0    0 -0.56449845517E+01  0.17092357184E+02 -0.13559713618E+02  0.22536201058E+02  0.00000000000E+00 0.  1.
</event>
<event>
 7    1  0.1813014E-010  0.4778727E+02  0.7816164E-02  0.1312668E+00
        -11   -1    0    0    0    0  0.00000000000E+00  0.00000000000E+00  0.45593999997E+02  0.45594000000E+02  0.51100000000E-03 0.  1.
         11   -1    0    0    0    0 -0.00000000000E+00 -0.00000000000E+00 -0.45593999997E+02  0.45594000000E+02  0.51100000000E-03 0. -1.
    9900012    2    1    2    0    0  0.18745555078E+02 -0.38043800060E+02  0.92139472678E+01  0.47787269793E+02  0.19999994296E+02 0.  0.
         12    1    1    2    0    0 -0.18745555078E+02  0.38043800060E+02 -0.92139472678E+01  0.43400730207E+02  0.00000000000E+00 0. -1.
         11    1    3    3    0    0  0.52499480208E+01 -0.18835339031E+02  0.12382080984E+02  0.23144067931E+02  0.51100000000E-03 0.  1.
        -11    1    3    3    0    0  0.75562418078E+01 -0.56253315463E+01  0.27286374916E+00  0.94242028920E+01  0.51100000000E-03 0. -1.
        -12    1    3    3    0    0  0.59393652497E+01 -0.13583129482E+02 -0.34409974650E+01  0.15218998970E+02  0.00000000000E+00 0.  1.
</event>
<event>
 7    1  0.1813014E-010  0.4778727E+02  0.7816164E-02  0.1312668E+00
        -11   -1    0    0    0    0  0.00000000000E+00  0.00000000000E+00  0.45593999997E+02  0.45594000000E+02  0.51100000000E-03 0.  1.
         11   -1    0    0    0    0 -0.00000000000E+00 -0.00000000000E+00 -0.45593999997E+02  0.45594000000E+02  0.51100000000E-03 0. -1.
    9900012    2    1    2    0    0 -0.39676712011E+01  0.27201357909E+01  0.43133302473E+02  0.47787270332E+02  0.19999996754E+02 0.  0.
         12    1    1    2    0    0  0.39676712011E+01 -0.27201357909E+01 -0.43133302473E+02  0.43400729668E+02  0.00000000000E+00 0. -1.
         11    1    3    3    0    0 -0.24117642023E+01 -0.53226142987E+00  0.29035189610E+02  0.29140043664E+02  0.51100000000E-03 0.  1.
        -11    1    3    3    0    0  0.27585653919E+01 -0.33185759576E+01  0.43936452139E+01  0.61584696097E+01  0.51100000000E-03 0. -1.
        -12    1    3    3    0    0 -0.43144723907E+01  0.65709731783E+01  0.97044676489E+01  0.12488757059E+02  0.00000000000E+00 0.  1.
</event>
<event>
 7    1  0.1813014E-010  0.4778727E+02  0.7816164E-02  0.1312668E+00
        -11   -1    0    0    0    0  0.00000000000E+00  0.00000000000E+00  0.45593999997E+02  0.45594000000E+02  0.51100000000E-03 0. -1.
         11   -1    0    0    0    0 -0.00000000000E+00 -0.00000000000E+00 -0.45593999997E+02  0.45594000000E+02  0.51100000000E-03 0.  1.
    9900012    2    1    2    0    0  0.39842690826E+02  0.14183117519E+02 -0.97479486907E+01  0.47787270300E+02  0.19999996607E+02 0.  0.
         12    1    1    2    0    0 -0.39842690826E+02 -0.14183117519E+02  0.97479486907E+01  0.43400729700E+02  0.00000000000E+00 0. -1.
         11    1    3    3    0    0  0.29181280265E+02  0.44115656003E+01 -0.12504670880E+02  0.32052703833E+02  0.51100000000E-03 0. -1.
        -11    1    3    3    0    0  0.59685746251E+01  0.77417063179E+01 -0.29546213779E+00  0.97798362923E+01  0.51100000000E-03 0.  1.
        -12    1    3    3    0    0  0.46928359357E+01  0.20298456012E+01  0.30521843275E+01  0.59547301747E+01  0.00000000000E+00 0.  1.
</event>
<event>
 7    1  0.1813014E-010  0.4778727E+02  0.7816164E-02  0.1312668E+00
        -11   -1    0    0    0    0  0.00000000000E+00  0.00000000000E+00  0.45593999997E+02  0.45594000000E+02  0.51100000000E-03 0.  1.
         11   -1    0    0    0    0 -0.00000000000E+00 -0.00000000000E+00 -0.45593999997E+02  0.45594000000E+02  0.51100000000E-03 0. -1.
    9900012    2    1    2    0    0  0.10152492968E+02 -0.32356336907E+02  0.27085378466E+02  0.47787269843E+02  0.19999994521E+02 0.  0.
         12    1    1    2    0    0 -0.10152492968E+02  0.32356336907E+02 -0.27085378466E+02  0.43400730157E+02  0.00000000000E+00 0. -1.
         11    1    3    3    0    0  0.46114943631E+01 -0.76197875495E+01  0.16790303611E+02  0.19006349943E+02  0.51100000000E-03 0. -1.
        -11    1    3    3    0    0 -0.18088992273E+01 -0.28139223050E+01 -0.27711350017E+00  0.33566452458E+01  0.51100000000E-03 0.  1.
        -12    1    3    3    0    0  0.73498978323E+01 -0.21922627053E+02  0.10572188356E+02  0.25424274654E+02  0.00000000000E+00 0.  1.
</event>
<event>
 7    1  0.1813014E-010  0.4778727E+02  0.7816164E-02  0.1312668E+00
        -11   -1    0    0    0    0  0.00000000000E+00  0.00000000000E+00  0.45593999997E+02  0.45594000000E+02  0.51100000000E-03 0.  1.
         11   -1    0    0    0    0 -0.00000000000E+00 -0.00000000000E+00 -0.45593999997E+02  0.45594000000E+02  0.51100000000E-03 0. -1.
    9900012    2    1    2    0    0 -0.39111769099E+02  0.16095494414E+02  0.97379534737E+01  0.47787272353E+02  0.20000005965E+02 0.  0.
         12    1    1    2    0    0  0.39111769099E+02 -0.16095494414E+02 -0.97379534737E+01  0.43400727647E+02  0.00000000000E+00 0. -1.
         11    1    3    3    0    0 -0.10421615987E+02  0.80418138868E+01  0.11876317404E+02  0.17729291179E+02  0.51100000000E-03 0. -1.
        -11    1    3    3    0    0 -0.12177646535E+02  0.50077278823E+01 -0.34777804440E+00  0.13171687952E+02  0.51100000000E-03 0.  1.
         12    1    3    3    0    0 -0.16512506576E+02  0.30459526446E+01 -0.17905858858E+01  0.16886293221E+02  0.00000000000E+00 0. -1.
</event>
<event>
 7    1  0.1944460E-010  0.4778727E+02  0.7816164E-02  0.1312668E+00
        -11   -1    0    0    0    0  0.00000000000E+00  0.00000000000E+00  0.45593999997E+02  0.45594000000E+02  0.51100000000E-03 0. -1.
         11   -1    0    0    0    0 -0.00000000000E+00 -0.00000000000E+00 -0.45593999997E+02  0.45594000000E+02  0.51100000000E-03 0.  1.
    9900012    2    1    2    0    0 -0.28793246206E+02  0.14224888921E+02 -0.29192888215E+02  0.47787271732E+02  0.20000003133E+02 0.  0.
         12    1    1    2    0    0  0.28793246206E+02 -0.14224888921E+02  0.29192888215E+02  0.43400728268E+02  0.00000000000E+00 0. -1.
         11    1    3    3    0    0 -0.67934681117E+01  0.39033398256E+01 -0.85655577703E-01  0.78354711356E+01  0.51100000000E-03 0. -1.
        -11    1    3    3    0    0 -0.23629336862E+02  0.91847924390E+01 -0.27435184057E+02  0.37354990258E+02  0.51100000000E-03 0.  1.
         12    1    3    3    0    0  0.16295587680E+01  0.11367566567E+01 -0.16720485807E+01  0.25968103379E+01  0.00000000000E+00 0. -1.
</event>
<event>
 7    1  0.1813014E-010  0.4778727E+02  0.7816164E-02  0.1312668E+00
        -11   -1    0    0    0    0  0.00000000000E+00  0.00000000000E+00  0.45593999997E+02  0.45594000000E+02  0.51100000000E-03 0. -1.
         11   -1    0    0    0    0 -0.00000000000E+00 -0.00000000000E+00 -0.45593999997E+02  0.45594000000E+02  0.51100000000E-03 0.  1.
    9900012    2    1    2    0    0  0.11114734950E+02 -0.23259944984E+02 -0.34915053536E+02  0.47787270317E+02  0.19999996682E+02 0.  0.
         12    1    1    2    0    0 -0.11114734950E+02  0.23259944984E+02  0.34915053536E+02  0.43400729683E+02  0.00000000000E+00 0. -1.
         11    1    3    3    0    0  0.11214324649E+01 -0.36761670387E+01 -0.16173395111E+02  0.16623793928E+02  0.51100000000E-03 0. -1.
        -11    1    3    3    0    0  0.10604622972E+02 -0.12284855410E+02 -0.17258530554E+02  0.23690347781E+02  0.51100000000E-03 0.  1.
        -12    1    3    3    0    0 -0.61132048694E+00 -0.72989225353E+01 -0.14831278701E+01  0.74731286081E+01  0.00000000000E+00 0.  1.
</event>
<event>
 7    1  0.1813014E-010  0.4778727E+02  0.7816164E-02  0.1312668E+00
        -11   -1    0    0    0    0  0.00000000000E+00  0.00000000000E+00  0.45593999997E+02  0.45594000000E+02  0.51100000000E-03 0. -1.
         11   -1    0    0    0    0 -0.00000000000E+00 -0.00000000000E+00 -0.45593999997E+02  0.45594000000E+02  0.51100000000E-03 0.  1.
    9900012    2    1    2    0    0 -0.42520030443E+02  0.86804708563E+01 -0.56575976102E+00  0.47787266743E+02  0.19999980386E+02 0.  0.
         12    1    1    2    0    0  0.42520030443E+02 -0.86804708563E+01  0.56575976102E+00  0.43400733257E+02  0.00000000000E+00 0. -1.
         11    1    3    3    0    0 -0.30152114534E+01  0.75318638781E+00  0.58420418585E+01  0.66172685589E+01  0.51100000000E-03 0. -1.
        -11    1    3    3    0    0 -0.14582194555E+02  0.44833412309E+01 -0.20505508988E+00  0.15257221061E+02  0.51100000000E-03 0.  1.
         12    1    3    3    0    0 -0.24922624434E+02  0.34439432375E+01 -0.62027465296E+01  0.25912777123E+02  0.00000000000E+00 0. -1.
</event>
<event>
 7    1  0.1813014E-010  0.4778727E+02  0.7816164E-02  0.1312668E+00
        -11   -1    0    0    0    0  0.00000000000E+00  0.00000000000E+00  0.45593999997E+02  0.45594000000E+02  0.51100000000E-03 0.  1.
         11   -1    0    0    0    0 -0.00000000000E+00 -0.00000000000E+00 -0.45593999997E+02  0.45594000000E+02  0.51100000000E-03 0. -1.
    9900012    2    1    2    0    0 -0.18705082962E+02 -0.16412325511E+02  0.35558100058E+02  0.47787273773E+02  0.20000012440E+02 0.  0.
         12    1    1    2    0    0  0.18705082962E+02  0.16412325511E+02 -0.35558100058E+02  0.43400726227E+02  0.00000000000E+00 0. -1.
         11    1    3    3    0    0 -0.33897402297E+01 -0.38111013872E+01 -0.45813878702E+00  0.51210081056E+01  0.51100000000E-03 0. -1.
        -11    1    3    3    0    0 -0.14680654521E+02 -0.11597890096E+02  0.23240309064E+02  0.29835291811E+02  0.51100000000E-03 0.  1.
         12    1    3    3    0    0 -0.63468821085E+00 -0.10033340278E+01  0.12775929782E+02  0.12830973856E+02  0.00000000000E+00 0. -1.
</event>
<event>
 7    1  0.1813014E-010  0.4778727E+02  0.7816164E-02  0.1312668E+00
        -11   -1    0    0    0    0  0.00000000000E+00  0.00000000000E+00  0.45593999997E+02  0.45594000000E+02  0.51100000000E-03 0.  1.
         11   -1    0    0    0    0 -0.00000000000E+00 -0.00000000000E+00 -0.45593999997E+02  0.45594000000E+02  0.51100000000E-03 0. -1.
    9900012    2    1    2    0    0  0.29486721775E+02 -0.16919494127E+01  0.31800841067E+02  0.47787274816E+02  0.20000017198E+02 0.  0.
         12    1    1    2    0    0 -0.29486721775E+02  0.16919494127E+01 -0.31800841067E+02  0.43400725184E+02  0.00000000000E+00 0. -1.
         11    1    3    3    0    0  0.15999856336E+01 -0.17789348142E+01 -0.73851610130E+00  0.25039906937E+01  0.51100000000E-03 0. -1.
        -11    1    3    3    0    0  0.81554103860E+01 -0.45629826236E+01  0.37423872423E+01  0.10066627614E+02  0.51100000000E-03 0.  1.
         12    1    3    3    0    0  0.19731325755E+02  0.46499680251E+01  0.28796969927E+02  0.35216656509E+02  0.00000000000E+00 0. -1.
</event>
<event>
 7    1  0.1813014E-010  0.4778727E+02  0.7816164E-02  0.1312668E+00
        -11   -1    0    0    0    0  0.00000000000E+00  0.00000000000E+00  0.45593999997E+02  0.45594000000E+02  0.51100000000E-03 0.  1.
         11   -1    0    0    0    0 -0.00000000000E+00 -0.00000000000E+00 -0.45593999997E+02  0.45594000000E+02  0.51100000000E-03 0. -1.
    9900012    2    1    2    0    0 -0.11928794939E+02 -0.30713272534E+02  0.28249282339E+02  0.47787271768E+02  0.20000003298E+02 0.  0.
         12    1    1    2    0    0  0.11928794939E+02  0.30713272534E+02 -0.28249282339E+02  0.43400728232E+02  0.00000000000E+00 0. -1.
         11    1    3    3    0    0 -0.77350651560E+01 -0.10124998713E+02  0.17050766873E+02  0.21285569833E+02  0.51100000000E-03 0.  1.
        -11    1    3    3    0    0 -0.49874387619E+01 -0.15212610844E+02  0.13160606639E+02  0.20724373126E+02  0.51100000000E-03 0. -1.
         12    1    3    3    0    0  0.79370897863E+00 -0.53756629772E+01 -0.19620911740E+01  0.57773288085E+01  0.00000000000E+00 0. -1.
</event>
<event>
 7    1  0.1813014E-010  0.4778727E+02  0.7816164E-02  0.1312668E+00
        -11   -1    0    0    0    0  0.00000000000E+00  0.00000000000E+00  0.45593999997E+02  0.45594000000E+02  0.51100000000E-03 0.  1.
         11   -1    0    0    0    0 -0.00000000000E+00 -0.00000000000E+00 -0.45593999997E+02  0.45594000000E+02  0.51100000000E-03 0. -1.
    9900012    2    1    2    0    0 -0.38493417555E+02 -0.80200769222E+01  0.18372769460E+02  0.47787268594E+02  0.19999988829E+02 0.  0.
         12    1    1    2    0    0  0.38493417555E+02  0.80200769222E+01 -0.18372769460E+02  0.43400731406E+02  0.00000000000E+00 0. -1.
         11    1    3    3    0    0 -0.32206381237E+02 -0.12247559647E+02  0.11533962789E+02  0.36335740085E+02  0.51100000000E-03 0.  1.
        -11    1    3    3    0    0 -0.35928246351E+01 -0.56873146244E+00  0.32927656067E+01  0.49065415454E+01  0.51100000000E-03 0. -1.
         12    1    3    3    0    0 -0.26942116834E+01  0.47962141870E+01  0.35460410645E+01  0.65449869636E+01  0.00000000000E+00 0. -1.
</event>
<event>
 7    1  0.1813014E-010  0.4778727E+02  0.7816164E-02  0.1312668E+00
        -11   -1    0    0    0    0  0.00000000000E+00  0.00000000000E+00  0.45593999997E+02  0.45594000000E+02  0.51100000000E-03 0.  1.
         11   -1    0    0    0    0 -0.00000000000E+00 -0.00000000000E+00 -0.45593999997E+02  0.45594000000E+02  0.51100000000E-03 0. -1.
    9900012    2    1    2    0    0  0.43274636166E+02 -0.32569186755E+01 -0.56720183257E+00  0.47787269908E+02  0.19999994819E+02 0.  0.
         12    1    1    2    0    0 -0.43274636166E+02  0.32569186755E+01  0.56720183257E+00  0.43400730092E+02  0.00000000000E+00 0. -1.
         11    1    3    3    0    0  0.80778327927E+01 -0.37325528145E+01 -0.15495558085E+01  0.90324114502E+01  0.51100000000E-03 0. -1.
        -11    1    3    3    0    0  0.20858535454E+02  0.10228114343E+01  0.85105972568E+01  0.22551162064E+02  0.51100000000E-03 0.  1.
         12    1    3    3    0    0  0.14338267920E+02 -0.54717729529E+00 -0.75282432809E+01  0.16203696394E+02  0.00000000000E+00 0. -1.
</event>
<event>
 7    1  0.1813014E-010  0.4778728E+02  0.7816164E-02  0.1312668E+00
        -11   -1    0    0    0    0  0.00000000000E+00  0.00000000000E+00  0.45593999997E+02  0.45594000000E+02  0.51100000000E-03 0.  1.
         11   -1    0    0    0    0 -0.00000000000E+00 -0.00000000000E+00 -0.45593999997E+02  0.45594000000E+02  0.51100000000E-03 0. -1.
    9900012    2    1    2    0    0  0.24893307169E+02  0.23315323652E+02  0.26839182748E+02  0.47787276626E+02  0.20000025447E+02 0.  0.
         12    1    1    2    0    0 -0.24893307169E+02 -0.23315323652E+02 -0.26839182748E+02  0.43400723374E+02  0.00000000000E+00 0. -1.
         11    1    3    3    0    0  0.58901007947E+01  0.44453375979E+01  0.12240348627E+02  0.14292671147E+02  0.51100000000E-03 0. -1.
        -11    1    3    3    0    0  0.84576046807E+01  0.34029932106E+01  0.11245548075E+02  0.14476663687E+02  0.51100000000E-03 0.  1.
        -12    1    3    3    0    0  0.10545601694E+02  0.15466992843E+02  0.33532860459E+01  0.19017941792E+02  0.00000000000E+00 0.  1.
</event>
<event>
 7    1  0.1813014E-010  0.4778725E+02  0.7816164E-02  0.1312668E+00
        -11   -1    0    0    0    0  0.00000000000E+00  0.00000000000E+00  0.45593999997E+02  0.45594000000E+02  0.51100000000E-03 0.  1.
         11   -1    0    0    0    0 -0.00000000000E+00 -0.00000000000E+00 -0.45593999997E+02  0.45594000000E+02  0.51100000000E-03 0. -1.
    9900012    2    1    2    0    0  0.36312405070E+02  0.96976735742E+01  0.21702298790E+02  0.47787246464E+02  0.19999887930E+02 0.  0.
         12    1    1    2    0    0 -0.36312405070E+02 -0.96976735742E+01 -0.21702298790E+02  0.43400753536E+02  0.00000000000E+00 0. -1.
         11    1    3    3    0    0  0.13199938068E+02 -0.70035241099E+00  0.36031922772E+01  0.13700797544E+02  0.51100000000E-03 0. -1.
        -11    1    3    3    0    0  0.18560715150E+02  0.45859815829E+01  0.18617463383E+02  0.26685976037E+02  0.51100000000E-03 0.  1.
         12    1    3    3    0    0  0.45517518512E+01  0.58120444024E+01 -0.51835687029E+00  0.74004728832E+01  0.00000000000E+00 0. -1.
</event>
<event>
 7    1  0.1813014E-010  0.4778727E+02  0.7816164E-02  0.1312668E+00
        -11   -1    0    0    0    0  0.00000000000E+00  0.00000000000E+00  0.45593999997E+02  0.45594000000E+02  0.51100000000E-03 0. -1.
         11   -1    0    0    0    0 -0.00000000000E+00 -0.00000000000E+00 -0.45593999997E+02  0.45594000000E+02  0.51100000000E-03 0.  1.
    9900012    2    1    2    0    0 -0.27630975419E+01 -0.37398134959E+02  0.21848746797E+02  0.47787274856E+02  0.20000017377E+02 0.  0.
         12    1    1    2    0    0  0.27630975419E+01  0.37398134959E+02 -0.21848746797E+02  0.43400725144E+02  0.00000000000E+00 0. -1.
         11    1    3    3    0    0 -0.37551422443E+01 -0.12927427581E+01  0.46243580934E+01  0.60956513311E+01  0.51100000000E-03 0. -1.
        -11    1    3    3    0    0  0.22739912718E+01 -0.19878112408E+01  0.41487941211E+01  0.51317563030E+01  0.51100000000E-03 0.  1.
        -12    1    3    3    0    0 -0.12819465694E+01 -0.34117580960E+02  0.13075594583E+02  0.36559867222E+02  0.00000000000E+00 0.  1.
</event>
<event>
 7    1  0.1813014E-010  0.4778727E+02  0.7816164E-02  0.1312668E+00
        -11   -1    0    0    0    0  0.00000000000E+00  0.00000000000E+00  0.45593999997E+02  0.45594000000E+02  0.51100000000E-03 0.  1.
         11   -1    0    0    0    0 -0.00000000000E+00 -0.00000000000E+00 -0.45593999997E+02  0.45594000000E+02  0.51100000000E-03 0. -1.
    9900012    2    1    2    0    0  0.12382991137E+02 -0.24595099795E+02  0.33546473470E+02  0.47787270909E+02  0.19999999382E+02 0.  0.
         12    1    1    2    0    0 -0.12382991137E+02  0.24595099795E+02 -0.33546473470E+02  0.43400729091E+02  0.00000000000E+00 0. -1.
         11    1    3    3    0    0 -0.90357155797E+00 -0.35214207881E+01  0.72514174484E+01  0.81117138262E+01  0.51100000000E-03 0. -1.
        -11    1    3    3    0    0  0.99096340258E+01 -0.35847626694E+01  0.43222533995E+01  0.11390050247E+02  0.51100000000E-03 0.  1.
        -12    1    3    3    0    0  0.33769286688E+01 -0.17488916337E+02  0.21972802622E+02  0.28285506835E+02  0.00000000000E+00 0.  1.
</event>
<event>
 7    1  0.1813014E-010  0.4778727E+02  0.7816164E-02  0.1312668E+00
        -11   -1    0    0    0    0  0.00000000000E+00  0.00000000000E+00  0.45593999997E+02  0.45594000000E+02  0.51100000000E-03 0. -1.
         11   -1    0    0    0    0 -0.00000000000E+00 -0.00000000000E+00 -0.45593999997E+02  0.45594000000E+02  0.51100000000E-03 0.  1.
    9900012    2    1    2    0    0 -0.69554935250E+01  0.11205314539E+02 -0.41348340434E+02  0.47787271656E+02  0.20000002789E+02 0.  0.
         12    1    1    2    0    0  0.69554935250E+01 -0.11205314539E+02  0.41348340434E+02  0.43400728344E+02  0.00000000000E+00 0. -1.
         11    1    3    3    0    0 -0.41816746600E+01 -0.33525776517E+01 -0.79911267369E+01  0.96220728879E+01  0.51100000000E-03 0. -1.
        -11    1    3    3    0    0  0.29084706195E+01  0.40599256192E+01 -0.18194226626E+02  0.18867222375E+02  0.51100000000E-03 0.  1.
        -12    1    3    3    0    0 -0.56822894846E+01  0.10497966572E+02 -0.15162987071E+02  0.19297976393E+02  0.00000000000E+00 0.  1.
</event>
<event>
 7    1  0.1813014E-010  0.4778727E+02  0.7816164E-02  0.1312668E+00
        -11   -1    0    0    0    0  0.00000000000E+00  0.00000000000E+00  0.45593999997E+02  0.45594000000E+02  0.51100000000E-03 0. -1.
         11   -1    0    0    0    0 -0.00000000000E+00 -0.00000000000E+00 -0.45593999997E+02  0.45594000000E+02  0.51100000000E-03 0.  1.
    9900012    2    1    2    0    0 -0.60250210224E+00 -0.26119373763E+02 -0.34656002512E+02  0.47787271842E+02  0.20000003635E+02 0.  0.
         12    1    1    2    0    0  0.60250210224E+00  0.26119373763E+02  0.34656002512E+02  0.43400728158E+02  0.00000000000E+00 0. -1.
         11    1    3    3    0    0 -0.43376107203E+01 -0.17876143403E+02 -0.23674923139E+02  0.29981216713E+02  0.51100000000E-03 0. -1.
        -11    1    3    3    0    0  0.27144349118E+01 -0.25799836035E+01 -0.11436051130E+02  0.12033608685E+02  0.51100000000E-03 0.  1.
         12    1    3    3    0    0  0.10206737062E+01 -0.56632467566E+01  0.45497175645E+00  0.57724464432E+01  0.00000000000E+00 0. -1.
</event>
<event>
 7    1  0.1813014E-010  0.4778723E+02  0.7816164E-02  0.1312668E+00
        -11   -1    0    0    0    0  0.00000000000E+00  0.00000000000E+00  0.45593999997E+02  0.45594000000E+02  0.51100000000E-03 0.  1.
         11   -1    0    0    0    0 -0.00000000000E+00 -0.00000000000E+00 -0.45593999997E+02  0.45594000000E+02  0.51100000000E-03 0. -1.
    9900012    2    1    2    0    0 -0.20871986833E+02  0.15584586037E+02  0.34714656774E+02  0.47787233287E+02  0.19999827849E+02 0.  0.
         12    1    1    2    0    0  0.20871986833E+02 -0.15584586037E+02 -0.34714656774E+02  0.43400766713E+02  0.00000000000E+00 0. -1.
         11    1    3    3    0    0  0.32683265845E+00  0.20482798231E+01  0.70193193609E+01  0.73193657083E+01  0.51100000000E-03 0. -1.
        -11    1    3    3    0    0  0.23621805564E+01  0.22626828791E+01  0.20329863928E+01  0.38513198681E+01  0.51100000000E-03 0.  1.
        -12    1    3    3    0    0 -0.23561000048E+02  0.11273623335E+02  0.25662351021E+02  0.36616547711E+02  0.00000000000E+00 0.  1.
</event>
<event>
 7    1  0.1813014E-010  0.4778727E+02  0.7816164E-02  0.1312668E+00
        -11   -1    0    0    0    0  0.00000000000E+00  0.00000000000E+00  0.45593999997E+02  0.45594000000E+02  0.51100000000E-03 0. -1.
         11   -1    0    0    0    0 -0.00000000000E+00 -0.00000000000E+00 -0.45593999997E+02  0.45594000000E+02  0.51100000000E-03 0.  1.
    9900012    2    1    2    0    0 -0.81911852826E+01  0.22526910038E+02 -0.36181019809E+02  0.47787269745E+02  0.19999994077E+02 0.  0.
         12    1    1    2    0    0  0.81911852826E+01 -0.22526910038E+02  0.36181019809E+02  0.43400730255E+02  0.00000000000E+00 0. -1.
         11    1    3    3    0    0 -0.46620701454E+01  0.50721167144E+01 -0.82107042099E+01  0.10718065585E+02  0.51100000000E-03 0. -1.
        -11    1    3    3    0    0 -0.66707626057E+01  0.64992176337E+01 -0.22652800263E+02  0.24492616512E+02  0.51100000000E-03 0.  1.
         12    1    3    3    0    0  0.31416474686E+01  0.10955575690E+02 -0.53175153360E+01  0.12576587648E+02  0.00000000000E+00 0. -1.
</event>
<event>
 7    1  0.2449536E-010  0.4778727E+02  0.7816164E-02  0.1312668E+00
        -11   -1    0    0    0    0  0.00000000000E+00  0.00000000000E+00  0.45593999997E+02  0.45594000000E+02  0.51100000000E-03 0. -1.
         11   -1    0    0    0    0 -0.00000000000E+00 -0.00000000000E+00 -0.45593999997E+02  0.45594000000E+02  0.51100000000E-03 0.  1.
    9900012    2    1    2    0    0 -0.23478005542E+02 -0.20524591404E+02 -0.30185225651E+02  0.47787269083E+02  0.19999991057E+02 0.  0.
         12    1    1    2    0    0  0.23478005542E+02  0.20524591404E+02  0.30185225651E+02  0.43400730917E+02  0.00000000000E+00 0. -1.
         11    1    3    3    0    0 -0.16302815387E+02 -0.79406399231E+01 -0.18851507868E+02  0.26157501813E+02  0.51100000000E-03 0. -1.
        -11    1    3    3    0    0 -0.67393513141E+01 -0.13826008717E+02 -0.12539393845E+02  0.19844741657E+02  0.51100000000E-03 0.  1.
         12    1    3    3    0    0 -0.43583884043E+00  0.12420572357E+01  0.12056760623E+01  0.17850256129E+01  0.00000000000E+00 0. -1.
</event>
<event>
 7    1  0.1813014E-010  0.4778727E+02  0.7816164E-02  0.1312668E+00
        -11   -1    0    0    0    0  0.00000000000E+00  0.00000000000E+00  0.45593999997E+02  0.45594000000E+02  0.51100000000E-03 0.  1.
         11   -1    0    0    0    0 -0.00000000000E+00 -0.00000000000E+00 -0.45593999997E+02  0.45594000000E+02  0.51100000000E-03 0. -1.
    9900012    2    1    2    0    0  0.25851136092E+02  0.27376333659E+01  0.34754095412E+02  0.47787273951E+02  0.20000013250E+02 0.  0.
         12    1    1    2    0    0 -0.25851136092E+02 -0.27376333659E+01 -0.34754095412E+02  0.43400726049E+02  0.00000000000E+00 0. -1.
         11    1    3    3    0    0  0.13782391227E+02  0.25687138386E+01  0.19738674990E+02  0.24210904348E+02  0.51100000000E-03 0. -1.
        -11    1    3    3    0    0  0.11084669494E+02  0.12681017286E+01  0.31133609155E+01  0.11583220461E+02  0.51100000000E-03 0.  1.
         12    1    3    3    0    0  0.98407537125E+00 -0.10991822013E+01  0.11902059507E+02  0.11993149142E+02  0.00000000000E+00 0. -1.
</event>
<event>
 7    1  0.1813014E-010  0.4778727E+02  0.7816164E-02  0.1312668E+00
        -11   -1    0    0    0    0  0.00000000000E+00  0.00000000000E+00  0.45593999997E+02  0.45594000000E+02  0.51100000000E-03 0.  1.
         11   -1    0    0    0    0 -0.00000000000E+00 -0.00000000000E+00 -0.45593999997E+02  0.45594000000E+02  0.51100000000E-03 0. -1.
    9900012    2    1    2    0    0  0.22013384255E+02  0.25875548200E+02  0.27009075176E+02  0.47787271632E+02  0.20000002679E+02 0.  0.
         12    1    1    2    0    0 -0.22013384255E+02 -0.25875548200E+02 -0.27009075176E+02  0.43400728368E+02  0.00000000000E+00 0. -1.
         11    1    3    3    0    0  0.95923947503E+01  0.27308811324E+01  0.64176992783E+01  0.11859958393E+02  0.51100000000E-03 0. -1.
        -11    1    3    3    0    0  0.10506198045E+02  0.12684875026E+02  0.19049127378E+02  0.25182444399E+02  0.51100000000E-03 0.  1.
         12    1    3    3    0    0  0.19147914603E+01  0.10459792041E+02  0.15422485193E+01  0.10744868839E+02  0.00000000000E+00 0. -1.
</event>
<event>
 7    1  0.1813014E-010  0.4778727E+02  0.7816164E-02  0.1312668E+00
        -11   -1    0    0    0    0  0.00000000000E+00  0.00000000000E+00  0.45593999997E+02  0.45594000000E+02  0.51100000000E-03 0. -1.
         11   -1    0    0    0    0 -0.00000000000E+00 -0.00000000000E+00 -0.45593999997E+02  0.45594000000E+02  0.51100000000E-03 0.  1.
    9900012    2    1    2    0    0 -0.89188211697E+01 -0.39274168613E+02 -0.16174592163E+02  0.47787272784E+02  0.20000007930E+02 0.  0.
         12    1    1    2    0    0  0.89188211697E+01  0.39274168613E+02  0.16174592163E+02  0.43400727216E+02  0.00000000000E+00 0. -1.
         11    1    3    3    0    0 -0.27848404280E+01 -0.31061570619E+02 -0.95673205569E+01  0.32620700919E+02  0.51100000000E-03 0. -1.
        -11    1    3    3    0    0  0.22307550087E+01 -0.16012679534E+01 -0.25844087246E+01  0.37708746577E+01  0.51100000000E-03 0.  1.
        -12    1    3    3    0    0 -0.83647357504E+01 -0.66113300401E+01 -0.40228628817E+01  0.11395697207E+02  0.00000000000E+00 0.  1.
</event>
<event>
 7    1  0.1813014E-010  0.4778727E+02  0.7816164E-02  0.1312668E+00
        -11   -1    0    0    0    0  0.00000000000E+00  0.00000000000E+00  0.45593999997E+02  0.45594000000E+02  0.51100000000E-03 0. -1.
         11   -1    0    0    0    0 -0.00000000000E+00 -0.00000000000E+00 -0.45593999997E+02  0.45594000000E+02  0.51100000000E-03 0.  1.
    9900012    2    1    2    0    0 -0.16913672964E+02 -0.36799287401E+02 -0.15600098982E+02  0.47787274492E+02  0.20000015719E+02 0.  0.
         12    1    1    2    0    0  0.16913672964E+02  0.36799287401E+02  0.15600098982E+02  0.43400725508E+02  0.00000000000E+00 0. -1.
         11    1    3    3    0    0  0.19405126510E+00 -0.12475759499E+01 -0.40325565044E+01  0.42255903572E+01  0.51100000000E-03 0. -1.
        -11    1    3    3    0    0 -0.11347569524E+02 -0.12368259338E+02  0.51191125451E+00  0.16792951693E+02  0.51100000000E-03 0.  1.
         12    1    3    3    0    0 -0.57601547052E+01 -0.23183452113E+02 -0.12079453732E+02  0.26768732442E+02  0.00000000000E+00 0. -1.
</event>
<event>
 7    1  0.1813014E-010  0.4778727E+02  0.7816164E-02  0.1312668E+00
        -11   -1    0    0    0    0  0.00000000000E+00  0.00000000000E+00  0.45593999997E+02  0.45594000000E+02  0.51100000000E-03 0.  1.
         11   -1    0    0    0    0 -0.00000000000E+00 -0.00000000000E+00 -0.45593999997E+02  0.45594000000E+02  0.51100000000E-03 0. -1.
    9900012    2    1    2    0    0 -0.51668423938E+01  0.40305718332E+02  0.15243890503E+02  0.47787269727E+02  0.19999993994E+02 0.  0.
         12    1    1    2    0    0  0.51668423938E+01 -0.40305718332E+02 -0.15243890503E+02  0.43400730273E+02  0.00000000000E+00 0. -1.
         11    1    3    3    0    0 -0.28430196752E+01  0.50488549098E+01 -0.80580263331E+00  0.58500440099E+01  0.51100000000E-03 0.  1.
        -11    1    3    3    0    0 -0.81306343163E+01  0.20770829118E+02  0.51242438571E+01  0.22886512011E+02  0.51100000000E-03 0. -1.
         12    1    3    3    0    0  0.58068115976E+01  0.14486034304E+02  0.10925449279E+02  0.19050713707E+02  0.00000000000E+00 0. -1.
</event>
<event>
 7    1  0.1813014E-010  0.4778727E+02  0.7816164E-02  0.1312668E+00
        -11   -1    0    0    0    0  0.00000000000E+00  0.00000000000E+00  0.45593999997E+02  0.45594000000E+02  0.51100000000E-03 0. -1.
         11   -1    0    0    0    0 -0.00000000000E+00 -0.00000000000E+00 -0.45593999997E+02  0.45594000000E+02  0.51100000000E-03 0.  1.
    9900012    2    1    2    0    0 -0.37964481306E+02  0.79031454899E+01 -0.19490038050E+02  0.47787272671E+02  0.20000007415E+02 0.  0.
         12    1    1    2    0    0  0.37964481306E+02 -0.79031454899E+01  0.19490038050E+02  0.43400727329E+02  0.00000000000E+00 0. -1.
         11    1    3    3    0    0 -0.62721688799E+01 -0.31663758639E+01 -0.28538516731E+01  0.75835683027E+01  0.51100000000E-03 0. -1.
        -11    1    3    3    0    0 -0.25565000603E+02  0.20804950664E+01 -0.12821276160E+02  0.28675474506E+02  0.51100000000E-03 0.  1.
         12    1    3    3    0    0 -0.61273118241E+01  0.89890262874E+01 -0.38149102173E+01  0.11528229862E+02  0.00000000000E+00 0. -1.
</event>
<event>
 7    1  0.1813014E-010  0.4778727E+02  0.7816164E-02  0.1312668E+00
        -11   -1    0    0    0    0  0.00000000000E+00  0.00000000000E+00  0.45593999997E+02  0.45594000000E+02  0.51100000000E-03 0.  1.
         11   -1    0    0    0    0 -0.00000000000E+00 -0.00000000000E+00 -0.45593999997E+02  0.45594000000E+02  0.51100000000E-03 0. -1.
    9900012    2    1    2    0    0  0.44653448074E+01  0.29392614689E+01  0.43070231281E+02  0.47787269766E+02  0.19999994172E+02 0.  0.
         12    1    1    2    0    0 -0.44653448074E+01 -0.29392614689E+01 -0.43070231281E+02  0.43400730234E+02  0.00000000000E+00 0. -1.
         11    1    3    3    0    0 -0.26104175477E+01 -0.31260769028E+01  0.33914634732E+01  0.52998737086E+01  0.51100000000E-03 0. -1.
        -11    1    3    3    0    0  0.88933901634E+01  0.11703435569E+01  0.17068225336E+02  0.19281763639E+02  0.51100000000E-03 0.  1.
        -12    1    3    3    0    0 -0.18176278083E+01  0.48949948148E+01  0.22610542472E+02  0.23205632419E+02  0.00000000000E+00 0.  1.
</event>
<event>
 7    1  0.1813014E-010  0.4778728E+02  0.7816164E-02  0.1312668E+00
        -11   -1    0    0    0    0  0.00000000000E+00  0.00000000000E+00  0.45593999997E+02  0.45594000000E+02  0.51100000000E-03 0.  1.
         11   -1    0    0    0    0 -0.00000000000E+00 -0.00000000000E+00 -0.45593999997E+02  0.45594000000E+02  0.51100000000E-03 0. -1.
    9900012    2    1    2    0    0  0.47468120181E+00 -0.31708161648E+02  0.29630897504E+02  0.47787275072E+02  0.20000018364E+02 0.  0.
         12    1    1    2    0    0 -0.47468120181E+00  0.31708161648E+02 -0.29630897504E+02  0.43400724928E+02  0.00000000000E+00 0. -1.
         11    1    3    3    0    0  0.18814078698E+01  0.33196819964E+00  0.14109591737E+01  0.23750167387E+01  0.51100000000E-03 0. -1.
        -11    1    3    3    0    0 -0.82917986869E+01 -0.18310391582E+02  0.14137975400E+02  0.24574513505E+02  0.51100000000E-03 0.  1.
        -12    1    3    3    0    0  0.68850720189E+01 -0.13729738266E+02  0.14081962930E+02  0.20837744828E+02  0.00000000000E+00 0.  1.
</event>
<event>
 7    1  0.1813014E-010  0.4778727E+02  0.7816164E-02  0.1312668E+00
        -11   -1    0    0    0    0  0.00000000000E+00  0.00000000000E+00  0.45593999997E+02  0.45594000000E+02  0.51100000000E-03 0. -1.
         11   -1    0    0    0    0 -0.00000000000E+00 -0.00000000000E+00 -0.45593999997E+02  0.45594000000E+02  0.51100000000E-03 0.  1.
    9900012    2    1    2    0    0  0.21754489080E+02 -0.36844151357E+02 -0.72714438366E+01  0.47787272128E+02  0.20000004941E+02 0.  0.
         12    1    1    2    0    0 -0.21754489080E+02  0.36844151357E+02  0.72714438366E+01  0.43400727872E+02  0.00000000000E+00 0. -1.
         11    1    3    3    0    0 -0.11588742848E-01 -0.71597473537E+00  0.32825811896E+01  0.33597758330E+01  0.51100000000E-03 0. -1.
        -11    1    3    3    0    0  0.70625214480E+01 -0.14779201992E+02 -0.84198997458E+01  0.18417348688E+02  0.51100000000E-03 0.  1.
        -12    1    3    3    0    0  0.14703556375E+02 -0.21348974630E+02 -0.21341252804E+01  0.26010147607E+02  0.00000000000E+00 0.  1.
</event>
<event>
 7    1  0.1813014E-010  0.4778729E+02  0.7816164E-02  0.1312668E+00
        -11   -1    0    0    0    0  0.00000000000E+00  0.00000000000E+00  0.45593999997E+02  0.45594000000E+02  0.51100000000E-03 0.  1.
         11   -1    0    0    0    0 -0.00000000000E+00 -0.00000000000E+00 -0.45593999997E+02  0.45594000000E+02  0.51100000000E-03 0. -1.
    9900012    2    1    2    0    0  0.27066812207E+02 -0.11616414805E+02  0.31875831245E+02  0.47787285334E+02  0.20000065151E+02 0.  0.
         12    1    1    2    0    0 -0.27066812207E+02  0.11616414805E+02 -0.31875831245E+02  0.43400714666E+02  0.00000000000E+00 0. -1.
         11    1    3    3    0    0  0.10564434728E+02  0.79185891552E-01  0.23441954085E+01  0.10821682120E+02  0.51100000000E-03 0. -1.
        -11    1    3    3    0    0  0.39215922731E+00  0.10424887332E+01  0.15916892046E+00  0.11251251596E+01  0.51100000000E-03 0.  1.
        -12    1    3    3    0    0  0.16110218252E+02 -0.12738089430E+02  0.29372466916E+02  0.35840478054E+02  0.00000000000E+00 0.  1.
</event>
<event>
 7    1  0.1813014E-010  0.4778727E+02  0.7816164E-02  0.1312668E+00
        -11   -1    0    0    0    0  0.00000000000E+00  0.00000000000E+00  0.45593999997E+02  0.45594000000E+02  0.51100000000E-03 0.  1.
         11   -1    0    0    0    0 -0.00000000000E+00 -0.00000000000E+00 -0.45593999997E+02  0.45594000000E+02  0.51100000000E-03 0. -1.
    9900012    2    1    2    0    0  0.31804448496E+02  0.18676700315E+02  0.22875335333E+02  0.47787273677E+02  0.20000012001E+02 0.  0.
         12    1    1    2    0    0 -0.31804448496E+02 -0.18676700315E+02 -0.22875335333E+02  0.43400726323E+02  0.00000000000E+00 0. -1.
         11    1    3    3    0    0  0.19555244272E+01  0.11246784788E+01  0.10305365277E+01  0.24801175904E+01  0.51100000000E-03 0. -1.
        -11    1    3    3    0    0  0.16053159672E+02  0.49364467872E+01  0.20589676252E+02  0.26570796201E+02  0.51100000000E-03 0.  1.
         12    1    3    3    0    0  0.13795764397E+02  0.12615575049E+02  0.12551225532E+01  0.18736359885E+02  0.00000000000E+00 0. -1.
</event>
<event>
 7    1  0.2469618E-010  0.4778727E+02  0.7816164E-02  0.1312668E+00
        -11   -1    0    0    0    0  0.00000000000E+00  0.00000000000E+00  0.45593999997E+02  0.45594000000E+02  0.51100000000E-03 0. -1.
         11   -1    0    0    0    0 -0.00000000000E+00 -0.00000000000E+00 -0.45593999997E+02  0.45594000000E+02  0.51100000000E-03 0.  1.
    9900012    2    1    2    0    0  0.35842369434E+02 -0.10041195271E+02 -0.22318649953E+02  0.47787272071E+02  0.20000004679E+02 0.  0.
         12    1    1    2    0    0 -0.35842369434E+02  0.10041195271E+02  0.22318649953E+02  0.43400727929E+02  0.00000000000E+00 0. -1.
         11    1    3    3    0    0  0.63626383472E+01 -0.80567620130E+01 -0.81155238128E+01  0.13086493338E+02  0.51100000000E-03 0. -1.
        -11    1    3    3    0    0  0.25467718710E+02 -0.57527605073E+01 -0.12436558883E+02  0.28920009455E+02  0.51100000000E-03 0.  1.
         12    1    3    3    0    0  0.40120123763E+01  0.37683272497E+01 -0.17665672574E+01  0.57807692778E+01  0.00000000000E+00 0. -1.
</event>
<event>
 7    1  0.1813014E-010  0.4778727E+02  0.7816164E-02  0.1312668E+00
        -11   -1    0    0    0    0  0.00000000000E+00  0.00000000000E+00  0.45593999997E+02  0.45594000000E+02  0.51100000000E-03 0.  1.
         11   -1    0    0    0    0 -0.00000000000E+00 -0.00000000000E+00 -0.45593999997E+02  0.45594000000E+02  0.51100000000E-03 0. -1.
    9900012    2    1    2    0    0 -0.89661982198E+01 -0.95874257265E+01  0.41368004244E+02  0.47787271692E+02  0.20000002951E+02 0.  0.
         12    1    1    2    0    0  0.89661982198E+01  0.95874257265E+01 -0.41368004244E+02  0.43400728308E+02  0.00000000000E+00 0. -1.
         11    1    3    3    0    0  0.47015019816E+00  0.37380260863E+01  0.83867002863E+01  0.91940536317E+01  0.51100000000E-03 0. -1.
        -11    1    3    3    0    0 -0.19838684070E+01 -0.65730312694E+00 -0.39240158969E+00  0.21264431631E+01  0.51100000000E-03 0.  1.
        -12    1    3    3    0    0 -0.74524800109E+01 -0.12668148686E+02  0.33373705547E+02  0.36466774897E+02  0.00000000000E+00 0.  1.
</event>
<event>
 7    1  0.1813014E-010  0.4778728E+02  0.7816164E-02  0.1312668E+00
        -11   -1    0    0    0    0  0.00000000000E+00  0.00000000000E+00  0.45593999997E+02  0.45594000000E+02  0.51100000000E-03 0.  1.
         11   -1    0    0    0    0 -0.00000000000E+00 -0.00000000000E+00 -0.45593999997E+02  0.45594000000E+02  0.51100000000E-03 0. -1.
    9900012    2    1    2    0    0 -0.30441069157E+01  0.33983191546E+02  0.26823477567E+02  0.47787276004E+02  0.20000022615E+02 0.  0.
         12    1    1    2    0    0  0.30441069157E+01 -0.33983191546E+02 -0.26823477567E+02  0.43400723996E+02  0.00000000000E+00 0. -1.
         11    1    3    3    0    0  0.13817437359E+01  0.13478214591E+02  0.16189151129E+01  0.13645232527E+02  0.51100000000E-03 0. -1.
        -11    1    3    3    0    0  0.18882661744E+01  0.69174854198E+01  0.12879849025E+02  0.14741358989E+02  0.51100000000E-03 0.  1.
        -12    1    3    3    0    0 -0.63141168260E+01  0.13587491535E+02  0.12324713429E+02  0.19400684488E+02  0.00000000000E+00 0.  1.
</event>
<event>
 7    1  0.1813014E-010  0.4778727E+02  0.7816164E-02  0.1312668E+00
        -11   -1    0    0    0    0  0.00000000000E+00  0.00000000000E+00  0.45593999997E+02  0.45594000000E+02  0.51100000000E-03 0.  1.
         11   -1    0    0    0    0 -0.00000000000E+00 -0.00000000000E+00 -0.45593999997E+02  0.45594000000E+02  0.51100000000E-03 0. -1.
    9900012    2    1    2    0    0  0.34795909044E+02  0.25800458402E+02 -0.26840756249E+01  0.47787271873E+02  0.20000003779E+02 0.  0.
         12    1    1    2    0    0 -0.34795909044E+02 -0.25800458402E+02  0.26840756249E+01  0.43400728127E+02  0.00000000000E+00 0. -1.
         11    1    3    3    0    0  0.97816469144E+01  0.12254362167E+01 -0.45310467777E+01  0.10849548168E+02  0.51100000000E-03 0. -1.
        -11    1    3    3    0    0  0.24853347501E+02  0.20070107541E+02  0.35000163876E+01  0.32136400136E+02  0.51100000000E-03 0.  1.
         12    1    3    3    0    0  0.16091462867E+00  0.45049146445E+01 -0.16530452348E+01  0.48013235697E+01  0.00000000000E+00 0. -1.
</event>
<event>
 7    1  0.1813014E-010  0.4778727E+02  0.7816164E-02  0.1312668E+00
        -11   -1    0    0    0    0  0.00000000000E+00  0.00000000000E+00  0.45593999997E+02  0.45594000000E+02  0.51100000000E-03 0.  1.
         11   -1    0    0    0    0 -0.00000000000E+00 -0.00000000000E+00 -0.45593999997E+02  0.45594000000E+02  0.51100000000E-03 0. -1.
    9900012    2    1    2    0    0  0.24973084596E+02  0.34980690371E+02  0.60265557362E+01  0.47787273887E+02  0.20000012960E+02 0.  0.
         12    1    1    2    0    0 -0.24973084596E+02 -0.34980690371E+02 -0.60265557362E+01  0.43400726113E+02  0.00000000000E+00 0. -1.
         11    1    3    3    0    0  0.87513139248E+01  0.67919598931E+01  0.41832738302E+01  0.11841283495E+02  0.51100000000E-03 0. -1.
        -11    1    3    3    0    0  0.65079627500E+01  0.14343220738E+02  0.83467333993E+01  0.17825529978E+02  0.51100000000E-03 0.  1.
         12    1    3    3    0    0  0.97138079216E+01  0.13845509741E+02 -0.65034514934E+01  0.18120460415E+02  0.00000000000E+00 0. -1.
</event>
<event>
 7    1  0.1813014E-010  0.4778727E+02  0.7816164E-02  0.1312668E+00
        -11   -1    0    0    0    0  0.00000000000E+00  0.00000000000E+00  0.45593999997E+02  0.45594000000E+02  0.51100000000E-03 0.  1.
         11   -1    0    0    0    0 -0.00000000000E+00 -0.00000000000E+00 -0.45593999997E+02  0.45594000000E+02  0.51100000000E-03 0. -1.
    9900012    2    1    2    0    0  0.85127048164E+01 -0.28464981898E+01  0.42462387011E+02  0.47787274132E+02  0.20000014077E+02 0.  0.
         12    1    1    2    0    0 -0.85127048164E+01  0.28464981898E+01 -0.42462387011E+02  0.43400725868E+02  0.00000000000E+00 0. -1.
         11    1    3    3    0    0 -0.46664624057E+00  0.40869911930E+01  0.99071258498E+01  0.10727180365E+02  0.51100000000E-03 0. -1.
        -11    1    3    3    0    0 -0.10401721333E+01  0.25404414696E+01  0.16121645005E+01  0.31835319325E+01  0.51100000000E-03 0.  1.
        -12    1    3    3    0    0  0.10019523190E+02 -0.94739308525E+01  0.30943096660E+02  0.33876561834E+02  0.00000000000E+00 0.  1.
</event>
<event>
 7    1  0.1813014E-010  0.4778727E+02  0.7816164E-02  0.1312668E+00
        -11   -1    0    0    0    0  0.00000000000E+00  0.00000000000E+00  0.45593999997E+02  0.45594000000E+02  0.51100000000E-03 0. -1.
         11   -1    0    0    0    0 -0.00000000000E+00 -0.00000000000E+00 -0.45593999997E+02  0.45594000000E+02  0.51100000000E-03 0.  1.
    9900012    2    1    2    0    0  0.35174166763E+02 -0.13694716151E+01 -0.25387518009E+02  0.47787268087E+02  0.19999986515E+02 0.  0.
         12    1    1    2    0    0 -0.35174166763E+02  0.13694716151E+01  0.25387518009E+02  0.43400731913E+02  0.00000000000E+00 0. -1.
         11    1    3    3    0    0  0.13567487217E+02 -0.35489109296E+01 -0.56844166453E+01  0.15132219633E+02  0.51100000000E-03 0. -1.
        -11    1    3    3    0    0  0.17665394702E+02  0.37698274971E+01 -0.21465262987E+02  0.28054149153E+02  0.51100000000E-03 0.  1.
         12    1    3    3    0    0  0.39412848435E+01 -0.15903881827E+01  0.17621616234E+01  0.46008993008E+01  0.00000000000E+00 0. -1.
</event>
<event>
 7    1  0.2125061E-010  0.4778727E+02  0.7816164E-02  0.1312668E+00
        -11   -1    0    0    0    0  0.00000000000E+00  0.00000000000E+00  0.45593999997E+02  0.45594000000E+02  0.51100000000E-03 0.  1.
         11   -1    0    0    0    0 -0.00000000000E+00 -0.00000000000E+00 -0.45593999997E+02  0.45594000000E+02  0.51100000000E-03 0. -1.
    9900012    2    1    2    0    0  0.18694332331E+02 -0.39128702792E+02  0.17577727968E+01  0.47787271795E+02  0.20000003423E+02 0.  0.
         12    1    1    2    0    0 -0.18694332331E+02  0.39128702792E+02 -0.17577727968E+01  0.43400728205E+02  0.00000000000E+00 0. -1.
         11    1    3    3    0    0  0.90382069146E+01 -0.10220175638E+02 -0.37512140274E+01  0.14149656577E+02  0.51100000000E-03 0. -1.
        -11    1    3    3    0    0  0.73094422718E+01 -0.27924199611E+02  0.15186943926E+01  0.28904935620E+02  0.51100000000E-03 0.  1.
         12    1    3    3    0    0  0.23466831444E+01 -0.98432754296E+00  0.39902924316E+01  0.47326795985E+01  0.00000000000E+00 0. -1.
</event>
<event>
 7    1  0.1813014E-010  0.4778727E+02  0.7816164E-02  0.1312668E+00
        -11   -1    0    0    0    0  0.00000000000E+00  0.00000000000E+00  0.45593999997E+02  0.45594000000E+02  0.51100000000E-03 0.  1.
         11   -1    0    0    0    0 -0.00000000000E+00 -0.00000000000E+00 -0.45593999997E+02  0.45594000000E+02  0.51100000000E-03 0. -1.
    9900012    2    1    2    0    0  0.46714459698E+01 -0.32856255569E+02  0.27969038264E+02  0.47787273751E+02  0.20000012342E+02 0.  0.
         12    1    1    2    0    0 -0.46714459698E+01  0.32856255569E+02 -0.27969038264E+02  0.43400726249E+02  0.00000000000E+00 0. -1.
         11    1    3    3    0    0  0.92193268778E+01 -0.54921706273E+01  0.59749337810E+01  0.12282498126E+02  0.51100000000E-03 0. -1.
        -11    1    3    3    0    0 -0.11053678799E+01 -0.14803764953E+02  0.11435368769E+02  0.18738755403E+02  0.51100000000E-03 0.  1.
         12    1    3    3    0    0 -0.34425130281E+01 -0.12560319989E+02  0.10558735714E+02  0.16766020222E+02  0.00000000000E+00 0. -1.
</event>
<event>
 7    1  0.1813014E-010  0.4778727E+02  0.7816164E-02  0.1312668E+00
        -11   -1    0    0    0    0  0.00000000000E+00  0.00000000000E+00  0.45593999997E+02  0.45594000000E+02  0.51100000000E-03 0.  1.
         11   -1    0    0    0    0 -0.00000000000E+00 -0.00000000000E+00 -0.45593999997E+02  0.45594000000E+02  0.51100000000E-03 0. -1.
    9900012    2    1    2    0    0 -0.17169321905E+02  0.37967946183E+02 -0.12135588949E+02  0.47787273380E+02  0.20000010648E+02 0.  0.
         12    1    1    2    0    0  0.17169321905E+02 -0.37967946183E+02  0.12135588949E+02  0.43400726620E+02  0.00000000000E+00 0. -1.
         11    1    3    3    0    0 -0.88392881417E+01  0.81061016028E+01 -0.67036616607E+01  0.13739759021E+02  0.51100000000E-03 0. -1.
        -11    1    3    3    0    0 -0.86258454183E+01  0.21380683365E+02  0.14799498193E+01  0.23102577390E+02  0.51100000000E-03 0.  1.
         12    1    3    3    0    0  0.29581165495E+00  0.84811612152E+01 -0.69118771074E+01  0.10944936968E+02  0.00000000000E+00 0. -1.
</event>
<event>
 7    1  0.1813014E-010  0.4778727E+02  0.7816164E-02  0.1312668E+00
        -11   -1    0    0    0    0  0.00000000000E+00  0.00000000000E+00  0.45593999997E+02  0.45594000000E+02  0.51100000000E-03 0.  1.
         11   -1    0    0    0    0 -0.00000000000E+00 -0.00000000000E+00 -0.45593999997E+02  0.45594000000E+02  0.51100000000E-03 0. -1.
    9900012    2    1    2    0    0 -0.15778980832E+02  0.29933676554E+02  0.27177598176E+02  0.47787273385E+02  0.20000010671E+02 0.  0.
         12    1    1    2    0    0  0.15778980832E+02 -0.29933676554E+02 -0.27177598176E+02  0.43400726615E+02  0.00000000000E+00 0. -1.
         11    1    3    3    0    0 -0.61275446271E+01  0.83409147121E+00  0.50522860411E+01  0.79854934877E+01  0.51100000000E-03 0. -1.
        -11    1    3    3    0    0  0.25430803133E+01  0.92797945907E+01  0.45714003746E+01  0.10652677916E+02  0.51100000000E-03 0.  1.
        -12    1    3    3    0    0 -0.12194516518E+02  0.19819790492E+02  0.17553911760E+02  0.29149101982E+02  0.00000000000E+00 0.  1.
</event>
<event>
 7    1  0.1813014E-010  0.4778727E+02  0.7816164E-02  0.1312668E+00
        -11   -1    0    0    0    0  0.00000000000E+00  0.00000000000E+00  0.45593999997E+02  0.45594000000E+02  0.51100000000E-03 0.  1.
         11   -1    0    0    0    0 -0.00000000000E+00 -0.00000000000E+00 -0.45593999997E+02  0.45594000000E+02  0.51100000000E-03 0. -1.
    9900012    2    1    2    0    0 -0.11546469876E+02  0.15417370726E+02  0.38892249349E+02  0.47787270212E+02  0.19999996206E+02 0.  0.
         12    1    1    2    0    0  0.11546469876E+02 -0.15417370726E+02 -0.38892249349E+02  0.43400729788E+02  0.00000000000E+00 0. -1.
         11    1    3    3    0    0 -0.91258259385E+01  0.12854647397E+02  0.21658596946E+02  0.26788383316E+02  0.51100000000E-03 0. -1.
        -11    1    3    3    0    0  0.39294647403E+01  0.38604300990E+01  0.83065717161E+01  0.99670832058E+01  0.51100000000E-03 0.  1.
         12    1    3    3    0    0 -0.63501086775E+01 -0.12977067700E+01  0.89270806868E+01  0.11031803690E+02  0.00000000000E+00 0. -1.
</event>
<event>
 7    1  0.1813014E-010  0.4778727E+02  0.7816164E-02  0.1312668E+00
        -11   -1    0    0    0    0  0.00000000000E+00  0.00000000000E+00  0.45593999997E+02  0.45594000000E+02  0.51100000000E-03 0.  1.
         11   -1    0    0    0    0 -0.00000000000E+00 -0.00000000000E+00 -0.45593999997E+02  0.45594000000E+02  0.51100000000E-03 0. -1.
    9900012    2    1    2    0    0 -0.38776081515E+02  0.94205222284E+01  0.17067292293E+02  0.47787271862E+02  0.20000003727E+02 0.  0.
         12    1    1    2    0    0  0.38776081515E+02 -0.94205222284E+01 -0.17067292293E+02  0.43400728138E+02  0.00000000000E+00 0. -1.
         11    1    3    3    0    0 -0.19052642319E+02  0.80388973024E+01  0.11918029595E+02  0.23867686918E+02  0.51100000000E-03 0. -1.
        -11    1    3    3    0    0 -0.18307077150E+02 -0.51321093603E+00  0.81940592541E+01  0.20063774982E+02  0.51100000000E-03 0.  1.
         12    1    3    3    0    0 -0.14163620467E+01  0.18948358620E+01 -0.30447965554E+01  0.38558099610E+01  0.00000000000E+00 0. -1.
</event>
<event>
 7    1  0.1813014E-010  0.4778727E+02  0.7816164E-02  0.1312668E+00
        -11   -1    0    0    0    0  0.00000000000E+00  0.00000000000E+00  0.45593999997E+02  0.45594000000E+02  0.51100000000E-03 0.  1.
         11   -1    0    0    0    0 -0.00000000000E+00 -0.00000000000E+00 -0.45593999997E+02  0.45594000000E+02  0.51100000000E-03 0. -1.
    9900012    2    1    2    0    0 -0.28754043744E+02 -0.57996937001E+01  0.31987365284E+02  0.47787274010E+02  0.20000013522E+02 0.  0.
         12    1    1    2    0    0  0.28754043744E+02  0.57996937001E+01 -0.31987365284E+02  0.43400725990E+02  0.00000000000E+00 0. -1.
         11    1    3    3    0    0 -0.23590320313E+01 -0.49342763210E+01  0.18104064385E+01  0.57610490946E+01  0.51100000000E-03 0. -1.
        -11    1    3    3    0    0 -0.24053191121E+02 -0.45726532816E+01  0.22865638019E+02  0.33500784519E+02  0.51100000000E-03 0.  1.
         12    1    3    3    0    0 -0.23418205917E+01  0.37072359025E+01  0.73113208266E+01  0.85254403963E+01  0.00000000000E+00 0. -1.
</event>
<event>
 7    1  0.1813014E-010  0.4778727E+02  0.7816164E-02  0.1312668E+00
        -11   -1    0    0    0    0  0.00000000000E+00  0.00000000000E+00  0.45593999997E+02  0.45594000000E+02  0.51100000000E-03 0.  1.
         11   -1    0    0    0    0 -0.00000000000E+00 -0.00000000000E+00 -0.45593999997E+02  0.45594000000E+02  0.51100000000E-03 0. -1.
    9900012    2    1    2    0    0 -0.28064532069E+02  0.33000547973E+02 -0.26399041520E+01  0.47787271657E+02  0.20000002793E+02 0.  0.
         12    1    1    2    0    0  0.28064532069E+02 -0.33000547973E+02  0.26399041520E+01  0.43400728343E+02  0.00000000000E+00 0. -1.
         11    1    3    3    0    0 -0.22605392137E+02  0.15704111681E+02  0.12975280614E+01  0.27555515903E+02  0.51100000000E-03 0. -1.
        -11    1    3    3    0    0 -0.19231914230E+01  0.83626909067E+01  0.21645798107E+01  0.88497836396E+01  0.51100000000E-03 0.  1.
         12    1    3    3    0    0 -0.35359485095E+01  0.89337453853E+01 -0.61020120241E+01  0.11381972114E+02  0.00000000000E+00 0. -1.
</event>
<event>
 7    1  0.1813014E-010  0.4778727E+02  0.7816164E-02  0.1312668E+00
        -11   -1    0    0    0    0  0.00000000000E+00  0.00000000000E+00  0.45593999997E+02  0.45594000000E+02  0.51100000000E-03 0.  1.
         11   -1    0    0    0    0 -0.00000000000E+00 -0.00000000000E+00 -0.45593999997E+02  0.45594000000E+02  0.51100000000E-03 0. -1.
    9900012    2    1    2    0    0 -0.90521667571E+01  0.16087778775E+02  0.39279322971E+02  0.47787267725E+02  0.19999984866E+02 0.  0.
         12    1    1    2    0    0  0.90521667571E+01 -0.16087778775E+02 -0.39279322971E+02  0.43400732275E+02  0.00000000000E+00 0. -1.
         11    1    3    3    0    0 -0.17106065354E+01  0.26448952782E+01 -0.11796337882E+01  0.33635073787E+01  0.51100000000E-03 0. -1.
        -11    1    3    3    0    0  0.10778391623E+01  0.87573017164E+00  0.12999399664E+02  0.13073371121E+02  0.51100000000E-03 0.  1.
        -12    1    3    3    0    0 -0.84193993840E+01  0.12567153325E+02  0.27459557096E+02  0.31350389225E+02  0.00000000000E+00 0.  1.
</event>
<event>
 7    1  0.1813014E-010  0.4778727E+02  0.7816164E-02  0.1312668E+00
        -11   -1    0    0    0    0  0.00000000000E+00  0.00000000000E+00  0.45593999997E+02  0.45594000000E+02  0.51100000000E-03 0.  1.
         11   -1    0    0    0    0 -0.00000000000E+00 -0.00000000000E+00 -0.45593999997E+02  0.45594000000E+02  0.51100000000E-03 0. -1.
    9900012    2    1    2    0    0 -0.30285229201E+02 -0.25234860086E+02  0.18155716089E+02  0.47787270766E+02  0.19999998731E+02 0.  0.
         12    1    1    2    0    0  0.30285229201E+02  0.25234860086E+02 -0.18155716089E+02  0.43400729234E+02  0.00000000000E+00 0. -1.
         11    1    3    3    0    0 -0.84152630144E+01 -0.11565292526E+02  0.92284924433E+01  0.17021683696E+02  0.51100000000E-03 0.  1.
        -11    1    3    3    0    0 -0.60244755503E+01  0.21000598799E+01 -0.71405888561E+00  0.64198471561E+01  0.51100000000E-03 0. -1.
         12    1    3    3    0    0 -0.15845490636E+02 -0.15769627441E+02  0.96412825316E+01  0.24345739914E+02  0.00000000000E+00 0. -1.
</event>
<event>
 7    1  0.3244969E-010  0.4778727E+02  0.7816164E-02  0.1312668E+00
        -11   -1    0    0    0    0  0.00000000000E+00  0.00000000000E+00  0.45593999997E+02  0.45594000000E+02  0.51100000000E-03 0. -1.
         11   -1    0    0    0    0 -0.00000000000E+00 -0.00000000000E+00 -0.45593999997E+02  0.45594000000E+02  0.51100000000E-03 0.  1.
    9900012    2    1    2    0    0  0.29261716097E+02  0.15209682838E+01 -0.32016586188E+02  0.47787272303E+02  0.20000005739E+02 0.  0.
         12    1    1    2    0    0 -0.29261716097E+02 -0.15209682838E+01  0.32016586188E+02  0.43400727697E+02  0.00000000000E+00 0. -1.
         11    1    3    3    0    0  0.89513639179E+01 -0.80101307065E+00  0.65312740980E+00  0.90108331249E+01  0.51100000000E-03 0. -1.
        -11    1    3    3    0    0  0.10083203408E+02  0.95993290487E+00 -0.12224957547E+02  0.15875832244E+02  0.51100000000E-03 0.  1.
         12    1    3    3    0    0  0.10227148771E+02  0.13620484496E+01 -0.20444756051E+02  0.22900606934E+02  0.00000000000E+00 0. -1.
</event>
<event>
 7    1  0.1813014E-010  0.4778727E+02  0.7816164E-02  0.1312668E+00
        -11   -1    0    0    0    0  0.00000000000E+00  0.00000000000E+00  0.45593999997E+02  0.45594000000E+02  0.51100000000E-03 0. -1.
         11   -1    0    0    0    0 -0.00000000000E+00 -0.00000000000E+00 -0.45593999997E+02  0.45594000000E+02  0.51100000000E-03 0.  1.
    9900012    2    1    2    0    0  0.34296990416E+02 -0.21091254360E+02 -0.16201808319E+02  0.47787272415E+02  0.20000006248E+02 0.  0.
         12    1    1    2    0    0 -0.34296990416E+02  0.21091254360E+02  0.16201808319E+02  0.43400727585E+02  0.00000000000E+00 0. -1.
         11    1    3    3    0    0  0.15466545428E+02 -0.16709290035E+02 -0.41042617325E+00  0.22772414252E+02  0.51100000000E-03 0. -1.
        -11    1    3    3    0    0  0.75502103785E+01 -0.16045677735E+01 -0.53165936634E+01  0.93726454613E+01  0.51100000000E-03 0.  1.
         12    1    3    3    0    0  0.11280234609E+02 -0.27773965518E+01 -0.10474788483E+02  0.15642212702E+02  0.00000000000E+00 0. -1.
</event>
<event>
 7    1  0.1813014E-010  0.4778727E+02  0.7816164E-02  0.1312668E+00
        -11   -1    0    0    0    0  0.00000000000E+00  0.00000000000E+00  0.45593999997E+02  0.45594000000E+02  0.51100000000E-03 0. -1.
         11   -1    0    0    0    0 -0.00000000000E+00 -0.00000000000E+00 -0.45593999997E+02  0.45594000000E+02  0.51100000000E-03 0.  1.
    9900012    2    1    2    0    0  0.11002113201E+02  0.32789240046E+02 -0.26219133486E+02  0.47787265922E+02  0.19999976647E+02 0.  0.
         12    1    1    2    0    0 -0.11002113201E+02 -0.32789240046E+02  0.26219133486E+02  0.43400734078E+02  0.00000000000E+00 0. -1.
         11    1    3    3    0    0  0.11338291207E+02  0.17823134406E+02 -0.21407649992E+02  0.30075046899E+02  0.51100000000E-03 0.  1.
        -11    1    3    3    0    0 -0.11541549157E+00  0.12455315368E+02 -0.70746655538E+01  0.14324772061E+02  0.51100000000E-03 0. -1.
         12    1    3    3    0    0 -0.22076251421E+00  0.25107902730E+01  0.22631820602E+01  0.33874469620E+01  0.00000000000E+00 0. -1.
</event>
<event>
 7    1  0.1813014E-010  0.4778727E+02  0.7816164E-02  0.1312668E+00
        -11   -1    0    0    0    0  0.00000000000E+00  0.00000000000E+00  0.45593999997E+02  0.45594000000E+02  0.51100000000E-03 0.  1.
         11   -1    0    0    0    0 -0.00000000000E+00 -0.00000000000E+00 -0.45593999997E+02  0.45594000000E+02  0.51100000000E-03 0. -1.
    9900012    2    1    2    0    0 -0.84859546709E+01 -0.35574701725E+02  0.23367762872E+02  0.47787272228E+02  0.20000005396E+02 0.  0.
         12    1    1    2    0    0  0.84859546709E+01  0.35574701725E+02 -0.23367762872E+02  0.43400727772E+02  0.00000000000E+00 0. -1.
         11    1    3    3    0    0  0.21196867493E+01 -0.68621204509E+01  0.88293377591E+01  0.11381518990E+02  0.51100000000E-03 0. -1.
        -11    1    3    3    0    0 -0.40799969027E-01 -0.38188775261E+01  0.75711768087E+01  0.84798707965E+01  0.51100000000E-03 0.  1.
        -12    1    3    3    0    0 -0.10564841451E+02 -0.24893703748E+02  0.69672483038E+01  0.27925882441E+02  0.00000000000E+00 0.  1.
</event>
<event>
 7    1  0.1813014E-010  0.4778727E+02  0.7816164E-02  0.1312668E+00
        -11   -1    0    0    0    0  0.00000000000E+00  0.00000000000E+00  0.45593999997E+02  0.45594000000E+02  0.51100000000E-03 0.  1.
         11   -1    0    0    0    0 -0.00000000000E+00 -0.00000000000E+00 -0.45593999997E+02  0.45594000000E+02  0.51100000000E-03 0. -1.
    9900012    2    1    2    0    0 -0.21030955687E+01 -0.12595788346E+02  0.41479474778E+02  0.47787265872E+02  0.19999976415E+02 0.  0.
         12    1    1    2    0    0  0.21030955687E+01  0.12595788346E+02 -0.41479474778E+02  0.43400734128E+02  0.00000000000E+00 0. -1.
         11    1    3    3    0    0 -0.75937796655E+01 -0.13169140167E+02  0.19046975311E+02  0.24369632971E+02  0.51100000000E-03 0. -1.
        -11    1    3    3    0    0  0.28467155135E+01 -0.16288509521E+01  0.10960405419E+02  0.11440604522E+02  0.51100000000E-03 0.  1.
         12    1    3    3    0    0  0.26439685834E+01  0.22022027739E+01  0.11472094048E+02  0.11977028378E+02  0.00000000000E+00 0. -1.
</event>
<event>
 7    1  0.1813014E-010  0.4778727E+02  0.7816164E-02  0.1312668E+00
        -11   -1    0    0    0    0  0.00000000000E+00  0.00000000000E+00  0.45593999997E+02  0.45594000000E+02  0.51100000000E-03 0.  1.
         11   -1    0    0    0    0 -0.00000000000E+00 -0.00000000000E+00 -0.45593999997E+02  0.45594000000E+02  0.51100000000E-03 0. -1.
    9900012    2    1    2    0    0  0.47821538760E+01 -0.20044962106E+02  0.38196254844E+02  0.47787269757E+02  0.19999994131E+02 0.  0.
         12    1    1    2    0    0 -0.47821538760E+01  0.20044962106E+02 -0.38196254844E+02  0.43400730243E+02  0.00000000000E+00 0. -1.
         11    1    3    3    0    0 -0.41822721031E+01 -0.14356328188E+02  0.26144279665E+02  0.30118414939E+02  0.51100000000E-03 0. -1.
        -11    1    3    3    0    0  0.58667518937E+01 -0.52625747521E+01  0.12216043501E+02  0.14537716117E+02  0.51100000000E-03 0.  1.
         12    1    3    3    0    0  0.30976740853E+01 -0.42605916631E+00 -0.16406832279E+00  0.31311387013E+01  0.00000000000E+00 0. -1.
</event>
<event>
 7    1  0.1813014E-010  0.4778727E+02  0.7816164E-02  0.1312668E+00
        -11   -1    0    0    0    0  0.00000000000E+00  0.00000000000E+00  0.45593999997E+02  0.45594000000E+02  0.51100000000E-03 0. -1.
         11   -1    0    0    0    0 -0.00000000000E+00 -0.00000000000E+00 -0.45593999997E+02  0.45594000000E+02  0.51100000000E-03 0.  1.
    9900012    2    1    2    0    0 -0.53170246767E+01 -0.16426420878E+02 -0.39818653524E+02  0.47787271634E+02  0.20000002686E+02 0.  0.
         12    1    1    2    0    0  0.53170246767E+01  0.16426420878E+02  0.39818653524E+02  0.43400728366E+02  0.00000000000E+00 0. -1.
         11    1    3    3    0    0 -0.21649776065E+01  0.17075271656E+00 -0.46493795841E+01  0.51315704521E+01  0.51100000000E-03 0. -1.
        -11    1    3    3    0    0 -0.61825842213E+00 -0.70886769043E+01 -0.31272683923E+02  0.32071986900E+02  0.51100000000E-03 0.  1.
        -12    1    3    3    0    0 -0.25337886481E+01 -0.95084966905E+01 -0.38965900170E+01  0.10583714281E+02  0.00000000000E+00 0.  1.
</event>
<event>
 7    1  0.1813014E-010  0.4778727E+02  0.7816164E-02  0.1312668E+00
        -11   -1    0    0    0    0  0.00000000000E+00  0.00000000000E+00  0.45593999997E+02  0.45594000000E+02  0.51100000000E-03 0.  1.
         11   -1    0    0    0    0 -0.00000000000E+00 -0.00000000000E+00 -0.45593999997E+02  0.45594000000E+02  0.51100000000E-03 0. -1.
    9900012    2    1    2    0    0  0.40735884432E+01 -0.36940074027E+02  0.22415626117E+02  0.47787268599E+02  0.19999988849E+02 0.  0.
         12    1    1    2    0    0 -0.40735884432E+01  0.36940074027E+02 -0.22415626117E+02  0.43400731401E+02  0.00000000000E+00 0. -1.
         11    1    3    3    0    0  0.77390694568E+01 -0.44160115836E+01  0.24311056066E+01  0.92360505138E+01  0.51100000000E-03 0. -1.
        -11    1    3    3    0    0  0.60997060902E+00 -0.11254273039E+02  0.69641713192E+01  0.13248788934E+02  0.51100000000E-03 0.  1.
         12    1    3    3    0    0 -0.42754516226E+01 -0.21269789404E+02  0.13020349192E+02  0.25302429151E+02  0.00000000000E+00 0. -1.
</event>
<event>
 7    1  0.1813014E-010  0.4778726E+02  0.7816164E-02  0.1312668E+00
        -11   -1    0    0    0    0  0.00000000000E+00  0.00000000000E+00  0.45593999997E+02  0.45594000000E+02  0.51100000000E-03 0.  1.
         11   -1    0    0    0    0 -0.00000000000E+00 -0.00000000000E+00 -0.45593999997E+02  0.45594000000E+02  0.51100000000E-03 0. -1.
    9900012    2    1    2    0    0 -0.75960769535E+01 -0.27899751472E+02  0.32365526645E+02  0.47787264611E+02  0.19999970668E+02 0.  0.
         12    1    1    2    0    0  0.75960769535E+01  0.27899751472E+02 -0.32365526645E+02  0.43400735389E+02  0.00000000000E+00 0. -1.
         11    1    3    3    0    0  0.54264968647E+01 -0.16578317042E+02  0.12658420644E+02  0.21552797443E+02  0.51100000000E-03 0. -1.
        -11    1    3    3    0    0 -0.56062990832E+01 -0.56982966450E+01  0.96711142935E+01  0.12547176017E+02  0.51100000000E-03 0.  1.
         12    1    3    3    0    0 -0.74162747350E+01 -0.56231377847E+01  0.10035991708E+02  0.13687291151E+02  0.00000000000E+00 0. -1.
</event>
<event>
 7    1  0.1813014E-010  0.4778727E+02  0.7816164E-02  0.1312668E+00
        -11   -1    0    0    0    0  0.00000000000E+00  0.00000000000E+00  0.45593999997E+02  0.45594000000E+02  0.51100000000E-03 0.  1.
         11   -1    0    0    0    0 -0.00000000000E+00 -0.00000000000E+00 -0.45593999997E+02  0.45594000000E+02  0.51100000000E-03 0. -1.
    9900012    2    1    2    0    0 -0.49496235129E+01  0.31001005632E+02  0.29967686016E+02  0.47787270418E+02  0.19999997142E+02 0.  0.
         12    1    1    2    0    0  0.49496235129E+01 -0.31001005632E+02 -0.29967686016E+02  0.43400729582E+02  0.00000000000E+00 0. -1.
         11    1    3    3    0    0 -0.62451563377E+01  0.73798081727E+01  0.82563273178E+01  0.12713397948E+02  0.51100000000E-03 0. -1.
        -11    1    3    3    0    0  0.15218291418E+01  0.14259384867E+02  0.37573975423E+01  0.14824441212E+02  0.51100000000E-03 0.  1.
         12    1    3    3    0    0 -0.22629631702E+00  0.93618125927E+01  0.17953961156E+02  0.20249431257E+02  0.00000000000E+00 0. -1.
</event>
<event>
 7    1  0.1813014E-010  0.4778727E+02  0.7816164E-02  0.1312668E+00
        -11   -1    0    0    0    0  0.00000000000E+00  0.00000000000E+00  0.45593999997E+02  0.45594000000E+02  0.51100000000E-03 0.  1.
         11   -1    0    0    0    0 -0.00000000000E+00 -0.00000000000E+00 -0.45593999997E+02  0.45594000000E+02  0.51100000000E-03 0. -1.
    9900012    2    1    2    0    0  0.14950058982E+02  0.38992836586E+02  0.11818529995E+02  0.47787271667E+02  0.20000002838E+02 0.  0.
         12    1    1    2    0    0 -0.14950058982E+02 -0.38992836586E+02 -0.11818529995E+02  0.43400728333E+02  0.00000000000E+00 0. -1.
         11    1    3    3    0    0  0.72828660415E+01  0.14669271463E+02  0.74620904085E+01  0.17997512511E+02  0.51100000000E-03 0.  1.
        -11    1    3    3    0    0  0.54542840594E+01  0.11982146110E+02 -0.50654518332E+01  0.14106021499E+02  0.51100000000E-03 0. -1.
         12    1    3    3    0    0  0.22129088816E+01  0.12341419013E+02  0.94218914197E+01  0.15683737657E+02  0.00000000000E+00 0. -1.
</event>
<event>
 7    1  0.1830214E-010  0.4778727E+02  0.7816164E-02  0.1312668E+00
        -11   -1    0    0    0    0  0.00000000000E+00  0.00000000000E+00  0.45593999997E+02  0.45594000000E+02  0.51100000000E-03 0.  1.
         11   -1    0    0    0    0 -0.00000000000E+00 -0.00000000000E+00 -0.45593999997E+02  0.45594000000E+02  0.51100000000E-03 0. -1.
    9900012    2    1    2    0    0 -0.32564509680E+02  0.26601019519E+02  0.10749976811E+02  0.47787268075E+02  0.19999986462E+02 0.  0.
         12    1    1    2    0    0  0.32564509680E+02 -0.26601019519E+02 -0.10749976811E+02  0.43400731925E+02  0.00000000000E+00 0. -1.
         11    1    3    3    0    0  0.22355935976E+01  0.14323048041E+00 -0.36552950366E+00  0.22698030274E+01  0.51100000000E-03 0. -1.
        -11    1    3    3    0    0 -0.12191746778E+02  0.12564198501E+02  0.29540185096E+01  0.17754548687E+02  0.51100000000E-03 0.  1.
         12    1    3    3    0    0 -0.22608356500E+02  0.13893590538E+02  0.81614878053E+01  0.27762916361E+02  0.00000000000E+00 0. -1.
</event>
<event>
 7    1  0.1813014E-010  0.4778727E+02  0.7816164E-02  0.1312668E+00
        -11   -1    0    0    0    0  0.00000000000E+00  0.00000000000E+00  0.45593999997E+02  0.45594000000E+02  0.51100000000E-03 0.  1.
         11   -1    0    0    0    0 -0.00000000000E+00 -0.00000000000E+00 -0.45593999997E+02  0.45594000000E+02  0.51100000000E-03 0. -1.
    9900012    2    1    2    0    0 -0.22224280323E+01 -0.19814898956E+02  0.38549373201E+02  0.47787267504E+02  0.19999983858E+02 0.  0.
         12    1    1    2    0    0  0.22224280323E+01  0.19814898956E+02 -0.38549373201E+02  0.43400732496E+02  0.00000000000E+00 0. -1.
         11    1    3    3    0    0  0.18529090775E+01 -0.20787571217E+01  0.16750766450E+02  0.16980656057E+02  0.51100000000E-03 0.  1.
        -11    1    3    3    0    0 -0.57477456253E+01 -0.13595460445E+02  0.21816741866E+02  0.26340906408E+02  0.51100000000E-03 0. -1.
         12    1    3    3    0    0  0.16724085155E+01 -0.41406813893E+01 -0.18135114909E-01  0.44657050387E+01  0.00000000000E+00 0. -1.
</event>
<event>
 7    1  0.1946739E-010  0.4778730E+02  0.7816164E-02  0.1312668E+00
        -11   -1    0    0    0    0  0.00000000000E+00  0.00000000000E+00  0.45593999997E+02  0.45594000000E+02  0.51100000000E-03 0. -1.
         11   -1    0    0    0    0 -0.00000000000E+00 -0.00000000000E+00 -0.45593999997E+02  0.45594000000E+02  0.51100000000E-03 0.  1.
    9900012    2    1    2    0    0 -0.93554384617E+01  0.38748876820E+02 -0.17164523880E+02  0.47787302268E+02  0.20000142359E+02 0.  0.
         12    1    1    2    0    0  0.93554384617E+01 -0.38748876820E+02  0.17164523880E+02  0.43400697732E+02  0.00000000000E+00 0. -1.
         11    1    3    3    0    0 -0.50169374431E+01  0.21979311469E+02 -0.13942148294E+02  0.26507419589E+02  0.51100000000E-03 0. -1.
        -11    1    3    3    0    0 -0.82892291204E+01  0.13471989428E+02 -0.16758152019E+01  0.15906419315E+02  0.51100000000E-03 0.  1.
         12    1    3    3    0    0  0.39507281019E+01  0.32975759232E+01 -0.15465603839E+01  0.53734633641E+01  0.00000000000E+00 0. -1.
</event>
<event>
 7    1  0.1813014E-010  0.4778727E+02  0.7816164E-02  0.1312668E+00
        -11   -1    0    0    0    0  0.00000000000E+00  0.00000000000E+00  0.45593999997E+02  0.45594000000E+02  0.51100000000E-03 0.  1.
         11   -1    0    0    0    0 -0.00000000000E+00 -0.00000000000E+00 -0.45593999997E+02  0.45594000000E+02  0.51100000000E-03 0. -1.
    9900012    2    1    2    0    0 -0.10270348051E+02  0.38594408747E+02 -0.16988676553E+02  0.47787267671E+02  0.19999984621E+02 0.  0.
         12    1    1    2    0    0  0.10270348051E+02 -0.38594408747E+02  0.16988676553E+02  0.43400732329E+02  0.00000000000E+00 0. -1.
         11    1    3    3    0    0 -0.51392869354E+01  0.24559613419E+02 -0.12106080471E+02  0.27859362270E+02  0.51100000000E-03 0. -1.
        -11    1    3    3    0    0 -0.88179530914E+01  0.11442731966E+02 -0.20148998277E+01  0.14586028697E+02  0.51100000000E-03 0.  1.
         12    1    3    3    0    0  0.36868919758E+01  0.25920633627E+01 -0.28676962544E+01  0.53418767044E+01  0.00000000000E+00 0. -1.
</event>
<event>
 7    1  0.1813014E-010  0.4778726E+02  0.7816164E-02  0.1312668E+00
        -11   -1    0    0    0    0  0.00000000000E+00  0.00000000000E+00  0.45593999997E+02  0.45594000000E+02  0.51100000000E-03 0. -1.
         11   -1    0    0    0    0 -0.00000000000E+00 -0.00000000000E+00 -0.45593999997E+02  0.45594000000E+02  0.51100000000E-03 0.  1.
    9900012    2    1    2    0    0  0.11309344470E+02 -0.29698338588E+02 -0.29558950010E+02  0.47787261378E+02  0.19999955925E+02 0.  0.
         12    1    1    2    0    0 -0.11309344470E+02  0.29698338588E+02  0.29558950010E+02  0.43400738622E+02  0.00000000000E+00 0. -1.
         11    1    3    3    0    0  0.58221984814E+00 -0.10605582425E+02 -0.35676609983E+01  0.11204711678E+02  0.51100000000E-03 0. -1.
        -11    1    3    3    0    0  0.37839796690E+01 -0.12983138411E+02 -0.64914372853E+01  0.15000638100E+02  0.51100000000E-03 0.  1.
         12    1    3    3    0    0  0.69431449532E+01 -0.61096177530E+01 -0.19499851727E+02  0.21581911600E+02  0.00000000000E+00 0. -1.
</event>
<event>
 7    1  0.1813014E-010  0.4778727E+02  0.7816164E-02  0.1312668E+00
        -11   -1    0    0    0    0  0.00000000000E+00  0.00000000000E+00  0.45593999997E+02  0.45594000000E+02  0.51100000000E-03 0.  1.
         11   -1    0    0    0    0 -0.00000000000E+00 -0.00000000000E+00 -0.45593999997E+02  0.45594000000E+02  0.51100000000E-03 0. -1.
    9900012    2    1    2    0    0  0.41993288359E+02  0.72661130482E+01  0.82091858356E+01  0.47787269613E+02  0.19999993473E+02 0.  0.
         12    1    1    2    0    0 -0.41993288359E+02 -0.72661130482E+01 -0.82091858356E+01  0.43400730387E+02  0.00000000000E+00 0. -1.
         11    1    3    3    0    0  0.42118144342E+01  0.48464275313E+01 -0.98323001903E+00  0.64956895074E+01  0.51100000000E-03 0. -1.
        -11    1    3    3    0    0  0.22822467470E+02 -0.88958304226E+00 -0.10476732308E+01  0.22863814180E+02  0.51100000000E-03 0.  1.
        -12    1    3    3    0    0  0.14959006455E+02  0.33092685591E+01  0.10240089085E+02  0.18427765926E+02  0.00000000000E+00 0.  1.
</event>
<event>
 7    1  0.1813014E-010  0.4778729E+02  0.7816164E-02  0.1312668E+00
        -11   -1    0    0    0    0  0.00000000000E+00  0.00000000000E+00  0.45593999997E+02  0.45594000000E+02  0.51100000000E-03 0. -1.
         11   -1    0    0    0    0 -0.00000000000E+00 -0.00000000000E+00 -0.45593999997E+02  0.45594000000E+02  0.51100000000E-03 0.  1.
    9900012    2    1    2    0    0 -0.40821077171E+02  0.11255498712E+02 -0.95170827527E+01  0.47787291979E+02  0.20000095448E+02 0.  0.
         12    1    1    2    0    0  0.40821077171E+02 -0.11255498712E+02  0.95170827527E+01  0.43400708021E+02  0.00000000000E+00 0. -1.
         11    1    3    3    0    0 -0.74534249042E+01  0.70013960522E+01 -0.88520628745E-01  0.10226481587E+02  0.51100000000E-03 0.  1.
        -11    1    3    3    0    0 -0.76759427238E+01  0.54718008902E+01  0.16250637614E+01  0.95656434269E+01  0.51100000000E-03 0. -1.
        -12    1    3    3    0    0 -0.25691709543E+02 -0.12176982305E+01 -0.11053625885E+02  0.27995166965E+02  0.00000000000E+00 0.  1.
</event>
<event>
 7    1  0.1813014E-010  0.4778727E+02  0.7816164E-02  0.1312668E+00
        -11   -1    0    0    0    0  0.00000000000E+00  0.00000000000E+00  0.45593999997E+02  0.45594000000E+02  0.51100000000E-03 0.  1.
         11   -1    0    0    0    0 -0.00000000000E+00 -0.00000000000E+00 -0.45593999997E+02  0.45594000000E+02  0.51100000000E-03 0. -1.
    9900012    2    1    2    0    0 -0.10408538050E+02  0.22637187886E+02  0.35536506142E+02  0.47787271798E+02  0.20000003434E+02 0.  0.
         12    1    1    2    0    0  0.10408538050E+02 -0.22637187886E+02 -0.35536506142E+02  0.43400728202E+02  0.00000000000E+00 0. -1.
         11    1    3    3    0    0 -0.11326463607E+01  0.91011054790E+01  0.28875827073E+01  0.96151517342E+01  0.51100000000E-03 0. -1.
        -11    1    3    3    0    0 -0.10458794868E+02  0.79661713546E+01  0.16809131795E+02  0.21339943489E+02  0.51100000000E-03 0.  1.
        -12    1    3    3    0    0  0.11829031783E+01  0.55699110522E+01  0.15839791639E+02  0.16832176575E+02  0.00000000000E+00 0.  1.
</event>
<event>
 7    1  0.1813014E-010  0.4778727E+02  0.7816164E-02  0.1312668E+00
        -11   -1    0    0    0    0  0.00000000000E+00  0.00000000000E+00  0.45593999997E+02  0.45594000000E+02  0.51100000000E-03 0.  1.
         11   -1    0    0    0    0 -0.00000000000E+00 -0.00000000000E+00 -0.45593999997E+02  0.45594000000E+02  0.51100000000E-03 0. -1.
    9900012    2    1    2    0    0 -0.42229972611E+02  0.99727194188E+01 -0.89289092667E+00  0.47787274505E+02  0.20000015776E+02 0.  0.
         12    1    1    2    0    0  0.42229972611E+02 -0.99727194188E+01  0.89289092667E+00  0.43400725495E+02  0.00000000000E+00 0. -1.
         11    1    3    3    0    0  0.76736286146E+00 -0.13916160921E+01  0.13528268035E+00  0.15949115254E+01  0.51100000000E-03 0. -1.
        -11    1    3    3    0    0 -0.28180970092E+02  0.49741380483E+01  0.48395499425E+01  0.29022928325E+02  0.51100000000E-03 0.  1.
         12    1    3    3    0    0 -0.14816365381E+02  0.63901974626E+01 -0.58677235495E+01  0.17169434654E+02  0.00000000000E+00 0. -1.
</event>
<event>
 7    1  0.1813014E-010  0.4778727E+02  0.7816164E-02  0.1312668E+00
        -11   -1    0    0    0    0  0.00000000000E+00  0.00000000000E+00  0.45593999997E+02  0.45594000000E+02  0.51100000000E-03 0.  1.
         11   -1    0    0    0    0 -0.00000000000E+00 -0.00000000000E+00 -0.45593999997E+02  0.45594000000E+02  0.51100000000E-03 0. -1.
    9900012    2    1    2    0    0  0.26808771821E+02 -0.11606749827E+02  0.32096670351E+02  0.47787272636E+02  0.20000007257E+02 0.  0.
         12    1    1    2    0    0 -0.26808771821E+02  0.11606749827E+02 -0.32096670351E+02  0.43400727364E+02  0.00000000000E+00 0. -1.
         11    1    3    3    0    0 -0.16571826783E+01 -0.14835992655E+01  0.84330964636E+01  0.87214928445E+01  0.51100000000E-03 0. -1.
        -11    1    3    3    0    0  0.96596900927E+01 -0.67366796502E+01  0.69208086097E+01  0.13659797124E+02  0.51100000000E-03 0.  1.
         12    1    3    3    0    0  0.18806264407E+02 -0.33864709113E+01  0.16742765278E+02  0.25405982668E+02  0.00000000000E+00 0. -1.
</event>
<event>
 7    1  0.1813014E-010  0.4778727E+02  0.7816164E-02  0.1312668E+00
        -11   -1    0    0    0    0  0.00000000000E+00  0.00000000000E+00  0.45593999997E+02  0.45594000000E+02  0.51100000000E-03 0.  1.
         11   -1    0    0    0    0 -0.00000000000E+00 -0.00000000000E+00 -0.45593999997E+02  0.45594000000E+02  0.51100000000E-03 0. -1.
    9900012    2    1    2    0    0  0.18603543902E+02 -0.56230516981E+01  0.38806094202E+02  0.47787268401E+02  0.19999987949E+02 0.  0.
         12    1    1    2    0    0 -0.18603543902E+02  0.56230516981E+01 -0.38806094202E+02  0.43400731599E+02  0.00000000000E+00 0. -1.
         11    1    3    3    0    0 -0.10702777542E+01 -0.24960333929E+01  0.11733509812E+02  0.12043709144E+02  0.51100000000E-03 0. -1.
        -11    1    3    3    0    0  0.19350555993E+02 -0.61294467233E+01  0.24051332818E+02  0.31471904057E+02  0.51100000000E-03 0.  1.
         12    1    3    3    0    0  0.32326566319E+00  0.30024284180E+01  0.30212515707E+01  0.42716552000E+01  0.00000000000E+00 0. -1.
</event>
<event>
 7    1  0.1813014E-010  0.4778727E+02  0.7816164E-02  0.1312668E+00
        -11   -1    0    0    0    0  0.00000000000E+00  0.00000000000E+00  0.45593999997E+02  0.45594000000E+02  0.51100000000E-03 0. -1.
         11   -1    0    0    0    0 -0.00000000000E+00 -0.00000000000E+00 -0.45593999997E+02  0.45594000000E+02  0.51100000000E-03 0.  1.
    9900012    2    1    2    0    0 -0.31173415419E+02  0.14045285011E+02 -0.26731474567E+02  0.47787267375E+02  0.19999983269E+02 0.  0.
         12    1    1    2    0    0  0.31173415419E+02 -0.14045285011E+02  0.26731474567E+02  0.43400732625E+02  0.00000000000E+00 0. -1.
         11    1    3    3    0    0 -0.28865926853E+01 -0.28899515063E+01 -0.41292210181E+01  0.58081583585E+01  0.51100000000E-03 0. -1.
        -11    1    3    3    0    0 -0.16930654650E+02  0.90922347194E+01 -0.20359353567E+02  0.27996769046E+02  0.51100000000E-03 0.  1.
        -12    1    3    3    0    0 -0.11356168083E+02  0.78430017977E+01 -0.22428999817E+01  0.13982339971E+02  0.00000000000E+00 0.  1.
</event>
<event>
 7    1  0.1813014E-010  0.4778727E+02  0.7816164E-02  0.1312668E+00
        -11   -1    0    0    0    0  0.00000000000E+00  0.00000000000E+00  0.45593999997E+02  0.45594000000E+02  0.51100000000E-03 0. -1.
         11   -1    0    0    0    0 -0.00000000000E+00 -0.00000000000E+00 -0.45593999997E+02  0.45594000000E+02  0.51100000000E-03 0.  1.
    9900012    2    1    2    0    0  0.17331338329E+02 -0.35467429254E+02  0.18036336314E+02  0.47787271276E+02  0.20000001056E+02 0.  0.
         12    1    1    2    0    0 -0.17331338329E+02  0.35467429254E+02 -0.18036336314E+02  0.43400728724E+02  0.00000000000E+00 0. -1.
         11    1    3    3    0    0  0.14359236933E+02 -0.14347157823E+02  0.12799968183E+02  0.23997245855E+02  0.51100000000E-03 0. -1.
        -11    1    3    3    0    0  0.36424878758E+01 -0.16816480430E+02  0.76273761329E+01  0.18821227349E+02  0.51100000000E-03 0.  1.
         12    1    3    3    0    0 -0.67038648064E+00 -0.43037910008E+01 -0.23910080019E+01  0.49687980717E+01  0.00000000000E+00 0. -1.
</event>
<event>
 7    1  0.1813014E-010  0.4778727E+02  0.7816164E-02  0.1312668E+00
        -11   -1    0    0    0    0  0.00000000000E+00  0.00000000000E+00  0.45593999997E+02  0.45594000000E+02  0.51100000000E-03 0.  1.
         11   -1    0    0    0    0 -0.00000000000E+00 -0.00000000000E+00 -0.45593999997E+02  0.45594000000E+02  0.51100000000E-03 0. -1.
    9900012    2    1    2    0    0  0.27222707041E+02  0.31940526769E+01 -0.33650344343E+02  0.47787269297E+02  0.19999992034E+02 0.  0.
         12    1    1    2    0    0 -0.27222707041E+02 -0.31940526769E+01  0.33650344343E+02  0.43400730703E+02  0.00000000000E+00 0. -1.
         11    1    3    3    0    0  0.11288152892E+02  0.81369188574E+01 -0.15655537274E+02  0.20945827551E+02  0.51100000000E-03 0. -1.
        -11    1    3    3    0    0  0.13992283097E+02  0.25520564855E-01 -0.15711149305E+02  0.21038651342E+02  0.51100000000E-03 0.  1.
         12    1    3    3    0    0  0.19422710523E+01 -0.49683867453E+01 -0.22836577647E+01  0.58027904045E+01  0.00000000000E+00 0. -1.
</event>
<event>
 7    1  0.1813014E-010  0.4778727E+02  0.7816164E-02  0.1312668E+00
        -11   -1    0    0    0    0  0.00000000000E+00  0.00000000000E+00  0.45593999997E+02  0.45594000000E+02  0.51100000000E-03 0. -1.
         11   -1    0    0    0    0 -0.00000000000E+00 -0.00000000000E+00 -0.45593999997E+02  0.45594000000E+02  0.51100000000E-03 0.  1.
    9900012    2    1    2    0    0 -0.39777417075E+02 -0.17360271450E+02 -0.37556027123E-01  0.47787270231E+02  0.19999996293E+02 0.  0.
         12    1    1    2    0    0  0.39777417075E+02  0.17360271450E+02  0.37556027123E-01  0.43400729769E+02  0.00000000000E+00 0. -1.
         11    1    3    3    0    0  0.39411092746E+00 -0.37269442126E+01  0.16286472574E+01  0.40863099169E+01  0.51100000000E-03 0. -1.
        -11    1    3    3    0    0 -0.24098585708E+02 -0.13328060442E+02  0.30959132982E-02  0.27538682578E+02  0.51100000000E-03 0.  1.
        -12    1    3    3    0    0 -0.16072942294E+02 -0.30526679535E+00 -0.16692991978E+01  0.16162277736E+02  0.00000000000E+00 0.  1.
</event>
<event>
 7    1  0.1813014E-010  0.4778726E+02  0.7816164E-02  0.1312668E+00
        -11   -1    0    0    0    0  0.00000000000E+00  0.00000000000E+00  0.45593999997E+02  0.45594000000E+02  0.51100000000E-03 0.  1.
         11   -1    0    0    0    0 -0.00000000000E+00 -0.00000000000E+00 -0.45593999997E+02  0.45594000000E+02  0.51100000000E-03 0. -1.
    9900012    2    1    2    0    0 -0.29796588929E+02 -0.28419000704E+01  0.31427873544E+02  0.47787258724E+02  0.19999943826E+02 0.  0.
         12    1    1    2    0    0  0.29796588929E+02  0.28419000704E+01 -0.31427873544E+02  0.43400741276E+02  0.00000000000E+00 0. -1.
         11    1    3    3    0    0 -0.10441212218E+02  0.40376412410E-01  0.54792512553E+01  0.11791638453E+02  0.51100000000E-03 0. -1.
        -11    1    3    3    0    0 -0.68954669521E+01 -0.67083586595E+01  0.18827762247E+02  0.21143182634E+02  0.51100000000E-03 0.  1.
        -12    1    3    3    0    0 -0.12459909759E+02  0.38260821767E+01  0.71208600418E+01  0.14852437637E+02  0.00000000000E+00 0.  1.
</event>
<event>
 7    1  0.1813014E-010  0.4778724E+02  0.7816164E-02  0.1312668E+00
        -11   -1    0    0    0    0  0.00000000000E+00  0.00000000000E+00  0.45593999997E+02  0.45594000000E+02  0.51100000000E-03 0.  1.
         11   -1    0    0    0    0 -0.00000000000E+00 -0.00000000000E+00 -0.45593999997E+02  0.45594000000E+02  0.51100000000E-03 0. -1.
    9900012    2    1    2    0    0  0.21863636757E+02  0.47835988676E+01  0.37184998783E+02  0.47787244652E+02  0.19999879665E+02 0.  0.
         12    1    1    2    0    0 -0.21863636757E+02 -0.47835988676E+01 -0.37184998783E+02  0.43400755348E+02  0.00000000000E+00 0. -1.
         11    1    3    3    0    0  0.18047865781E+00  0.18154712260E+01  0.84933397066E+01  0.86870782172E+01  0.51100000000E-03 0. -1.
        -11    1    3    3    0    0  0.76575461895E+01  0.69497762778E+01  0.18879328281E+02  0.21525948076E+02  0.51100000000E-03 0.  1.
        -12    1    3    3    0    0  0.14025611909E+02 -0.39816486362E+01  0.98123307946E+01  0.17574218359E+02  0.00000000000E+00 0.  1.
</event>
<event>
 7    1  0.1813014E-010  0.4778727E+02  0.7816164E-02  0.1312668E+00
        -11   -1    0    0    0    0  0.00000000000E+00  0.00000000000E+00  0.45593999997E+02  0.45594000000E+02  0.51100000000E-03 0.  1.
         11   -1    0    0    0    0 -0.00000000000E+00 -0.00000000000E+00 -0.45593999997E+02  0.45594000000E+02  0.51100000000E-03 0. -1.
    9900012    2    1    2    0    0  0.42229139232E+02 -0.43997343301E+01 -0.89980859392E+01  0.47787269441E+02  0.19999992691E+02 0.  0.
         12    1    1    2    0    0 -0.42229139232E+02  0.43997343301E+01  0.89980859392E+01  0.43400730559E+02  0.00000000000E+00 0. -1.
         11    1    3    3    0    0  0.15327846257E+02 -0.37293202696E+01 -0.25927392323E+01  0.15986650604E+02  0.51100000000E-03 0. -1.
        -11    1    3    3    0    0  0.17392010766E+02  0.54214463769E+01 -0.88384251716E+01  0.20248256198E+02  0.51100000000E-03 0.  1.
         12    1    3    3    0    0  0.95092822099E+01 -0.60918604374E+01  0.24330784647E+01  0.11552362639E+02  0.00000000000E+00 0. -1.
</event>
<event>
 7    1  0.1813014E-010  0.4778727E+02  0.7816164E-02  0.1312668E+00
        -11   -1    0    0    0    0  0.00000000000E+00  0.00000000000E+00  0.45593999997E+02  0.45594000000E+02  0.51100000000E-03 0.  1.
         11   -1    0    0    0    0 -0.00000000000E+00 -0.00000000000E+00 -0.45593999997E+02  0.45594000000E+02  0.51100000000E-03 0. -1.
    9900012    2    1    2    0    0 -0.35763321685E+01 -0.37356644565E+02 -0.21801702301E+02  0.47787271111E+02  0.20000000302E+02 0.  0.
         12    1    1    2    0    0  0.35763321685E+01  0.37356644565E+02  0.21801702301E+02  0.43400728889E+02  0.00000000000E+00 0. -1.
         11    1    3    3    0    0  0.27069242707E+01 -0.24185067830E+01 -0.88226775336E+01  0.95402438747E+01  0.51100000000E-03 0. -1.
        -11    1    3    3    0    0 -0.18936631933E+01 -0.20727896353E+02 -0.51605833444E+01  0.21444422776E+02  0.51100000000E-03 0.  1.
        -12    1    3    3    0    0 -0.43895932459E+01 -0.14210241429E+02 -0.78184414231E+01  0.16802604459E+02  0.00000000000E+00 0.  1.
</event>
<event>
 7    1  0.1813014E-010  0.4778727E+02  0.7816164E-02  0.1312668E+00
        -11   -1    0    0    0    0  0.00000000000E+00  0.00000000000E+00  0.45593999997E+02  0.45594000000E+02  0.51100000000E-03 0. -1.
         11   -1    0    0    0    0 -0.00000000000E+00 -0.00000000000E+00 -0.45593999997E+02  0.45594000000E+02  0.51100000000E-03 0.  1.
    9900012    2    1    2    0    0  0.30086790095E+02  0.29700178077E+02 -0.98136382373E+01  0.47787274068E+02  0.20000013784E+02 0.  0.
         12    1    1    2    0    0 -0.30086790095E+02 -0.29700178077E+02  0.98136382373E+01  0.43400725932E+02  0.00000000000E+00 0. -1.
         11    1    3    3    0    0  0.14399198666E+02  0.18571125032E+02 -0.27925633847E+01  0.23664784336E+02  0.51100000000E-03 0.  1.
        -11    1    3    3    0    0  0.20444192732E+01  0.28344868098E+01 -0.73649388676E+01  0.81520727686E+01  0.51100000000E-03 0. -1.
         12    1    3    3    0    0  0.13643172156E+02  0.82945662354E+01  0.34386401497E+00  0.15970416963E+02  0.00000000000E+00 0. -1.
</event>
<event>
 7    1  0.1813014E-010  0.4778728E+02  0.7816164E-02  0.1312668E+00
        -11   -1    0    0    0    0  0.00000000000E+00  0.00000000000E+00  0.45593999997E+02  0.45594000000E+02  0.51100000000E-03 0.  1.
         11   -1    0    0    0    0 -0.00000000000E+00 -0.00000000000E+00 -0.45593999997E+02  0.45594000000E+02  0.51100000000E-03 0. -1.
    9900012    2    1    2    0    0  0.40758278468E+02  0.97731105361E+01  0.11263734099E+02  0.47787278127E+02  0.20000032291E+02 0.  0.
         12    1    1    2    0    0 -0.40758278468E+02 -0.97731105361E+01 -0.11263734099E+02  0.43400721873E+02  0.00000000000E+00 0. -1.
         11    1    3    3    0    0  0.57138459239E+01 -0.41755305247E+01 -0.53687221953E+00  0.70972757059E+01  0.51100000000E-03 0. -1.
        -11    1    3    3    0    0  0.16025295637E+02  0.53753714446E+01  0.10255604921E+02  0.19770739769E+02  0.51100000000E-03 0.  1.
        -12    1    3    3    0    0  0.19019136907E+02  0.85732696162E+01  0.15450013974E+01  0.20919262652E+02  0.00000000000E+00 0.  1.
</event>
<event>
 7    1  0.1813014E-010  0.4778727E+02  0.7816164E-02  0.1312668E+00
        -11   -1    0    0    0    0  0.00000000000E+00  0.00000000000E+00  0.45593999997E+02  0.45594000000E+02  0.51100000000E-03 0.  1.
         11   -1    0    0    0    0 -0.00000000000E+00 -0.00000000000E+00 -0.45593999997E+02  0.45594000000E+02  0.51100000000E-03 0. -1.
    9900012    2    1    2    0    0 -0.10577439538E+02 -0.34881517090E+02  0.23558877964E+02  0.47787271980E+02  0.20000004267E+02 0.  0.
         12    1    1    2    0    0  0.10577439538E+02  0.34881517090E+02 -0.23558877964E+02  0.43400728020E+02  0.00000000000E+00 0. -1.
         11    1    3    3    0    0  0.74933842815E+00 -0.81055361661E+01 -0.18713564273E+01  0.83524367558E+01  0.51100000000E-03 0. -1.
        -11    1    3    3    0    0 -0.28104469488E+01 -0.16745681907E+02  0.14109054664E+02  0.22076727528E+02  0.51100000000E-03 0.  1.
        -12    1    3    3    0    0 -0.85163310177E+01 -0.10030299017E+02  0.11321179727E+02  0.17358107696E+02  0.00000000000E+00 0.  1.
</event>
<event>
 7    1  0.2670576E-010  0.4778727E+02  0.7816164E-02  0.1312668E+00
        -11   -1    0    0    0    0  0.00000000000E+00  0.00000000000E+00  0.45593999997E+02  0.45594000000E+02  0.51100000000E-03 0. -1.
         11   -1    0    0    0    0 -0.00000000000E+00 -0.00000000000E+00 -0.45593999997E+02  0.45594000000E+02  0.51100000000E-03 0.  1.
    9900012    2    1    2    0    0  0.11357436388E+02 -0.27180986449E+02 -0.31872026646E+02  0.47787268805E+02  0.19999989791E+02 0.  0.
         12    1    1    2    0    0 -0.11357436388E+02  0.27180986449E+02  0.31872026646E+02  0.43400731195E+02  0.00000000000E+00 0. -1.
         11    1    3    3    0    0 -0.45293255173E+01 -0.10619879478E+01 -0.35191470795E+01  0.58332670495E+01  0.51100000000E-03 0. -1.
        -11    1    3    3    0    0  0.56617629419E+01 -0.83016213477E+01 -0.65335897488E+01  0.11985836303E+02  0.51100000000E-03 0.  1.
         12    1    3    3    0    0  0.10224998964E+02 -0.17817377154E+02 -0.21819289818E+02  0.29968165453E+02  0.00000000000E+00 0. -1.
</event>
<event>
 7    1  0.1813014E-010  0.4778727E+02  0.7816164E-02  0.1312668E+00
        -11   -1    0    0    0    0  0.00000000000E+00  0.00000000000E+00  0.45593999997E+02  0.45594000000E+02  0.51100000000E-03 0.  1.
         11   -1    0    0    0    0 -0.00000000000E+00 -0.00000000000E+00 -0.45593999997E+02  0.45594000000E+02  0.51100000000E-03 0. -1.
    9900012    2    1    2    0    0  0.42129069925E+02  0.76600353753E+01  0.70773322304E+01  0.47787270672E+02  0.19999998303E+02 0.  0.
         12    1    1    2    0    0 -0.42129069925E+02 -0.76600353753E+01 -0.70773322304E+01  0.43400729328E+02  0.00000000000E+00 0. -1.
         11    1    3    3    0    0  0.91720391182E+01  0.40983441298E+01 -0.33378158280E+01  0.10586016293E+02  0.51100000000E-03 0. -1.
        -11    1    3    3    0    0  0.19042934722E+02  0.86231885509E+01  0.63372549880E+01  0.21843844548E+02  0.51100000000E-03 0.  1.
         12    1    3    3    0    0  0.13914096085E+02 -0.50614973053E+01  0.40778930705E+01  0.15357409831E+02  0.00000000000E+00 0. -1.
</event>
<event>
 7    1  0.1881074E-010  0.4778727E+02  0.7816164E-02  0.1312668E+00
        -11   -1    0    0    0    0  0.00000000000E+00  0.00000000000E+00  0.45593999997E+02  0.45594000000E+02  0.51100000000E-03 0. -1.
         11   -1    0    0    0    0 -0.00000000000E+00 -0.00000000000E+00 -0.45593999997E+02  0.45594000000E+02  0.51100000000E-03 0.  1.
    9900012    2    1    2    0    0 -0.11356044614E+02 -0.42286047784E+00 -0.41886567078E+02  0.47787273487E+02  0.20000011136E+02 0.  0.
         12    1    1    2    0    0  0.11356044614E+02  0.42286047784E+00  0.41886567078E+02  0.43400726513E+02  0.00000000000E+00 0. -1.
         11    1    3    3    0    0  0.42592296115E+01 -0.30557436168E+01 -0.92277996700E+01  0.10612770277E+02  0.51100000000E-03 0. -1.
        -11    1    3    3    0    0 -0.52486499638E+01  0.22443867533E+01 -0.20049322997E+02  0.20846125569E+02  0.51100000000E-03 0.  1.
         12    1    3    3    0    0 -0.10366624262E+02  0.38849638568E+00 -0.12609444412E+02  0.16328377641E+02  0.00000000000E+00 0. -1.
</event>
<event>
 7    1  0.1813014E-010  0.4778727E+02  0.7816164E-02  0.1312668E+00
        -11   -1    0    0    0    0  0.00000000000E+00  0.00000000000E+00  0.45593999997E+02  0.45594000000E+02  0.51100000000E-03 0.  1.
         11   -1    0    0    0    0 -0.00000000000E+00 -0.00000000000E+00 -0.45593999997E+02  0.45594000000E+02  0.51100000000E-03 0. -1.
    9900012    2    1    2    0    0  0.22000711327E+02  0.14034819905E+02  0.34678757452E+02  0.47787266284E+02  0.19999978297E+02 0.  0.
         12    1    1    2    0    0 -0.22000711327E+02 -0.14034819905E+02 -0.34678757452E+02  0.43400733716E+02  0.00000000000E+00 0. -1.
         11    1    3    3    0    0  0.15906450708E+02  0.22959499495E+01  0.26403720539E+02  0.30910241326E+02  0.51100000000E-03 0. -1.
        -11    1    3    3    0    0  0.62510341001E+01  0.52112941531E+01  0.39608561443E+01  0.90510439026E+01  0.51100000000E-03 0.  1.
         12    1    3    3    0    0 -0.15677348049E+00  0.65275758023E+01  0.43141807687E+01  0.78259810557E+01  0.00000000000E+00 0. -1.
</event>
<event>
 7    1  0.1813014E-010  0.4778727E+02  0.7816164E-02  0.1312668E+00
        -11   -1    0    0    0    0  0.00000000000E+00  0.00000000000E+00  0.45593999997E+02  0.45594000000E+02  0.51100000000E-03 0.  1.
         11   -1    0    0    0    0 -0.00000000000E+00 -0.00000000000E+00 -0.45593999997E+02  0.45594000000E+02  0.51100000000E-03 0. -1.
    9900012    2    1    2    0    0 -0.11845884667E+02  0.10516764099E+00  0.41752687225E+02  0.47787274957E+02  0.20000017840E+02 0.  0.
         12    1    1    2    0    0  0.11845884667E+02 -0.10516764099E+00 -0.41752687225E+02  0.43400725043E+02  0.00000000000E+00 0. -1.
         11    1    3    3    0    0 -0.44350347628E+00  0.21209465359E+01  0.15964435789E+00  0.21726932880E+01  0.51100000000E-03 0. -1.
        -11    1    3    3    0    0 -0.12652696796E+02 -0.60182261366E+01  0.35952533340E+02  0.38586194887E+02  0.51100000000E-03 0.  1.
         12    1    3    3    0    0  0.12503156056E+01  0.40024472417E+01  0.56405095267E+01  0.70283867820E+01  0.00000000000E+00 0. -1.
</event>
<event>
 7    1  0.1813014E-010  0.4778727E+02  0.7816164E-02  0.1312668E+00
        -11   -1    0    0    0    0  0.00000000000E+00  0.00000000000E+00  0.45593999997E+02  0.45594000000E+02  0.51100000000E-03 0. -1.
         11   -1    0    0    0    0 -0.00000000000E+00 -0.00000000000E+00 -0.45593999997E+02  0.45594000000E+02  0.51100000000E-03 0.  1.
    9900012    2    1    2    0    0 -0.17085957164E+02 -0.39852406133E+02  0.18653233332E+01  0.47787266851E+02  0.19999980878E+02 0.  0.
         12    1    1    2    0    0  0.17085957164E+02  0.39852406133E+02 -0.18653233332E+01  0.43400733149E+02  0.00000000000E+00 0. -1.
         11    1    3    3    0    0  0.12944946259E+01  0.34338851113E+00 -0.26860021754E+01  0.30013730114E+01  0.51100000000E-03 0. -1.
        -11    1    3    3    0    0 -0.57874574248E+01 -0.19251615234E+02  0.15206465246E+01  0.20160151752E+02  0.51100000000E-03 0.  1.
        -12    1    3    3    0    0 -0.12592994365E+02 -0.20944179410E+02  0.30306789840E+01  0.24625742087E+02  0.00000000000E+00 0.  1.
</event>
<event>
 7    1  0.1813014E-010  0.4778727E+02  0.7816164E-02  0.1312668E+00
        -11   -1    0    0    0    0  0.00000000000E+00  0.00000000000E+00  0.45593999997E+02  0.45594000000E+02  0.51100000000E-03 0.  1.
         11   -1    0    0    0    0 -0.00000000000E+00 -0.00000000000E+00 -0.45593999997E+02  0.45594000000E+02  0.51100000000E-03 0. -1.
    9900012    2    1    2    0    0 -0.38510849002E+02  0.76178783812E+01  0.18506922930E+02  0.47787265464E+02  0.19999974557E+02 0.  0.
         12    1    1    2    0    0  0.38510849002E+02 -0.76178783812E+01 -0.18506922930E+02  0.43400734536E+02  0.00000000000E+00 0. -1.
         11    1    3    3    0    0 -0.26370826844E+01  0.42112654813E+01 -0.79110066594E+00  0.50313817747E+01  0.51100000000E-03 0. -1.
        -11    1    3    3    0    0 -0.23882681530E+02  0.72860448664E+01  0.16243729399E+02  0.29788045788E+02  0.51100000000E-03 0.  1.
         12    1    3    3    0    0 -0.11991084788E+02 -0.38794319665E+01  0.30542941974E+01  0.12967837901E+02  0.00000000000E+00 0. -1.
</event>
<event>
 7    1  0.1813014E-010  0.4778727E+02  0.7816164E-02  0.1312668E+00
        -11   -1    0    0    0    0  0.00000000000E+00  0.00000000000E+00  0.45593999997E+02  0.45594000000E+02  0.51100000000E-03 0.  1.
         11   -1    0    0    0    0 -0.00000000000E+00 -0.00000000000E+00 -0.45593999997E+02  0.45594000000E+02  0.51100000000E-03 0. -1.
    9900012    2    1    2    0    0 -0.40476089942E+02  0.76421382441E+01  0.13671400685E+02  0.47787270390E+02  0.19999997018E+02 0.  0.
         12    1    1    2    0    0  0.40476089942E+02 -0.76421382441E+01 -0.13671400685E+02  0.43400729610E+02  0.00000000000E+00 0. -1.
         11    1    3    3    0    0 -0.11067401284E+02  0.51245090525E+01  0.10405342696E+01  0.12240534140E+02  0.51100000000E-03 0. -1.
        -11    1    3    3    0    0 -0.84662387107E+01  0.17724666267E+01 -0.32637208478E+01  0.92450370406E+01  0.51100000000E-03 0.  1.
        -12    1    3    3    0    0 -0.20942449948E+02  0.74516256493E+00  0.15894587263E+02  0.26301699210E+02  0.00000000000E+00 0.  1.
</event>
<event>
 7    1  0.1813014E-010  0.4778727E+02  0.7816164E-02  0.1312668E+00
        -11   -1    0    0    0    0  0.00000000000E+00  0.00000000000E+00  0.45593999997E+02  0.45594000000E+02  0.51100000000E-03 0.  1.
         11   -1    0    0    0    0 -0.00000000000E+00 -0.00000000000E+00 -0.45593999997E+02  0.45594000000E+02  0.51100000000E-03 0. -1.
    9900012    2    1    2    0    0  0.86663373545E+01  0.17098126386E+02  0.38938049748E+02  0.47787273655E+02  0.20000011903E+02 0.  0.
         12    1    1    2    0    0 -0.86663373545E+01 -0.17098126386E+02 -0.38938049748E+02  0.43400726345E+02  0.00000000000E+00 0. -1.
         11    1    3    3    0    0  0.69347246633E+01  0.10038941680E+02  0.58465175745E+01  0.13529690470E+02  0.51100000000E-03 0. -1.
        -11    1    3    3    0    0  0.28513480051E+01  0.16771729215E+01  0.14356710186E+02  0.14732895917E+02  0.51100000000E-03 0.  1.
        -12    1    3    3    0    0 -0.11197353139E+01  0.53820117848E+01  0.18734821988E+02  0.19524687268E+02  0.00000000000E+00 0.  1.
</event>
<event>
 7    1  0.1813014E-010  0.4778727E+02  0.7816164E-02  0.1312668E+00
        -11   -1    0    0    0    0  0.00000000000E+00  0.00000000000E+00  0.45593999997E+02  0.45594000000E+02  0.51100000000E-03 0.  1.
         11   -1    0    0    0    0 -0.00000000000E+00 -0.00000000000E+00 -0.45593999997E+02  0.45594000000E+02  0.51100000000E-03 0. -1.
    9900012    2    1    2    0    0 -0.10888285858E+02 -0.68989487886E+01  0.41442410657E+02  0.47787266546E+02  0.19999979488E+02 0.  0.
         12    1    1    2    0    0  0.10888285858E+02  0.68989487886E+01 -0.41442410657E+02  0.43400733454E+02  0.00000000000E+00 0. -1.
         11    1    3    3    0    0  0.13773001786E+01 -0.89994233625E+00 -0.17990658978E+01  0.24379274715E+01  0.51100000000E-03 0. -1.
        -11    1    3    3    0    0 -0.53434594803E+01 -0.23793290832E+01  0.17939235129E+02  0.18868755216E+02  0.51100000000E-03 0.  1.
         12    1    3    3    0    0 -0.69221265566E+01 -0.36196773692E+01  0.25302241426E+02  0.26480583858E+02  0.00000000000E+00 0. -1.
</event>
<event>
 7    1  0.1813014E-010  0.4778727E+02  0.7816164E-02  0.1312668E+00
        -11   -1    0    0    0    0  0.00000000000E+00  0.00000000000E+00  0.45593999997E+02  0.45594000000E+02  0.51100000000E-03 0.  1.
         11   -1    0    0    0    0 -0.00000000000E+00 -0.00000000000E+00 -0.45593999997E+02  0.45594000000E+02  0.51100000000E-03 0. -1.
    9900012    2    1    2    0    0 -0.23705684875E+02 -0.36354680472E+02  0.30038231352E-01  0.47787272011E+02  0.20000004409E+02 0.  0.
         12    1    1    2    0    0  0.23705684875E+02  0.36354680472E+02 -0.30038231352E-01  0.43400727989E+02  0.00000000000E+00 0. -1.
         11    1    3    3    0    0  0.16014302064E+01 -0.93576405372E+01  0.34801330049E+01  0.10111446045E+02  0.51100000000E-03 0. -1.
        -11    1    3    3    0    0 -0.95398830724E+01 -0.14569006331E+02 -0.23104109971E+01  0.17567108861E+02  0.51100000000E-03 0.  1.
        -12    1    3    3    0    0 -0.15767232009E+02 -0.12428033604E+02 -0.11396837765E+01  0.20108717105E+02  0.00000000000E+00 0.  1.
</event>
<event>
 7    1  0.1813014E-010  0.4778727E+02  0.7816164E-02  0.1312668E+00
        -11   -1    0    0    0    0  0.00000000000E+00  0.00000000000E+00  0.45593999997E+02  0.45594000000E+02  0.51100000000E-03 0.  1.
         11   -1    0    0    0    0 -0.00000000000E+00 -0.00000000000E+00 -0.45593999997E+02  0.45594000000E+02  0.51100000000E-03 0. -1.
    9900012    2    1    2    0    0  0.25131433893E+02  0.27090514172E+02  0.22762649996E+02  0.47787272328E+02  0.20000005852E+02 0.  0.
         12    1    1    2    0    0 -0.25131433893E+02 -0.27090514172E+02 -0.22762649996E+02  0.43400727672E+02  0.00000000000E+00 0. -1.
         11    1    3    3    0    0  0.99732245247E+01  0.26725819007E+01  0.69701771452E+01  0.12457578863E+02  0.51100000000E-03 0. -1.
        -11    1    3    3    0    0  0.17399419293E+02  0.22466941075E+02  0.15431915728E+02  0.32336469448E+02  0.51100000000E-03 0.  1.
        -12    1    3    3    0    0 -0.22412099254E+01  0.19509911963E+01  0.36055712277E+00  0.29932240171E+01  0.00000000000E+00 0.  1.
</event>
<event>
 7    1  0.1813014E-010  0.4778727E+02  0.7816164E-02  0.1312668E+00
        -11   -1    0    0    0    0  0.00000000000E+00  0.00000000000E+00  0.45593999997E+02  0.45594000000E+02  0.51100000000E-03 0.  1.
         11   -1    0    0    0    0 -0.00000000000E+00 -0.00000000000E+00 -0.45593999997E+02  0.45594000000E+02  0.51100000000E-03 0. -1.
    9900012    2    1    2    0    0  0.22865357798E+02  0.34904899079E+02  0.11935113026E+02  0.47787268556E+02  0.19999988656E+02 0.  0.
         12    1    1    2    0    0 -0.22865357798E+02 -0.34904899079E+02 -0.11935113026E+02  0.43400731444E+02  0.00000000000E+00 0. -1.
         11    1    3    3    0    0 -0.69363713984E+00  0.79002486161E+01  0.40312301143E+01  0.88963968647E+01  0.51100000000E-03 0. -1.
        -11    1    3    3    0    0  0.16786014046E+02  0.21796186077E+02  0.11240272868E+02  0.29718474548E+02  0.51100000000E-03 0.  1.
        -12    1    3    3    0    0  0.67729808914E+01  0.52084643855E+01 -0.33363899568E+01  0.91723971433E+01  0.00000000000E+00 0.  1.
</event>
<event>
 7    1  0.1813014E-010  0.4778727E+02  0.7816164E-02  0.1312668E+00
        -11   -1    0    0    0    0  0.00000000000E+00  0.00000000000E+00  0.45593999997E+02  0.45594000000E+02  0.51100000000E-03 0. -1.
         11   -1    0    0    0    0 -0.00000000000E+00 -0.00000000000E+00 -0.45593999997E+02  0.45594000000E+02  0.51100000000E-03 0.  1.
    9900012    2    1    2    0    0  0.33199389829E+02 -0.27589290702E+02 -0.45005410530E+01  0.47787270556E+02  0.19999997774E+02 0.  0.
         12    1    1    2    0    0 -0.33199389829E+02  0.27589290702E+02  0.45005410530E+01  0.43400729444E+02  0.00000000000E+00 0. -1.
         11    1    3    3    0    0  0.32002375361E+01 -0.31601155556E+01 -0.55651728396E+01  0.71553476231E+01  0.51100000000E-03 0. -1.
        -11    1    3    3    0    0  0.12337311158E+02 -0.38344110677E+01  0.35193619075E+01  0.13390215209E+02  0.51100000000E-03 0.  1.
        -12    1    3    3    0    0  0.17661841135E+02 -0.20594764079E+02 -0.24547301209E+01  0.27241707724E+02  0.00000000000E+00 0.  1.
</event>
<event>
 7    1  0.1813014E-010  0.4778727E+02  0.7816164E-02  0.1312668E+00
        -11   -1    0    0    0    0  0.00000000000E+00  0.00000000000E+00  0.45593999997E+02  0.45594000000E+02  0.51100000000E-03 0.  1.
         11   -1    0    0    0    0 -0.00000000000E+00 -0.00000000000E+00 -0.45593999997E+02  0.45594000000E+02  0.51100000000E-03 0. -1.
    9900012    2    1    2    0    0  0.52655528754E+01 -0.42081223445E+02 -0.92232251235E+01  0.47787270797E+02  0.19999998872E+02 0.  0.
         12    1    1    2    0    0 -0.52655528754E+01  0.42081223445E+02  0.92232251235E+01  0.43400729203E+02  0.00000000000E+00 0. -1.
         11    1    3    3    0    0 -0.21863953175E+01 -0.28769159008E+01 -0.32982073208E+01  0.48923554017E+01  0.51100000000E-03 0. -1.
        -11    1    3    3    0    0 -0.25808972154E+00 -0.27190000003E+02 -0.82856688443E+01  0.28425604988E+02  0.51100000000E-03 0.  1.
        -12    1    3    3    0    0  0.77100379145E+01 -0.12014307541E+02  0.23606510416E+01  0.14469310407E+02  0.00000000000E+00 0.  1.
</event>
<event>
 7    1  0.1813014E-010  0.4778727E+02  0.7816164E-02  0.1312668E+00
        -11   -1    0    0    0    0  0.00000000000E+00  0.00000000000E+00  0.45593999997E+02  0.45594000000E+02  0.51100000000E-03 0.  1.
         11   -1    0    0    0    0 -0.00000000000E+00 -0.00000000000E+00 -0.45593999997E+02  0.45594000000E+02  0.51100000000E-03 0. -1.
    9900012    2    1    2    0    0 -0.16974131457E+01  0.17174588098E+02  0.39821796190E+02  0.47787272593E+02  0.20000007059E+02 0.  0.
         12    1    1    2    0    0  0.16974131457E+01 -0.17174588098E+02 -0.39821796190E+02  0.43400727407E+02  0.00000000000E+00 0. -1.
         11    1    3    3    0    0 -0.48003923176E+01 -0.67515309210E+00  0.77858069152E+01  0.91716076935E+01  0.51100000000E-03 0. -1.
        -11    1    3    3    0    0  0.43434722091E+01  0.35118686787E+01  0.16586240369E+02  0.17501495430E+02  0.51100000000E-03 0.  1.
        -12    1    3    3    0    0 -0.12404930371E+01  0.14337872511E+02  0.15449748906E+02  0.21114169469E+02  0.00000000000E+00 0.  1.
</event>
<event>
 7    1  0.1813014E-010  0.4778726E+02  0.7816164E-02  0.1312668E+00
        -11   -1    0    0    0    0  0.00000000000E+00  0.00000000000E+00  0.45593999997E+02  0.45594000000E+02  0.51100000000E-03 0.  1.
         11   -1    0    0    0    0 -0.00000000000E+00 -0.00000000000E+00 -0.45593999997E+02  0.45594000000E+02  0.51100000000E-03 0. -1.
    9900012    2    1    2    0    0 -0.18519269986E+02 -0.82982532359E+01  0.38364045908E+02  0.47787258232E+02  0.19999941581E+02 0.  0.
         12    1    1    2    0    0  0.18519269986E+02  0.82982532359E+01 -0.38364045908E+02  0.43400741768E+02  0.00000000000E+00 0. -1.
         11    1    3    3    0    0 -0.84622508608E+01  0.50596346721E+01  0.85214849166E+01  0.13031703576E+02  0.51100000000E-03 0. -1.
        -11    1    3    3    0    0 -0.82322155626E+01 -0.59334481809E+01  0.16163401955E+02  0.19084830191E+02  0.51100000000E-03 0.  1.
         12    1    3    3    0    0 -0.18248035624E+01 -0.74244397272E+01  0.13679159037E+02  0.15670724465E+02  0.00000000000E+00 0. -1.
</event>
<event>
 7    1  0.1813014E-010  0.4778728E+02  0.7816164E-02  0.1312668E+00
        -11   -1    0    0    0    0  0.00000000000E+00  0.00000000000E+00  0.45593999997E+02  0.45594000000E+02  0.51100000000E-03 0.  1.
         11   -1    0    0    0    0 -0.00000000000E+00 -0.00000000000E+00 -0.45593999997E+02  0.45594000000E+02  0.51100000000E-03 0. -1.
    9900012    2    1    2    0    0  0.36075488554E+02 -0.14045167340E+01  0.24087524355E+02  0.47787281443E+02  0.20000047413E+02 0.  0.
         12    1    1    2    0    0 -0.36075488554E+02  0.14045167340E+01 -0.24087524355E+02  0.43400718557E+02  0.00000000000E+00 0. -1.
         11    1    3    3    0    0  0.33197671369E+01 -0.51931372339E+01  0.37591111094E+01  0.72194490626E+01  0.51100000000E-03 0. -1.
        -11    1    3    3    0    0  0.26070320248E+02  0.60248526678E-01  0.20083508593E+02  0.32909155951E+02  0.51100000000E-03 0.  1.
        -12    1    3    3    0    0  0.66854011697E+01  0.37283719733E+01  0.24490465206E+00  0.76586764300E+01  0.00000000000E+00 0.  1.
</event>
<event>
 7    1  0.1813014E-010  0.4778727E+02  0.7816164E-02  0.1312668E+00
        -11   -1    0    0    0    0  0.00000000000E+00  0.00000000000E+00  0.45593999997E+02  0.45594000000E+02  0.51100000000E-03 0.  1.
         11   -1    0    0    0    0 -0.00000000000E+00 -0.00000000000E+00 -0.45593999997E+02  0.45594000000E+02  0.51100000000E-03 0. -1.
    9900012    2    1    2    0    0  0.88319801801E+01 -0.32353477020E+02  0.27547635722E+02  0.47787267482E+02  0.19999983758E+02 0.  0.
         12    1    1    2    0    0 -0.88319801801E+01  0.32353477020E+02 -0.27547635722E+02  0.43400732518E+02  0.00000000000E+00 0. -1.
         11    1    3    3    0    0 -0.74809508157E+00 -0.46418960431E+01 -0.10155281248E+01  0.48102123404E+01  0.51100000000E-03 0. -1.
        -11    1    3    3    0    0 -0.26313945403E+01 -0.31050377497E+01  0.12951871954E+01  0.42711833005E+01  0.51100000000E-03 0.  1.
        -12    1    3    3    0    0  0.12211469802E+02 -0.24606543227E+02  0.27267976652E+02  0.38705871841E+02  0.00000000000E+00 0.  1.
</event>
<event>
 7    1  0.1813014E-010  0.4778727E+02  0.7816164E-02  0.1312668E+00
        -11   -1    0    0    0    0  0.00000000000E+00  0.00000000000E+00  0.45593999997E+02  0.45594000000E+02  0.51100000000E-03 0.  1.
         11   -1    0    0    0    0 -0.00000000000E+00 -0.00000000000E+00 -0.45593999997E+02  0.45594000000E+02  0.51100000000E-03 0. -1.
    9900012    2    1    2    0    0  0.21801905380E+02 -0.31522717085E+01  0.37394693086E+02  0.47787274590E+02  0.20000016166E+02 0.  0.
         12    1    1    2    0    0 -0.21801905380E+02  0.31522717085E+01 -0.37394693086E+02  0.43400725410E+02  0.00000000000E+00 0. -1.
         11    1    3    3    0    0 -0.12975805646E+01  0.13021278696E+01  0.16743665350E+01  0.24865148029E+01  0.51100000000E-03 0. -1.
        -11    1    3    3    0    0  0.14065861606E+02 -0.99642448442E+01  0.23324266412E+02  0.29002690254E+02  0.51100000000E-03 0.  1.
        -12    1    3    3    0    0  0.90336243388E+01  0.55098452661E+01  0.12396060139E+02  0.16298069534E+02  0.00000000000E+00 0.  1.
</event>
<event>
 7    1  0.1813014E-010  0.4778727E+02  0.7816164E-02  0.1312668E+00
        -11   -1    0    0    0    0  0.00000000000E+00  0.00000000000E+00  0.45593999997E+02  0.45594000000E+02  0.51100000000E-03 0. -1.
         11   -1    0    0    0    0 -0.00000000000E+00 -0.00000000000E+00 -0.45593999997E+02  0.45594000000E+02  0.51100000000E-03 0.  1.
    9900012    2    1    2    0    0 -0.12945992525E+02 -0.30334306935E+02 -0.28210895107E+02  0.47787268412E+02  0.19999987997E+02 0.  0.
         12    1    1    2    0    0  0.12945992525E+02  0.30334306935E+02  0.28210895107E+02  0.43400731588E+02  0.00000000000E+00 0. -1.
         11    1    3    3    0    0 -0.10219411091E+02 -0.16475134359E+02 -0.12125594453E+02  0.22866929315E+02  0.51100000000E-03 0. -1.
        -11    1    3    3    0    0  0.74084209692E+00  0.23468261258E+01 -0.20611088940E+01  0.32100794400E+01  0.51100000000E-03 0.  1.
        -12    1    3    3    0    0 -0.34674235311E+01 -0.16205998702E+02 -0.14024191760E+02  0.21710259657E+02  0.00000000000E+00 0.  1.
</event>
<event>
 7    1  0.1813014E-010  0.4778727E+02  0.7816164E-02  0.1312668E+00
        -11   -1    0    0    0    0  0.00000000000E+00  0.00000000000E+00  0.45593999997E+02  0.45594000000E+02  0.51100000000E-03 0.  1.
         11   -1    0    0    0    0 -0.00000000000E+00 -0.00000000000E+00 -0.45593999997E+02  0.45594000000E+02  0.51100000000E-03 0. -1.
    9900012    2    1    2    0    0  0.32077440166E+02 -0.28806545998E+02  0.49843764375E+01  0.47787271108E+02  0.20000000288E+02 0.  0.
         12    1    1    2    0    0 -0.32077440166E+02  0.28806545998E+02 -0.49843764375E+01  0.43400728892E+02  0.00000000000E+00 0. -1.
         11    1    3    3    0    0  0.20179985766E+02 -0.22147760681E+02 -0.34563547250E+01  0.30161258544E+02  0.51100000000E-03 0.  1.
        -11    1    3    3    0    0 -0.51981799578E+00  0.64412045792E+00  0.13164314091E+01  0.15550221314E+01  0.51100000000E-03 0. -1.
         12    1    3    3    0    0  0.12417272396E+02 -0.73029057747E+01  0.71242997533E+01  0.16070990432E+02  0.00000000000E+00 0. -1.
</event>
<event>
 7    1  0.1813014E-010  0.4778728E+02  0.7816164E-02  0.1312668E+00
        -11   -1    0    0    0    0  0.00000000000E+00  0.00000000000E+00  0.45593999997E+02  0.45594000000E+02  0.51100000000E-03 0.  1.
         11   -1    0    0    0    0 -0.00000000000E+00 -0.00000000000E+00 -0.45593999997E+02  0.45594000000E+02  0.51100000000E-03 0. -1.
    9900012    2    1    2    0    0  0.67216861032E+01  0.26269290039E+02  0.33887552214E+02  0.47787275832E+02  0.20000021830E+02 0.  0.
         12    1    1    2    0    0 -0.67216861032E+01 -0.26269290039E+02 -0.33887552214E+02  0.43400724168E+02  0.00000000000E+00 0. -1.
         11    1    3    3    0    0  0.28695153534E+00  0.21106181029E+02  0.16458685840E+02  0.26766425959E+02  0.51100000000E-03 0.  1.
        -11    1    3    3    0    0  0.90776651983E+00 -0.97822196828E+00 -0.38100293424E+00  0.13878478918E+01  0.51100000000E-03 0. -1.
        -12    1    3    3    0    0  0.55269680481E+01  0.61413309779E+01  0.17809869309E+02  0.19633001981E+02  0.00000000000E+00 0.  1.
</event>
<event>
 7    1  0.1813014E-010  0.4778727E+02  0.7816164E-02  0.1312668E+00
        -11   -1    0    0    0    0  0.00000000000E+00  0.00000000000E+00  0.45593999997E+02  0.45594000000E+02  0.51100000000E-03 0.  1.
         11   -1    0    0    0    0 -0.00000000000E+00 -0.00000000000E+00 -0.45593999997E+02  0.45594000000E+02  0.51100000000E-03 0. -1.
    9900012    2    1    2    0    0  0.24186469246E+02  0.11452450477E+02  0.34168394394E+02  0.47787273140E+02  0.20000009556E+02 0.  0.
         12    1    1    2    0    0 -0.24186469246E+02 -0.11452450477E+02 -0.34168394394E+02  0.43400726860E+02  0.00000000000E+00 0. -1.
         11    1    3    3    0    0  0.12754447966E+01  0.20032764179E+01  0.74287797756E+01  0.77991438666E+01  0.51100000000E-03 0. -1.
        -11    1    3    3    0    0  0.32816946709E+01  0.27063504058E+01  0.16124178672E+02  0.16675820535E+02  0.51100000000E-03 0.  1.
        -12    1    3    3    0    0  0.19629329779E+02  0.67428236528E+01  0.10615435946E+02  0.23312308738E+02  0.00000000000E+00 0.  1.
</event>
<event>
 7    1  0.1813014E-010  0.4778726E+02  0.7816164E-02  0.1312668E+00
        -11   -1    0    0    0    0  0.00000000000E+00  0.00000000000E+00  0.45593999997E+02  0.45594000000E+02  0.51100000000E-03 0.  1.
         11   -1    0    0    0    0 -0.00000000000E+00 -0.00000000000E+00 -0.45593999997E+02  0.45594000000E+02  0.51100000000E-03 0. -1.
    9900012    2    1    2    0    0  0.26273497544E+02 -0.29252700396E+02  0.18374077359E+02  0.47787264149E+02  0.19999968560E+02 0.  0.
         12    1    1    2    0    0 -0.26273497544E+02  0.29252700396E+02 -0.18374077359E+02  0.43400735851E+02  0.00000000000E+00 0. -1.
         11    1    3    3    0    0  0.40214704561E+01 -0.73248867787E+01  0.12950466903E+02  0.15412358165E+02  0.51100000000E-03 0. -1.
        -11    1    3    3    0    0  0.80510624461E+01 -0.12511572574E+02  0.25636248799E+01  0.15097391416E+02  0.51100000000E-03 0.  1.
         12    1    3    3    0    0  0.14200964642E+02 -0.94162410437E+01  0.28599855759E+01  0.17277514568E+02  0.00000000000E+00 0. -1.
</event>
<event>
 7    1  0.1813014E-010  0.4778727E+02  0.7816164E-02  0.1312668E+00
        -11   -1    0    0    0    0  0.00000000000E+00  0.00000000000E+00  0.45593999997E+02  0.45594000000E+02  0.51100000000E-03 0. -1.
         11   -1    0    0    0    0 -0.00000000000E+00 -0.00000000000E+00 -0.45593999997E+02  0.45594000000E+02  0.51100000000E-03 0.  1.
    9900012    2    1    2    0    0 -0.30440856066E+02 -0.26320413800E+02 -0.16254642889E+02  0.47787270559E+02  0.19999997785E+02 0.  0.
         12    1    1    2    0    0  0.30440856066E+02  0.26320413800E+02  0.16254642889E+02  0.43400729441E+02  0.00000000000E+00 0. -1.
         11    1    3    3    0    0 -0.15171580183E+01 -0.75581317012E+01 -0.47808722070E+01  0.90710452863E+01  0.51100000000E-03 0.  1.
        -11    1    3    3    0    0 -0.21105768748E+02 -0.63132346463E+01 -0.90556036658E+01  0.23818361911E+02  0.51100000000E-03 0. -1.
         12    1    3    3    0    0 -0.78179292996E+01 -0.12449047452E+02 -0.24181670158E+01  0.14897863361E+02  0.00000000000E+00 0. -1.
</event>
<event>
 7    1  0.1813014E-010  0.4778727E+02  0.7816164E-02  0.1312668E+00
        -11   -1    0    0    0    0  0.00000000000E+00  0.00000000000E+00  0.45593999997E+02  0.45594000000E+02  0.51100000000E-03 0. -1.
         11   -1    0    0    0    0 -0.00000000000E+00 -0.00000000000E+00 -0.45593999997E+02  0.45594000000E+02  0.51100000000E-03 0.  1.
    9900012    2    1    2    0    0 -0.23756297621E+01 -0.38404413847E+02 -0.20076870620E+02  0.47787270126E+02  0.19999995814E+02 0.  0.
         12    1    1    2    0    0  0.23756297621E+01  0.38404413847E+02  0.20076870620E+02  0.43400729874E+02  0.00000000000E+00 0. -1.
         11    1    3    3    0    0  0.16799277637E+01 -0.42398087683E+01 -0.10337642191E+02  0.11298892955E+02  0.51100000000E-03 0. -1.
        -11    1    3    3    0    0 -0.34317945297E+00 -0.21607113902E+02 -0.88871869746E+01  0.23365941794E+02  0.51100000000E-03 0.  1.
        -12    1    3    3    0    0 -0.37123780728E+01 -0.12557491176E+02 -0.85204145455E+00  0.13122435377E+02  0.00000000000E+00 0.  1.
</event>
<event>
 7    1  0.1813014E-010  0.4778727E+02  0.7816164E-02  0.1312668E+00
        -11   -1    0    0    0    0  0.00000000000E+00  0.00000000000E+00  0.45593999997E+02  0.45594000000E+02  0.51100000000E-03 0. -1.
         11   -1    0    0    0    0 -0.00000000000E+00 -0.00000000000E+00 -0.45593999997E+02  0.45594000000E+02  0.51100000000E-03 0.  1.
    9900012    2    1    2    0    0 -0.50544287204E+01 -0.36296889707E+02 -0.23251071840E+02  0.47787265055E+02  0.19999972690E+02 0.  0.
         12    1    1    2    0    0  0.50544287204E+01  0.36296889707E+02  0.23251071840E+02  0.43400734945E+02  0.00000000000E+00 0. -1.
         11    1    3    3    0    0  0.50461545840E+01 -0.39132160106E+01 -0.90543797113E+00  0.64495545437E+01  0.51100000000E-03 0. -1.
        -11    1    3    3    0    0  0.19344191283E+00 -0.89305532628E+01 -0.37579464646E+01  0.96909423301E+01  0.51100000000E-03 0.  1.
        -12    1    3    3    0    0 -0.10294025217E+02 -0.23453120434E+02 -0.18587687404E+02  0.31646768181E+02  0.00000000000E+00 0.  1.
</event>
<event>
 7    1  0.1813014E-010  0.4778727E+02  0.7816164E-02  0.1312668E+00
        -11   -1    0    0    0    0  0.00000000000E+00  0.00000000000E+00  0.45593999997E+02  0.45594000000E+02  0.51100000000E-03 0. -1.
         11   -1    0    0    0    0 -0.00000000000E+00 -0.00000000000E+00 -0.45593999997E+02  0.45594000000E+02  0.51100000000E-03 0.  1.
    9900012    2    1    2    0    0  0.43201595685E+02 -0.88833354819E+00 -0.40566799680E+01  0.47787266612E+02  0.19999979791E+02 0.  0.
         12    1    1    2    0    0 -0.43201595685E+02  0.88833354819E+00  0.40566799680E+01  0.43400733388E+02  0.00000000000E+00 0. -1.
         11    1    3    3    0    0  0.21823449384E+02  0.53337481301E+01 -0.21806325333E+00  0.22466850335E+02  0.51100000000E-03 0. -1.
        -11    1    3    3    0    0  0.13542729200E+02 -0.85429449404E+01  0.59520618913E+00  0.16023161146E+02  0.51100000000E-03 0.  1.
         12    1    3    3    0    0  0.78354171014E+01  0.23208632621E+01 -0.44338229038E+01  0.92972551313E+01  0.00000000000E+00 0. -1.
</event>
<event>
 7    1  0.1813014E-010  0.4778728E+02  0.7816164E-02  0.1312668E+00
        -11   -1    0    0    0    0  0.00000000000E+00  0.00000000000E+00  0.45593999997E+02  0.45594000000E+02  0.51100000000E-03 0. -1.
         11   -1    0    0    0    0 -0.00000000000E+00 -0.00000000000E+00 -0.45593999997E+02  0.45594000000E+02  0.51100000000E-03 0.  1.
    9900012    2    1    2    0    0  0.20192603232E+02  0.21675304809E+02 -0.31718489836E+02  0.47787278102E+02  0.20000032177E+02 0.  0.
         12    1    1    2    0    0 -0.20192603232E+02 -0.21675304809E+02  0.31718489836E+02  0.43400721898E+02  0.00000000000E+00 0. -1.
         11    1    3    3    0    0  0.11124382413E+02  0.32442450947E+01 -0.67747901293E+01  0.13422920392E+02  0.51100000000E-03 0. -1.
        -11    1    3    3    0    0  0.11844835977E+02  0.16199626399E+02 -0.20878058298E+02  0.28958959811E+02  0.51100000000E-03 0.  1.
        -12    1    3    3    0    0 -0.27766151581E+01  0.22314333150E+01 -0.40656414090E+01  0.54053978986E+01  0.00000000000E+00 0.  1.
</event>
<event>
 7    1  0.1813014E-010  0.4778727E+02  0.7816164E-02  0.1312668E+00
        -11   -1    0    0    0    0  0.00000000000E+00  0.00000000000E+00  0.45593999997E+02  0.45594000000E+02  0.51100000000E-03 0.  1.
         11   -1    0    0    0    0 -0.00000000000E+00 -0.00000000000E+00 -0.45593999997E+02  0.45594000000E+02  0.51100000000E-03 0. -1.
    9900012    2    1    2    0    0  0.33904715674E+02 -0.15916117331E+02  0.21926479004E+02  0.47787273999E+02  0.20000013472E+02 0.  0.
         12    1    1    2    0    0 -0.33904715674E+02  0.15916117331E+02 -0.21926479004E+02  0.43400726001E+02  0.00000000000E+00 0. -1.
         11    1    3    3    0    0  0.22654357370E+01  0.18690410807E+01 -0.29238218182E+00  0.29514405366E+01  0.51100000000E-03 0. -1.
        -11    1    3    3    0    0  0.21022339576E+02 -0.15402936366E+02  0.86849202105E+01  0.27470293942E+02  0.51100000000E-03 0.  1.
         12    1    3    3    0    0  0.10616940362E+02 -0.23822220464E+01  0.13533940976E+02  0.17365539521E+02  0.00000000000E+00 0. -1.
</event>
<event>
 7    1  0.1813014E-010  0.4778727E+02  0.7816164E-02  0.1312668E+00
        -11   -1    0    0    0    0  0.00000000000E+00  0.00000000000E+00  0.45593999997E+02  0.45594000000E+02  0.51100000000E-03 0.  1.
         11   -1    0    0    0    0 -0.00000000000E+00 -0.00000000000E+00 -0.45593999997E+02  0.45594000000E+02  0.51100000000E-03 0. -1.
    9900012    2    1    2    0    0 -0.24714569245E+02  0.33333178331E+02  0.12716620812E+02  0.47787272409E+02  0.20000006220E+02 0.  0.
         12    1    1    2    0    0  0.24714569245E+02 -0.33333178331E+02 -0.12716620812E+02  0.43400727591E+02  0.00000000000E+00 0. -1.
         11    1    3    3    0    0  0.25655593238E+00  0.39511934776E+01 -0.28982197199E+01  0.49068756505E+01  0.51100000000E-03 0. -1.
        -11    1    3    3    0    0 -0.12507961794E+02  0.21723462828E+02  0.12106086749E+02  0.27837300194E+02  0.51100000000E-03 0.  1.
        -12    1    3    3    0    0 -0.12463163383E+02  0.76585220252E+01  0.35087537834E+01  0.15043096564E+02  0.00000000000E+00 0.  1.
</event>
<event>
 7    1  0.1813014E-010  0.4778727E+02  0.7816164E-02  0.1312668E+00
        -11   -1    0    0    0    0  0.00000000000E+00  0.00000000000E+00  0.45593999997E+02  0.45594000000E+02  0.51100000000E-03 0.  1.
         11   -1    0    0    0    0 -0.00000000000E+00 -0.00000000000E+00 -0.45593999997E+02  0.45594000000E+02  0.51100000000E-03 0. -1.
    9900012    2    1    2    0    0  0.14630699545E+02 -0.39718449332E+02 -0.95922347627E+01  0.47787267815E+02  0.19999985275E+02 0.  0.
         12    1    1    2    0    0 -0.14630699545E+02  0.39718449332E+02  0.95922347627E+01  0.43400732185E+02  0.00000000000E+00 0. -1.
         11    1    3    3    0    0  0.89660635670E+01 -0.25947254054E+02 -0.36018466168E+00  0.27455054582E+02  0.51100000000E-03 0. -1.
        -11    1    3    3    0    0  0.55515518607E+01 -0.18287388251E+01 -0.12784568724E+01  0.59831819284E+01  0.51100000000E-03 0.  1.
         12    1    3    3    0    0  0.11308411694E+00 -0.11942456452E+02 -0.79535932286E+01  0.14349031304E+02  0.00000000000E+00 0. -1.
</event>
<event>
 7    1  0.1813014E-010  0.4778727E+02  0.7816164E-02  0.1312668E+00
        -11   -1    0    0    0    0  0.00000000000E+00  0.00000000000E+00  0.45593999997E+02  0.45594000000E+02  0.51100000000E-03 0. -1.
         11   -1    0    0    0    0 -0.00000000000E+00 -0.00000000000E+00 -0.45593999997E+02  0.45594000000E+02  0.51100000000E-03 0.  1.
    9900012    2    1    2    0    0 -0.42027875529E+02 -0.83418884653E+01 -0.69060614906E+01  0.47787272933E+02  0.20000008609E+02 0.  0.
         12    1    1    2    0    0  0.42027875529E+02  0.83418884653E+01  0.69060614906E+01  0.43400727067E+02  0.00000000000E+00 0. -1.
         11    1    3    3    0    0 -0.14188769623E+02  0.45605748577E+01 -0.27725454104E+01  0.15159387678E+02  0.51100000000E-03 0. -1.
        -11    1    3    3    0    0 -0.55531486436E+01 -0.56429057680E+01 -0.46538328104E+01  0.91835725866E+01  0.51100000000E-03 0.  1.
         12    1    3    3    0    0 -0.22285957263E+02 -0.72595575550E+01  0.52031673025E+00  0.23444312669E+02  0.00000000000E+00 0. -1.
</event>
<event>
 7    1  0.1813014E-010  0.4778727E+02  0.7816164E-02  0.1312668E+00
        -11   -1    0    0    0    0  0.00000000000E+00  0.00000000000E+00  0.45593999997E+02  0.45594000000E+02  0.51100000000E-03 0. -1.
         11   -1    0    0    0    0 -0.00000000000E+00 -0.00000000000E+00 -0.45593999997E+02  0.45594000000E+02  0.51100000000E-03 0.  1.
    9900012    2    1    2    0    0  0.28997385433E+02  0.23319352463E+02 -0.22337924801E+02  0.47787269065E+02  0.19999990977E+02 0.  0.
         12    1    1    2    0    0 -0.28997385433E+02 -0.23319352463E+02  0.22337924801E+02  0.43400730935E+02  0.00000000000E+00 0. -1.
         11    1    3    3    0    0  0.21444077001E+02  0.15298178008E+02 -0.65483538406E+01  0.27143390118E+02  0.51100000000E-03 0. -1.
        -11    1    3    3    0    0  0.65028295431E+01  0.16463073307E+01 -0.94796138917E+01  0.11612932433E+02  0.51100000000E-03 0.  1.
         12    1    3    3    0    0  0.10504788886E+01  0.63748671245E+01 -0.63099570684E+01  0.90309465149E+01  0.00000000000E+00 0. -1.
</event>
<event>
 7    1  0.1813014E-010  0.4778727E+02  0.7816164E-02  0.1312668E+00
        -11   -1    0    0    0    0  0.00000000000E+00  0.00000000000E+00  0.45593999997E+02  0.45594000000E+02  0.51100000000E-03 0. -1.
         11   -1    0    0    0    0 -0.00000000000E+00 -0.00000000000E+00 -0.45593999997E+02  0.45594000000E+02  0.51100000000E-03 0.  1.
    9900012    2    1    2    0    0 -0.17978532560E+02 -0.38161080297E+02 -0.10204296111E+02  0.47787270264E+02  0.19999996442E+02 0.  0.
         12    1    1    2    0    0  0.17978532560E+02  0.38161080297E+02  0.10204296111E+02  0.43400729736E+02  0.00000000000E+00 0. -1.
         11    1    3    3    0    0 -0.43718789416E+01 -0.84671055647E+01  0.14422282945E+01  0.96376981090E+01  0.51100000000E-03 0. -1.
        -11    1    3    3    0    0  0.61028960887E+00 -0.10899592281E+02 -0.95258808121E+01  0.14488477174E+02  0.51100000000E-03 0.  1.
        -12    1    3    3    0    0 -0.14216943227E+02 -0.18794382451E+02 -0.21206435936E+01  0.23661094981E+02  0.00000000000E+00 0.  1.
</event>
<event>
 7    1  0.1813014E-010  0.4778727E+02  0.7816164E-02  0.1312668E+00
        -11   -1    0    0    0    0  0.00000000000E+00  0.00000000000E+00  0.45593999997E+02  0.45594000000E+02  0.51100000000E-03 0. -1.
         11   -1    0    0    0    0 -0.00000000000E+00 -0.00000000000E+00 -0.45593999997E+02  0.45594000000E+02  0.51100000000E-03 0.  1.
    9900012    2    1    2    0    0  0.35005470660E+02 -0.22636082642E+02  0.12076752566E+02  0.47787272287E+02  0.20000005667E+02 0.  0.
         12    1    1    2    0    0 -0.35005470660E+02  0.22636082642E+02 -0.12076752566E+02  0.43400727713E+02  0.00000000000E+00 0. -1.
         11    1    3    3    0    0  0.20706014586E+02 -0.94109152519E+01  0.27435720867E+01  0.22909202386E+02  0.51100000000E-03 0. -1.
        -11    1    3    3    0    0  0.12085619378E+02 -0.68070251360E+01  0.69089255196E+00  0.13887948723E+02  0.51100000000E-03 0.  1.
         12    1    3    3    0    0  0.22138366957E+01 -0.64181422538E+01  0.86422879268E+01  0.10990121178E+02  0.00000000000E+00 0. -1.
</event>
<event>
 7    1  0.1813014E-010  0.4778727E+02  0.7816164E-02  0.1312668E+00
        -11   -1    0    0    0    0  0.00000000000E+00  0.00000000000E+00  0.45593999997E+02  0.45594000000E+02  0.51100000000E-03 0.  1.
         11   -1    0    0    0    0 -0.00000000000E+00 -0.00000000000E+00 -0.45593999997E+02  0.45594000000E+02  0.51100000000E-03 0. -1.
    9900012    2    1    2    0    0 -0.29602143306E+01  0.27883696712E+02  0.33126419280E+02  0.47787273445E+02  0.20000010944E+02 0.  0.
         12    1    1    2    0    0  0.29602143306E+01 -0.27883696712E+02 -0.33126419280E+02  0.43400726555E+02  0.00000000000E+00 0. -1.
         11    1    3    3    0    0  0.23548512357E+01  0.17575539044E+01 -0.26460173785E-01  0.29385405342E+01  0.51100000000E-03 0. -1.
        -11    1    3    3    0    0 -0.69178446443E+01  0.22736669052E+02  0.19656909372E+02  0.30841640365E+02  0.51100000000E-03 0.  1.
        -12    1    3    3    0    0  0.16027790779E+01  0.33894737553E+01  0.13495970082E+02  0.14007092545E+02  0.00000000000E+00 0.  1.
</event>
<event>
 7    1  0.2023787E-010  0.4778727E+02  0.7816164E-02  0.1312668E+00
        -11   -1    0    0    0    0  0.00000000000E+00  0.00000000000E+00  0.45593999997E+02  0.45594000000E+02  0.51100000000E-03 0.  1.
         11   -1    0    0    0    0 -0.00000000000E+00 -0.00000000000E+00 -0.45593999997E+02  0.45594000000E+02  0.51100000000E-03 0. -1.
    9900012    2    1    2    0    0  0.10586085682E+02  0.41183972689E+02  0.86855510021E+01  0.47787267141E+02  0.19999982201E+02 0.  0.
         12    1    1    2    0    0 -0.10586085682E+02 -0.41183972689E+02 -0.86855510021E+01  0.43400732859E+02  0.00000000000E+00 0. -1.
         11    1    3    3    0    0 -0.35074542527E+00  0.26892189903E+00  0.32357381561E+01  0.32657836758E+01  0.51100000000E-03 0. -1.
        -11    1    3    3    0    0  0.76341060139E+01  0.26629188155E+02  0.95407908017E+01  0.29298804170E+02  0.51100000000E-03 0.  1.
        -12    1    3    3    0    0  0.33027250929E+01  0.14285862635E+02 -0.40909779558E+01  0.15222679294E+02  0.00000000000E+00 0.  1.
</event>
<event>
 7    1  0.1813014E-010  0.4778727E+02  0.7816164E-02  0.1312668E+00
        -11   -1    0    0    0    0  0.00000000000E+00  0.00000000000E+00  0.45593999997E+02  0.45594000000E+02  0.51100000000E-03 0. -1.
         11   -1    0    0    0    0 -0.00000000000E+00 -0.00000000000E+00 -0.45593999997E+02  0.45594000000E+02  0.51100000000E-03 0.  1.
    9900012    2    1    2    0    0 -0.38635575248E+02 -0.13825106029E+02 -0.14134422063E+02  0.47787272834E+02  0.20000008159E+02 0.  0.
         12    1    1    2    0    0  0.38635575248E+02  0.13825106029E+02  0.14134422063E+02  0.43400727166E+02  0.00000000000E+00 0. -1.
         11    1    3    3    0    0 -0.53603092215E+01 -0.24818720251E+01  0.14126725779E+01  0.60735696071E+01  0.51100000000E-03 0. -1.
        -11    1    3    3    0    0 -0.27472614876E+02 -0.35900399923E+01 -0.16044943688E+02  0.32016763945E+02  0.51100000000E-03 0.  1.
        -12    1    3    3    0    0 -0.58026511509E+01 -0.77531940120E+01  0.49784904793E+00  0.96969392822E+01  0.00000000000E+00 0.  1.
</event>
<event>
 7    1  0.1813014E-010  0.4778727E+02  0.7816164E-02  0.1312668E+00
        -11   -1    0    0    0    0  0.00000000000E+00  0.00000000000E+00  0.45593999997E+02  0.45594000000E+02  0.51100000000E-03 0.  1.
         11   -1    0    0    0    0 -0.00000000000E+00 -0.00000000000E+00 -0.45593999997E+02  0.45594000000E+02  0.51100000000E-03 0. -1.
    9900012    2    1    2    0    0  0.72539836534E+01 -0.21921567637E+02  0.36748439338E+02  0.47787271892E+02  0.20000003866E+02 0.  0.
         12    1    1    2    0    0 -0.72539836534E+01  0.21921567637E+02 -0.36748439338E+02  0.43400728108E+02  0.00000000000E+00 0. -1.
         11    1    3    3    0    0  0.23195180061E+01 -0.88354049003E+01  0.35680638931E+01  0.98069171373E+01  0.51100000000E-03 0. -1.
        -11    1    3    3    0    0 -0.16455845856E+01  0.13547793769E+01  0.74573599588E+01  0.77560037136E+01  0.51100000000E-03 0.  1.
        -12    1    3    3    0    0  0.65800502329E+01 -0.14440942114E+02  0.25723015486E+02  0.30224351042E+02  0.00000000000E+00 0.  1.
</event>
<event>
 7    1  0.1813014E-010  0.4778727E+02  0.7816164E-02  0.1312668E+00
        -11   -1    0    0    0    0  0.00000000000E+00  0.00000000000E+00  0.45593999997E+02  0.45594000000E+02  0.51100000000E-03 0.  1.
         11   -1    0    0    0    0 -0.00000000000E+00 -0.00000000000E+00 -0.45593999997E+02  0.45594000000E+02  0.51100000000E-03 0. -1.
    9900012    2    1    2    0    0  0.27682983137E+02  0.17191091258E+02  0.28666043626E+02  0.47787271536E+02  0.20000002240E+02 0.  0.
         12    1    1    2    0    0 -0.27682983137E+02 -0.17191091258E+02 -0.28666043626E+02  0.43400728464E+02  0.00000000000E+00 0. -1.
         11    1    3    3    0    0  0.84672680158E+01  0.11533463979E+02  0.26731884968E+01  0.14555457945E+02  0.51100000000E-03 0. -1.
        -11    1    3    3    0    0  0.43974461973E+01 -0.72117973273E+00  0.71626271348E+01  0.84356897168E+01  0.51100000000E-03 0.  1.
        -12    1    3    3    0    0  0.14818268924E+02  0.63788070124E+01  0.18830227995E+02  0.24796123873E+02  0.00000000000E+00 0.  1.
</event>
<event>
 7    1  0.1813014E-010  0.4778726E+02  0.7816164E-02  0.1312668E+00
        -11   -1    0    0    0    0  0.00000000000E+00  0.00000000000E+00  0.45593999997E+02  0.45594000000E+02  0.51100000000E-03 0.  1.
         11   -1    0    0    0    0 -0.00000000000E+00 -0.00000000000E+00 -0.45593999997E+02  0.45594000000E+02  0.51100000000E-03 0. -1.
    9900012    2    1    2    0    0 -0.61479310659E+01  0.50710438398E+01  0.42662769053E+02  0.47787258010E+02  0.19999940572E+02 0.  0.
         12    1    1    2    0    0  0.61479310659E+01 -0.50710438398E+01 -0.42662769053E+02  0.43400741990E+02  0.00000000000E+00 0. -1.
         11    1    3    3    0    0 -0.42441974152E+01  0.52559554450E+00  0.24150759004E+02  0.24526488194E+02  0.51100000000E-03 0. -1.
        -11    1    3    3    0    0 -0.34476665916E+01 -0.14878103001E+01  0.16181255975E+02  0.16611232031E+02  0.51100000000E-03 0.  1.
         12    1    3    3    0    0  0.15439329409E+01  0.60332585954E+01  0.23307540734E+01  0.66495377851E+01  0.00000000000E+00 0. -1.
</event>
<event>
 7    1  0.1813014E-010  0.4778728E+02  0.7816164E-02  0.1312668E+00
        -11   -1    0    0    0    0  0.00000000000E+00  0.00000000000E+00  0.45593999997E+02  0.45594000000E+02  0.51100000000E-03 0. -1.
         11   -1    0    0    0    0 -0.00000000000E+00 -0.00000000000E+00 -0.45593999997E+02  0.45594000000E+02  0.51100000000E-03 0.  1.
    9900012    2    1    2    0    0  0.97661191798E+01  0.42088903475E+02 -0.40950789583E+01  0.47787279369E+02  0.20000037957E+02 0.  0.
         12    1    1    2    0    0 -0.97661191798E+01 -0.42088903475E+02  0.40950789583E+01  0.43400720631E+02  0.00000000000E+00 0. -1.
         11    1    3    3    0    0  0.27852554890E+01  0.12845678601E+02 -0.33638615850E+01  0.13567780655E+02  0.51100000000E-03 0.  1.
        -11    1    3    3    0    0  0.51065801552E+01  0.49425531621E+00  0.14373845854E+01  0.53279943606E+01  0.51100000000E-03 0. -1.
         12    1    3    3    0    0  0.18742835356E+01  0.28748969558E+02 -0.21686019587E+01  0.28891504354E+02  0.00000000000E+00 0. -1.
</event>
<event>
 7    1  0.1813014E-010  0.4778728E+02  0.7816164E-02  0.1312668E+00
        -11   -1    0    0    0    0  0.00000000000E+00  0.00000000000E+00  0.45593999997E+02  0.45594000000E+02  0.51100000000E-03 0.  1.
         11   -1    0    0    0    0 -0.00000000000E+00 -0.00000000000E+00 -0.45593999997E+02  0.45594000000E+02  0.51100000000E-03 0. -1.
    9900012    2    1    2    0    0 -0.40609057326E+01 -0.59501272859E+01  0.42798687701E+02  0.47787278358E+02  0.20000033347E+02 0.  0.
         12    1    1    2    0    0  0.40609057326E+01  0.59501272859E+01 -0.42798687701E+02  0.43400721642E+02  0.00000000000E+00 0. -1.
         11    1    3    3    0    0 -0.85450069514E+01 -0.41982438234E+00  0.95151357062E+01  0.12795749454E+02  0.51100000000E-03 0. -1.
        -11    1    3    3    0    0  0.15300137785E+01 -0.68229871944E+01  0.16826666147E+02  0.18221712057E+02  0.51100000000E-03 0.  1.
        -12    1    3    3    0    0  0.29540874403E+01  0.12926842908E+01  0.16456885848E+02  0.16769816848E+02  0.00000000000E+00 0.  1.
</event>
<event>
 7    1  0.1813014E-010  0.4778727E+02  0.7816164E-02  0.1312668E+00
        -11   -1    0    0    0    0  0.00000000000E+00  0.00000000000E+00  0.45593999997E+02  0.45594000000E+02  0.51100000000E-03 0.  1.
         11   -1    0    0    0    0 -0.00000000000E+00 -0.00000000000E+00 -0.45593999997E+02  0.45594000000E+02  0.51100000000E-03 0. -1.
    9900012    2    1    2    0    0  0.37154503123E+02  0.22429334599E+02 -0.30153619040E+00  0.47787273313E+02  0.20000010342E+02 0.  0.
         12    1    1    2    0    0 -0.37154503123E+02 -0.22429334599E+02  0.30153619040E+00  0.43400726687E+02  0.00000000000E+00 0. -1.
         11    1    3    3    0    0  0.81939524761E+01  0.40576905302E+01  0.80236070097E+01  0.12164866597E+02  0.51100000000E-03 0. -1.
        -11    1    3    3    0    0  0.15387900458E+02  0.96718027127E+01 -0.19240730609E+01  0.18276578061E+02  0.51100000000E-03 0.  1.
         12    1    3    3    0    0  0.13572650189E+02  0.86998413562E+01 -0.64010701392E+01  0.17345828654E+02  0.00000000000E+00 0. -1.
</event>
<event>
 7    1  0.1813014E-010  0.4778727E+02  0.7816164E-02  0.1312668E+00
        -11   -1    0    0    0    0  0.00000000000E+00  0.00000000000E+00  0.45593999997E+02  0.45594000000E+02  0.51100000000E-03 0.  1.
         11   -1    0    0    0    0 -0.00000000000E+00 -0.00000000000E+00 -0.45593999997E+02  0.45594000000E+02  0.51100000000E-03 0. -1.
    9900012    2    1    2    0    0  0.18684343883E+02  0.38633415185E+02  0.64790224733E+01  0.47787271810E+02  0.20000003490E+02 0.  0.
         12    1    1    2    0    0 -0.18684343883E+02 -0.38633415185E+02 -0.64790224733E+01  0.43400728190E+02  0.00000000000E+00 0. -1.
         11    1    3    3    0    0  0.21604093091E+01  0.11995793483E+02 -0.10585962226E+01  0.12234666154E+02  0.51100000000E-03 0. -1.
        -11    1    3    3    0    0  0.10570604500E+01  0.33805988356E+01  0.67361266410E+01  0.76105996917E+01  0.51100000000E-03 0.  1.
        -12    1    3    3    0    0  0.15466874124E+02  0.23257022867E+02  0.80149205483E+00  0.27942005964E+02  0.00000000000E+00 0.  1.
</event>
<event>
 7    1  0.1813014E-010  0.4778727E+02  0.7816164E-02  0.1312668E+00
        -11   -1    0    0    0    0  0.00000000000E+00  0.00000000000E+00  0.45593999997E+02  0.45594000000E+02  0.51100000000E-03 0. -1.
         11   -1    0    0    0    0 -0.00000000000E+00 -0.00000000000E+00 -0.45593999997E+02  0.45594000000E+02  0.51100000000E-03 0.  1.
    9900012    2    1    2    0    0  0.30806281221E+02 -0.24511435745E+02 -0.18269804001E+02  0.47787272090E+02  0.20000004765E+02 0.  0.
         12    1    1    2    0    0 -0.30806281221E+02  0.24511435745E+02  0.18269804001E+02  0.43400727910E+02  0.00000000000E+00 0. -1.
         11    1    3    3    0    0  0.12364372126E+02 -0.19025232482E+01 -0.12534677349E+01  0.12572528560E+02  0.51100000000E-03 0. -1.
        -11    1    3    3    0    0  0.58979546004E+01 -0.11909563748E+02 -0.31173749528E+01  0.13650699762E+02  0.51100000000E-03 0.  1.
        -12    1    3    3    0    0  0.12543954495E+02 -0.10699348749E+02 -0.13898961313E+02  0.21564043767E+02  0.00000000000E+00 0.  1.
</event>
<event>
 7    1  0.1813014E-010  0.4778727E+02  0.7816164E-02  0.1312668E+00
        -11   -1    0    0    0    0  0.00000000000E+00  0.00000000000E+00  0.45593999997E+02  0.45594000000E+02  0.51100000000E-03 0. -1.
         11   -1    0    0    0    0 -0.00000000000E+00 -0.00000000000E+00 -0.45593999997E+02  0.45594000000E+02  0.51100000000E-03 0.  1.
    9900012    2    1    2    0    0  0.10610952112E+02  0.24887455899E+02 -0.33935903222E+02  0.47787270820E+02  0.19999998977E+02 0.  0.
         12    1    1    2    0    0 -0.10610952112E+02 -0.24887455899E+02  0.33935903222E+02  0.43400729180E+02  0.00000000000E+00 0. -1.
         11    1    3    3    0    0  0.92064499010E+01  0.64334020340E+01 -0.21529379380E+02  0.24282947891E+02  0.51100000000E-03 0. -1.
        -11    1    3    3    0    0 -0.25700296973E+01  0.37539422467E+01 -0.42679018963E+01  0.62379581511E+01  0.51100000000E-03 0.  1.
         12    1    3    3    0    0  0.39745319086E+01  0.14700111618E+02 -0.81386219460E+01  0.17266364778E+02  0.00000000000E+00 0. -1.
</event>
<event>
 7    1  0.1813014E-010  0.4778728E+02  0.7816164E-02  0.1312668E+00
        -11   -1    0    0    0    0  0.00000000000E+00  0.00000000000E+00  0.45593999997E+02  0.45594000000E+02  0.51100000000E-03 0.  1.
         11   -1    0    0    0    0 -0.00000000000E+00 -0.00000000000E+00 -0.45593999997E+02  0.45594000000E+02  0.51100000000E-03 0. -1.
    9900012    2    1    2    0    0  0.54763020859E+01 -0.94781945011E+01  0.41997575139E+02  0.47787281422E+02  0.20000047315E+02 0.  0.
         12    1    1    2    0    0 -0.54763020859E+01  0.94781945011E+01 -0.41997575139E+02  0.43400718578E+02  0.00000000000E+00 0. -1.
         11    1    3    3    0    0  0.38246416774E+01  0.28645220068E+01  0.25455076232E+01  0.54141462493E+01  0.51100000000E-03 0. -1.
        -11    1    3    3    0    0 -0.14825819674E+01 -0.77858710531E+01  0.12080536842E+02  0.14448432717E+02  0.51100000000E-03 0.  1.
        -12    1    3    3    0    0  0.31342423758E+01 -0.45568454548E+01  0.27371530674E+02  0.27924702455E+02  0.00000000000E+00 0.  1.
</event>
<event>
 7    1  0.1813014E-010  0.4778727E+02  0.7816164E-02  0.1312668E+00
        -11   -1    0    0    0    0  0.00000000000E+00  0.00000000000E+00  0.45593999997E+02  0.45594000000E+02  0.51100000000E-03 0.  1.
         11   -1    0    0    0    0 -0.00000000000E+00 -0.00000000000E+00 -0.45593999997E+02  0.45594000000E+02  0.51100000000E-03 0. -1.
    9900012    2    1    2    0    0 -0.35757318070E+02  0.88390945473E+01  0.22954474604E+02  0.47787270832E+02  0.19999999030E+02 0.  0.
         12    1    1    2    0    0  0.35757318070E+02 -0.88390945473E+01 -0.22954474604E+02  0.43400729168E+02  0.00000000000E+00 0. -1.
         11    1    3    3    0    0 -0.13631812093E+02  0.36401642710E+01  0.79830804906E+01  0.16211313064E+02  0.51100000000E-03 0.  1.
        -11    1    3    3    0    0 -0.16068829716E+02 -0.22541573533E+01  0.14813257046E+02  0.21970914828E+02  0.51100000000E-03 0. -1.
         12    1    3    3    0    0 -0.60566762608E+01  0.74530876295E+01  0.15813706718E+00  0.96050429397E+01  0.00000000000E+00 0. -1.
</event>
<event>
 7    1  0.1813014E-010  0.4778727E+02  0.7816164E-02  0.1312668E+00
        -11   -1    0    0    0    0  0.00000000000E+00  0.00000000000E+00  0.45593999997E+02  0.45594000000E+02  0.51100000000E-03 0.  1.
         11   -1    0    0    0    0 -0.00000000000E+00 -0.00000000000E+00 -0.45593999997E+02  0.45594000000E+02  0.51100000000E-03 0. -1.
    9900012    2    1    2    0    0 -0.13370205477E+02  0.16162380980E+02  0.37995245956E+02  0.47787266496E+02  0.19999979263E+02 0.  0.
         12    1    1    2    0    0  0.13370205477E+02 -0.16162380980E+02 -0.37995245956E+02  0.43400733504E+02  0.00000000000E+00 0. -1.
         11    1    3    3    0    0 -0.55705930854E+01  0.88430599615E+00  0.99985238591E+01  0.11479720556E+02  0.51100000000E-03 0. -1.
        -11    1    3    3    0    0 -0.10103154087E+02  0.35468376251E+01  0.16835165026E+02  0.19951856088E+02  0.51100000000E-03 0.  1.
         12    1    3    3    0    0  0.23035416957E+01  0.11731237358E+02  0.11161557071E+02  0.16355689852E+02  0.00000000000E+00 0. -1.
</event>
<event>
 7    1  0.1813014E-010  0.4778726E+02  0.7816164E-02  0.1312668E+00
        -11   -1    0    0    0    0  0.00000000000E+00  0.00000000000E+00  0.45593999997E+02  0.45594000000E+02  0.51100000000E-03 0.  1.
         11   -1    0    0    0    0 -0.00000000000E+00 -0.00000000000E+00 -0.45593999997E+02  0.45594000000E+02  0.51100000000E-03 0. -1.
    9900012    2    1    2    0    0  0.24514004584E+02 -0.26664770464E+02  0.23909782763E+02  0.47787261338E+02  0.19999955744E+02 0.  0.
         12    1    1    2    0    0 -0.24514004584E+02  0.26664770464E+02 -0.23909782763E+02  0.43400738662E+02  0.00000000000E+00 0. -1.
         11    1    3    3    0    0  0.23561975278E+02 -0.14704895724E+02  0.20439612991E+02  0.34484466311E+02  0.51100000000E-03 0.  1.
        -11    1    3    3    0    0  0.16747052685E+01 -0.39579516509E+01 -0.52533267869E+00  0.43296643856E+01  0.51100000000E-03 0. -1.
        -12    1    3    3    0    0 -0.72267596322E+00 -0.80019230889E+01  0.39955024510E+01  0.89731306413E+01  0.00000000000E+00 0.  1.
</event>
<event>
 7    1  0.1813014E-010  0.4778727E+02  0.7816164E-02  0.1312668E+00
        -11   -1    0    0    0    0  0.00000000000E+00  0.00000000000E+00  0.45593999997E+02  0.45594000000E+02  0.51100000000E-03 0.  1.
         11   -1    0    0    0    0 -0.00000000000E+00 -0.00000000000E+00 -0.45593999997E+02  0.45594000000E+02  0.51100000000E-03 0. -1.
    9900012    2    1    2    0    0  0.24872650563E+02 -0.20161656316E+02  0.29299871629E+02  0.47787267185E+02  0.19999982403E+02 0.  0.
         12    1    1    2    0    0 -0.24872650563E+02  0.20161656316E+02 -0.29299871629E+02  0.43400732815E+02  0.00000000000E+00 0. -1.
         11    1    3    3    0    0  0.14984498442E+02 -0.11317240453E+02  0.12862519076E+02  0.22760920945E+02  0.51100000000E-03 0. -1.
        -11    1    3    3    0    0  0.87482581639E+01 -0.10758930908E+02  0.73986985202E+01  0.15717103907E+02  0.51100000000E-03 0.  1.
        -12    1    3    3    0    0  0.11398939570E+01  0.19145150450E+01  0.90386540319E+01  0.93092423321E+01  0.00000000000E+00 0.  1.
</event>
<event>
 7    1  0.1813014E-010  0.4778727E+02  0.7816164E-02  0.1312668E+00
        -11   -1    0    0    0    0  0.00000000000E+00  0.00000000000E+00  0.45593999997E+02  0.45594000000E+02  0.51100000000E-03 0.  1.
         11   -1    0    0    0    0 -0.00000000000E+00 -0.00000000000E+00 -0.45593999997E+02  0.45594000000E+02  0.51100000000E-03 0. -1.
    9900012    2    1    2    0    0  0.15221215783E+02  0.16444627971E+01  0.40610757846E+02  0.47787270505E+02  0.19999997542E+02 0.  0.
         12    1    1    2    0    0 -0.15221215783E+02 -0.16444627971E+01 -0.40610757846E+02  0.43400729495E+02  0.00000000000E+00 0. -1.
         11    1    3    3    0    0  0.10181376266E+02 -0.61985360364E+01  0.17966771977E+02  0.21561242246E+02  0.51100000000E-03 0. -1.
        -11    1    3    3    0    0 -0.23929266377E+01  0.80447796590E+00  0.21429583041E+01  0.33114276748E+01  0.51100000000E-03 0.  1.
         12    1    3    3    0    0  0.74327661550E+01  0.70385208676E+01  0.20501027565E+02  0.22914600584E+02  0.00000000000E+00 0. -1.
</event>
<event>
 7    1  0.1813014E-010  0.4778727E+02  0.7816164E-02  0.1312668E+00
        -11   -1    0    0    0    0  0.00000000000E+00  0.00000000000E+00  0.45593999997E+02  0.45594000000E+02  0.51100000000E-03 0.  1.
         11   -1    0    0    0    0 -0.00000000000E+00 -0.00000000000E+00 -0.45593999997E+02  0.45594000000E+02  0.51100000000E-03 0. -1.
    9900012    2    1    2    0    0  0.16392219033E+02 -0.22439069495E+01  0.40123354112E+02  0.47787268342E+02  0.19999987679E+02 0.  0.
         12    1    1    2    0    0 -0.16392219033E+02  0.22439069495E+01 -0.40123354112E+02  0.43400731658E+02  0.00000000000E+00 0. -1.
         11    1    3    3    0    0  0.11552154299E+02  0.42157517534E+01  0.33937080577E+02  0.36096402455E+02  0.51100000000E-03 0.  1.
        -11    1    3    3    0    0  0.31407095046E+01 -0.44553421333E+01  0.70619395477E+01  0.89210492743E+01  0.51100000000E-03 0. -1.
         12    1    3    3    0    0  0.16993552291E+01 -0.20043165696E+01 -0.87566601258E+00  0.27698166133E+01  0.00000000000E+00 0. -1.
</event>
<event>
 7    1  0.1813014E-010  0.4778726E+02  0.7816164E-02  0.1312668E+00
        -11   -1    0    0    0    0  0.00000000000E+00  0.00000000000E+00  0.45593999997E+02  0.45594000000E+02  0.51100000000E-03 0.  1.
         11   -1    0    0    0    0 -0.00000000000E+00 -0.00000000000E+00 -0.45593999997E+02  0.45594000000E+02  0.51100000000E-03 0. -1.
    9900012    2    1    2    0    0  0.17936895768E+02 -0.26199566000E+02  0.29588421988E+02  0.47787260327E+02  0.19999951136E+02 0.  0.
         12    1    1    2    0    0 -0.17936895768E+02  0.26199566000E+02 -0.29588421988E+02  0.43400739673E+02  0.00000000000E+00 0. -1.
         11    1    3    3    0    0  0.54942534124E+01 -0.14503339800E+02  0.15395637683E+02  0.21853131260E+02  0.51100000000E-03 0. -1.
        -11    1    3    3    0    0  0.11209297890E+02 -0.14321460232E+02  0.14133903416E+02  0.23033015617E+02  0.51100000000E-03 0.  1.
         12    1    3    3    0    0  0.12333444657E+01  0.26252340323E+01  0.58880888992E-01  0.29011134509E+01  0.00000000000E+00 0. -1.
</event>
<event>
 7    1  0.1813014E-010  0.4778727E+02  0.7816164E-02  0.1312668E+00
        -11   -1    0    0    0    0  0.00000000000E+00  0.00000000000E+00  0.45593999997E+02  0.45594000000E+02  0.51100000000E-03 0. -1.
         11   -1    0    0    0    0 -0.00000000000E+00 -0.00000000000E+00 -0.45593999997E+02  0.45594000000E+02  0.51100000000E-03 0.  1.
    9900012    2    1    2    0    0  0.26650225799E+02 -0.34250691181E+02 -0.52831578177E+00  0.47787268449E+02  0.19999988168E+02 0.  0.
         12    1    1    2    0    0 -0.26650225799E+02  0.34250691181E+02  0.52831578177E+00  0.43400731551E+02  0.00000000000E+00 0. -1.
         11    1    3    3    0    0  0.17665263753E-01 -0.75552399341E+01 -0.42374013178E+01  0.86624207190E+01  0.51100000000E-03 0. -1.
        -11    1    3    3    0    0  0.13319497347E+02 -0.16867534358E+02 -0.20822388201E+01  0.21593018401E+02  0.51100000000E-03 0.  1.
         12    1    3    3    0    0  0.13313063189E+02 -0.98279168896E+01  0.57913243561E+01  0.17531829330E+02  0.00000000000E+00 0. -1.
</event>
<event>
 7    1  0.1813014E-010  0.4778727E+02  0.7816164E-02  0.1312668E+00
        -11   -1    0    0    0    0  0.00000000000E+00  0.00000000000E+00  0.45593999997E+02  0.45594000000E+02  0.51100000000E-03 0.  1.
         11   -1    0    0    0    0 -0.00000000000E+00 -0.00000000000E+00 -0.45593999997E+02  0.45594000000E+02  0.51100000000E-03 0. -1.
    9900012    2    1    2    0    0 -0.17485130247E+02  0.19859149086E+02  0.34402145293E+02  0.47787272092E+02  0.20000004775E+02 0.  0.
         12    1    1    2    0    0  0.17485130247E+02 -0.19859149086E+02 -0.34402145293E+02  0.43400727908E+02  0.00000000000E+00 0. -1.
         11    1    3    3    0    0 -0.34383732817E+01 -0.21729713873E+01  0.48168741062E+01  0.63044818891E+01  0.51100000000E-03 0. -1.
        -11    1    3    3    0    0 -0.90190892719E+01  0.11937321171E+02  0.25350824375E+02  0.29436506328E+02  0.51100000000E-03 0.  1.
        -12    1    3    3    0    0 -0.50276676939E+01  0.10094799302E+02  0.42344468119E+01  0.12046283874E+02  0.00000000000E+00 0.  1.
</event>
<event>
 7    1  0.1813014E-010  0.4778727E+02  0.7816164E-02  0.1312668E+00
        -11   -1    0    0    0    0  0.00000000000E+00  0.00000000000E+00  0.45593999997E+02  0.45594000000E+02  0.51100000000E-03 0.  1.
         11   -1    0    0    0    0 -0.00000000000E+00 -0.00000000000E+00 -0.45593999997E+02  0.45594000000E+02  0.51100000000E-03 0. -1.
    9900012    2    1    2    0    0  0.37188013605E+02  0.11855084595E+02  0.18977148277E+02  0.47787267939E+02  0.19999985843E+02 0.  0.
         12    1    1    2    0    0 -0.37188013605E+02 -0.11855084595E+02 -0.18977148277E+02  0.43400732061E+02  0.00000000000E+00 0. -1.
         11    1    3    3    0    0  0.44166936839E+01  0.16548135944E+01 -0.38555135567E+01  0.60918450553E+01  0.51100000000E-03 0. -1.
        -11    1    3    3    0    0  0.15093727127E+02  0.75057370102E+01  0.91562550634E+01  0.19183161723E+02  0.51100000000E-03 0.  1.
         12    1    3    3    0    0  0.17677592795E+02  0.26945339908E+01  0.13676406770E+02  0.22512261161E+02  0.00000000000E+00 0. -1.
</event>
<event>
 7    1  0.1813014E-010  0.4778729E+02  0.7816164E-02  0.1312668E+00
        -11   -1    0    0    0    0  0.00000000000E+00  0.00000000000E+00  0.45593999997E+02  0.45594000000E+02  0.51100000000E-03 0.  1.
         11   -1    0    0    0    0 -0.00000000000E+00 -0.00000000000E+00 -0.45593999997E+02  0.45594000000E+02  0.51100000000E-03 0. -1.
    9900012    2    1    2    0    0  0.40089527401E+02 -0.14107625505E+02 -0.87992415801E+01  0.47787286216E+02  0.20000069172E+02 0.  0.
         12    1    1    2    0    0 -0.40089527401E+02  0.14107625505E+02  0.87992415801E+01  0.43400713784E+02  0.00000000000E+00 0. -1.
         11    1    3    3    0    0 -0.11148884611E+01 -0.23382064810E+00 -0.11867923045E+01  0.16450302767E+01  0.51100000000E-03 0. -1.
        -11    1    3    3    0    0  0.19249951632E+02 -0.11961925169E+02  0.47168324616E+00  0.22668718025E+02  0.51100000000E-03 0.  1.
        -12    1    3    3    0    0  0.21954464230E+02 -0.19118796881E+01 -0.80841325218E+01  0.23473537914E+02  0.00000000000E+00 0.  1.
</event>
<event>
 7    1  0.1813014E-010  0.4778727E+02  0.7816164E-02  0.1312668E+00
        -11   -1    0    0    0    0  0.00000000000E+00  0.00000000000E+00  0.45593999997E+02  0.45594000000E+02  0.51100000000E-03 0. -1.
         11   -1    0    0    0    0 -0.00000000000E+00 -0.00000000000E+00 -0.45593999997E+02  0.45594000000E+02  0.51100000000E-03 0.  1.
    9900012    2    1    2    0    0  0.77758448918E+01 -0.24711800661E+02 -0.34820773745E+02  0.47787272588E+02  0.20000007038E+02 0.  0.
         12    1    1    2    0    0 -0.77758448918E+01  0.24711800661E+02  0.34820773745E+02  0.43400727412E+02  0.00000000000E+00 0. -1.
         11    1    3    3    0    0 -0.38101132177E+01 -0.87265799283E+01 -0.13149636663E+02  0.16235242671E+02  0.51100000000E-03 0.  1.
        -11    1    3    3    0    0  0.92603483756E+01 -0.17572669359E+02 -0.17237806937E+02  0.26300090279E+02  0.51100000000E-03 0. -1.
         12    1    3    3    0    0  0.23256097338E+01  0.15874486266E+01 -0.44333301452E+01  0.52519396371E+01  0.00000000000E+00 0. -1.
</event>
<event>
 7    1  0.1813014E-010  0.4778727E+02  0.7816164E-02  0.1312668E+00
        -11   -1    0    0    0    0  0.00000000000E+00  0.00000000000E+00  0.45593999997E+02  0.45594000000E+02  0.51100000000E-03 0. -1.
         11   -1    0    0    0    0 -0.00000000000E+00 -0.00000000000E+00 -0.45593999997E+02  0.45594000000E+02  0.51100000000E-03 0.  1.
    9900012    2    1    2    0    0  0.19537688779E+02 -0.38562833961E+02  0.38483533786E+01  0.47787271093E+02  0.20000000222E+02 0.  0.
         12    1    1    2    0    0 -0.19537688779E+02  0.38562833961E+02 -0.38483533786E+01  0.43400728907E+02  0.00000000000E+00 0. -1.
         11    1    3    3    0    0  0.41895076815E+01 -0.33196694037E+01 -0.39411898051E+01  0.66411713503E+01  0.51100000000E-03 0. -1.
        -11    1    3    3    0    0 -0.56384857163E+00 -0.52475014354E+01  0.46718117688E+01  0.70484056347E+01  0.51100000000E-03 0.  1.
        -12    1    3    3    0    0  0.15912029669E+02 -0.29995663122E+02  0.31177314149E+01  0.34097694108E+02  0.00000000000E+00 0.  1.
</event>
<event>
 7    1  0.1813014E-010  0.4778725E+02  0.7816164E-02  0.1312668E+00
        -11   -1    0    0    0    0  0.00000000000E+00  0.00000000000E+00  0.45593999997E+02  0.45594000000E+02  0.51100000000E-03 0.  1.
         11   -1    0    0    0    0 -0.00000000000E+00 -0.00000000000E+00 -0.45593999997E+02  0.45594000000E+02  0.51100000000E-03 0. -1.
    9900012    2    1    2    0    0  0.81564069405E+01 -0.26565260382E+02  0.33337441210E+02  0.47787250931E+02  0.19999908293E+02 0.  0.
         12    1    1    2    0    0 -0.81564069405E+01  0.26565260382E+02 -0.33337441210E+02  0.43400749069E+02  0.00000000000E+00 0. -1.
         11    1    3    3    0    0 -0.17781050300E+01 -0.18065240217E+01  0.70288038634E+01  0.74718987245E+01  0.51100000000E-03 0. -1.
        -11    1    3    3    0    0  0.37937313735E+01 -0.12811005904E+02  0.34458796111E+01  0.13798128734E+02  0.51100000000E-03 0.  1.
        -12    1    3    3    0    0  0.61407805971E+01 -0.11947730457E+02  0.22862757735E+02  0.26517223472E+02  0.00000000000E+00 0.  1.
</event>
<event>
 7    1  0.1813014E-010  0.4778727E+02  0.7816164E-02  0.1312668E+00
        -11   -1    0    0    0    0  0.00000000000E+00  0.00000000000E+00  0.45593999997E+02  0.45594000000E+02  0.51100000000E-03 0. -1.
         11   -1    0    0    0    0 -0.00000000000E+00 -0.00000000000E+00 -0.45593999997E+02  0.45594000000E+02  0.51100000000E-03 0.  1.
    9900012    2    1    2    0    0 -0.16184803095E+02 -0.40157235773E+02  0.30119290761E+01  0.47787272438E+02  0.20000006352E+02 0.  0.
         12    1    1    2    0    0  0.16184803095E+02  0.40157235773E+02 -0.30119290761E+01  0.43400727562E+02  0.00000000000E+00 0. -1.
         11    1    3    3    0    0 -0.44929841684E+01 -0.31721570126E+02  0.67230515999E+00  0.32045232290E+02  0.51100000000E-03 0. -1.
        -11    1    3    3    0    0 -0.95497037403E+01 -0.91827535827E+01  0.24398163996E+01  0.13471173268E+02  0.51100000000E-03 0.  1.
         12    1    3    3    0    0 -0.21421151862E+01  0.74708793543E+00 -0.10019248348E+00  0.22708668803E+01  0.00000000000E+00 0. -1.
</event>
<event>
 7    1  0.1813014E-010  0.4778727E+02  0.7816164E-02  0.1312668E+00
        -11   -1    0    0    0    0  0.00000000000E+00  0.00000000000E+00  0.45593999997E+02  0.45594000000E+02  0.51100000000E-03 0.  1.
         11   -1    0    0    0    0 -0.00000000000E+00 -0.00000000000E+00 -0.45593999997E+02  0.45594000000E+02  0.51100000000E-03 0. -1.
    9900012    2    1    2    0    0  0.26254676002E+02  0.33087330175E+02 -0.99771665430E+01  0.47787270947E+02  0.19999999557E+02 0.  0.
         12    1    1    2    0    0 -0.26254676002E+02 -0.33087330175E+02  0.99771665430E+01  0.43400729053E+02  0.00000000000E+00 0. -1.
         11    1    3    3    0    0  0.65828533818E+01  0.17284219109E+02 -0.36811866507E+01  0.18858136819E+02  0.51100000000E-03 0.  1.
        -11    1    3    3    0    0  0.16399008293E+02  0.14533742274E+02 -0.97686421203E+01  0.23991321485E+02  0.51100000000E-03 0. -1.
         12    1    3    3    0    0  0.32728143270E+01  0.12693687923E+01  0.34726622280E+01  0.49378126432E+01  0.00000000000E+00 0. -1.
</event>
<event>
 7    1  0.1813014E-010  0.4778727E+02  0.7816164E-02  0.1312668E+00
        -11   -1    0    0    0    0  0.00000000000E+00  0.00000000000E+00  0.45593999997E+02  0.45594000000E+02  0.51100000000E-03 0.  1.
         11   -1    0    0    0    0 -0.00000000000E+00 -0.00000000000E+00 -0.45593999997E+02  0.45594000000E+02  0.51100000000E-03 0. -1.
    9900012    2    1    2    0    0  0.28721047895E+02  0.25101737531E+02 -0.20703329585E+02  0.47787266421E+02  0.19999978922E+02 0.  0.
         12    1    1    2    0    0 -0.28721047895E+02 -0.25101737531E+02  0.20703329585E+02  0.43400733579E+02  0.00000000000E+00 0. -1.
         11    1    3    3    0    0  0.47521499066E+01  0.56933863465E+01 -0.59259117211E+00  0.74396734729E+01  0.51100000000E-03 0.  1.
        -11    1    3    3    0    0  0.19026369442E+02  0.75601449729E+01 -0.18151432887E+02  0.27361159373E+02  0.51100000000E-03 0. -1.
         12    1    3    3    0    0  0.49425285470E+01  0.11848206211E+02 -0.19593055258E+01  0.12986433575E+02  0.00000000000E+00 0. -1.
</event>
<event>
 7    1  0.1813014E-010  0.4778727E+02  0.7816164E-02  0.1312668E+00
        -11   -1    0    0    0    0  0.00000000000E+00  0.00000000000E+00  0.45593999997E+02  0.45594000000E+02  0.51100000000E-03 0.  1.
         11   -1    0    0    0    0 -0.00000000000E+00 -0.00000000000E+00 -0.45593999997E+02  0.45594000000E+02  0.51100000000E-03 0. -1.
    9900012    2    1    2    0    0  0.23614141023E+02  0.31557627584E+02  0.18168975507E+02  0.47787272057E+02  0.20000004619E+02 0.  0.
         12    1    1    2    0    0 -0.23614141023E+02 -0.31557627584E+02 -0.18168975507E+02  0.43400727943E+02  0.00000000000E+00 0. -1.
         11    1    3    3    0    0 -0.13556570416E+01  0.73717585904E+00 -0.31329570888E+00  0.15746074825E+01  0.51100000000E-03 0. -1.
        -11    1    3    3    0    0  0.15472938349E+02  0.28355836985E+02  0.16208776439E+02  0.36141247158E+02  0.51100000000E-03 0.  1.
        -12    1    3    3    0    0  0.94968597158E+01  0.24646147397E+01  0.22734947771E+01  0.10071417417E+02  0.00000000000E+00 0.  1.
</event>
<event>
 7    1  0.1813014E-010  0.4778728E+02  0.7816164E-02  0.1312668E+00
        -11   -1    0    0    0    0  0.00000000000E+00  0.00000000000E+00  0.45593999997E+02  0.45594000000E+02  0.51100000000E-03 0.  1.
         11   -1    0    0    0    0 -0.00000000000E+00 -0.00000000000E+00 -0.45593999997E+02  0.45594000000E+02  0.51100000000E-03 0. -1.
    9900012    2    1    2    0    0  0.48364855013E+01 -0.59983109883E+01  0.42711254091E+02  0.47787279352E+02  0.20000037879E+02 0.  0.
         12    1    1    2    0    0 -0.48364855013E+01  0.59983109883E+01 -0.42711254091E+02  0.43400720648E+02  0.00000000000E+00 0. -1.
         11    1    3    3    0    0  0.48278474551E+01 -0.49833453949E+01  0.56951545905E+01  0.89764485430E+01  0.51100000000E-03 0. -1.
        -11    1    3    3    0    0  0.55504166043E+01  0.47910260425E+00  0.22999115910E+02  0.23664234547E+02  0.51100000000E-03 0.  1.
        -12    1    3    3    0    0 -0.55417785582E+01 -0.14940681976E+01  0.14016983590E+02  0.15146596262E+02  0.00000000000E+00 0.  1.
</event>
<event>
 7    1  0.1813014E-010  0.4778727E+02  0.7816164E-02  0.1312668E+00
        -11   -1    0    0    0    0  0.00000000000E+00  0.00000000000E+00  0.45593999997E+02  0.45594000000E+02  0.51100000000E-03 0.  1.
         11   -1    0    0    0    0 -0.00000000000E+00 -0.00000000000E+00 -0.45593999997E+02  0.45594000000E+02  0.51100000000E-03 0. -1.
    9900012    2    1    2    0    0 -0.11488391484E+02 -0.39221660584E+02  0.14604842845E+02  0.47787271522E+02  0.20000002179E+02 0.  0.
         12    1    1    2    0    0  0.11488391484E+02  0.39221660584E+02 -0.14604842845E+02  0.43400728478E+02  0.00000000000E+00 0. -1.
         11    1    3    3    0    0  0.43981939109E+00 -0.35851665230E+00 -0.14539970331E+01  0.15607956048E+01  0.51100000000E-03 0. -1.
        -11    1    3    3    0    0 -0.62297335562E+01 -0.36661983987E+02  0.12997259409E+02  0.39393392878E+02  0.51100000000E-03 0.  1.
         12    1    3    3    0    0 -0.56984773188E+01 -0.22011599451E+01  0.30615804690E+01  0.68330830395E+01  0.00000000000E+00 0. -1.
</event>
<event>
 7    1  0.1813014E-010  0.4778727E+02  0.7816164E-02  0.1312668E+00
        -11   -1    0    0    0    0  0.00000000000E+00  0.00000000000E+00  0.45593999997E+02  0.45594000000E+02  0.51100000000E-03 0. -1.
         11   -1    0    0    0    0 -0.00000000000E+00 -0.00000000000E+00 -0.45593999997E+02  0.45594000000E+02  0.51100000000E-03 0.  1.
    9900012    2    1    2    0    0 -0.27820798534E+02 -0.32807633421E+02 -0.57693716154E+01  0.47787270852E+02  0.19999999122E+02 0.  0.
         12    1    1    2    0    0  0.27820798534E+02  0.32807633421E+02  0.57693716154E+01  0.43400729148E+02  0.00000000000E+00 0. -1.
         11    1    3    3    0    0 -0.20405561017E+02 -0.28792314676E+02  0.26285232080E+01  0.35387758326E+02  0.51100000000E-03 0. -1.
        -11    1    3    3    0    0 -0.43287766903E+00  0.24597184451E+00  0.19592219841E+00  0.53504298294E+00  0.51100000000E-03 0.  1.
        -12    1    3    3    0    0 -0.69823598478E+01 -0.42612905896E+01 -0.85938170218E+01  0.11864469543E+02  0.00000000000E+00 0.  1.
</event>
<event>
 7    1  0.1813014E-010  0.4778727E+02  0.7816164E-02  0.1312668E+00
        -11   -1    0    0    0    0  0.00000000000E+00  0.00000000000E+00  0.45593999997E+02  0.45594000000E+02  0.51100000000E-03 0.  1.
         11   -1    0    0    0    0 -0.00000000000E+00 -0.00000000000E+00 -0.45593999997E+02  0.45594000000E+02  0.51100000000E-03 0. -1.
    9900012    2    1    2    0    0 -0.11135224343E+02  0.41154477909E+02 -0.81202646180E+01  0.47787274539E+02  0.20000015931E+02 0.  0.
         12    1    1    2    0    0  0.11135224343E+02 -0.41154477909E+02  0.81202646180E+01  0.43400725461E+02  0.00000000000E+00 0. -1.
         11    1    3    3    0    0 -0.27638942724E+01  0.77746095509E+01 -0.53765299566E+01  0.98483876779E+01  0.51100000000E-03 0. -1.
        -11    1    3    3    0    0 -0.61719758501E+00  0.26617843030E+02  0.18127528601E+01  0.26686636611E+02  0.51100000000E-03 0.  1.
        -12    1    3    3    0    0 -0.77541324857E+01  0.67620253277E+01 -0.45564875214E+01  0.11252250249E+02  0.00000000000E+00 0.  1.
</event>
<event>
 7    1  0.1813014E-010  0.4778727E+02  0.7816164E-02  0.1312668E+00
        -11   -1    0    0    0    0  0.00000000000E+00  0.00000000000E+00  0.45593999997E+02  0.45594000000E+02  0.51100000000E-03 0.  1.
         11   -1    0    0    0    0 -0.00000000000E+00 -0.00000000000E+00 -0.45593999997E+02  0.45594000000E+02  0.51100000000E-03 0. -1.
    9900012    2    1    2    0    0 -0.67870215155E+01  0.14818719505E+02  0.40223939467E+02  0.47787269418E+02  0.19999992583E+02 0.  0.
         12    1    1    2    0    0  0.67870215155E+01 -0.14818719505E+02 -0.40223939467E+02  0.43400730582E+02  0.00000000000E+00 0. -1.
         11    1    3    3    0    0 -0.31923966041E+01  0.10093826659E+02  0.47705256423E+01  0.11611832235E+02  0.51100000000E-03 0. -1.
        -11    1    3    3    0    0 -0.59979178445E+00 -0.50857920223E+00  0.94235305501E+01  0.94562852791E+01  0.51100000000E-03 0.  1.
         12    1    3    3    0    0 -0.29948331269E+01  0.52334720486E+01  0.26029883275E+02  0.26719151903E+02  0.00000000000E+00 0. -1.
</event>
<event>
 7    1  0.1813014E-010  0.4778728E+02  0.7816164E-02  0.1312668E+00
        -11   -1    0    0    0    0  0.00000000000E+00  0.00000000000E+00  0.45593999997E+02  0.45594000000E+02  0.51100000000E-03 0.  1.
         11   -1    0    0    0    0 -0.00000000000E+00 -0.00000000000E+00 -0.45593999997E+02  0.45594000000E+02  0.51100000000E-03 0. -1.
    9900012    2    1    2    0    0  0.30911770784E+02 -0.12667621407E+02  0.27705892331E+02  0.47787277944E+02  0.20000031457E+02 0.  0.
         12    1    1    2    0    0 -0.30911770784E+02  0.12667621407E+02 -0.27705892331E+02  0.43400722056E+02  0.00000000000E+00 0. -1.
         11    1    3    3    0    0  0.10686273852E+01 -0.40247374776E+01  0.77767937185E+01  0.88215076406E+01  0.51100000000E-03 0. -1.
        -11    1    3    3    0    0  0.12984274566E+02 -0.91801246984E+01  0.13685184436E+02  0.20979760456E+02  0.51100000000E-03 0.  1.
         12    1    3    3    0    0  0.16858868834E+02  0.53724076914E+00  0.62439141767E+01  0.17986009848E+02  0.00000000000E+00 0. -1.
</event>
<event>
 7    1  0.1813014E-010  0.4778727E+02  0.7816164E-02  0.1312668E+00
        -11   -1    0    0    0    0  0.00000000000E+00  0.00000000000E+00  0.45593999997E+02  0.45594000000E+02  0.51100000000E-03 0.  1.
         11   -1    0    0    0    0 -0.00000000000E+00 -0.00000000000E+00 -0.45593999997E+02  0.45594000000E+02  0.51100000000E-03 0. -1.
    9900012    2    1    2    0    0 -0.66825211458E+01  0.38180194639E+02  0.19525366223E+02  0.47787271000E+02  0.19999999798E+02 0.  0.
         12    1    1    2    0    0  0.66825211458E+01 -0.38180194639E+02 -0.19525366223E+02  0.43400729000E+02  0.00000000000E+00 0. -1.
         11    1    3    3    0    0  0.91430108607E+00  0.20099799083E+01 -0.23970710668E+01  0.32591280534E+01  0.51100000000E-03 0. -1.
        -11    1    3    3    0    0 -0.10145165747E+02  0.23746799615E+02  0.12266493945E+02  0.28588489886E+02  0.51100000000E-03 0.  1.
         12    1    3    3    0    0  0.25483435153E+01  0.12423415116E+02  0.96559433452E+01  0.15939653061E+02  0.00000000000E+00 0. -1.
</event>
<event>
 7    1  0.1813014E-010  0.4778727E+02  0.7816164E-02  0.1312668E+00
        -11   -1    0    0    0    0  0.00000000000E+00  0.00000000000E+00  0.45593999997E+02  0.45594000000E+02  0.51100000000E-03 0.  1.
         11   -1    0    0    0    0 -0.00000000000E+00 -0.00000000000E+00 -0.45593999997E+02  0.45594000000E+02  0.51100000000E-03 0. -1.
    9900012    2    1    2    0    0 -0.27521943827E+02  0.33544801864E+02 -0.95488944909E+00  0.47787274914E+02  0.20000017643E+02 0.  0.
         12    1    1    2    0    0  0.27521943827E+02 -0.33544801864E+02  0.95488944909E+00  0.43400725086E+02  0.00000000000E+00 0. -1.
         11    1    3    3    0    0 -0.13711097374E+02  0.42866838363E+01  0.21959546236E+01  0.14532448743E+02  0.51100000000E-03 0. -1.
        -11    1    3    3    0    0 -0.56228853287E+01  0.11672642210E+02  0.21775520510E+01  0.13138080103E+02  0.51100000000E-03 0.  1.
        -12    1    3    3    0    0 -0.81879611247E+01  0.17585475818E+02 -0.53283961237E+01  0.20116746068E+02  0.00000000000E+00 0.  1.
</event>
<event>
 7    1  0.1813014E-010  0.4778724E+02  0.7816164E-02  0.1312668E+00
        -11   -1    0    0    0    0  0.00000000000E+00  0.00000000000E+00  0.45593999997E+02  0.45594000000E+02  0.51100000000E-03 0.  1.
         11   -1    0    0    0    0 -0.00000000000E+00 -0.00000000000E+00 -0.45593999997E+02  0.45594000000E+02  0.51100000000E-03 0. -1.
    9900012    2    1    2    0    0 -0.15570899046E+02  0.38738576932E+02  0.11853093031E+02  0.47787239014E+02  0.19999853960E+02 0.  0.
         12    1    1    2    0    0  0.15570899046E+02 -0.38738576932E+02 -0.11853093031E+02  0.43400760986E+02  0.00000000000E+00 0. -1.
         11    1    3    3    0    0 -0.39004894673E+01  0.77601699845E+01 -0.11098805888E+01  0.87559060899E+01  0.51100000000E-03 0. -1.
        -11    1    3    3    0    0 -0.13439772487E+02  0.21438821049E+02  0.36180147727E+01  0.25560527452E+02  0.51100000000E-03 0.  1.
         12    1    3    3    0    0  0.17693629090E+01  0.95395858979E+01  0.93449588467E+01  0.13470805472E+02  0.00000000000E+00 0. -1.
</event>
<event>
 7    1  0.1813014E-010  0.4778727E+02  0.7816164E-02  0.1312668E+00
        -11   -1    0    0    0    0  0.00000000000E+00  0.00000000000E+00  0.45593999997E+02  0.45594000000E+02  0.51100000000E-03 0. -1.
         11   -1    0    0    0    0 -0.00000000000E+00 -0.00000000000E+00 -0.45593999997E+02  0.45594000000E+02  0.51100000000E-03 0.  1.
    9900012    2    1    2    0    0 -0.36868967407E+02  0.75823031949E+01 -0.21605808998E+02  0.47787273487E+02  0.20000011139E+02 0.  0.
         12    1    1    2    0    0  0.36868967407E+02 -0.75823031949E+01  0.21605808998E+02  0.43400726513E+02  0.00000000000E+00 0. -1.
         11    1    3    3    0    0 -0.43978745751E+01  0.10013613212E+01 -0.97274552964E+01  0.10722285767E+02  0.51100000000E-03 0. -1.
        -11    1    3    3    0    0 -0.20725427367E+01  0.18262945016E+01 -0.47297015239E+01  0.54773042429E+01  0.51100000000E-03 0.  1.
        -12    1    3    3    0    0 -0.30398550095E+02  0.47546473721E+01 -0.71486521776E+01  0.31587683477E+02  0.00000000000E+00 0.  1.
</event>
<event>
 7    1  0.1813014E-010  0.4778728E+02  0.7816164E-02  0.1312668E+00
        -11   -1    0    0    0    0  0.00000000000E+00  0.00000000000E+00  0.45593999997E+02  0.45594000000E+02  0.51100000000E-03 0.  1.
         11   -1    0    0    0    0 -0.00000000000E+00 -0.00000000000E+00 -0.45593999997E+02  0.45594000000E+02  0.51100000000E-03 0. -1.
    9900012    2    1    2    0    0  0.32062016529E+02  0.28097655486E+02  0.81345735837E+01  0.47787280708E+02  0.20000044059E+02 0.  0.
         12    1    1    2    0    0 -0.32062016529E+02 -0.28097655486E+02 -0.81345735837E+01  0.43400719292E+02  0.00000000000E+00 0. -1.
         11    1    3    3    0    0  0.82625524900E+01  0.85237843938E+01 -0.26480881473E+01  0.12162937357E+02  0.51100000000E-03 0. -1.
        -11    1    3    3    0    0  0.24403917211E+02  0.18531346596E+02  0.12852916223E+02  0.33228894619E+02  0.51100000000E-03 0.  1.
        -12    1    3    3    0    0 -0.60445317289E+00  0.10425244963E+01 -0.20702544923E+01  0.23954487317E+01  0.00000000000E+00 0.  1.
</event>
<event>
 7    1  0.1813014E-010  0.4778727E+02  0.7816164E-02  0.1312668E+00
        -11   -1    0    0    0    0  0.00000000000E+00  0.00000000000E+00  0.45593999997E+02  0.45594000000E+02  0.51100000000E-03 0.  1.
         11   -1    0    0    0    0 -0.00000000000E+00 -0.00000000000E+00 -0.45593999997E+02  0.45594000000E+02  0.51100000000E-03 0. -1.
    9900012    2    1    2    0    0  0.67109284704E+01 -0.16622746328E+01  0.42846513028E+02  0.47787269631E+02  0.19999993557E+02 0.  0.
         12    1    1    2    0    0 -0.67109284704E+01  0.16622746328E+01 -0.42846513028E+02  0.43400730369E+02  0.00000000000E+00 0. -1.
         11    1    3    3    0    0  0.70595542428E+01 -0.67228006710E+01  0.12247690172E+02  0.15653730219E+02  0.51100000000E-03 0. -1.
        -11    1    3    3    0    0  0.18766427642E+01  0.12566415436E+00  0.11790117813E+01  0.22198307561E+01  0.51100000000E-03 0.  1.
        -12    1    3    3    0    0 -0.22252685366E+01  0.49348618839E+01  0.29419811075E+02  0.29913708656E+02  0.00000000000E+00 0.  1.
</event>
<event>
 7    1  0.1813014E-010  0.4778727E+02  0.7816164E-02  0.1312668E+00
        -11   -1    0    0    0    0  0.00000000000E+00  0.00000000000E+00  0.45593999997E+02  0.45594000000E+02  0.51100000000E-03 0.  1.
         11   -1    0    0    0    0 -0.00000000000E+00 -0.00000000000E+00 -0.45593999997E+02  0.45594000000E+02  0.51100000000E-03 0. -1.
    9900012    2    1    2    0    0 -0.55674527366E+01  0.20138036901E+02  0.38040588304E+02  0.47787269376E+02  0.19999992391E+02 0.  0.
         12    1    1    2    0    0  0.55674527366E+01 -0.20138036901E+02 -0.38040588304E+02  0.43400730624E+02  0.00000000000E+00 0. -1.
         11    1    3    3    0    0 -0.18472013869E+01  0.11657479770E+02  0.92007067325E+01  0.14965359742E+02  0.51100000000E-03 0. -1.
        -11    1    3    3    0    0 -0.33377134996E+01  0.10561541583E+02  0.28627282077E+02  0.30695403098E+02  0.51100000000E-03 0.  1.
        -12    1    3    3    0    0 -0.38253785014E+00 -0.20809844529E+01  0.21259949526E+00  0.21265065354E+01  0.00000000000E+00 0.  1.
</event>
<event>
 7    1  0.1813014E-010  0.4778727E+02  0.7816164E-02  0.1312668E+00
        -11   -1    0    0    0    0  0.00000000000E+00  0.00000000000E+00  0.45593999997E+02  0.45594000000E+02  0.51100000000E-03 0.  1.
         11   -1    0    0    0    0 -0.00000000000E+00 -0.00000000000E+00 -0.45593999997E+02  0.45594000000E+02  0.51100000000E-03 0. -1.
    9900012    2    1    2    0    0 -0.36119855069E+02 -0.22399621063E+02  0.87884057606E+01  0.47787273856E+02  0.20000012820E+02 0.  0.
         12    1    1    2    0    0  0.36119855069E+02  0.22399621063E+02 -0.87884057606E+01  0.43400726144E+02  0.00000000000E+00 0. -1.
         11    1    3    3    0    0 -0.26861847411E+01 -0.87660013725E+01  0.20057894495E+00  0.91705289215E+01  0.51100000000E-03 0. -1.
        -11    1    3    3    0    0 -0.10673375732E+02 -0.36501409986E+00 -0.64794328618E+00  0.10699253038E+02  0.51100000000E-03 0.  1.
         12    1    3    3    0    0 -0.22760294596E+02 -0.13268605591E+02  0.92357701019E+01  0.27917491897E+02  0.00000000000E+00 0. -1.
</event>
<event>
 7    1  0.1813014E-010  0.4778727E+02  0.7816164E-02  0.1312668E+00
        -11   -1    0    0    0    0  0.00000000000E+00  0.00000000000E+00  0.45593999997E+02  0.45594000000E+02  0.51100000000E-03 0. -1.
         11   -1    0    0    0    0 -0.00000000000E+00 -0.00000000000E+00 -0.45593999997E+02  0.45594000000E+02  0.51100000000E-03 0.  1.
    9900012    2    1    2    0    0  0.25404648329E+02  0.30600990125E+02 -0.17372577919E+02  0.47787271701E+02  0.20000002994E+02 0.  0.
         12    1    1    2    0    0 -0.25404648329E+02 -0.30600990125E+02  0.17372577919E+02  0.43400728299E+02  0.00000000000E+00 0. -1.
         11    1    3    3    0    0  0.19018743054E+02  0.15145809667E+02 -0.61266176507E+01  0.25072765742E+02  0.51100000000E-03 0. -1.
        -11    1    3    3    0    0  0.70976711320E+01  0.89438043538E+01 -0.23334971287E+01  0.11653916978E+02  0.51100000000E-03 0.  1.
        -12    1    3    3    0    0 -0.71176585753E+00  0.65113761038E+01 -0.89124631398E+01  0.11060588982E+02  0.00000000000E+00 0.  1.
</event>
<event>
 7    1  0.1813014E-010  0.4778727E+02  0.7816164E-02  0.1312668E+00
        -11   -1    0    0    0    0  0.00000000000E+00  0.00000000000E+00  0.45593999997E+02  0.45594000000E+02  0.51100000000E-03 0.  1.
         11   -1    0    0    0    0 -0.00000000000E+00 -0.00000000000E+00 -0.45593999997E+02  0.45594000000E+02  0.51100000000E-03 0. -1.
    9900012    2    1    2    0    0  0.30923188447E+02 -0.12972540765E+02  0.27551637689E+02  0.47787272621E+02  0.20000007189E+02 0.  0.
         12    1    1    2    0    0 -0.30923188447E+02  0.12972540765E+02 -0.27551637689E+02  0.43400727379E+02  0.00000000000E+00 0. -1.
         11    1    3    3    0    0  0.40795344741E+01  0.18314142354E+01  0.38449628796E+01  0.58974926396E+01  0.51100000000E-03 0. -1.
        -11    1    3    3    0    0  0.11591593944E+02  0.18933276557E+01  0.10147864432E+02  0.15521884311E+02  0.51100000000E-03 0.  1.
        -12    1    3    3    0    0  0.15252060029E+02 -0.16697282657E+02  0.13558810378E+02  0.26367895671E+02  0.00000000000E+00 0.  1.
</event>
<event>
 7    1  0.1813014E-010  0.4778727E+02  0.7816164E-02  0.1312668E+00
        -11   -1    0    0    0    0  0.00000000000E+00  0.00000000000E+00  0.45593999997E+02  0.45594000000E+02  0.51100000000E-03 0. -1.
         11   -1    0    0    0    0 -0.00000000000E+00 -0.00000000000E+00 -0.45593999997E+02  0.45594000000E+02  0.51100000000E-03 0.  1.
    9900012    2    1    2    0    0  0.42343976329E+02 -0.28716580598E+01  0.90754776163E+01  0.47787273678E+02  0.20000012007E+02 0.  0.
         12    1    1    2    0    0 -0.42343976329E+02  0.28716580598E+01 -0.90754776163E+01  0.43400726322E+02  0.00000000000E+00 0. -1.
         11    1    3    3    0    0  0.15334743966E+02  0.39197499024E+01  0.58238513806E+01  0.16865232194E+02  0.51100000000E-03 0. -1.
        -11    1    3    3    0    0  0.96890411110E+01  0.37662655646E+01  0.11001890307E+00  0.10395882761E+02  0.51100000000E-03 0.  1.
         12    1    3    3    0    0  0.17320191252E+02 -0.10557673527E+02  0.31416073326E+01  0.20526158723E+02  0.00000000000E+00 0. -1.
</event>
<event>
 7    1  0.1813014E-010  0.4778727E+02  0.7816164E-02  0.1312668E+00
        -11   -1    0    0    0    0  0.00000000000E+00  0.00000000000E+00  0.45593999997E+02  0.45594000000E+02  0.51100000000E-03 0.  1.
         11   -1    0    0    0    0 -0.00000000000E+00 -0.00000000000E+00 -0.45593999997E+02  0.45594000000E+02  0.51100000000E-03 0. -1.
    9900012    2    1    2    0    0  0.16519506673E+02 -0.11846062904E+02  0.38345795385E+02  0.47787270389E+02  0.19999997010E+02 0.  0.
         12    1    1    2    0    0 -0.16519506673E+02  0.11846062904E+02 -0.38345795385E+02  0.43400729611E+02  0.00000000000E+00 0. -1.
         11    1    3    3    0    0  0.84324069269E+01 -0.37116749466E+00  0.25971628775E+02  0.27308766969E+02  0.51100000000E-03 0.  1.
        -11    1    3    3    0    0  0.85320247678E-02 -0.59208487329E+00 -0.11738819592E+01  0.13147761817E+01  0.51100000000E-03 0. -1.
        -12    1    3    3    0    0  0.80785677216E+01 -0.10882810536E+02  0.13548048570E+02  0.19163727238E+02  0.00000000000E+00 0.  1.
</event>
<event>
 7    1  0.1813014E-010  0.4778727E+02  0.7816164E-02  0.1312668E+00
        -11   -1    0    0    0    0  0.00000000000E+00  0.00000000000E+00  0.45593999997E+02  0.45594000000E+02  0.51100000000E-03 0.  1.
         11   -1    0    0    0    0 -0.00000000000E+00 -0.00000000000E+00 -0.45593999997E+02  0.45594000000E+02  0.51100000000E-03 0. -1.
    9900012    2    1    2    0    0  0.29730779096E+02  0.20688395096E+02  0.23910132653E+02  0.47787270043E+02  0.19999995436E+02 0.  0.
         12    1    1    2    0    0 -0.29730779096E+02 -0.20688395096E+02 -0.23910132653E+02  0.43400729957E+02  0.00000000000E+00 0. -1.
         11    1    3    3    0    0  0.10880173204E+01  0.44345261776E+00 -0.24170721917E+01  0.26875025869E+01  0.51100000000E-03 0. -1.
        -11    1    3    3    0    0  0.33981085539E+01  0.74026073596E+01  0.42429362875E+01  0.91841301202E+01  0.51100000000E-03 0.  1.
         12    1    3    3    0    0  0.25244653221E+02  0.12842335119E+02  0.22084268557E+02  0.35915637336E+02  0.00000000000E+00 0. -1.
</event>
<event>
 7    1  0.1813014E-010  0.4778727E+02  0.7816164E-02  0.1312668E+00
        -11   -1    0    0    0    0  0.00000000000E+00  0.00000000000E+00  0.45593999997E+02  0.45594000000E+02  0.51100000000E-03 0.  1.
         11   -1    0    0    0    0 -0.00000000000E+00 -0.00000000000E+00 -0.45593999997E+02  0.45594000000E+02  0.51100000000E-03 0. -1.
    9900012    2    1    2    0    0  0.30490418615E+02 -0.30347742933E+02  0.57421393583E+01  0.47787270826E+02  0.19999999003E+02 0.  0.
         12    1    1    2    0    0 -0.30490418615E+02  0.30347742933E+02 -0.57421393583E+01  0.43400729174E+02  0.00000000000E+00 0. -1.
         11    1    3    3    0    0 -0.17540894642E-01  0.10254924838E+01  0.19215911851E+01  0.21781770959E+01  0.51100000000E-03 0. -1.
        -11    1    3    3    0    0  0.92429538553E+01 -0.18203878439E+02  0.23925022919E+01  0.20555715839E+02  0.51100000000E-03 0.  1.
        -12    1    3    3    0    0  0.21265005654E+02 -0.13169356978E+02  0.14280458812E+01  0.25053377891E+02  0.00000000000E+00 0.  1.
</event>
<event>
 7    1  0.1813014E-010  0.4778727E+02  0.7816164E-02  0.1312668E+00
        -11   -1    0    0    0    0  0.00000000000E+00  0.00000000000E+00  0.45593999997E+02  0.45594000000E+02  0.51100000000E-03 0.  1.
         11   -1    0    0    0    0 -0.00000000000E+00 -0.00000000000E+00 -0.45593999997E+02  0.45594000000E+02  0.51100000000E-03 0. -1.
    9900012    2    1    2    0    0  0.15687073173E+01  0.21539536369E+01  0.43318852979E+02  0.47787269795E+02  0.19999994303E+02 0.  0.
         12    1    1    2    0    0 -0.15687073173E+01 -0.21539536369E+01 -0.43318852979E+02  0.43400730205E+02  0.00000000000E+00 0. -1.
         11    1    3    3    0    0  0.57583108458E+01  0.68086260851E+01  0.34826288055E+02  0.35949768746E+02  0.51100000000E-03 0.  1.
        -11    1    3    3    0    0 -0.11600170929E+01  0.26128073971E+00 -0.38261484744E+00  0.12491203558E+01  0.51100000000E-03 0. -1.
        -12    1    3    3    0    0 -0.30295864356E+01 -0.49159531879E+01  0.88751797716E+01  0.10588380693E+02  0.00000000000E+00 0.  1.
</event>
<event>
 7    1  0.1813014E-010  0.4778727E+02  0.7816164E-02  0.1312668E+00
        -11   -1    0    0    0    0  0.00000000000E+00  0.00000000000E+00  0.45593999997E+02  0.45594000000E+02  0.51100000000E-03 0.  1.
         11   -1    0    0    0    0 -0.00000000000E+00 -0.00000000000E+00 -0.45593999997E+02  0.45594000000E+02  0.51100000000E-03 0. -1.
    9900012    2    1    2    0    0  0.25568701202E+01 -0.27854364552E+02  0.33184636876E+02  0.47787270352E+02  0.19999996844E+02 0.  0.
         12    1    1    2    0    0 -0.25568701202E+01  0.27854364552E+02 -0.33184636876E+02  0.43400729648E+02  0.00000000000E+00 0. -1.
         11    1    3    3    0    0  0.45268381456E+01 -0.12660249976E+02  0.11799690235E+02  0.17888736204E+02  0.51100000000E-03 0. -1.
        -11    1    3    3    0    0 -0.63132195497E+01 -0.31936382137E+01  0.12448520169E+02  0.14318579566E+02  0.51100000000E-03 0.  1.
         12    1    3    3    0    0  0.43432515243E+01 -0.12000476362E+02  0.89364264712E+01  0.15579954583E+02  0.00000000000E+00 0. -1.
</event>
<event>
 7    1  0.1813014E-010  0.4778727E+02  0.7816164E-02  0.1312668E+00
        -11   -1    0    0    0    0  0.00000000000E+00  0.00000000000E+00  0.45593999997E+02  0.45594000000E+02  0.51100000000E-03 0.  1.
         11   -1    0    0    0    0 -0.00000000000E+00 -0.00000000000E+00 -0.45593999997E+02  0.45594000000E+02  0.51100000000E-03 0. -1.
    9900012    2    1    2    0    0  0.26593286323E+02  0.16985272841E+02  0.29797998005E+02  0.47787273554E+02  0.20000011440E+02 0.  0.
         12    1    1    2    0    0 -0.26593286323E+02 -0.16985272841E+02 -0.29797998005E+02  0.43400726446E+02  0.00000000000E+00 0. -1.
         11    1    3    3    0    0  0.15412892932E+02  0.80482594579E+01  0.40877559513E+01  0.17861732777E+02  0.51100000000E-03 0. -1.
        -11    1    3    3    0    0  0.40186959575E+01  0.46826392437E+01  0.63752516968E+01  0.88724777792E+01  0.51100000000E-03 0.  1.
        -12    1    3    3    0    0  0.71616974343E+01  0.42543741392E+01  0.19334990357E+02  0.21053062997E+02  0.00000000000E+00 0.  1.
</event>
<event>
 7    1  0.1813014E-010  0.4778727E+02  0.7816164E-02  0.1312668E+00
        -11   -1    0    0    0    0  0.00000000000E+00  0.00000000000E+00  0.45593999997E+02  0.45594000000E+02  0.51100000000E-03 0.  1.
         11   -1    0    0    0    0 -0.00000000000E+00 -0.00000000000E+00 -0.45593999997E+02  0.45594000000E+02  0.51100000000E-03 0. -1.
    9900012    2    1    2    0    0  0.35059348418E+02 -0.11091949802E+02  0.23052855533E+02  0.47787269475E+02  0.19999992843E+02 0.  0.
         12    1    1    2    0    0 -0.35059348418E+02  0.11091949802E+02 -0.23052855533E+02  0.43400730525E+02  0.00000000000E+00 0. -1.
         11    1    3    3    0    0  0.10141459208E+01 -0.57780199658E+00 -0.16835292367E+00  0.11792752282E+01  0.51100000000E-03 0. -1.
        -11    1    3    3    0    0  0.26460655669E+02 -0.14437875736E+02  0.11853472226E+02  0.32390173792E+02  0.51100000000E-03 0.  1.
        -12    1    3    3    0    0  0.75845468285E+01  0.39237279308E+01  0.11367736230E+02  0.14217820454E+02  0.00000000000E+00 0.  1.
</event>
<event>
 7    1  0.1813014E-010  0.4778728E+02  0.7816164E-02  0.1312668E+00
        -11   -1    0    0    0    0  0.00000000000E+00  0.00000000000E+00  0.45593999997E+02  0.45594000000E+02  0.51100000000E-03 0.  1.
         11   -1    0    0    0    0 -0.00000000000E+00 -0.00000000000E+00 -0.45593999997E+02  0.45594000000E+02  0.51100000000E-03 0. -1.
    9900012    2    1    2    0    0  0.41722328353E+02  0.77103863311E+01 -0.91334258145E+01  0.47787283327E+02  0.20000056003E+02 0.  0.
         12    1    1    2    0    0 -0.41722328353E+02 -0.77103863311E+01  0.91334258145E+01  0.43400716673E+02  0.00000000000E+00 0. -1.
         11    1    3    3    0    0  0.58959115704E+01 -0.25472205365E+01 -0.14035398425E+00  0.64241579378E+01  0.51100000000E-03 0. -1.
        -11    1    3    3    0    0  0.35884768347E+02  0.12126262495E+02 -0.10085275215E+02  0.39197903232E+02  0.51100000000E-03 0.  1.
        -12    1    3    3    0    0 -0.58351563743E-01 -0.18686556272E+01  0.10922033844E+01  0.21652221574E+01  0.00000000000E+00 0.  1.
</event>
<event>
 7    1  0.1813014E-010  0.4778727E+02  0.7816164E-02  0.1312668E+00
        -11   -1    0    0    0    0  0.00000000000E+00  0.00000000000E+00  0.45593999997E+02  0.45594000000E+02  0.51100000000E-03 0. -1.
         11   -1    0    0    0    0 -0.00000000000E+00 -0.00000000000E+00 -0.45593999997E+02  0.45594000000E+02  0.51100000000E-03 0.  1.
    9900012    2    1    2    0    0  0.25680635536E+02 -0.34986589078E+02  0.25857738536E+00  0.47787270523E+02  0.19999997623E+02 0.  0.
         12    1    1    2    0    0 -0.25680635536E+02  0.34986589078E+02 -0.25857738536E+00  0.43400729477E+02  0.00000000000E+00 0. -1.
         11    1    3    3    0    0  0.18397006712E+01 -0.41917843084E+01  0.37323325855E+01  0.59064254026E+01  0.51100000000E-03 0. -1.
        -11    1    3    3    0    0  0.18554061360E+02 -0.31176887981E+02 -0.18103793283E+01  0.36325321894E+02  0.51100000000E-03 0.  1.
        -12    1    3    3    0    0  0.52868735043E+01  0.38208321080E+00 -0.16633758718E+01  0.55555232266E+01  0.00000000000E+00 0.  1.
</event>
<event>
 7    1  0.1813014E-010  0.4778727E+02  0.7816164E-02  0.1312668E+00
        -11   -1    0    0    0    0  0.00000000000E+00  0.00000000000E+00  0.45593999997E+02  0.45594000000E+02  0.51100000000E-03 0.  1.
         11   -1    0    0    0    0 -0.00000000000E+00 -0.00000000000E+00 -0.45593999997E+02  0.45594000000E+02  0.51100000000E-03 0. -1.
    9900012    2    1    2    0    0 -0.24967880619E+02 -0.32778234350E+02  0.13631434279E+02  0.47787266018E+02  0.19999977081E+02 0.  0.
         12    1    1    2    0    0  0.24967880619E+02  0.32778234350E+02 -0.13631434279E+02  0.43400733982E+02  0.00000000000E+00 0. -1.
         11    1    3    3    0    0 -0.15132062393E+02 -0.19898274671E+02  0.60487020774E+01  0.25719787017E+02  0.51100000000E-03 0. -1.
        -11    1    3    3    0    0 -0.11591101412E+02 -0.11659308279E+02  0.96749413774E+01  0.19076100031E+02  0.51100000000E-03 0.  1.
         12    1    3    3    0    0  0.17552831855E+01 -0.12206514002E+01 -0.20922091760E+01  0.29913789693E+01  0.00000000000E+00 0. -1.
</event>
<event>
 7    1  0.1813014E-010  0.4778727E+02  0.7816164E-02  0.1312668E+00
        -11   -1    0    0    0    0  0.00000000000E+00  0.00000000000E+00  0.45593999997E+02  0.45594000000E+02  0.51100000000E-03 0.  1.
         11   -1    0    0    0    0 -0.00000000000E+00 -0.00000000000E+00 -0.45593999997E+02  0.45594000000E+02  0.51100000000E-03 0. -1.
    9900012    2    1    2    0    0 -0.42337440007E+02  0.23705637975E+01  0.92490447791E+01  0.47787271569E+02  0.20000002391E+02 0.  0.
         12    1    1    2    0    0  0.42337440007E+02 -0.23705637975E+01 -0.92490447791E+01  0.43400728431E+02  0.00000000000E+00 0. -1.
         11    1    3    3    0    0 -0.23978264926E+01 -0.20096087176E+01 -0.13587731715E+01  0.34109183337E+01  0.51100000000E-03 0. -1.
        -11    1    3    3    0    0 -0.18570613600E+02  0.82750229131E+01  0.99750500455E+01  0.22646088346E+02  0.51100000000E-03 0.  1.
        -12    1    3    3    0    0 -0.21368999914E+02 -0.38948503980E+01  0.63276790512E+00  0.21730264890E+02  0.00000000000E+00 0.  1.
</event>
<event>
 7    1  0.1813014E-010  0.4778727E+02  0.7816164E-02  0.1312668E+00
        -11   -1    0    0    0    0  0.00000000000E+00  0.00000000000E+00  0.45593999997E+02  0.45594000000E+02  0.51100000000E-03 0.  1.
         11   -1    0    0    0    0 -0.00000000000E+00 -0.00000000000E+00 -0.45593999997E+02  0.45594000000E+02  0.51100000000E-03 0. -1.
    9900012    2    1    2    0    0  0.50881698845E+01  0.41591406684E+02  0.11308784391E+02  0.47787272044E+02  0.20000004558E+02 0.  0.
         12    1    1    2    0    0 -0.50881698845E+01 -0.41591406684E+02 -0.11308784391E+02  0.43400727956E+02  0.00000000000E+00 0. -1.
         11    1    3    3    0    0  0.27838587161E+01  0.13298658415E+02  0.22189634366E+01  0.13766916285E+02  0.51100000000E-03 0. -1.
        -11    1    3    3    0    0 -0.53046640111E+01  0.18872424019E+02  0.13531449505E+01  0.19650416030E+02  0.51100000000E-03 0.  1.
         12    1    3    3    0    0  0.76089751795E+01  0.94203242496E+01  0.77366760036E+01  0.14369939730E+02  0.00000000000E+00 0. -1.
</event>
<event>
 7    1  0.1813014E-010  0.4778727E+02  0.7816164E-02  0.1312668E+00
        -11   -1    0    0    0    0  0.00000000000E+00  0.00000000000E+00  0.45593999997E+02  0.45594000000E+02  0.51100000000E-03 0.  1.
         11   -1    0    0    0    0 -0.00000000000E+00 -0.00000000000E+00 -0.45593999997E+02  0.45594000000E+02  0.51100000000E-03 0. -1.
    9900012    2    1    2    0    0  0.38422071789E+02  0.19557467311E+02 -0.49872930575E+01  0.47787271663E+02  0.20000002820E+02 0.  0.
         12    1    1    2    0    0 -0.38422071789E+02 -0.19557467311E+02  0.49872930575E+01  0.43400728337E+02  0.00000000000E+00 0. -1.
         11    1    3    3    0    0  0.71627178030E+01  0.17419602613E+00  0.37569053310E+01  0.80900685107E+01  0.51100000000E-03 0. -1.
        -11    1    3    3    0    0  0.35735313241E+00  0.37007837814E+01  0.69190324280E+00  0.37818292156E+01  0.51100000000E-03 0.  1.
        -12    1    3    3    0    0  0.30902000853E+02  0.15682487503E+02 -0.94361016312E+01  0.35915373937E+02  0.00000000000E+00 0.  1.
</event>
<event>
 7    1  0.1813014E-010  0.4778727E+02  0.7816164E-02  0.1312668E+00
        -11   -1    0    0    0    0  0.00000000000E+00  0.00000000000E+00  0.45593999997E+02  0.45594000000E+02  0.51100000000E-03 0.  1.
         11   -1    0    0    0    0 -0.00000000000E+00 -0.00000000000E+00 -0.45593999997E+02  0.45594000000E+02  0.51100000000E-03 0. -1.
    9900012    2    1    2    0    0  0.19477629650E+02 -0.84242033548E+01  0.37858657104E+02  0.47787272165E+02  0.20000005108E+02 0.  0.
         12    1    1    2    0    0 -0.19477629650E+02  0.84242033548E+01 -0.37858657104E+02  0.43400727835E+02  0.00000000000E+00 0. -1.
         11    1    3    3    0    0 -0.46094520906E+00  0.45699254978E+00 -0.59848702256E+00  0.88289277582E+00  0.51100000000E-03 0. -1.
        -11    1    3    3    0    0  0.22246067682E+02 -0.58864659585E+01  0.31870980334E+02  0.39310270878E+02  0.51100000000E-03 0.  1.
        -12    1    3    3    0    0 -0.23074928228E+01 -0.29947299461E+01  0.65861637920E+01  0.75941085107E+01  0.00000000000E+00 0.  1.
</event>
<event>
 7    1  0.1813014E-010  0.4778727E+02  0.7816164E-02  0.1312668E+00
        -11   -1    0    0    0    0  0.00000000000E+00  0.00000000000E+00  0.45593999997E+02  0.45594000000E+02  0.51100000000E-03 0. -1.
         11   -1    0    0    0    0 -0.00000000000E+00 -0.00000000000E+00 -0.45593999997E+02  0.45594000000E+02  0.51100000000E-03 0.  1.
    9900012    2    1    2    0    0 -0.10886403177E+02 -0.31872603625E+02 -0.27372378463E+02  0.47787265689E+02  0.19999975583E+02 0.  0.
         12    1    1    2    0    0  0.10886403177E+02  0.31872603625E+02  0.27372378463E+02  0.43400734311E+02  0.00000000000E+00 0. -1.
         11    1    3    3    0    0  0.34696228558E+01 -0.16902844657E+01 -0.40041766270E+01  0.55613644960E+01  0.51100000000E-03 0.  1.
        -11    1    3    3    0    0 -0.31138964428E+01 -0.19162734597E+02 -0.13497414864E+02  0.23645019699E+02  0.51100000000E-03 0. -1.
        -12    1    3    3    0    0 -0.11242129590E+02 -0.11019584563E+02 -0.98707869723E+01  0.18580881494E+02  0.00000000000E+00 0.  1.
</event>
<event>
 7    1  0.1813014E-010  0.4778727E+02  0.7816164E-02  0.1312668E+00
        -11   -1    0    0    0    0  0.00000000000E+00  0.00000000000E+00  0.45593999997E+02  0.45594000000E+02  0.51100000000E-03 0. -1.
         11   -1    0    0    0    0 -0.00000000000E+00 -0.00000000000E+00 -0.45593999997E+02  0.45594000000E+02  0.51100000000E-03 0.  1.
    9900012    2    1    2    0    0 -0.40631730853E+02 -0.11450480569E+02 -0.10078309140E+02  0.47787269908E+02  0.19999994819E+02 0.  0.
         12    1    1    2    0    0  0.40631730853E+02  0.11450480569E+02  0.10078309140E+02  0.43400730092E+02  0.00000000000E+00 0. -1.
         11    1    3    3    0    0 -0.29225150925E+02 -0.14104846308E+02 -0.14742297139E+01  0.32484296044E+02  0.51100000000E-03 0. -1.
        -11    1    3    3    0    0 -0.82065488117E+01 -0.38697659545E+00 -0.60470193736E+01  0.10201158652E+02  0.51100000000E-03 0.  1.
         12    1    3    3    0    0 -0.32000311164E+01  0.30413423346E+01 -0.25570600527E+01  0.51018152118E+01  0.00000000000E+00 0. -1.
</event>
<event>
 7    1  0.1813014E-010  0.4778727E+02  0.7816164E-02  0.1312668E+00
        -11   -1    0    0    0    0  0.00000000000E+00  0.00000000000E+00  0.45593999997E+02  0.45594000000E+02  0.51100000000E-03 0.  1.
         11   -1    0    0    0    0 -0.00000000000E+00 -0.00000000000E+00 -0.45593999997E+02  0.45594000000E+02  0.51100000000E-03 0. -1.
    9900012    2    1    2    0    0 -0.13387532201E+02  0.28791439405E+02  0.29588004989E+02  0.47787273731E+02  0.20000012248E+02 0.  0.
         12    1    1    2    0    0  0.13387532201E+02 -0.28791439405E+02 -0.29588004989E+02  0.43400726269E+02  0.00000000000E+00 0. -1.
         11    1    3    3    0    0 -0.61091384929E+00  0.13697424395E+02  0.10556321167E+02  0.17304004381E+02  0.51100000000E-03 0. -1.
        -11    1    3    3    0    0 -0.93046721358E+01  0.10939854644E+02  0.20353457120E+02  0.24910250103E+02  0.51100000000E-03 0.  1.
         12    1    3    3    0    0 -0.34719462163E+01  0.41541603659E+01 -0.13217732975E+01  0.55730192467E+01  0.00000000000E+00 0. -1.
</event>
<event>
 7    1  0.1813014E-010  0.4778727E+02  0.7816164E-02  0.1312668E+00
        -11   -1    0    0    0    0  0.00000000000E+00  0.00000000000E+00  0.45593999997E+02  0.45594000000E+02  0.51100000000E-03 0. -1.
         11   -1    0    0    0    0 -0.00000000000E+00 -0.00000000000E+00 -0.45593999997E+02  0.45594000000E+02  0.51100000000E-03 0.  1.
    9900012    2    1    2    0    0  0.11116842642E+02  0.40123168667E+02  0.12254414702E+02  0.47787268049E+02  0.19999986343E+02 0.  0.
         12    1    1    2    0    0 -0.11116842642E+02 -0.40123168667E+02 -0.12254414702E+02  0.43400731951E+02  0.00000000000E+00 0. -1.
         11    1    3    3    0    0  0.64601161181E+01  0.19527529077E+02  0.12377455465E+02  0.24005393064E+02  0.51100000000E-03 0.  1.
        -11    1    3    3    0    0  0.32582347995E+01  0.21512314589E+02  0.97826212045E+00  0.21779641182E+02  0.51100000000E-03 0. -1.
         12    1    3    3    0    0  0.13984917245E+01 -0.91667499971E+00 -0.11013028837E+01  0.20022338026E+01  0.00000000000E+00 0. -1.
</event>
<event>
 7    1  0.1813014E-010  0.4778727E+02  0.7816164E-02  0.1312668E+00
        -11   -1    0    0    0    0  0.00000000000E+00  0.00000000000E+00  0.45593999997E+02  0.45594000000E+02  0.51100000000E-03 0.  1.
         11   -1    0    0    0    0 -0.00000000000E+00 -0.00000000000E+00 -0.45593999997E+02  0.45594000000E+02  0.51100000000E-03 0. -1.
    9900012    2    1    2    0    0 -0.33543170780E+02  0.19387387460E+02  0.19560367309E+02  0.47787273419E+02  0.20000010826E+02 0.  0.
         12    1    1    2    0    0  0.33543170780E+02 -0.19387387460E+02 -0.19560367309E+02  0.43400726581E+02  0.00000000000E+00 0. -1.
         11    1    3    3    0    0 -0.77235087648E+01  0.12555518007E+02  0.66059545368E+01  0.16153397651E+02  0.51100000000E-03 0. -1.
        -11    1    3    3    0    0 -0.16101978441E+02  0.59983435434E+01  0.25472437544E+01  0.17370730727E+02  0.51100000000E-03 0.  1.
        -12    1    3    3    0    0 -0.97176835737E+01  0.83352590932E+00  0.10407169018E+02  0.14263145041E+02  0.00000000000E+00 0.  1.
</event>
<event>
 7    1  0.1813014E-010  0.4778726E+02  0.7816164E-02  0.1312668E+00
        -11   -1    0    0    0    0  0.00000000000E+00  0.00000000000E+00  0.45593999997E+02  0.45594000000E+02  0.51100000000E-03 0.  1.
         11   -1    0    0    0    0 -0.00000000000E+00 -0.00000000000E+00 -0.45593999997E+02  0.45594000000E+02  0.51100000000E-03 0. -1.
    9900012    2    1    2    0    0 -0.94513307981E+01  0.24418118457E+02  0.34612893244E+02  0.47787256440E+02  0.19999933414E+02 0.  0.
         12    1    1    2    0    0  0.94513307981E+01 -0.24418118457E+02 -0.34612893244E+02  0.43400743560E+02  0.00000000000E+00 0. -1.
         11    1    3    3    0    0  0.44519931120E+01  0.46032826229E+01  0.12615824766E+02  0.14148126673E+02  0.51100000000E-03 0. -1.
        -11    1    3    3    0    0 -0.66372792803E+01  0.93301907352E+01  0.15648819483E+02  0.19390499913E+02  0.51100000000E-03 0.  1.
         12    1    3    3    0    0 -0.72660446298E+01  0.10484645099E+02  0.63482489943E+01  0.14248629854E+02  0.00000000000E+00 0. -1.
</event>
<event>
 7    1  0.1813014E-010  0.4778727E+02  0.7816164E-02  0.1312668E+00
        -11   -1    0    0    0    0  0.00000000000E+00  0.00000000000E+00  0.45593999997E+02  0.45594000000E+02  0.51100000000E-03 0. -1.
         11   -1    0    0    0    0 -0.00000000000E+00 -0.00000000000E+00 -0.45593999997E+02  0.45594000000E+02  0.51100000000E-03 0.  1.
    9900012    2    1    2    0    0 -0.37184014113E+02 -0.22322406492E+02 -0.16378786558E+01  0.47787269780E+02  0.19999994236E+02 0.  0.
         12    1    1    2    0    0  0.37184014113E+02  0.22322406492E+02  0.16378786558E+01  0.43400730220E+02  0.00000000000E+00 0. -1.
         11    1    3    3    0    0 -0.48674911230E+01 -0.44255786657E+01  0.43462801954E+01  0.78846920141E+01  0.51100000000E-03 0. -1.
        -11    1    3    3    0    0 -0.27934775379E+01 -0.68426222909E+01 -0.37787629233E+01  0.83008461052E+01  0.51100000000E-03 0.  1.
         12    1    3    3    0    0 -0.29523045452E+02 -0.11054205535E+02 -0.22053959279E+01  0.31601731661E+02  0.00000000000E+00 0. -1.
</event>
<event>
 7    1  0.1813014E-010  0.4778727E+02  0.7816164E-02  0.1312668E+00
        -11   -1    0    0    0    0  0.00000000000E+00  0.00000000000E+00  0.45593999997E+02  0.45594000000E+02  0.51100000000E-03 0. -1.
         11   -1    0    0    0    0 -0.00000000000E+00 -0.00000000000E+00 -0.45593999997E+02  0.45594000000E+02  0.51100000000E-03 0.  1.
    9900012    2    1    2    0    0 -0.43118286868E+02 -0.41458428236E+01 -0.26923302866E+01  0.47787270541E+02  0.19999997706E+02 0.  0.
         12    1    1    2    0    0  0.43118286868E+02  0.41458428236E+01  0.26923302866E+01  0.43400729459E+02  0.00000000000E+00 0. -1.
         11    1    3    3    0    0 -0.99067588432E+01  0.10785071362E+01  0.33914432543E+01  0.10526582353E+02  0.51100000000E-03 0. -1.
        -11    1    3    3    0    0 -0.28567097684E+02 -0.96456029646E+01 -0.35259859208E+01  0.30357030546E+02  0.51100000000E-03 0.  1.
         12    1    3    3    0    0 -0.46444303415E+01  0.44212530048E+01 -0.25577876202E+01  0.69036576421E+01  0.00000000000E+00 0. -1.
</event>
<event>
 7    1  0.1813014E-010  0.4778727E+02  0.7816164E-02  0.1312668E+00
        -11   -1    0    0    0    0  0.00000000000E+00  0.00000000000E+00  0.45593999997E+02  0.45594000000E+02  0.51100000000E-03 0.  1.
         11   -1    0    0    0    0 -0.00000000000E+00 -0.00000000000E+00 -0.45593999997E+02  0.45594000000E+02  0.51100000000E-03 0. -1.
    9900012    2    1    2    0    0  0.35785004480E+02 -0.20342865297E+02  0.13755880319E+02  0.47787274690E+02  0.20000016620E+02 0.  0.
         12    1    1    2    0    0 -0.35785004480E+02  0.20342865297E+02 -0.13755880319E+02  0.43400725310E+02  0.00000000000E+00 0. -1.
         11    1    3    3    0    0  0.21904997099E+01 -0.57657177778E+00  0.46636136593E+01  0.51845941613E+01  0.51100000000E-03 0. -1.
        -11    1    3    3    0    0  0.27819040802E+02 -0.20248901448E+02  0.11567743919E+02  0.36300547388E+02  0.51100000000E-03 0.  1.
        -12    1    3    3    0    0  0.57754639675E+01  0.48260792869E+00 -0.24754772600E+01  0.63021331402E+01  0.00000000000E+00 0.  1.
</event>
<event>
 7    1  0.1813014E-010  0.4778727E+02  0.7816164E-02  0.1312668E+00
        -11   -1    0    0    0    0  0.00000000000E+00  0.00000000000E+00  0.45593999997E+02  0.45594000000E+02  0.51100000000E-03 0.  1.
         11   -1    0    0    0    0 -0.00000000000E+00 -0.00000000000E+00 -0.45593999997E+02  0.45594000000E+02  0.51100000000E-03 0. -1.
    9900012    2    1    2    0    0 -0.11614497250E+02 -0.36672129108E+02  0.20096809609E+02  0.47787270097E+02  0.19999995679E+02 0.  0.
         12    1    1    2    0    0  0.11614497250E+02  0.36672129108E+02 -0.20096809609E+02  0.43400729903E+02  0.00000000000E+00 0. -1.
         11    1    3    3    0    0 -0.47905095527E+01 -0.14925394804E+01  0.18844765486E+01  0.53598421617E+01  0.51100000000E-03 0. -1.
        -11    1    3    3    0    0  0.34774654695E+01 -0.96772741739E+01  0.82181404032E+01  0.13163595006E+02  0.51100000000E-03 0.  1.
        -12    1    3    3    0    0 -0.10301453167E+02 -0.25502315453E+02  0.99941926574E+01  0.29263832929E+02  0.00000000000E+00 0.  1.
</event>
<event>
 7    1  0.1813014E-010  0.4778727E+02  0.7816164E-02  0.1312668E+00
        -11   -1    0    0    0    0  0.00000000000E+00  0.00000000000E+00  0.45593999997E+02  0.45594000000E+02  0.51100000000E-03 0.  1.
         11   -1    0    0    0    0 -0.00000000000E+00 -0.00000000000E+00 -0.45593999997E+02  0.45594000000E+02  0.51100000000E-03 0. -1.
    9900012    2    1    2    0    0  0.37132063441E+01  0.19346229943E+01  0.43198293270E+02  0.47787271793E+02  0.20000003414E+02 0.  0.
         12    1    1    2    0    0 -0.37132063441E+01 -0.19346229943E+01 -0.43198293270E+02  0.43400728207E+02  0.00000000000E+00 0. -1.
         11    1    3    3    0    0  0.11604141709E+01 -0.61966373061E+01  0.15884498597E+02  0.17089826532E+02  0.51100000000E-03 0. -1.
        -11    1    3    3    0    0  0.65956541249E+01  0.34229620772E+01  0.11312296306E+02  0.13534672907E+02  0.51100000000E-03 0.  1.
        -12    1    3    3    0    0 -0.40428619516E+01  0.47082982232E+01  0.16001498366E+02  0.17162772354E+02  0.00000000000E+00 0.  1.
</event>
<event>
 7    1  0.1813014E-010  0.4778727E+02  0.7816164E-02  0.1312668E+00
        -11   -1    0    0    0    0  0.00000000000E+00  0.00000000000E+00  0.45593999997E+02  0.45594000000E+02  0.51100000000E-03 0.  1.
         11   -1    0    0    0    0 -0.00000000000E+00 -0.00000000000E+00 -0.45593999997E+02  0.45594000000E+02  0.51100000000E-03 0. -1.
    9900012    2    1    2    0    0 -0.22646229419E+02 -0.48521931631E+01  0.36704604460E+02  0.47787268739E+02  0.19999989489E+02 0.  0.
         12    1    1    2    0    0  0.22646229419E+02  0.48521931631E+01 -0.36704604460E+02  0.43400731261E+02  0.00000000000E+00 0. -1.
         11    1    3    3    0    0  0.82530137141E+00 -0.19955309899E+01 -0.10816963289E+01  0.24152294910E+01  0.51100000000E-03 0. -1.
        -11    1    3    3    0    0 -0.89471043120E+01  0.24237179335E+01  0.18182801068E+02  0.20409295410E+02  0.51100000000E-03 0.  1.
        -12    1    3    3    0    0 -0.14524426479E+02 -0.52803801067E+01  0.19603499722E+02  0.24962743838E+02  0.00000000000E+00 0.  1.
</event>
<event>
 7    1  0.1813014E-010  0.4778727E+02  0.7816164E-02  0.1312668E+00
        -11   -1    0    0    0    0  0.00000000000E+00  0.00000000000E+00  0.45593999997E+02  0.45594000000E+02  0.51100000000E-03 0.  1.
         11   -1    0    0    0    0 -0.00000000000E+00 -0.00000000000E+00 -0.45593999997E+02  0.45594000000E+02  0.51100000000E-03 0. -1.
    9900012    2    1    2    0    0  0.18317562216E+02  0.39322340265E+02  0.13577791010E+01  0.47787273122E+02  0.20000009473E+02 0.  0.
         12    1    1    2    0    0 -0.18317562216E+02 -0.39322340265E+02 -0.13577791010E+01  0.43400726878E+02  0.00000000000E+00 0. -1.
         11    1    3    3    0    0 -0.20410364465E+01  0.54117358340E+01 -0.43226553508E+01  0.72206692249E+01  0.51100000000E-03 0. -1.
        -11    1    3    3    0    0  0.87040923733E+01  0.83436508398E+01  0.21546294356E+01  0.12248271782E+02  0.51100000000E-03 0.  1.
        -12    1    3    3    0    0  0.11654506290E+02  0.25566953591E+02  0.35258050161E+01  0.28318332115E+02  0.00000000000E+00 0.  1.
</event>
<event>
 7    1  0.1813014E-010  0.4778727E+02  0.7816164E-02  0.1312668E+00
        -11   -1    0    0    0    0  0.00000000000E+00  0.00000000000E+00  0.45593999997E+02  0.45594000000E+02  0.51100000000E-03 0.  1.
         11   -1    0    0    0    0 -0.00000000000E+00 -0.00000000000E+00 -0.45593999997E+02  0.45594000000E+02  0.51100000000E-03 0. -1.
    9900012    2    1    2    0    0 -0.85028489598E+01  0.42469919732E+02  0.27624014932E+01  0.47787269770E+02  0.19999994191E+02 0.  0.
         12    1    1    2    0    0  0.85028489598E+01 -0.42469919732E+02 -0.27624014932E+01  0.43400730230E+02  0.00000000000E+00 0. -1.
         11    1    3    3    0    0  0.11894227510E+01  0.22898537563E+01 -0.32199952748E+01  0.41263211868E+01  0.51100000000E-03 0. -1.
        -11    1    3    3    0    0 -0.82764956931E+01  0.40317198762E+02  0.41869827154E+01  0.41370372509E+02  0.51100000000E-03 0.  1.
        -12    1    3    3    0    0 -0.14157760177E+01 -0.13713278686E+00  0.17954140526E+01  0.22905760747E+01  0.00000000000E+00 0.  1.
</event>
<event>
 7    1  0.1813014E-010  0.4778726E+02  0.7816164E-02  0.1312668E+00
        -11   -1    0    0    0    0  0.00000000000E+00  0.00000000000E+00  0.45593999997E+02  0.45594000000E+02  0.51100000000E-03 0. -1.
         11   -1    0    0    0    0 -0.00000000000E+00 -0.00000000000E+00 -0.45593999997E+02  0.45594000000E+02  0.51100000000E-03 0.  1.
    9900012    2    1    2    0    0  0.35538909471E+02  0.16401663645E+02 -0.18750875557E+02  0.47787262785E+02  0.19999962341E+02 0.  0.
         12    1    1    2    0    0 -0.35538909471E+02 -0.16401663645E+02  0.18750875557E+02  0.43400737215E+02  0.00000000000E+00 0. -1.
         11    1    3    3    0    0  0.40971315284E+00 -0.19693026433E+01  0.11410250048E-01  0.20115039705E+01  0.51100000000E-03 0. -1.
        -11    1    3    3    0    0  0.61949190317E+01  0.89880561255E+01 -0.21796054412E+01  0.11131615106E+02  0.51100000000E-03 0.  1.
         12    1    3    3    0    0  0.28934277286E+02  0.93829101627E+01 -0.16582680365E+02  0.34644143708E+02  0.00000000000E+00 0. -1.
</event>
<event>
 7    1  0.1813014E-010  0.4778727E+02  0.7816164E-02  0.1312668E+00
        -11   -1    0    0    0    0  0.00000000000E+00  0.00000000000E+00  0.45593999997E+02  0.45594000000E+02  0.51100000000E-03 0. -1.
         11   -1    0    0    0    0 -0.00000000000E+00 -0.00000000000E+00 -0.45593999997E+02  0.45594000000E+02  0.51100000000E-03 0.  1.
    9900012    2    1    2    0    0  0.15366254202E+02  0.39336085951E+02 -0.10008687788E+02  0.47787271234E+02  0.20000000866E+02 0.  0.
         12    1    1    2    0    0 -0.15366254202E+02 -0.39336085951E+02  0.10008687788E+02  0.43400728766E+02  0.00000000000E+00 0. -1.
         11    1    3    3    0    0  0.12015206116E+01  0.26296650246E+01 -0.59206843477E+01  0.65888764845E+01  0.51100000000E-03 0. -1.
        -11    1    3    3    0    0  0.59780354896E+01  0.28779338130E+02 -0.10848328820E+01  0.29413671552E+02  0.51100000000E-03 0.  1.
         12    1    3    3    0    0  0.81866981006E+01  0.79270827966E+01 -0.30031705579E+01  0.11784723198E+02  0.00000000000E+00 0. -1.
</event>
<event>
 7    1  0.1813014E-010  0.4778727E+02  0.7816164E-02  0.1312668E+00
        -11   -1    0    0    0    0  0.00000000000E+00  0.00000000000E+00  0.45593999997E+02  0.45594000000E+02  0.51100000000E-03 0.  1.
         11   -1    0    0    0    0 -0.00000000000E+00 -0.00000000000E+00 -0.45593999997E+02  0.45594000000E+02  0.51100000000E-03 0. -1.
    9900012    2    1    2    0    0 -0.11180478584E+02  0.30652206497E+02  0.28619265991E+02  0.47787271315E+02  0.20000001235E+02 0.  0.
         12    1    1    2    0    0  0.11180478584E+02 -0.30652206497E+02 -0.28619265991E+02  0.43400728685E+02  0.00000000000E+00 0. -1.
         11    1    3    3    0    0 -0.72384960665E+01  0.75781374719E+01  0.17609222248E+02  0.20491673951E+02  0.51100000000E-03 0. -1.
        -11    1    3    3    0    0  0.16871820545E+01  0.99312870859E+01  0.75402710038E+01  0.12583033559E+02  0.51100000000E-03 0.  1.
        -12    1    3    3    0    0 -0.56291645716E+01  0.13142781940E+02  0.34697727387E+01  0.14712563806E+02  0.00000000000E+00 0.  1.
</event>
<event>
 7    1  0.1813014E-010  0.4778726E+02  0.7816164E-02  0.1312668E+00
        -11   -1    0    0    0    0  0.00000000000E+00  0.00000000000E+00  0.45593999997E+02  0.45594000000E+02  0.51100000000E-03 0.  1.
         11   -1    0    0    0    0 -0.00000000000E+00 -0.00000000000E+00 -0.45593999997E+02  0.45594000000E+02  0.51100000000E-03 0. -1.
    9900012    2    1    2    0    0  0.15407625436E+02 -0.34952115703E+02  0.20605314297E+02  0.47787259326E+02  0.19999946572E+02 0.  0.
         12    1    1    2    0    0 -0.15407625436E+02  0.34952115703E+02 -0.20605314297E+02  0.43400740674E+02  0.00000000000E+00 0. -1.
         11    1    3    3    0    0  0.76865419473E+01 -0.18478114932E+02  0.12279865166E+02  0.23480177753E+02  0.51100000000E-03 0. -1.
        -11    1    3    3    0    0  0.96781003952E+01 -0.82681243388E+01  0.93711331707E+01  0.15806506398E+02  0.51100000000E-03 0.  1.
         12    1    3    3    0    0 -0.19570169061E+01 -0.82058764331E+01 -0.10456840399E+01  0.85005751757E+01  0.00000000000E+00 0. -1.
</event>
<event>
 7    1  0.1813014E-010  0.4778725E+02  0.7816164E-02  0.1312668E+00
        -11   -1    0    0    0    0  0.00000000000E+00  0.00000000000E+00  0.45593999997E+02  0.45594000000E+02  0.51100000000E-03 0. -1.
         11   -1    0    0    0    0 -0.00000000000E+00 -0.00000000000E+00 -0.45593999997E+02  0.45594000000E+02  0.51100000000E-03 0.  1.
    9900012    2    1    2    0    0  0.16056201383E+02  0.33338443224E+02 -0.22679757419E+02  0.47787253508E+02  0.19999920046E+02 0.  0.
         12    1    1    2    0    0 -0.16056201383E+02 -0.33338443224E+02  0.22679757419E+02  0.43400746492E+02  0.00000000000E+00 0. -1.
         11    1    3    3    0    0  0.93535011868E+01  0.17908638585E+02 -0.15976638297E+02  0.25757722958E+02  0.51100000000E-03 0. -1.
        -11    1    3    3    0    0 -0.34198880533E+01  0.33111979769E+01 -0.35236980485E+01  0.59225091420E+01  0.51100000000E-03 0.  1.
         12    1    3    3    0    0  0.10122588250E+02  0.12118606662E+02 -0.31794210731E+01  0.16107021409E+02  0.00000000000E+00 0. -1.
</event>
<event>
 7    1  0.1813014E-010  0.4778727E+02  0.7816164E-02  0.1312668E+00
        -11   -1    0    0    0    0  0.00000000000E+00  0.00000000000E+00  0.45593999997E+02  0.45594000000E+02  0.51100000000E-03 0.  1.
         11   -1    0    0    0    0 -0.00000000000E+00 -0.00000000000E+00 -0.45593999997E+02  0.45594000000E+02  0.51100000000E-03 0. -1.
    9900012    2    1    2    0    0 -0.17522023931E+02 -0.90516157406E+01  0.38660965461E+02  0.47787270507E+02  0.19999997548E+02 0.  0.
         12    1    1    2    0    0  0.17522023931E+02  0.90516157406E+01 -0.38660965461E+02  0.43400729493E+02  0.00000000000E+00 0. -1.
         11    1    3    3    0    0 -0.10354908145E+02 -0.11755851232E+02  0.17926679389E+02  0.23807351702E+02  0.51100000000E-03 0.  1.
        -11    1    3    3    0    0 -0.42289687629E+01  0.32173654291E+00  0.16931301698E+01  0.45666597458E+01  0.51100000000E-03 0. -1.
        -12    1    3    3    0    0 -0.29381470231E+01  0.23824989490E+01  0.19041155903E+02  0.19413259059E+02  0.00000000000E+00 0.  1.
</event>
<event>
 7    1  0.1813014E-010  0.4778727E+02  0.7816164E-02  0.1312668E+00
        -11   -1    0    0    0    0  0.00000000000E+00  0.00000000000E+00  0.45593999997E+02  0.45594000000E+02  0.51100000000E-03 0. -1.
         11   -1    0    0    0    0 -0.00000000000E+00 -0.00000000000E+00 -0.45593999997E+02  0.45594000000E+02  0.51100000000E-03 0.  1.
    9900012    2    1    2    0    0  0.40866374875E+02  0.14607894614E+02 -0.41477173056E+00  0.47787271711E+02  0.20000003038E+02 0.  0.
         12    1    1    2    0    0 -0.40866374875E+02 -0.14607894614E+02  0.41477173056E+00  0.43400728289E+02  0.00000000000E+00 0. -1.
         11    1    3    3    0    0  0.32210075553E+01  0.26031234840E+01  0.24672520881E+01  0.48206301115E+01  0.51100000000E-03 0. -1.
        -11    1    3    3    0    0  0.25165772875E+02  0.37460343993E+01 -0.87309006280E+01  0.26899396353E+02  0.51100000000E-03 0.  1.
        -12    1    3    3    0    0  0.12479594445E+02  0.82587367303E+01  0.58488768093E+01  0.16067245247E+02  0.00000000000E+00 0.  1.
</event>
<event>
 7    1  0.1813014E-010  0.4778728E+02  0.7816164E-02  0.1312668E+00
        -11   -1    0    0    0    0  0.00000000000E+00  0.00000000000E+00  0.45593999997E+02  0.45594000000E+02  0.51100000000E-03 0.  1.
         11   -1    0    0    0    0 -0.00000000000E+00 -0.00000000000E+00 -0.45593999997E+02  0.45594000000E+02  0.51100000000E-03 0. -1.
    9900012    2    1    2    0    0 -0.63609081731E+01  0.17640296002E+01  0.42895801699E+02  0.47787277004E+02  0.20000027172E+02 0.  0.
         12    1    1    2    0    0  0.63609081731E+01 -0.17640296002E+01 -0.42895801699E+02  0.43400722996E+02  0.00000000000E+00 0. -1.
         11    1    3    3    0    0 -0.14910881355E+01  0.78774795823E+01  0.22232376285E+02  0.23633801724E+02  0.51100000000E-03 0. -1.
        -11    1    3    3    0    0 -0.73107395578E+01 -0.29923942881E+01  0.17049842658E+02  0.18790914597E+02  0.51100000000E-03 0.  1.
        -12    1    3    3    0    0  0.24409195203E+01 -0.31210556941E+01  0.36135827556E+01  0.53625606833E+01  0.00000000000E+00 0.  1.
</event>
<event>
 7    1  0.1813014E-010  0.4778727E+02  0.7816164E-02  0.1312668E+00
        -11   -1    0    0    0    0  0.00000000000E+00  0.00000000000E+00  0.45593999997E+02  0.45594000000E+02  0.51100000000E-03 0.  1.
         11   -1    0    0    0    0 -0.00000000000E+00 -0.00000000000E+00 -0.45593999997E+02  0.45594000000E+02  0.51100000000E-03 0. -1.
    9900012    2    1    2    0    0 -0.42203678230E+01 -0.12576079996E+02  0.41323770119E+02  0.47787271095E+02  0.20000000230E+02 0.  0.
         12    1    1    2    0    0  0.42203678230E+01  0.12576079996E+02 -0.41323770119E+02  0.43400728905E+02  0.00000000000E+00 0. -1.
         11    1    3    3    0    0 -0.59148529782E+01 -0.26854188417E+00  0.27948489399E+02  0.28568788221E+02  0.51100000000E-03 0. -1.
        -11    1    3    3    0    0 -0.13972111303E+01 -0.74779903284E+01  0.99991504005E+01  0.12564057756E+02  0.51100000000E-03 0.  1.
        -12    1    3    3    0    0  0.30916962855E+01 -0.48295477831E+01  0.33761303201E+01  0.66544251179E+01  0.00000000000E+00 0.  1.
</event>
<event>
 7    1  0.1813014E-010  0.4778727E+02  0.7816164E-02  0.1312668E+00
        -11   -1    0    0    0    0  0.00000000000E+00  0.00000000000E+00  0.45593999997E+02  0.45594000000E+02  0.51100000000E-03 0.  1.
         11   -1    0    0    0    0 -0.00000000000E+00 -0.00000000000E+00 -0.45593999997E+02  0.45594000000E+02  0.51100000000E-03 0. -1.
    9900012    2    1    2    0    0  0.13643103957E+02 -0.28982666121E+02  0.29282997953E+02  0.47787272009E+02  0.20000004398E+02 0.  0.
         12    1    1    2    0    0 -0.13643103957E+02  0.28982666121E+02 -0.29282997953E+02  0.43400727991E+02  0.00000000000E+00 0. -1.
         11    1    3    3    0    0  0.10765610096E+02 -0.75703583762E+01  0.17597081636E+02  0.21974211455E+02  0.51100000000E-03 0. -1.
        -11    1    3    3    0    0 -0.11722988283E+01 -0.12861365464E+02  0.96839333781E+01  0.16142105565E+02  0.51100000000E-03 0.  1.
        -12    1    3    3    0    0  0.40497926891E+01 -0.85509422812E+01  0.20019829383E+01  0.96709549893E+01  0.00000000000E+00 0.  1.
</event>
<event>
 7    1  0.1813014E-010  0.4778727E+02  0.7816164E-02  0.1312668E+00
        -11   -1    0    0    0    0  0.00000000000E+00  0.00000000000E+00  0.45593999997E+02  0.45594000000E+02  0.51100000000E-03 0. -1.
         11   -1    0    0    0    0 -0.00000000000E+00 -0.00000000000E+00 -0.45593999997E+02  0.45594000000E+02  0.51100000000E-03 0.  1.
    9900012    2    1    2    0    0  0.39820000607E+02  0.17162918529E+02 -0.18507254812E+01  0.47787269527E+02  0.19999993082E+02 0.  0.
         12    1    1    2    0    0 -0.39820000607E+02 -0.17162918529E+02  0.18507254812E+01  0.43400730473E+02  0.00000000000E+00 0. -1.
         11    1    3    3    0    0  0.28005547617E+01  0.12255766619E+01 -0.36535277084E+01  0.47637600805E+01  0.51100000000E-03 0. -1.
        -11    1    3    3    0    0  0.38213263911E+02  0.16545500167E+02  0.18548480453E+01  0.41682701161E+02  0.51100000000E-03 0.  1.
        -12    1    3    3    0    0 -0.11938180661E+01 -0.60815829944E+00 -0.52045818118E-01  0.13408082859E+01  0.00000000000E+00 0.  1.
</event>
<event>
 7    1  0.1813014E-010  0.4778727E+02  0.7816164E-02  0.1312668E+00
        -11   -1    0    0    0    0  0.00000000000E+00  0.00000000000E+00  0.45593999997E+02  0.45594000000E+02  0.51100000000E-03 0. -1.
         11   -1    0    0    0    0 -0.00000000000E+00 -0.00000000000E+00 -0.45593999997E+02  0.45594000000E+02  0.51100000000E-03 0.  1.
    9900012    2    1    2    0    0  0.44591828946E+00  0.37505893081E+02 -0.21834200448E+02  0.47787272262E+02  0.20000005552E+02 0.  0.
         12    1    1    2    0    0 -0.44591828946E+00 -0.37505893081E+02  0.21834200448E+02  0.43400727738E+02  0.00000000000E+00 0. -1.
         11    1    3    3    0    0  0.44247958046E+01  0.25809071008E+01  0.16488199498E+00  0.51251425062E+01  0.51100000000E-03 0. -1.
        -11    1    3    3    0    0 -0.59585302765E+01  0.15082465116E+02 -0.67804230097E+01  0.17577228834E+02  0.51100000000E-03 0.  1.
        -12    1    3    3    0    0  0.19796527614E+01  0.19842520864E+02 -0.15218659434E+02  0.25084900922E+02  0.00000000000E+00 0.  1.
</event>
<event>
 7    1  0.1813014E-010  0.4778727E+02  0.7816164E-02  0.1312668E+00
        -11   -1    0    0    0    0  0.00000000000E+00  0.00000000000E+00  0.45593999997E+02  0.45594000000E+02  0.51100000000E-03 0. -1.
         11   -1    0    0    0    0 -0.00000000000E+00 -0.00000000000E+00 -0.45593999997E+02  0.45594000000E+02  0.51100000000E-03 0.  1.
    9900012    2    1    2    0    0 -0.24409409138E+02  0.29241936919E+02 -0.20801758522E+02  0.47787270895E+02  0.19999999319E+02 0.  0.
         12    1    1    2    0    0  0.24409409138E+02 -0.29241936919E+02  0.20801758522E+02  0.43400729105E+02  0.00000000000E+00 0. -1.
         11    1    3    3    0    0 -0.23141746374E+01  0.58023577145E+01 -0.12361858426E+02  0.13850570504E+02  0.51100000000E-03 0. -1.
        -11    1    3    3    0    0 -0.69145557577E+01  0.11447887906E+02 -0.18604348097E+01  0.13502830695E+02  0.51100000000E-03 0.  1.
        -12    1    3    3    0    0 -0.15180678743E+02  0.11991691299E+02 -0.65794652863E+01  0.20433869696E+02  0.00000000000E+00 0.  1.
</event>
<event>
 7    1  0.1813014E-010  0.4778728E+02  0.7816164E-02  0.1312668E+00
        -11   -1    0    0    0    0  0.00000000000E+00  0.00000000000E+00  0.45593999997E+02  0.45594000000E+02  0.51100000000E-03 0.  1.
         11   -1    0    0    0    0 -0.00000000000E+00 -0.00000000000E+00 -0.45593999997E+02  0.45594000000E+02  0.51100000000E-03 0. -1.
    9900012    2    1    2    0    0 -0.47369786011E+01  0.31129152528E+01  0.43028986013E+02  0.47787275986E+02  0.20000022528E+02 0.  0.
         12    1    1    2    0    0  0.47369786011E+01 -0.31129152528E+01 -0.43028986013E+02  0.43400724014E+02  0.00000000000E+00 0. -1.
         11    1    3    3    0    0 -0.25966221394E+01  0.21080753731E+01  0.25814873153E+02  0.26030637804E+02  0.51100000000E-03 0.  1.
        -11    1    3    3    0    0  0.51539468612E+01 -0.17972577249E+01  0.63359278213E+01  0.83628514991E+01  0.51100000000E-03 0. -1.
         12    1    3    3    0    0 -0.72943033229E+01  0.28020976046E+01  0.10878185039E+02  0.13393786683E+02  0.00000000000E+00 0. -1.
</event>
<event>
 7    1  0.1813014E-010  0.4778727E+02  0.7816164E-02  0.1312668E+00
        -11   -1    0    0    0    0  0.00000000000E+00  0.00000000000E+00  0.45593999997E+02  0.45594000000E+02  0.51100000000E-03 0. -1.
         11   -1    0    0    0    0 -0.00000000000E+00 -0.00000000000E+00 -0.45593999997E+02  0.45594000000E+02  0.51100000000E-03 0.  1.
    9900012    2    1    2    0    0  0.16293135672E+02 -0.39200325753E+02  0.90272901443E+01  0.47787265254E+02  0.19999973598E+02 0.  0.
         12    1    1    2    0    0 -0.16293135672E+02  0.39200325753E+02 -0.90272901443E+01  0.43400734746E+02  0.00000000000E+00 0. -1.
         11    1    3    3    0    0  0.45724582776E+01 -0.12678287340E+02 -0.43116624051E+01  0.14150504497E+02  0.51100000000E-03 0. -1.
        -11    1    3    3    0    0  0.30308041679E+01 -0.96613233471E-01  0.88690516903E+00  0.31593842851E+01  0.51100000000E-03 0.  1.
        -12    1    3    3    0    0  0.86898732267E+01 -0.26425425180E+02  0.12452047380E+02  0.30477376471E+02  0.00000000000E+00 0.  1.
</event>
<event>
 7    1  0.1813014E-010  0.4778727E+02  0.7816164E-02  0.1312668E+00
        -11   -1    0    0    0    0  0.00000000000E+00  0.00000000000E+00  0.45593999997E+02  0.45594000000E+02  0.51100000000E-03 0.  1.
         11   -1    0    0    0    0 -0.00000000000E+00 -0.00000000000E+00 -0.45593999997E+02  0.45594000000E+02  0.51100000000E-03 0. -1.
    9900012    2    1    2    0    0  0.39306967240E+02 -0.23863359434E+01  0.18245300872E+02  0.47787271011E+02  0.19999999847E+02 0.  0.
         12    1    1    2    0    0 -0.39306967240E+02  0.23863359434E+01 -0.18245300872E+02  0.43400728989E+02  0.00000000000E+00 0. -1.
         11    1    3    3    0    0  0.22889028197E+02  0.49820531317E+01  0.65840372410E+01  0.24332653202E+02  0.51100000000E-03 0.  1.
        -11    1    3    3    0    0  0.57748642334E+01 -0.55547566179E+01  0.65889879394E+00  0.80398088211E+01  0.51100000000E-03 0. -1.
        -12    1    3    3    0    0  0.10643074810E+02 -0.18136324572E+01  0.11002364837E+02  0.15414808987E+02  0.00000000000E+00 0.  1.
</event>
<event>
 7    1  0.1813014E-010  0.4778727E+02  0.7816164E-02  0.1312668E+00
        -11   -1    0    0    0    0  0.00000000000E+00  0.00000000000E+00  0.45593999997E+02  0.45594000000E+02  0.51100000000E-03 0.  1.
         11   -1    0    0    0    0 -0.00000000000E+00 -0.00000000000E+00 -0.45593999997E+02  0.45594000000E+02  0.51100000000E-03 0. -1.
    9900012    2    1    2    0    0 -0.91458475674E+01 -0.36390869826E+02  0.21810125601E+02  0.47787268288E+02  0.19999987431E+02 0.  0.
         12    1    1    2    0    0  0.91458475674E+01  0.36390869826E+02 -0.21810125601E+02  0.43400731712E+02  0.00000000000E+00 0. -1.
         11    1    3    3    0    0  0.34611331232E+01 -0.43726258813E+01  0.31596740009E+01  0.64095896629E+01  0.51100000000E-03 0. -1.
        -11    1    3    3    0    0 -0.10466249253E+02 -0.29913529080E+02  0.20599705007E+02  0.37798273004E+02  0.51100000000E-03 0.  1.
         12    1    3    3    0    0 -0.21407314379E+01 -0.21047148654E+01 -0.19492534074E+01  0.35794056211E+01  0.00000000000E+00 0. -1.
</event>
<event>
 7    1  0.1813014E-010  0.4778727E+02  0.7816164E-02  0.1312668E+00
        -11   -1    0    0    0    0  0.00000000000E+00  0.00000000000E+00  0.45593999997E+02  0.45594000000E+02  0.51100000000E-03 0. -1.
         11   -1    0    0    0    0 -0.00000000000E+00 -0.00000000000E+00 -0.45593999997E+02  0.45594000000E+02  0.51100000000E-03 0.  1.
    9900012    2    1    2    0    0 -0.73418129859E+01 -0.34213946808E+02 -0.25673467772E+02  0.47787270495E+02  0.19999997497E+02 0.  0.
         12    1    1    2    0    0  0.73418129859E+01  0.34213946808E+02  0.25673467772E+02  0.43400729505E+02  0.00000000000E+00 0. -1.
         11    1    3    3    0    0 -0.85612373981E+01 -0.55406172748E+01 -0.89285841504E+01  0.13554071003E+02  0.51100000000E-03 0. -1.
        -11    1    3    3    0    0  0.31351902653E+00 -0.72312957517E+01 -0.86916136130E+01  0.11310794839E+02  0.51100000000E-03 0.  1.
         12    1    3    3    0    0  0.90590538567E+00 -0.21442033781E+02 -0.80532700087E+01  0.22922404653E+02  0.00000000000E+00 0. -1.
</event>
<event>
 7    1  0.1813014E-010  0.4778727E+02  0.7816164E-02  0.1312668E+00
        -11   -1    0    0    0    0  0.00000000000E+00  0.00000000000E+00  0.45593999997E+02  0.45594000000E+02  0.51100000000E-03 0. -1.
         11   -1    0    0    0    0 -0.00000000000E+00 -0.00000000000E+00 -0.45593999997E+02  0.45594000000E+02  0.51100000000E-03 0.  1.
    9900012    2    1    2    0    0  0.23227742753E+02  0.51479475191E+01 -0.36298680952E+02  0.47787266874E+02  0.19999980985E+02 0.  0.
         12    1    1    2    0    0 -0.23227742753E+02 -0.51479475191E+01  0.36298680952E+02  0.43400733126E+02  0.00000000000E+00 0. -1.
         11    1    3    3    0    0  0.80938490726E+00  0.36516825043E+01 -0.58532594102E+01  0.69462605065E+01  0.51100000000E-03 0. -1.
        -11    1    3    3    0    0  0.96892802617E+01 -0.91507744169E+00 -0.25148954711E+01  0.10052075318E+02  0.51100000000E-03 0.  1.
        -12    1    3    3    0    0  0.12729077584E+02  0.24113424565E+01 -0.27930526070E+02  0.30788931049E+02  0.00000000000E+00 0.  1.
</event>
<event>
 7    1  0.1813014E-010  0.4778727E+02  0.7816164E-02  0.1312668E+00
        -11   -1    0    0    0    0  0.00000000000E+00  0.00000000000E+00  0.45593999997E+02  0.45594000000E+02  0.51100000000E-03 0. -1.
         11   -1    0    0    0    0 -0.00000000000E+00 -0.00000000000E+00 -0.45593999997E+02  0.45594000000E+02  0.51100000000E-03 0.  1.
    9900012    2    1    2    0    0  0.19039224736E+02  0.51288130724E+00 -0.38998311794E+02  0.47787269032E+02  0.19999990826E+02 0.  0.
         12    1    1    2    0    0 -0.19039224736E+02 -0.51288130724E+00  0.38998311794E+02  0.43400730968E+02  0.00000000000E+00 0. -1.
         11    1    3    3    0    0 -0.13246642309E+01  0.10804759673E+01 -0.13109543173E+01  0.21542435154E+01  0.51100000000E-03 0. -1.
        -11    1    3    3    0    0  0.18692329423E+02  0.31251933937E+01 -0.20267693790E+02  0.27747962535E+02  0.51100000000E-03 0.  1.
        -12    1    3    3    0    0  0.16715595433E+01 -0.36927880539E+01 -0.17419663687E+02  0.17885062982E+02  0.00000000000E+00 0.  1.
</event>
<event>
 7    1  0.1813014E-010  0.4778727E+02  0.7816164E-02  0.1312668E+00
        -11   -1    0    0    0    0  0.00000000000E+00  0.00000000000E+00  0.45593999997E+02  0.45594000000E+02  0.51100000000E-03 0.  1.
         11   -1    0    0    0    0 -0.00000000000E+00 -0.00000000000E+00 -0.45593999997E+02  0.45594000000E+02  0.51100000000E-03 0. -1.
    9900012    2    1    2    0    0 -0.29443885729E+01  0.39091582106E+02  0.18622629785E+02  0.47787267797E+02  0.19999985194E+02 0.  0.
         12    1    1    2    0    0  0.29443885729E+01 -0.39091582106E+02 -0.18622629785E+02  0.43400732203E+02  0.00000000000E+00 0. -1.
         11    1    3    3    0    0 -0.42948967691E+00  0.40019582946E+01  0.27935463717E+01  0.48993911016E+01  0.51100000000E-03 0.  1.
        -11    1    3    3    0    0  0.50428180003E+01  0.14412591134E+02 -0.81221443722E+00  0.15290928328E+02  0.51100000000E-03 0. -1.
         12    1    3    3    0    0 -0.75577168962E+01  0.20677032677E+02  0.16641297851E+02  0.27596948367E+02  0.00000000000E+00 0. -1.
</event>
<event>
 7    1  0.1813014E-010  0.4778728E+02  0.7816164E-02  0.1312668E+00
        -11   -1    0    0    0    0  0.00000000000E+00  0.00000000000E+00  0.45593999997E+02  0.45594000000E+02  0.51100000000E-03 0.  1.
         11   -1    0    0    0    0 -0.00000000000E+00 -0.00000000000E+00 -0.45593999997E+02  0.45594000000E+02  0.51100000000E-03 0. -1.
    9900012    2    1    2    0    0  0.88039586598E+01 -0.40412994355E+01  0.42305804996E+02  0.47787275057E+02  0.20000018295E+02 0.  0.
         12    1    1    2    0    0 -0.88039586598E+01  0.40412994355E+01 -0.42305804996E+02  0.43400724943E+02  0.00000000000E+00 0. -1.
         11    1    3    3    0    0 -0.15904400010E+01  0.24743997941E+00  0.13903248202E+02  0.13996107915E+02  0.51100000000E-03 0. -1.
        -11    1    3    3    0    0  0.24396395469E+01 -0.31238831073E+01  0.24564850800E+02  0.24882571850E+02  0.51100000000E-03 0.  1.
         12    1    3    3    0    0  0.79547591139E+01 -0.11648563076E+01  0.38377059937E+01  0.89085952917E+01  0.00000000000E+00 0. -1.
</event>
<event>
 7    1  0.1813014E-010  0.4778727E+02  0.7816164E-02  0.1312668E+00
        -11   -1    0    0    0    0  0.00000000000E+00  0.00000000000E+00  0.45593999997E+02  0.45594000000E+02  0.51100000000E-03 0.  1.
         11   -1    0    0    0    0 -0.00000000000E+00 -0.00000000000E+00 -0.45593999997E+02  0.45594000000E+02  0.51100000000E-03 0. -1.
    9900012    2    1    2    0    0  0.27857723346E+02 -0.20435071134E+02  0.26267443036E+02  0.47787269062E+02  0.19999990961E+02 0.  0.
         12    1    1    2    0    0 -0.27857723346E+02  0.20435071134E+02 -0.26267443036E+02  0.43400730938E+02  0.00000000000E+00 0. -1.
         11    1    3    3    0    0  0.89149519756E+00 -0.23269654798E+01 -0.30863580983E+01  0.39667541647E+01  0.51100000000E-03 0. -1.
        -11    1    3    3    0    0  0.10322389998E+02 -0.79018968875E+01  0.11142556047E+02  0.17121573094E+02  0.51100000000E-03 0.  1.
         12    1    3    3    0    0  0.16643838150E+02 -0.10206208767E+02  0.18211245087E+02  0.26698941803E+02  0.00000000000E+00 0. -1.
</event>
<event>
 7    1  0.1813014E-010  0.4778727E+02  0.7816164E-02  0.1312668E+00
        -11   -1    0    0    0    0  0.00000000000E+00  0.00000000000E+00  0.45593999997E+02  0.45594000000E+02  0.51100000000E-03 0.  1.
         11   -1    0    0    0    0 -0.00000000000E+00 -0.00000000000E+00 -0.45593999997E+02  0.45594000000E+02  0.51100000000E-03 0. -1.
    9900012    2    1    2    0    0  0.28990408032E+02 -0.16488035069E+01  0.32256176315E+02  0.47787271650E+02  0.20000002760E+02 0.  0.
         12    1    1    2    0    0 -0.28990408032E+02  0.16488035069E+01 -0.32256176315E+02  0.43400728350E+02  0.00000000000E+00 0. -1.
         11    1    3    3    0    0  0.31421505129E+01  0.25421086823E+01  0.15291297254E+02  0.15816421794E+02  0.51100000000E-03 0. -1.
        -11    1    3    3    0    0  0.52910567119E+01 -0.22767791984E+01  0.94192162702E+00  0.58366275588E+01  0.51100000000E-03 0.  1.
         12    1    3    3    0    0  0.20557200807E+02 -0.19141329908E+01  0.16022957433E+02  0.26134222297E+02  0.00000000000E+00 0. -1.
</event>
<event>
 7    1  0.1813014E-010  0.4778727E+02  0.7816164E-02  0.1312668E+00
        -11   -1    0    0    0    0  0.00000000000E+00  0.00000000000E+00  0.45593999997E+02  0.45594000000E+02  0.51100000000E-03 0.  1.
         11   -1    0    0    0    0 -0.00000000000E+00 -0.00000000000E+00 -0.45593999997E+02  0.45594000000E+02  0.51100000000E-03 0. -1.
    9900012    2    1    2    0    0 -0.16786721714E+02  0.38245951646E+02 -0.11793077096E+02  0.47787268317E+02  0.19999987563E+02 0.  0.
         12    1    1    2    0    0  0.16786721714E+02 -0.38245951646E+02  0.11793077096E+02  0.43400731683E+02  0.00000000000E+00 0. -1.
         11    1    3    3    0    0 -0.96028407709E+01  0.13583144066E+02 -0.42442643778E+01  0.17167706135E+02  0.51100000000E-03 0. -1.
        -11    1    3    3    0    0  0.10633487817E+00  0.20146313202E+01  0.37669340932E+01  0.42731533072E+01  0.51100000000E-03 0.  1.
         12    1    3    3    0    0 -0.72902158217E+01  0.22648176261E+02 -0.11315746812E+02  0.26346408874E+02  0.00000000000E+00 0. -1.
</event>
<event>
 7    1  0.1813014E-010  0.4778727E+02  0.7816164E-02  0.1312668E+00
        -11   -1    0    0    0    0  0.00000000000E+00  0.00000000000E+00  0.45593999997E+02  0.45594000000E+02  0.51100000000E-03 0.  1.
         11   -1    0    0    0    0 -0.00000000000E+00 -0.00000000000E+00 -0.45593999997E+02  0.45594000000E+02  0.51100000000E-03 0. -1.
    9900012    2    1    2    0    0  0.75495700009E+01 -0.19427279419E+01  0.42694888637E+02  0.47787265965E+02  0.19999976840E+02 0.  0.
         12    1    1    2    0    0 -0.75495700009E+01  0.19427279419E+01 -0.42694888637E+02  0.43400734035E+02  0.00000000000E+00 0. -1.
         11    1    3    3    0    0  0.77745574157E+00  0.24597814617E+01 -0.52983990060E+00  0.26335703618E+01  0.51100000000E-03 0. -1.
        -11    1    3    3    0    0  0.28459142056E+01  0.18025130780E+01  0.39185048568E+01  0.51674908453E+01  0.51100000000E-03 0.  1.
        -12    1    3    3    0    0  0.39262000537E+01 -0.62050224816E+01  0.39306223681E+02  0.39986204758E+02  0.00000000000E+00 0.  1.
</event>
<event>
 7    1  0.1813014E-010  0.4778728E+02  0.7816164E-02  0.1312668E+00
        -11   -1    0    0    0    0  0.00000000000E+00  0.00000000000E+00  0.45593999997E+02  0.45594000000E+02  0.51100000000E-03 0.  1.
         11   -1    0    0    0    0 -0.00000000000E+00 -0.00000000000E+00 -0.45593999997E+02  0.45594000000E+02  0.51100000000E-03 0. -1.
    9900012    2    1    2    0    0 -0.34629053660E+02  0.22620957036E+02  0.13143177654E+02  0.47787283722E+02  0.20000057800E+02 0.  0.
         12    1    1    2    0    0  0.34629053660E+02 -0.22620957036E+02 -0.13143177654E+02  0.43400716278E+02  0.00000000000E+00 0. -1.
         11    1    3    3    0    0 -0.38064681741E+01  0.65078120287E+01 -0.32471546733E-01  0.75393548811E+01  0.51100000000E-03 0. -1.
        -11    1    3    3    0    0 -0.15814052663E+02  0.37426684142E+00  0.24778954577E+01  0.16011380436E+02  0.51100000000E-03 0.  1.
        -12    1    3    3    0    0 -0.15008532823E+02  0.15738878166E+02  0.10697753743E+02  0.24236548405E+02  0.00000000000E+00 0.  1.
</event>
<event>
 7    1  0.1813014E-010  0.4778727E+02  0.7816164E-02  0.1312668E+00
        -11   -1    0    0    0    0  0.00000000000E+00  0.00000000000E+00  0.45593999997E+02  0.45594000000E+02  0.51100000000E-03 0.  1.
         11   -1    0    0    0    0 -0.00000000000E+00 -0.00000000000E+00 -0.45593999997E+02  0.45594000000E+02  0.51100000000E-03 0. -1.
    9900012    2    1    2    0    0  0.27875120957E+02  0.26476680122E+02  0.20139179438E+02  0.47787268358E+02  0.19999987751E+02 0.  0.
         12    1    1    2    0    0 -0.27875120957E+02 -0.26476680122E+02 -0.20139179438E+02  0.43400731642E+02  0.00000000000E+00 0. -1.
         11    1    3    3    0    0  0.38437136376E+01  0.88567927735E+01  0.20262300895E+01  0.98652177572E+01  0.51100000000E-03 0. -1.
        -11    1    3    3    0    0  0.84729885953E+01  0.14621292113E+02  0.12837904892E+02  0.21222288309E+02  0.51100000000E-03 0.  1.
        -12    1    3    3    0    0  0.15558418724E+02  0.29985952353E+01  0.52750444562E+01  0.16699762291E+02  0.00000000000E+00 0.  1.
</event>
<event>
 7    1  0.1813014E-010  0.4778727E+02  0.7816164E-02  0.1312668E+00
        -11   -1    0    0    0    0  0.00000000000E+00  0.00000000000E+00  0.45593999997E+02  0.45594000000E+02  0.51100000000E-03 0. -1.
         11   -1    0    0    0    0 -0.00000000000E+00 -0.00000000000E+00 -0.45593999997E+02  0.45594000000E+02  0.51100000000E-03 0.  1.
    9900012    2    1    2    0    0 -0.39113838656E+02  0.62154779305E+01 -0.17751022344E+02  0.47787270345E+02  0.19999996813E+02 0.  0.
         12    1    1    2    0    0  0.39113838656E+02 -0.62154779305E+01  0.17751022344E+02  0.43400729655E+02  0.00000000000E+00 0. -1.
         11    1    3    3    0    0 -0.18864163194E+02  0.93491041039E+00 -0.39895177228E+00  0.18891529140E+02  0.51100000000E-03 0. -1.
        -11    1    3    3    0    0 -0.20479055699E+02  0.42861790834E+01 -0.13474769431E+02  0.24886391160E+02  0.51100000000E-03 0.  1.
         12    1    3    3    0    0  0.22938023729E+00  0.99438843671E+00 -0.38773011400E+01  0.40093500454E+01  0.00000000000E+00 0. -1.
</event>
<event>
 7    1  0.1813014E-010  0.4778725E+02  0.7816164E-02  0.1312668E+00
        -11   -1    0    0    0    0  0.00000000000E+00  0.00000000000E+00  0.45593999997E+02  0.45594000000E+02  0.51100000000E-03 0.  1.
         11   -1    0    0    0    0 -0.00000000000E+00 -0.00000000000E+00 -0.45593999997E+02  0.45594000000E+02  0.51100000000E-03 0. -1.
    9900012    2    1    2    0    0  0.54693766650E+01 -0.22732806073E+01  0.42994684948E+02  0.47787253237E+02  0.19999918809E+02 0.  0.
         12    1    1    2    0    0 -0.54693766650E+01  0.22732806073E+01 -0.42994684948E+02  0.43400746763E+02  0.00000000000E+00 0. -1.
         11    1    3    3    0    0  0.22010907506E+01 -0.25148550211E+01 -0.28271008065E+00  0.33539859154E+01  0.51100000000E-03 0. -1.
        -11    1    3    3    0    0 -0.43435329270E+00  0.17798007808E+01  0.12564886896E+01  0.22215124781E+01  0.51100000000E-03 0.  1.
        -12    1    3    3    0    0  0.37026392071E+01 -0.15382263669E+01  0.42020906339E+02  0.42211754844E+02  0.00000000000E+00 0.  1.
</event>
<event>
 7    1  0.1813014E-010  0.4778727E+02  0.7816164E-02  0.1312668E+00
        -11   -1    0    0    0    0  0.00000000000E+00  0.00000000000E+00  0.45593999997E+02  0.45594000000E+02  0.51100000000E-03 0.  1.
         11   -1    0    0    0    0 -0.00000000000E+00 -0.00000000000E+00 -0.45593999997E+02  0.45594000000E+02  0.51100000000E-03 0. -1.
    9900012    2    1    2    0    0 -0.40654705492E+01 -0.37972182951E+02  0.20620583879E+02  0.47787271799E+02  0.20000003438E+02 0.  0.
         12    1    1    2    0    0  0.40654705492E+01  0.37972182951E+02 -0.20620583879E+02  0.43400728201E+02  0.00000000000E+00 0. -1.
         11    1    3    3    0    0 -0.82468604926E+01 -0.16393753353E+02  0.98972338448E+01  0.20849966307E+02  0.51100000000E-03 0. -1.
        -11    1    3    3    0    0  0.18524537663E+01 -0.14917946359E+02  0.12623722150E+02  0.19629953380E+02  0.51100000000E-03 0.  1.
         12    1    3    3    0    0  0.23289361771E+01 -0.66604832402E+01 -0.19003721149E+01  0.73073521117E+01  0.00000000000E+00 0. -1.
</event>
<event>
 7    1  0.1813014E-010  0.4778727E+02  0.7816164E-02  0.1312668E+00
        -11   -1    0    0    0    0  0.00000000000E+00  0.00000000000E+00  0.45593999997E+02  0.45594000000E+02  0.51100000000E-03 0.  1.
         11   -1    0    0    0    0 -0.00000000000E+00 -0.00000000000E+00 -0.45593999997E+02  0.45594000000E+02  0.51100000000E-03 0. -1.
    9900012    2    1    2    0    0 -0.41371148526E+02 -0.11792431273E+02  0.57436627390E+01  0.47787273885E+02  0.20000012950E+02 0.  0.
         12    1    1    2    0    0  0.41371148526E+02  0.11792431273E+02 -0.57436627390E+01  0.43400726115E+02  0.00000000000E+00 0. -1.
         11    1    3    3    0    0 -0.94018431241E+01 -0.38971010868E+01  0.20261141229E-01  0.10177546943E+02  0.51100000000E-03 0. -1.
        -11    1    3    3    0    0 -0.20756942373E+02 -0.14266939663E+01 -0.42908188685E+01  0.21243757652E+02  0.51100000000E-03 0.  1.
         12    1    3    3    0    0 -0.11212363029E+02 -0.64686362195E+01  0.10014220466E+02  0.16365969289E+02  0.00000000000E+00 0. -1.
</event>
<event>
 7    1  0.1813014E-010  0.4778727E+02  0.7816164E-02  0.1312668E+00
        -11   -1    0    0    0    0  0.00000000000E+00  0.00000000000E+00  0.45593999997E+02  0.45594000000E+02  0.51100000000E-03 0. -1.
         11   -1    0    0    0    0 -0.00000000000E+00 -0.00000000000E+00 -0.45593999997E+02  0.45594000000E+02  0.51100000000E-03 0.  1.
    9900012    2    1    2    0    0 -0.18594312316E+02 -0.39109842116E+02  0.28801306226E+01  0.47787270130E+02  0.19999995832E+02 0.  0.
         12    1    1    2    0    0  0.18594312316E+02  0.39109842116E+02 -0.28801306226E+01  0.43400729870E+02  0.00000000000E+00 0. -1.
         11    1    3    3    0    0  0.27641213107E+00 -0.17477711342E+02  0.38291994288E+01  0.17894400408E+02  0.51100000000E-03 0. -1.
        -11    1    3    3    0    0 -0.13366447085E+02 -0.19756167164E+02 -0.21677951207E+01  0.23951354547E+02  0.51100000000E-03 0.  1.
         12    1    3    3    0    0 -0.55042773626E+01 -0.18759636090E+01  0.12187263144E+01  0.59415151751E+01  0.00000000000E+00 0. -1.
</event>
<event>
 7    1  0.1813014E-010  0.4778727E+02  0.7816164E-02  0.1312668E+00
        -11   -1    0    0    0    0  0.00000000000E+00  0.00000000000E+00  0.45593999997E+02  0.45594000000E+02  0.51100000000E-03 0.  1.
         11   -1    0    0    0    0 -0.00000000000E+00 -0.00000000000E+00 -0.45593999997E+02  0.45594000000E+02  0.51100000000E-03 0. -1.
    9900012    2    1    2    0    0  0.96714933912E+01  0.38430997709E+02  0.17695875586E+02  0.47787269798E+02  0.19999994315E+02 0.  0.
         12    1    1    2    0    0 -0.96714933912E+01 -0.38430997709E+02 -0.17695875586E+02  0.43400730202E+02  0.00000000000E+00 0. -1.
         11    1    3    3    0    0  0.44874799778E+01  0.13511197428E+02  0.15003899881E+02  0.20683494492E+02  0.51100000000E-03 0. -1.
        -11    1    3    3    0    0 -0.53136268080E+00  0.40930082863E+01 -0.25870994815E+01  0.48711545981E+01  0.51100000000E-03 0.  1.
        -12    1    3    3    0    0  0.57153760941E+01  0.20826791995E+02  0.52790751863E+01  0.22232620708E+02  0.00000000000E+00 0.  1.
</event>
<event>
 7    1  0.1813014E-010  0.4778727E+02  0.7816164E-02  0.1312668E+00
        -11   -1    0    0    0    0  0.00000000000E+00  0.00000000000E+00  0.45593999997E+02  0.45594000000E+02  0.51100000000E-03 0.  1.
         11   -1    0    0    0    0 -0.00000000000E+00 -0.00000000000E+00 -0.45593999997E+02  0.45594000000E+02  0.51100000000E-03 0. -1.
    9900012    2    1    2    0    0 -0.14597601752E+02  0.61257406366E+00  0.40867568601E+02  0.47787269738E+02  0.19999994044E+02 0.  0.
         12    1    1    2    0    0  0.14597601752E+02 -0.61257406366E+00 -0.40867568601E+02  0.43400730262E+02  0.00000000000E+00 0. -1.
         11    1    3    3    0    0 -0.70957796814E+01 -0.31647304096E+01  0.93779256621E+01  0.12178304391E+02  0.51100000000E-03 0. -1.
        -11    1    3    3    0    0  0.17222978289E+01  0.41821892319E+01  0.24647636972E+01  0.51509297148E+01  0.51100000000E-03 0.  1.
         12    1    3    3    0    0 -0.92241198999E+01 -0.40488475863E+00  0.29024879242E+02  0.30458035632E+02  0.00000000000E+00 0. -1.
</event>
<event>
 7    1  0.2091871E-010  0.4778728E+02  0.7816164E-02  0.1312668E+00
        -11   -1    0    0    0    0  0.00000000000E+00  0.00000000000E+00  0.45593999997E+02  0.45594000000E+02  0.51100000000E-03 0. -1.
         11   -1    0    0    0    0 -0.00000000000E+00 -0.00000000000E+00 -0.45593999997E+02  0.45594000000E+02  0.51100000000E-03 0.  1.
    9900012    2    1    2    0    0  0.17534889693E+02  0.36945311493E+02 -0.14532519908E+02  0.47787279582E+02  0.20000038928E+02 0.  0.
         12    1    1    2    0    0 -0.17534889693E+02 -0.36945311493E+02  0.14532519908E+02  0.43400720418E+02  0.00000000000E+00 0. -1.
         11    1    3    3    0    0  0.57447006713E+01  0.13508263956E+02  0.24836275526E+01  0.14887685750E+02  0.51100000000E-03 0. -1.
        -11    1    3    3    0    0  0.12060618922E+02  0.22010704038E+02 -0.12271428360E+02  0.27937744635E+02  0.51100000000E-03 0.  1.
         12    1    3    3    0    0 -0.27042990005E+00  0.14263434988E+01 -0.47447191014E+01  0.49618491975E+01  0.00000000000E+00 0. -1.
</event>
<event>
 7    1  0.1813014E-010  0.4778726E+02  0.7816164E-02  0.1312668E+00
        -11   -1    0    0    0    0  0.00000000000E+00  0.00000000000E+00  0.45593999997E+02  0.45594000000E+02  0.51100000000E-03 0.  1.
         11   -1    0    0    0    0 -0.00000000000E+00 -0.00000000000E+00 -0.45593999997E+02  0.45594000000E+02  0.51100000000E-03 0. -1.
    9900012    2    1    2    0    0 -0.25785227408E+02  0.86947631150E+01  0.33810456937E+02  0.47787264334E+02  0.19999969403E+02 0.  0.
         12    1    1    2    0    0  0.25785227408E+02 -0.86947631150E+01 -0.33810456937E+02  0.43400735666E+02  0.00000000000E+00 0. -1.
         11    1    3    3    0    0 -0.68641343117E+01  0.97355278979E+00  0.20118089831E+01  0.72188309669E+01  0.51100000000E-03 0. -1.
        -11    1    3    3    0    0 -0.11779550570E+02 -0.10984094255E+01  0.24123219444E+02  0.26868085743E+02  0.51100000000E-03 0.  1.
        -12    1    3    3    0    0 -0.71415425257E+01  0.88196197507E+01  0.76754285104E+01  0.13700347624E+02  0.00000000000E+00 0.  1.
</event>
<event>
 7    1  0.1813014E-010  0.4778727E+02  0.7816164E-02  0.1312668E+00
        -11   -1    0    0    0    0  0.00000000000E+00  0.00000000000E+00  0.45593999997E+02  0.45594000000E+02  0.51100000000E-03 0.  1.
         11   -1    0    0    0    0 -0.00000000000E+00 -0.00000000000E+00 -0.45593999997E+02  0.45594000000E+02  0.51100000000E-03 0. -1.
    9900012    2    1    2    0    0 -0.37325083298E+01  0.42711679331E+02  0.67382491061E+01  0.47787272232E+02  0.20000005417E+02 0.  0.
         12    1    1    2    0    0  0.37325083298E+01 -0.42711679331E+02 -0.67382491061E+01  0.43400727768E+02  0.00000000000E+00 0. -1.
         11    1    3    3    0    0 -0.57835357269E+00  0.56133301410E+01 -0.22192757611E+01  0.60637573576E+01  0.51100000000E-03 0. -1.
        -11    1    3    3    0    0  0.25141747178E+01  0.14618387770E+02  0.10975751440E+02  0.18452247978E+02  0.51100000000E-03 0.  1.
        -12    1    3    3    0    0 -0.56683294749E+01  0.22479961420E+02 -0.20182265727E+01  0.23271266897E+02  0.00000000000E+00 0.  1.
</event>
<event>
 7    1  0.1813014E-010  0.4778727E+02  0.7816164E-02  0.1312668E+00
        -11   -1    0    0    0    0  0.00000000000E+00  0.00000000000E+00  0.45593999997E+02  0.45594000000E+02  0.51100000000E-03 0. -1.
         11   -1    0    0    0    0 -0.00000000000E+00 -0.00000000000E+00 -0.45593999997E+02  0.45594000000E+02  0.51100000000E-03 0.  1.
    9900012    2    1    2    0    0 -0.13589967168E+02 -0.34002480903E+02 -0.23297362049E+02  0.47787274274E+02  0.20000014723E+02 0.  0.
         12    1    1    2    0    0  0.13589967168E+02  0.34002480903E+02  0.23297362049E+02  0.43400725726E+02  0.00000000000E+00 0. -1.
         11    1    3    3    0    0 -0.39236353615E+01 -0.19599636197E+02 -0.19539625843E+01  0.20083790069E+02  0.51100000000E-03 0. -1.
        -11    1    3    3    0    0 -0.38636512260E+01 -0.87257199834E+01 -0.11378138181E+02  0.14850185816E+02  0.51100000000E-03 0.  1.
         12    1    3    3    0    0 -0.58026805805E+01 -0.56771247226E+01 -0.99652612832E+01  0.12853298389E+02  0.00000000000E+00 0. -1.
</event>
<event>
 7    1  0.1813014E-010  0.4778727E+02  0.7816164E-02  0.1312668E+00
        -11   -1    0    0    0    0  0.00000000000E+00  0.00000000000E+00  0.45593999997E+02  0.45594000000E+02  0.51100000000E-03 0.  1.
         11   -1    0    0    0    0 -0.00000000000E+00 -0.00000000000E+00 -0.45593999997E+02  0.45594000000E+02  0.51100000000E-03 0. -1.
    9900012    2    1    2    0    0  0.21288631073E+02 -0.61482436437E+01  0.37317774799E+02  0.47787273868E+02  0.20000012874E+02 0.  0.
         12    1    1    2    0    0 -0.21288631073E+02  0.61482436437E+01 -0.37317774799E+02  0.43400726132E+02  0.00000000000E+00 0. -1.
         11    1    3    3    0    0  0.53990379283E+01  0.25117160309E+01  0.17938853112E+02  0.18901343317E+02  0.51100000000E-03 0. -1.
        -11    1    3    3    0    0  0.61269125733E+00 -0.16667147020E+01 -0.13299640359E+01  0.22185880809E+01  0.51100000000E-03 0.  1.
        -12    1    3    3    0    0  0.15276901887E+02 -0.69932449726E+01  0.20708885723E+02  0.26667342470E+02  0.00000000000E+00 0.  1.
</event>
<event>
 7    1  0.1813014E-010  0.4778727E+02  0.7816164E-02  0.1312668E+00
        -11   -1    0    0    0    0  0.00000000000E+00  0.00000000000E+00  0.45593999997E+02  0.45594000000E+02  0.51100000000E-03 0.  1.
         11   -1    0    0    0    0 -0.00000000000E+00 -0.00000000000E+00 -0.45593999997E+02  0.45594000000E+02  0.51100000000E-03 0. -1.
    9900012    2    1    2    0    0 -0.37749790532E+02  0.14762518161E+02  0.15512735593E+02  0.47787267365E+02  0.19999983225E+02 0.  0.
         12    1    1    2    0    0  0.37749790532E+02 -0.14762518161E+02 -0.15512735593E+02  0.43400732635E+02  0.00000000000E+00 0. -1.
         11    1    3    3    0    0 -0.54708386294E+01 -0.14662097188E+01 -0.21717358992E+01  0.60659940097E+01  0.51100000000E-03 0. -1.
        -11    1    3    3    0    0 -0.26178449036E+02  0.10604666113E+02  0.88443644377E+01  0.29597177566E+02  0.51100000000E-03 0.  1.
        -12    1    3    3    0    0 -0.61005028661E+01  0.56240617669E+01  0.88401070544E+01  0.12124095789E+02  0.00000000000E+00 0.  1.
</event>
<event>
 7    1  0.1813014E-010  0.4778727E+02  0.7816164E-02  0.1312668E+00
        -11   -1    0    0    0    0  0.00000000000E+00  0.00000000000E+00  0.45593999997E+02  0.45594000000E+02  0.51100000000E-03 0. -1.
         11   -1    0    0    0    0 -0.00000000000E+00 -0.00000000000E+00 -0.45593999997E+02  0.45594000000E+02  0.51100000000E-03 0.  1.
    9900012    2    1    2    0    0 -0.10864021450E+02 -0.17839785875E+01 -0.41981113948E+02  0.47787268785E+02  0.19999989701E+02 0.  0.
         12    1    1    2    0    0  0.10864021450E+02  0.17839785875E+01  0.41981113948E+02  0.43400731215E+02  0.00000000000E+00 0. -1.
         11    1    3    3    0    0 -0.20820654842E+01  0.15847637857E+01  0.54696510928E+00  0.26731337470E+01  0.51100000000E-03 0. -1.
        -11    1    3    3    0    0 -0.25038677592E+01  0.42056551183E+01 -0.10046390972E+02  0.11175278992E+02  0.51100000000E-03 0.  1.
        -12    1    3    3    0    0 -0.62780882070E+01 -0.75743974914E+01 -0.32481688085E+02  0.33938856047E+02  0.00000000000E+00 0.  1.
</event>
<event>
 7    1  0.1813014E-010  0.4778727E+02  0.7816164E-02  0.1312668E+00
        -11   -1    0    0    0    0  0.00000000000E+00  0.00000000000E+00  0.45593999997E+02  0.45594000000E+02  0.51100000000E-03 0.  1.
         11   -1    0    0    0    0 -0.00000000000E+00 -0.00000000000E+00 -0.45593999997E+02  0.45594000000E+02  0.51100000000E-03 0. -1.
    9900012    2    1    2    0    0  0.26005801156E+02  0.13550298278E+02  0.31995481687E+02  0.47787272753E+02  0.20000007791E+02 0.  0.
         12    1    1    2    0    0 -0.26005801156E+02 -0.13550298278E+02 -0.31995481687E+02  0.43400727247E+02  0.00000000000E+00 0. -1.
         11    1    3    3    0    0  0.49169966496E+01  0.71968697422E+01  0.10716962659E+02  0.13813945093E+02  0.51100000000E-03 0.  1.
        -11    1    3    3    0    0  0.15339240463E+02  0.48356752390E+01  0.53160461376E+01  0.16939197142E+02  0.51100000000E-03 0. -1.
         12    1    3    3    0    0  0.57495640435E+01  0.15177532967E+01  0.15962472890E+02  0.17034130519E+02  0.00000000000E+00 0. -1.
</event>
<event>
 7    1  0.1813014E-010  0.4778727E+02  0.7816164E-02  0.1312668E+00
        -11   -1    0    0    0    0  0.00000000000E+00  0.00000000000E+00  0.45593999997E+02  0.45594000000E+02  0.51100000000E-03 0.  1.
         11   -1    0    0    0    0 -0.00000000000E+00 -0.00000000000E+00 -0.45593999997E+02  0.45594000000E+02  0.51100000000E-03 0. -1.
    9900012    2    1    2    0    0 -0.30960804138E+02 -0.29718060778E+02  0.64721502010E+01  0.47787271233E+02  0.20000000861E+02 0.  0.
         12    1    1    2    0    0  0.30960804138E+02  0.29718060778E+02 -0.64721502010E+01  0.43400728767E+02  0.00000000000E+00 0. -1.
         11    1    3    3    0    0 -0.35445455192E+01 -0.57161561652E+01  0.73416012310E+01  0.99567742336E+01  0.51100000000E-03 0. -1.
        -11    1    3    3    0    0 -0.67593461042E+01 -0.52654335825E+01 -0.45482068727E+01  0.97005018729E+01  0.51100000000E-03 0.  1.
        -12    1    3    3    0    0 -0.20656912514E+02 -0.18736471030E+02  0.36787558427E+01  0.28129995127E+02  0.00000000000E+00 0.  1.
</event>
<event>
 7    1  0.1813014E-010  0.4778729E+02  0.7816164E-02  0.1312668E+00
        -11   -1    0    0    0    0  0.00000000000E+00  0.00000000000E+00  0.45593999997E+02  0.45594000000E+02  0.51100000000E-03 0.  1.
         11   -1    0    0    0    0 -0.00000000000E+00 -0.00000000000E+00 -0.45593999997E+02  0.45594000000E+02  0.51100000000E-03 0. -1.
    9900012    2    1    2    0    0  0.17816688495E+02  0.31115215182E+01  0.39452578696E+02  0.47787286632E+02  0.20000071071E+02 0.  0.
         12    1    1    2    0    0 -0.17816688495E+02 -0.31115215182E+01 -0.39452578696E+02  0.43400713368E+02  0.00000000000E+00 0. -1.
         11    1    3    3    0    0  0.14050692594E+02 -0.29236947540E+01  0.13160540968E+02  0.19472282666E+02  0.51100000000E-03 0. -1.
        -11    1    3    3    0    0  0.93043700476E+00 -0.18373074182E+01  0.67414126755E+01  0.70489755774E+01  0.51100000000E-03 0.  1.
        -12    1    3    3    0    0  0.28355588958E+01  0.78725236904E+01  0.19550625052E+02  0.21266028389E+02  0.00000000000E+00 0.  1.
</event>
<event>
 7    1  0.1813014E-010  0.4778726E+02  0.7816164E-02  0.1312668E+00
        -11   -1    0    0    0    0  0.00000000000E+00  0.00000000000E+00  0.45593999997E+02  0.45594000000E+02  0.51100000000E-03 0. -1.
         11   -1    0    0    0    0 -0.00000000000E+00 -0.00000000000E+00 -0.45593999997E+02  0.45594000000E+02  0.51100000000E-03 0.  1.
    9900012    2    1    2    0    0 -0.24882092514E+02  0.27516493729E+02 -0.22524385541E+02  0.47787263842E+02  0.19999967161E+02 0.  0.
         12    1    1    2    0    0  0.24882092514E+02 -0.27516493729E+02  0.22524385541E+02  0.43400736158E+02  0.00000000000E+00 0. -1.
         11    1    3    3    0    0 -0.80181832019E+01  0.12119778136E+02 -0.13116641914E+02  0.19576173766E+02  0.51100000000E-03 0. -1.
        -11    1    3    3    0    0 -0.66323011546E+01  0.13651191523E+02 -0.16777834891E+01  0.15269492667E+02  0.51100000000E-03 0.  1.
        -12    1    3    3    0    0 -0.10231608158E+02  0.17455240700E+01 -0.77299601375E+01  0.12941597409E+02  0.00000000000E+00 0.  1.
</event>
<event>
 7    1  0.1813014E-010  0.4778726E+02  0.7816164E-02  0.1312668E+00
        -11   -1    0    0    0    0  0.00000000000E+00  0.00000000000E+00  0.45593999997E+02  0.45594000000E+02  0.51100000000E-03 0. -1.
         11   -1    0    0    0    0 -0.00000000000E+00 -0.00000000000E+00 -0.45593999997E+02  0.45594000000E+02  0.51100000000E-03 0.  1.
    9900012    2    1    2    0    0 -0.16688749459E+02  0.19609910782E+02 -0.34936530227E+02  0.47787261485E+02  0.19999956413E+02 0.  0.
         12    1    1    2    0    0  0.16688749459E+02 -0.19609910782E+02  0.34936530227E+02  0.43400738515E+02  0.00000000000E+00 0. -1.
         11    1    3    3    0    0 -0.82552632284E+01  0.10941574979E+02 -0.47305993467E+01  0.14499862221E+02  0.51100000000E-03 0. -1.
        -11    1    3    3    0    0  0.19854396103E-01  0.64904115938E+00 -0.95470441560E+01  0.95691013686E+01  0.51100000000E-03 0.  1.
        -12    1    3    3    0    0 -0.84533406271E+01  0.80192946428E+01 -0.20658886724E+02  0.23718297895E+02  0.00000000000E+00 0.  1.
</event>
<event>
 7    1  0.1813014E-010  0.4778727E+02  0.7816164E-02  0.1312668E+00
        -11   -1    0    0    0    0  0.00000000000E+00  0.00000000000E+00  0.45593999997E+02  0.45594000000E+02  0.51100000000E-03 0.  1.
         11   -1    0    0    0    0 -0.00000000000E+00 -0.00000000000E+00 -0.45593999997E+02  0.45594000000E+02  0.51100000000E-03 0. -1.
    9900012    2    1    2    0    0  0.13186999190E+01  0.43245641239E+02  0.34204073688E+01  0.47787266801E+02  0.19999980654E+02 0.  0.
         12    1    1    2    0    0 -0.13186999190E+01 -0.43245641239E+02 -0.34204073688E+01  0.43400733199E+02  0.00000000000E+00 0. -1.
         11    1    3    3    0    0  0.27210720129E+01  0.14114309431E+01  0.22458697316E+01  0.38000396470E+01  0.51100000000E-03 0. -1.
        -11    1    3    3    0    0  0.43796386498E+01  0.69743583854E+01 -0.21021217318E+01  0.84995191409E+01  0.51100000000E-03 0.  1.
        -12    1    3    3    0    0 -0.57820107436E+01  0.34859851910E+02  0.32766593690E+01  0.35487708013E+02  0.00000000000E+00 0.  1.
</event>
<event>
 7    1  0.1813014E-010  0.4778727E+02  0.7816164E-02  0.1312668E+00
        -11   -1    0    0    0    0  0.00000000000E+00  0.00000000000E+00  0.45593999997E+02  0.45594000000E+02  0.51100000000E-03 0.  1.
         11   -1    0    0    0    0 -0.00000000000E+00 -0.00000000000E+00 -0.45593999997E+02  0.45594000000E+02  0.51100000000E-03 0. -1.
    9900012    2    1    2    0    0  0.33415184300E+02 -0.91188824818E+01  0.26151381211E+02  0.47787270758E+02  0.19999998695E+02 0.  0.
         12    1    1    2    0    0 -0.33415184300E+02  0.91188824818E+01 -0.26151381211E+02  0.43400729242E+02  0.00000000000E+00 0. -1.
         11    1    3    3    0    0  0.28250734597E+01  0.20594506708E+01 -0.21422695266E+01  0.41002068367E+01  0.51100000000E-03 0. -1.
        -11    1    3    3    0    0  0.11193375441E+02 -0.67454841822E+01  0.83089785991E+01  0.15486521114E+02  0.51100000000E-03 0.  1.
         12    1    3    3    0    0  0.19396735399E+02 -0.44328489704E+01  0.19984672138E+02  0.28200542807E+02  0.00000000000E+00 0. -1.
</event>
<event>
 7    1  0.1813014E-010  0.4778727E+02  0.7816164E-02  0.1312668E+00
        -11   -1    0    0    0    0  0.00000000000E+00  0.00000000000E+00  0.45593999997E+02  0.45594000000E+02  0.51100000000E-03 0.  1.
         11   -1    0    0    0    0 -0.00000000000E+00 -0.00000000000E+00 -0.45593999997E+02  0.45594000000E+02  0.51100000000E-03 0. -1.
    9900012    2    1    2    0    0  0.19441732435E+02 -0.76472767867E+01  0.38041577447E+02  0.47787269396E+02  0.19999992482E+02 0.  0.
         12    1    1    2    0    0 -0.19441732435E+02  0.76472767867E+01 -0.38041577447E+02  0.43400730604E+02  0.00000000000E+00 0. -1.
         11    1    3    3    0    0  0.60189653185E+01 -0.37730669293E+01  0.13015853622E+01  0.72220566513E+01  0.51100000000E-03 0. -1.
        -11    1    3    3    0    0 -0.72464756791E+00  0.99724238582E+00  0.86619603411E+01  0.87492378917E+01  0.51100000000E-03 0.  1.
        -12    1    3    3    0    0  0.14147414684E+02 -0.48714522433E+01  0.28078031744E+02  0.31815974853E+02  0.00000000000E+00 0.  1.
</event>
<event>
 7    1  0.1813014E-010  0.4778727E+02  0.7816164E-02  0.1312668E+00
        -11   -1    0    0    0    0  0.00000000000E+00  0.00000000000E+00  0.45593999997E+02  0.45594000000E+02  0.51100000000E-03 0.  1.
         11   -1    0    0    0    0 -0.00000000000E+00 -0.00000000000E+00 -0.45593999997E+02  0.45594000000E+02  0.51100000000E-03 0. -1.
    9900012    2    1    2    0    0  0.22665041356E+02  0.32788949152E+02  0.17169862597E+02  0.47787268811E+02  0.19999989816E+02 0.  0.
         12    1    1    2    0    0 -0.22665041356E+02 -0.32788949152E+02 -0.17169862597E+02  0.43400731189E+02  0.00000000000E+00 0. -1.
         11    1    3    3    0    0  0.23500586114E+02  0.29058060270E+02  0.19421467260E+02  0.42117001378E+02  0.51100000000E-03 0. -1.
        -11    1    3    3    0    0  0.84259339722E+00  0.29002824280E+01 -0.41700126514E+00  0.30488509493E+01  0.51100000000E-03 0.  1.
         12    1    3    3    0    0 -0.16781381554E+01  0.83060645447E+00 -0.18346033976E+01  0.26214164830E+01  0.00000000000E+00 0. -1.
</event>
<event>
 7    1  0.2261348E-010  0.4778727E+02  0.7816164E-02  0.1312668E+00
        -11   -1    0    0    0    0  0.00000000000E+00  0.00000000000E+00  0.45593999997E+02  0.45594000000E+02  0.51100000000E-03 0. -1.
         11   -1    0    0    0    0 -0.00000000000E+00 -0.00000000000E+00 -0.45593999997E+02  0.45594000000E+02  0.51100000000E-03 0.  1.
    9900012    2    1    2    0    0 -0.43026241093E+02 -0.37282186996E+01 -0.42972565950E+01  0.47787268998E+02  0.19999990669E+02 0.  0.
         12    1    1    2    0    0  0.43026241093E+02  0.37282186996E+01  0.42972565950E+01  0.43400731002E+02  0.00000000000E+00 0. -1.
         11    1    3    3    0    0 -0.12170501108E+02 -0.62605516340E+01  0.21072736176E+01  0.13847606520E+02  0.51100000000E-03 0. -1.
        -11    1    3    3    0    0 -0.27724763336E+02  0.31933184625E+01 -0.13291252503E+01  0.27939691463E+02  0.51100000000E-03 0.  1.
         12    1    3    3    0    0 -0.31309766485E+01 -0.66098552803E+00 -0.50754049623E+01  0.59999710143E+01  0.00000000000E+00 0. -1.
</event>
<event>
 7    1  0.1813014E-010  0.4778727E+02  0.7816164E-02  0.1312668E+00
        -11   -1    0    0    0    0  0.00000000000E+00  0.00000000000E+00  0.45593999997E+02  0.45594000000E+02  0.51100000000E-03 0.  1.
         11   -1    0    0    0    0 -0.00000000000E+00 -0.00000000000E+00 -0.45593999997E+02  0.45594000000E+02  0.51100000000E-03 0. -1.
    9900012    2    1    2    0    0 -0.30497705494E+02 -0.20880873064E+02  0.22748680592E+02  0.47787269949E+02  0.19999995005E+02 0.  0.
         12    1    1    2    0    0  0.30497705494E+02  0.20880873064E+02 -0.22748680592E+02  0.43400730051E+02  0.00000000000E+00 0. -1.
         11    1    3    3    0    0 -0.16211644501E+01 -0.68887761464E+00 -0.15725497773E+01  0.23612792307E+01  0.51100000000E-03 0. -1.
        -11    1    3    3    0    0 -0.18154222898E+02 -0.12028184097E+02  0.23327699632E+02  0.31912922024E+02  0.51100000000E-03 0.  1.
        -12    1    3    3    0    0 -0.10722318146E+02 -0.81638113519E+01  0.99353073727E+00  0.13513068694E+02  0.00000000000E+00 0.  1.
</event>
<event>
 7    1  0.1813014E-010  0.4778727E+02  0.7816164E-02  0.1312668E+00
        -11   -1    0    0    0    0  0.00000000000E+00  0.00000000000E+00  0.45593999997E+02  0.45594000000E+02  0.51100000000E-03 0. -1.
         11   -1    0    0    0    0 -0.00000000000E+00 -0.00000000000E+00 -0.45593999997E+02  0.45594000000E+02  0.51100000000E-03 0.  1.
    9900012    2    1    2    0    0  0.28203397204E+02 -0.27564892707E+02 -0.18120945375E+02  0.47787267460E+02  0.19999983655E+02 0.  0.
         12    1    1    2    0    0 -0.28203397204E+02  0.27564892707E+02  0.18120945375E+02  0.43400732540E+02  0.00000000000E+00 0. -1.
         11    1    3    3    0    0  0.21716166932E+01 -0.18553968855E+01  0.23440260181E+01  0.36949796887E+01  0.51100000000E-03 0. -1.
        -11    1    3    3    0    0  0.21918381390E+02 -0.21722243328E+02 -0.10496970258E+02  0.32595362904E+02  0.51100000000E-03 0.  1.
        -12    1    3    3    0    0  0.41133991203E+01 -0.39872524930E+01 -0.99680011351E+01  0.11496924867E+02  0.00000000000E+00 0.  1.
</event>
<event>
 7    1  0.1813014E-010  0.4778727E+02  0.7816164E-02  0.1312668E+00
        -11   -1    0    0    0    0  0.00000000000E+00  0.00000000000E+00  0.45593999997E+02  0.45594000000E+02  0.51100000000E-03 0. -1.
         11   -1    0    0    0    0 -0.00000000000E+00 -0.00000000000E+00 -0.45593999997E+02  0.45594000000E+02  0.51100000000E-03 0.  1.
    9900012    2    1    2    0    0 -0.25427335044E+02  0.30584222337E+02 -0.17368912419E+02  0.47787272564E+02  0.20000006929E+02 0.  0.
         12    1    1    2    0    0  0.25427335044E+02 -0.30584222337E+02  0.17368912419E+02  0.43400727436E+02  0.00000000000E+00 0. -1.
         11    1    3    3    0    0 -0.10467150051E+02  0.14214338328E+01 -0.62187133209E+01  0.12257817911E+02  0.51100000000E-03 0. -1.
        -11    1    3    3    0    0 -0.29906956973E+01  0.12087305222E+02 -0.69422125053E+01  0.14256280125E+02  0.51100000000E-03 0.  1.
        -12    1    3    3    0    0 -0.11969489296E+02  0.17075483282E+02 -0.42079865926E+01  0.21273174527E+02  0.00000000000E+00 0.  1.
</event>
<event>
 7    1  0.1813014E-010  0.4778727E+02  0.7816164E-02  0.1312668E+00
        -11   -1    0    0    0    0  0.00000000000E+00  0.00000000000E+00  0.45593999997E+02  0.45594000000E+02  0.51100000000E-03 0. -1.
         11   -1    0    0    0    0 -0.00000000000E+00 -0.00000000000E+00 -0.45593999997E+02  0.45594000000E+02  0.51100000000E-03 0.  1.
    9900012    2    1    2    0    0  0.36800608803E+02  0.16175828414E+02 -0.16360959291E+02  0.47787271641E+02  0.20000002720E+02 0.  0.
         12    1    1    2    0    0 -0.36800608803E+02 -0.16175828414E+02  0.16360959291E+02  0.43400728359E+02  0.00000000000E+00 0. -1.
         11    1    3    3    0    0  0.20331409563E+02  0.16520468209E+01 -0.13005937145E+02  0.24191938220E+02  0.51100000000E-03 0. -1.
        -11    1    3    3    0    0  0.79433028310E+01  0.28825175594E+01  0.10338467711E+01  0.85131549235E+01  0.51100000000E-03 0.  1.
        -12    1    3    3    0    0  0.85258964088E+01  0.11641264033E+02 -0.43888689175E+01  0.15082178498E+02  0.00000000000E+00 0.  1.
</event>
<event>
 7    1  0.1813014E-010  0.4778727E+02  0.7816164E-02  0.1312668E+00
        -11   -1    0    0    0    0  0.00000000000E+00  0.00000000000E+00  0.45593999997E+02  0.45594000000E+02  0.51100000000E-03 0.  1.
         11   -1    0    0    0    0 -0.00000000000E+00 -0.00000000000E+00 -0.45593999997E+02  0.45594000000E+02  0.51100000000E-03 0. -1.
    9900012    2    1    2    0    0  0.22756504278E+02  0.19198948005E+02  0.31577920494E+02  0.47787272423E+02  0.20000006287E+02 0.  0.
         12    1    1    2    0    0 -0.22756504278E+02 -0.19198948005E+02 -0.31577920494E+02  0.43400727577E+02  0.00000000000E+00 0. -1.
         11    1    3    3    0    0  0.10629961577E+02  0.13757409369E+02  0.22423741201E+02  0.28374047391E+02  0.51100000000E-03 0. -1.
        -11    1    3    3    0    0  0.10973459451E+02  0.71981175122E+01  0.10594002059E+02  0.16866018734E+02  0.51100000000E-03 0.  1.
         12    1    3    3    0    0  0.11530832496E+01 -0.17565788753E+01 -0.14398227662E+01  0.25472062979E+01  0.00000000000E+00 0. -1.
</event>
<event>
 7    1  0.2288255E-010  0.4778727E+02  0.7816164E-02  0.1312668E+00
        -11   -1    0    0    0    0  0.00000000000E+00  0.00000000000E+00  0.45593999997E+02  0.45594000000E+02  0.51100000000E-03 0. -1.
         11   -1    0    0    0    0 -0.00000000000E+00 -0.00000000000E+00 -0.45593999997E+02  0.45594000000E+02  0.51100000000E-03 0.  1.
    9900012    2    1    2    0    0  0.14267687348E+02  0.27602343031E+02 -0.30301266925E+02  0.47787273966E+02  0.20000013320E+02 0.  0.
         12    1    1    2    0    0 -0.14267687348E+02 -0.27602343031E+02  0.30301266925E+02  0.43400726034E+02  0.00000000000E+00 0. -1.
         11    1    3    3    0    0 -0.78462183794E+00  0.40768871137E+00  0.10563442081E+01  0.13775720892E+01  0.51100000000E-03 0. -1.
        -11    1    3    3    0    0  0.10120430052E+02  0.25575566560E+02 -0.20270527013E+02  0.34167630514E+02  0.51100000000E-03 0.  1.
         12    1    3    3    0    0  0.49318791338E+01  0.16190877593E+01 -0.11087084120E+02  0.12242071363E+02  0.00000000000E+00 0. -1.
</event>
<event>
 7    1  0.1813014E-010  0.4778727E+02  0.7816164E-02  0.1312668E+00
        -11   -1    0    0    0    0  0.00000000000E+00  0.00000000000E+00  0.45593999997E+02  0.45594000000E+02  0.51100000000E-03 0.  1.
         11   -1    0    0    0    0 -0.00000000000E+00 -0.00000000000E+00 -0.45593999997E+02  0.45594000000E+02  0.51100000000E-03 0. -1.
    9900012    2    1    2    0    0 -0.21198735904E+02  0.32607703658E+02  0.19260699443E+02  0.47787270918E+02  0.19999999425E+02 0.  0.
         12    1    1    2    0    0  0.21198735904E+02 -0.32607703658E+02 -0.19260699443E+02  0.43400729082E+02  0.00000000000E+00 0. -1.
         11    1    3    3    0    0 -0.83223897442E+01  0.25585086822E+01  0.26625320002E+01  0.91047907523E+01  0.51100000000E-03 0.  1.
        -11    1    3    3    0    0 -0.14145663549E+02  0.21611290767E+02  0.92941872652E+01  0.27450493676E+02  0.51100000000E-03 0. -1.
         12    1    3    3    0    0  0.12693173893E+01  0.84379042089E+01  0.73039801780E+01  0.11231986490E+02  0.00000000000E+00 0. -1.
</event>
<event>
 7    1  0.1813014E-010  0.4778727E+02  0.7816164E-02  0.1312668E+00
        -11   -1    0    0    0    0  0.00000000000E+00  0.00000000000E+00  0.45593999997E+02  0.45594000000E+02  0.51100000000E-03 0.  1.
         11   -1    0    0    0    0 -0.00000000000E+00 -0.00000000000E+00 -0.45593999997E+02  0.45594000000E+02  0.51100000000E-03 0. -1.
    9900012    2    1    2    0    0  0.10219927004E+02  0.40264369691E+02  0.12568091641E+02  0.47787270719E+02  0.19999998517E+02 0.  0.
         12    1    1    2    0    0 -0.10219927004E+02 -0.40264369691E+02 -0.12568091641E+02  0.43400729281E+02  0.00000000000E+00 0. -1.
         11    1    3    3    0    0  0.42891509696E+01  0.63925714552E+01  0.93296079179E+01  0.12095593000E+02  0.51100000000E-03 0. -1.
        -11    1    3    3    0    0 -0.16489396700E+01  0.65547726835E+01 -0.15667358897E+01  0.69382064380E+01  0.51100000000E-03 0.  1.
         12    1    3    3    0    0  0.75797157048E+01  0.27317025553E+02  0.48052196132E+01  0.28753471282E+02  0.00000000000E+00 0. -1.
</event>
<event>
 7    1  0.1813014E-010  0.4778727E+02  0.7816164E-02  0.1312668E+00
        -11   -1    0    0    0    0  0.00000000000E+00  0.00000000000E+00  0.45593999997E+02  0.45594000000E+02  0.51100000000E-03 0.  1.
         11   -1    0    0    0    0 -0.00000000000E+00 -0.00000000000E+00 -0.45593999997E+02  0.45594000000E+02  0.51100000000E-03 0. -1.
    9900012    2    1    2    0    0  0.42949204970E+01 -0.41350999282E+02  0.12460812967E+02  0.47787270243E+02  0.19999996344E+02 0.  0.
         12    1    1    2    0    0 -0.42949204970E+01  0.41350999282E+02 -0.12460812967E+02  0.43400729757E+02  0.00000000000E+00 0. -1.
         11    1    3    3    0    0  0.87209031457E+01 -0.19260466382E+02  0.33746017425E+01  0.21410456654E+02  0.51100000000E-03 0.  1.
        -11    1    3    3    0    0  0.27370773962E+00 -0.14059070974E+01  0.44356729096E+01  0.46611892383E+01  0.51100000000E-03 0. -1.
         12    1    3    3    0    0 -0.46996903883E+01 -0.20684625802E+02  0.46505383154E+01  0.21715624351E+02  0.00000000000E+00 0. -1.
</event>
<event>
 7    1  0.1813014E-010  0.4778727E+02  0.7816164E-02  0.1312668E+00
        -11   -1    0    0    0    0  0.00000000000E+00  0.00000000000E+00  0.45593999997E+02  0.45594000000E+02  0.51100000000E-03 0.  1.
         11   -1    0    0    0    0 -0.00000000000E+00 -0.00000000000E+00 -0.45593999997E+02  0.45594000000E+02  0.51100000000E-03 0. -1.
    9900012    2    1    2    0    0  0.84186782754E+01  0.31766496362E+02 -0.28348524796E+02  0.47787270822E+02  0.19999998986E+02 0.  0.
         12    1    1    2    0    0 -0.84186782754E+01 -0.31766496362E+02  0.28348524796E+02  0.43400729178E+02  0.00000000000E+00 0. -1.
         11    1    3    3    0    0 -0.27229617016E+01  0.17329646331E+01 -0.53859702000E+01  0.62790414957E+01  0.51100000000E-03 0. -1.
        -11    1    3    3    0    0  0.11706882602E+02  0.28832554891E+02 -0.24405682784E+02  0.39547498963E+02  0.51100000000E-03 0.  1.
         12    1    3    3    0    0 -0.56524262484E+00  0.12009768381E+01  0.14431281880E+01  0.19607303633E+01  0.00000000000E+00 0. -1.
</event>
<event>
 7    1  0.1813014E-010  0.4778728E+02  0.7816164E-02  0.1312668E+00
        -11   -1    0    0    0    0  0.00000000000E+00  0.00000000000E+00  0.45593999997E+02  0.45594000000E+02  0.51100000000E-03 0. -1.
         11   -1    0    0    0    0 -0.00000000000E+00 -0.00000000000E+00 -0.45593999997E+02  0.45594000000E+02  0.51100000000E-03 0.  1.
    9900012    2    1    2    0    0  0.34072764849E+02 -0.20701088511E+02 -0.17150348708E+02  0.47787276149E+02  0.20000023272E+02 0.  0.
         12    1    1    2    0    0 -0.34072764849E+02  0.20701088511E+02  0.17150348708E+02  0.43400723851E+02  0.00000000000E+00 0. -1.
         11    1    3    3    0    0  0.27722349959E+01 -0.16883335073E+01 -0.78894087550E+01  0.85310332122E+01  0.51100000000E-03 0. -1.
        -11    1    3    3    0    0  0.23871796278E+02 -0.17370238989E+02 -0.10905298476E+02  0.31472422772E+02  0.51100000000E-03 0.  1.
         12    1    3    3    0    0  0.74287335756E+01 -0.16425160150E+01  0.16443585221E+01  0.77838201640E+01  0.00000000000E+00 0. -1.
</event>
<event>
 7    1  0.1813014E-010  0.4778728E+02  0.7816164E-02  0.1312668E+00
        -11   -1    0    0    0    0  0.00000000000E+00  0.00000000000E+00  0.45593999997E+02  0.45594000000E+02  0.51100000000E-03 0. -1.
         11   -1    0    0    0    0 -0.00000000000E+00 -0.00000000000E+00 -0.45593999997E+02  0.45594000000E+02  0.51100000000E-03 0.  1.
    9900012    2    1    2    0    0 -0.22291138423E+02 -0.34901140108E+02 -0.12986081473E+02  0.47787277137E+02  0.20000027777E+02 0.  0.
         12    1    1    2    0    0  0.22291138423E+02  0.34901140108E+02  0.12986081473E+02  0.43400722863E+02  0.00000000000E+00 0. -1.
         11    1    3    3    0    0  0.15031219731E+01  0.51784213803E-02 -0.88281152086E+00  0.17432036383E+01  0.51100000000E-03 0. -1.
        -11    1    3    3    0    0 -0.21764705203E+02 -0.22212165639E+02 -0.54599996082E+01  0.31573632844E+02  0.51100000000E-03 0.  1.
         12    1    3    3    0    0 -0.20295551931E+01 -0.12694152890E+02 -0.66432703438E+01  0.14470440655E+02  0.00000000000E+00 0. -1.
</event>
<event>
 7    1  0.1813014E-010  0.4778727E+02  0.7816164E-02  0.1312668E+00
        -11   -1    0    0    0    0  0.00000000000E+00  0.00000000000E+00  0.45593999997E+02  0.45594000000E+02  0.51100000000E-03 0.  1.
         11   -1    0    0    0    0 -0.00000000000E+00 -0.00000000000E+00 -0.45593999997E+02  0.45594000000E+02  0.51100000000E-03 0. -1.
    9900012    2    1    2    0    0 -0.10931333654E+02 -0.35914189382E+02  0.21778438209E+02  0.47787269301E+02  0.19999992049E+02 0.  0.
         12    1    1    2    0    0  0.10931333654E+02  0.35914189382E+02 -0.21778438209E+02  0.43400730699E+02  0.00000000000E+00 0. -1.
         11    1    3    3    0    0 -0.56408419129E+01 -0.69053129592E+01  0.74775640431E+00  0.89477139233E+01  0.51100000000E-03 0. -1.
        -11    1    3    3    0    0 -0.19620108363E+01 -0.14298549602E+02  0.20207329193E+01  0.14573310160E+02  0.51100000000E-03 0.  1.
        -12    1    3    3    0    0 -0.33284809046E+01 -0.14710326821E+02  0.19009948885E+02  0.24266245217E+02  0.00000000000E+00 0.  1.
</event>
<event>
 7    1  0.1813014E-010  0.4778726E+02  0.7816164E-02  0.1312668E+00
        -11   -1    0    0    0    0  0.00000000000E+00  0.00000000000E+00  0.45593999997E+02  0.45594000000E+02  0.51100000000E-03 0.  1.
         11   -1    0    0    0    0 -0.00000000000E+00 -0.00000000000E+00 -0.45593999997E+02  0.45594000000E+02  0.51100000000E-03 0. -1.
    9900012    2    1    2    0    0 -0.35451878147E+01 -0.11640123682E+02  0.41660092269E+02  0.47787261253E+02  0.19999955357E+02 0.  0.
         12    1    1    2    0    0  0.35451878147E+01  0.11640123682E+02 -0.41660092269E+02  0.43400738747E+02  0.00000000000E+00 0. -1.
         11    1    3    3    0    0 -0.14302219065E+01  0.18994409552E+01 -0.89420735584E+00  0.25402790596E+01  0.51100000000E-03 0. -1.
        -11    1    3    3    0    0  0.12358011355E+01 -0.17316088154E+01  0.14080864644E+02  0.14240660902E+02  0.51100000000E-03 0.  1.
         12    1    3    3    0    0 -0.33507670437E+01 -0.11807955821E+02  0.28473434981E+02  0.31006321292E+02  0.00000000000E+00 0. -1.
</event>
<event>
 7    1  0.1813014E-010  0.4778727E+02  0.7816164E-02  0.1312668E+00
        -11   -1    0    0    0    0  0.00000000000E+00  0.00000000000E+00  0.45593999997E+02  0.45594000000E+02  0.51100000000E-03 0.  1.
         11   -1    0    0    0    0 -0.00000000000E+00 -0.00000000000E+00 -0.45593999997E+02  0.45594000000E+02  0.51100000000E-03 0. -1.
    9900012    2    1    2    0    0 -0.30512708302E+02  0.13717856848E+02  0.27648115592E+02  0.47787271202E+02  0.20000000719E+02 0.  0.
         12    1    1    2    0    0  0.30512708302E+02 -0.13717856848E+02 -0.27648115592E+02  0.43400728798E+02  0.00000000000E+00 0. -1.
         11    1    3    3    0    0 -0.53688679934E+01  0.49126785189E+01  0.33411778165E+01  0.80076602840E+01  0.51100000000E-03 0. -1.
        -11    1    3    3    0    0 -0.26363327613E+02  0.45206686845E+01  0.18787995526E+02  0.32687157483E+02  0.51100000000E-03 0.  1.
         12    1    3    3    0    0  0.12194873043E+01  0.42845096446E+01  0.55189422493E+01  0.70924534353E+01  0.00000000000E+00 0. -1.
</event>
<event>
 7    1  0.1813014E-010  0.4778727E+02  0.7816164E-02  0.1312668E+00
        -11   -1    0    0    0    0  0.00000000000E+00  0.00000000000E+00  0.45593999997E+02  0.45594000000E+02  0.51100000000E-03 0. -1.
         11   -1    0    0    0    0 -0.00000000000E+00 -0.00000000000E+00 -0.45593999997E+02  0.45594000000E+02  0.51100000000E-03 0.  1.
    9900012    2    1    2    0    0  0.11812672755E+02 -0.29552647568E+02 -0.29508048876E+02  0.47787272306E+02  0.20000005751E+02 0.  0.
         12    1    1    2    0    0 -0.11812672755E+02  0.29552647568E+02  0.29508048876E+02  0.43400727694E+02  0.00000000000E+00 0. -1.
         11    1    3    3    0    0 -0.34962561989E+01 -0.11116026023E+01 -0.17947037179E+01  0.40841681466E+01  0.51100000000E-03 0. -1.
        -11    1    3    3    0    0  0.68211728770E+01 -0.13711885434E+02 -0.68122912927E+01  0.16761608350E+02  0.51100000000E-03 0.  1.
        -12    1    3    3    0    0  0.84877560773E+01 -0.14729159532E+02 -0.20901053865E+02  0.26941495809E+02  0.00000000000E+00 0.  1.
</event>
<event>
 7    1  0.1813014E-010  0.4778727E+02  0.7816164E-02  0.1312668E+00
        -11   -1    0    0    0    0  0.00000000000E+00  0.00000000000E+00  0.45593999997E+02  0.45594000000E+02  0.51100000000E-03 0.  1.
         11   -1    0    0    0    0 -0.00000000000E+00 -0.00000000000E+00 -0.45593999997E+02  0.45594000000E+02  0.51100000000E-03 0. -1.
    9900012    2    1    2    0    0  0.28411547492E+02  0.24995504083E+02  0.21251632320E+02  0.47787272685E+02  0.20000007479E+02 0.  0.
         12    1    1    2    0    0 -0.28411547492E+02 -0.24995504083E+02 -0.21251632320E+02  0.43400727315E+02  0.00000000000E+00 0. -1.
         11    1    3    3    0    0 -0.12606378304E+01  0.11366531677E+01  0.22857806824E+01  0.28471005870E+01  0.51100000000E-03 0. -1.
        -11    1    3    3    0    0  0.43201785364E+01  0.63908675655E+01 -0.16491669782E+01  0.78884017905E+01  0.51100000000E-03 0.  1.
        -12    1    3    3    0    0  0.25352006786E+02  0.17467983349E+02  0.20615018615E+02  0.37051770307E+02  0.00000000000E+00 0.  1.
</event>
<event>
 7    1  0.1813014E-010  0.4778726E+02  0.7816164E-02  0.1312668E+00
        -11   -1    0    0    0    0  0.00000000000E+00  0.00000000000E+00  0.45593999997E+02  0.45594000000E+02  0.51100000000E-03 0. -1.
         11   -1    0    0    0    0 -0.00000000000E+00 -0.00000000000E+00 -0.45593999997E+02  0.45594000000E+02  0.51100000000E-03 0.  1.
    9900012    2    1    2    0    0  0.15339743573E+02 -0.27842654354E+02 -0.29548317608E+02  0.47787260285E+02  0.19999950943E+02 0.  0.
         12    1    1    2    0    0 -0.15339743573E+02  0.27842654354E+02  0.29548317608E+02  0.43400739715E+02  0.00000000000E+00 0. -1.
         11    1    3    3    0    0  0.13024686359E+02 -0.74974230755E+01 -0.73735195424E+01  0.16739850603E+02  0.51100000000E-03 0. -1.
        -11    1    3    3    0    0  0.41179197900E-01 -0.79347477148E+01 -0.39032995837E+01  0.88429443584E+01  0.51100000000E-03 0.  1.
        -12    1    3    3    0    0  0.22738780162E+01 -0.12410483564E+02 -0.18271498482E+02  0.22204465323E+02  0.00000000000E+00 0.  1.
</event>
<event>
 7    1  0.1813014E-010  0.4778727E+02  0.7816164E-02  0.1312668E+00
        -11   -1    0    0    0    0  0.00000000000E+00  0.00000000000E+00  0.45593999997E+02  0.45594000000E+02  0.51100000000E-03 0. -1.
         11   -1    0    0    0    0 -0.00000000000E+00 -0.00000000000E+00 -0.45593999997E+02  0.45594000000E+02  0.51100000000E-03 0.  1.
    9900012    2    1    2    0    0  0.79167772990E+01 -0.40532284508E+02 -0.13344726262E+02  0.47787272250E+02  0.20000005498E+02 0.  0.
         12    1    1    2    0    0 -0.79167772990E+01  0.40532284508E+02  0.13344726262E+02  0.43400727750E+02  0.00000000000E+00 0. -1.
         11    1    3    3    0    0 -0.12493393735E+01  0.10429068448E+01  0.12505524876E+01  0.20524096429E+01  0.51100000000E-03 0. -1.
        -11    1    3    3    0    0  0.59281757120E+01 -0.19469425705E+02 -0.30268084943E+01  0.20575795841E+02  0.51100000000E-03 0.  1.
        -12    1    3    3    0    0  0.32379409605E+01 -0.22105765648E+02 -0.11568470255E+02  0.25159066767E+02  0.00000000000E+00 0.  1.
</event>
<event>
 7    1  0.1813014E-010  0.4778726E+02  0.7816164E-02  0.1312668E+00
        -11   -1    0    0    0    0  0.00000000000E+00  0.00000000000E+00  0.45593999997E+02  0.45594000000E+02  0.51100000000E-03 0.  1.
         11   -1    0    0    0    0 -0.00000000000E+00 -0.00000000000E+00 -0.45593999997E+02  0.45594000000E+02  0.51100000000E-03 0. -1.
    9900012    2    1    2    0    0  0.31325476481E+02 -0.52600158224E+01  0.29574837593E+02  0.47787259662E+02  0.19999948104E+02 0.  0.
         12    1    1    2    0    0 -0.31325476481E+02  0.52600158224E+01 -0.29574837593E+02  0.43400740338E+02  0.00000000000E+00 0. -1.
         11    1    3    3    0    0  0.90367754325E+01 -0.77119596877E+01  0.13240930262E+02  0.17789318900E+02  0.51100000000E-03 0.  1.
        -11    1    3    3    0    0  0.60704362221E+01  0.37012937289E+01  0.10573827364E+02  0.12741883557E+02  0.51100000000E-03 0. -1.
        -12    1    3    3    0    0  0.16218264826E+02 -0.12493498636E+01  0.57600799666E+01  0.17256057205E+02  0.00000000000E+00 0.  1.
</event>
<event>
 7    1  0.1813014E-010  0.4778727E+02  0.7816164E-02  0.1312668E+00
        -11   -1    0    0    0    0  0.00000000000E+00  0.00000000000E+00  0.45593999997E+02  0.45594000000E+02  0.51100000000E-03 0.  1.
         11   -1    0    0    0    0 -0.00000000000E+00 -0.00000000000E+00 -0.45593999997E+02  0.45594000000E+02  0.51100000000E-03 0. -1.
    9900012    2    1    2    0    0  0.23057535094E+00  0.91791505507E+01  0.42418313845E+02  0.47787270521E+02  0.19999997613E+02 0.  0.
         12    1    1    2    0    0 -0.23057535094E+00 -0.91791505507E+01 -0.42418313845E+02  0.43400729479E+02  0.00000000000E+00 0. -1.
         11    1    3    3    0    0  0.35457606473E+01  0.22435878162E+01  0.48408209625E+01  0.64062198456E+01  0.51100000000E-03 0. -1.
        -11    1    3    3    0    0 -0.62423760986E+01  0.10791849970E+02  0.26127491406E+02  0.28949561181E+02  0.51100000000E-03 0.  1.
         12    1    3    3    0    0  0.29271908022E+01 -0.38562872353E+01  0.11450001477E+02  0.12431489495E+02  0.00000000000E+00 0. -1.
</event>
<event>
 7    1  0.1813014E-010  0.4778728E+02  0.7816164E-02  0.1312668E+00
        -11   -1    0    0    0    0  0.00000000000E+00  0.00000000000E+00  0.45593999997E+02  0.45594000000E+02  0.51100000000E-03 0.  1.
         11   -1    0    0    0    0 -0.00000000000E+00 -0.00000000000E+00 -0.45593999997E+02  0.45594000000E+02  0.51100000000E-03 0. -1.
    9900012    2    1    2    0    0  0.32286113386E+02 -0.15579555930E+02  0.24464392772E+02  0.47787283483E+02  0.20000056712E+02 0.  0.
         12    1    1    2    0    0 -0.32286113386E+02  0.15579555930E+02 -0.24464392772E+02  0.43400716517E+02  0.00000000000E+00 0. -1.
         11    1    3    3    0    0  0.30581195181E+01  0.16154153253E+01  0.47885735242E+01  0.59069533871E+01  0.51100000000E-03 0. -1.
        -11    1    3    3    0    0  0.20409515374E+02 -0.17496966900E+02  0.19216170775E+02  0.33044718005E+02  0.51100000000E-03 0.  1.
        -12    1    3    3    0    0  0.88184784930E+01  0.30199564447E+00  0.45964847222E+00  0.88356120908E+01  0.00000000000E+00 0.  1.
</event>
<event>
 7    1  0.1813014E-010  0.4778731E+02  0.7816164E-02  0.1312668E+00
        -11   -1    0    0    0    0  0.00000000000E+00  0.00000000000E+00  0.45593999997E+02  0.45594000000E+02  0.51100000000E-03 0. -1.
         11   -1    0    0    0    0 -0.00000000000E+00 -0.00000000000E+00 -0.45593999997E+02  0.45594000000E+02  0.51100000000E-03 0.  1.
    9900012    2    1    2    0    0 -0.39790275475E+02 -0.88888059462E+01 -0.14877607783E+02  0.47787307530E+02  0.20000166352E+02 0.  0.
         12    1    1    2    0    0  0.39790275475E+02  0.88888059462E+01  0.14877607783E+02  0.43400692470E+02  0.00000000000E+00 0. -1.
         11    1    3    3    0    0  0.49604284318E+00  0.40768937603E+00  0.15275598310E+01  0.16570179323E+01  0.51100000000E-03 0. -1.
        -11    1    3    3    0    0 -0.20297583436E+02 -0.80436551195E+01 -0.14052342357E+02  0.25964602963E+02  0.51100000000E-03 0.  1.
         12    1    3    3    0    0 -0.19988734883E+02 -0.12528402027E+01 -0.23528252560E+01  0.20165686635E+02  0.00000000000E+00 0. -1.
</event>
<event>
 7    1  0.1813014E-010  0.4778727E+02  0.7816164E-02  0.1312668E+00
        -11   -1    0    0    0    0  0.00000000000E+00  0.00000000000E+00  0.45593999997E+02  0.45594000000E+02  0.51100000000E-03 0. -1.
         11   -1    0    0    0    0 -0.00000000000E+00 -0.00000000000E+00 -0.45593999997E+02  0.45594000000E+02  0.51100000000E-03 0.  1.
    9900012    2    1    2    0    0  0.19696258830E+02 -0.29371822223E+02 -0.25159031353E+02  0.47787269461E+02  0.19999992783E+02 0.  0.
         12    1    1    2    0    0 -0.19696258830E+02  0.29371822223E+02  0.25159031353E+02  0.43400730539E+02  0.00000000000E+00 0. -1.
         11    1    3    3    0    0  0.96210018796E+01 -0.12444226027E+02 -0.22789220500E+01  0.15893895827E+02  0.51100000000E-03 0.  1.
        -11    1    3    3    0    0  0.11811418758E+02 -0.11987471238E+02 -0.15768719145E+02  0.23062124436E+02  0.51100000000E-03 0. -1.
        -12    1    3    3    0    0 -0.17361618074E+01 -0.49401249586E+01 -0.71113901581E+01  0.88312491986E+01  0.00000000000E+00 0.  1.
</event>
<event>
 7    1  0.1813014E-010  0.4778727E+02  0.7816164E-02  0.1312668E+00
        -11   -1    0    0    0    0  0.00000000000E+00  0.00000000000E+00  0.45593999997E+02  0.45594000000E+02  0.51100000000E-03 0.  1.
         11   -1    0    0    0    0 -0.00000000000E+00 -0.00000000000E+00 -0.45593999997E+02  0.45594000000E+02  0.51100000000E-03 0. -1.
    9900012    2    1    2    0    0 -0.18139014731E+02  0.18615183861E+02  0.34757362367E+02  0.47787272306E+02  0.20000005754E+02 0.  0.
         12    1    1    2    0    0  0.18139014731E+02 -0.18615183861E+02 -0.34757362367E+02  0.43400727694E+02  0.00000000000E+00 0. -1.
         11    1    3    3    0    0 -0.58725259954E+01  0.70348397824E+01  0.55046365533E+01  0.10690021337E+02  0.51100000000E-03 0. -1.
        -11    1    3    3    0    0 -0.13089807120E+02  0.51129663821E+01  0.26549779019E+02  0.30039577925E+02  0.51100000000E-03 0.  1.
         12    1    3    3    0    0  0.82331838443E+00  0.64673776968E+01  0.27029467946E+01  0.70576730450E+01  0.00000000000E+00 0. -1.
</event>
<event>
 7    1  0.1813014E-010  0.4778727E+02  0.7816164E-02  0.1312668E+00
        -11   -1    0    0    0    0  0.00000000000E+00  0.00000000000E+00  0.45593999997E+02  0.45594000000E+02  0.51100000000E-03 0.  1.
         11   -1    0    0    0    0 -0.00000000000E+00 -0.00000000000E+00 -0.45593999997E+02  0.45594000000E+02  0.51100000000E-03 0. -1.
    9900012    2    1    2    0    0 -0.18927682591E+02  0.38756333537E+02 -0.48283152474E+01  0.47787272061E+02  0.20000004635E+02 0.  0.
         12    1    1    2    0    0  0.18927682591E+02 -0.38756333537E+02  0.48283152474E+01  0.43400727939E+02  0.00000000000E+00 0. -1.
         11    1    3    3    0    0 -0.96347259231E+01  0.15523050890E+02  0.87743522816E-02  0.18270006289E+02  0.51100000000E-03 0. -1.
        -11    1    3    3    0    0  0.24781591632E+01  0.39715608593E+01  0.30706693653E+01  0.55985336571E+01  0.51100000000E-03 0.  1.
        -12    1    3    3    0    0 -0.11771115831E+02  0.19261721788E+02 -0.79077589650E+01  0.23918732115E+02  0.00000000000E+00 0.  1.
</event>
<event>
 7    1  0.1813014E-010  0.4778727E+02  0.7816164E-02  0.1312668E+00
        -11   -1    0    0    0    0  0.00000000000E+00  0.00000000000E+00  0.45593999997E+02  0.45594000000E+02  0.51100000000E-03 0.  1.
         11   -1    0    0    0    0 -0.00000000000E+00 -0.00000000000E+00 -0.45593999997E+02  0.45594000000E+02  0.51100000000E-03 0. -1.
    9900012    2    1    2    0    0  0.19599690405E+02 -0.38360494736E+02 -0.52865763333E+01  0.47787270631E+02  0.19999998117E+02 0.  0.
         12    1    1    2    0    0 -0.19599690405E+02  0.38360494736E+02  0.52865763333E+01  0.43400729369E+02  0.00000000000E+00 0. -1.
         11    1    3    3    0    0 -0.28958029658E+01 -0.88568868215E+01  0.17613455682E+01  0.94832725078E+01  0.51100000000E-03 0. -1.
        -11    1    3    3    0    0  0.69276030634E+01 -0.59044857990E+01  0.24953000473E+00  0.91058718549E+01  0.51100000000E-03 0.  1.
         12    1    3    3    0    0  0.15567890308E+02 -0.23599122116E+02 -0.72974519062E+01  0.29198126269E+02  0.00000000000E+00 0. -1.
</event>
<event>
 7    1  0.1813014E-010  0.4778727E+02  0.7816164E-02  0.1312668E+00
        -11   -1    0    0    0    0  0.00000000000E+00  0.00000000000E+00  0.45593999997E+02  0.45594000000E+02  0.51100000000E-03 0. -1.
         11   -1    0    0    0    0 -0.00000000000E+00 -0.00000000000E+00 -0.45593999997E+02  0.45594000000E+02  0.51100000000E-03 0.  1.
    9900012    2    1    2    0    0 -0.34344583526E+02  0.58702619680E+01 -0.25876879233E+02  0.47787271067E+02  0.20000000101E+02 0.  0.
         12    1    1    2    0    0  0.34344583526E+02 -0.58702619680E+01  0.25876879233E+02  0.43400728933E+02  0.00000000000E+00 0. -1.
         11    1    3    3    0    0 -0.12763839063E+02 -0.41161928531E+01 -0.17060225969E+02  0.21700459479E+02  0.51100000000E-03 0.  1.
        -11    1    3    3    0    0 -0.11670604815E+02  0.44315502241E+01 -0.77091078074E+01  0.14672150408E+02  0.51100000000E-03 0. -1.
         12    1    3    3    0    0 -0.99101396479E+01  0.55549045970E+01 -0.11075454567E+01  0.11414661180E+02  0.00000000000E+00 0. -1.
</event>
<event>
 7    1  0.1813014E-010  0.4778727E+02  0.7816164E-02  0.1312668E+00
        -11   -1    0    0    0    0  0.00000000000E+00  0.00000000000E+00  0.45593999997E+02  0.45594000000E+02  0.51100000000E-03 0.  1.
         11   -1    0    0    0    0 -0.00000000000E+00 -0.00000000000E+00 -0.45593999997E+02  0.45594000000E+02  0.51100000000E-03 0. -1.
    9900012    2    1    2    0    0  0.36450827116E+02 -0.14549866613E+02  0.18527326438E+02  0.47787271425E+02  0.20000001736E+02 0.  0.
         12    1    1    2    0    0 -0.36450827116E+02  0.14549866613E+02 -0.18527326438E+02  0.43400728575E+02  0.00000000000E+00 0. -1.
         11    1    3    3    0    0  0.62275246025E+01 -0.54619319249E+01  0.86299364617E+01  0.11962046924E+02  0.51100000000E-03 0.  1.
        -11    1    3    3    0    0  0.15027004350E+02 -0.36865535167E+01 -0.22489942706E+01  0.15635201056E+02  0.51100000000E-03 0. -1.
         12    1    3    3    0    0  0.15196298164E+02 -0.54013811710E+01  0.12146384247E+02  0.20190023445E+02  0.00000000000E+00 0. -1.
</event>
<event>
 7    1  0.1813014E-010  0.4778727E+02  0.7816164E-02  0.1312668E+00
        -11   -1    0    0    0    0  0.00000000000E+00  0.00000000000E+00  0.45593999997E+02  0.45594000000E+02  0.51100000000E-03 0.  1.
         11   -1    0    0    0    0 -0.00000000000E+00 -0.00000000000E+00 -0.45593999997E+02  0.45594000000E+02  0.51100000000E-03 0. -1.
    9900012    2    1    2    0    0  0.37906881103E+02 -0.15608651151E+02 -0.14249968355E+02  0.47787271621E+02  0.20000002630E+02 0.  0.
         12    1    1    2    0    0 -0.37906881103E+02  0.15608651151E+02  0.14249968355E+02  0.43400728379E+02  0.00000000000E+00 0. -1.
         11    1    3    3    0    0  0.16240876480E+02 -0.19685488262E+01 -0.43547882307E+00  0.16365539875E+02  0.51100000000E-03 0. -1.
        -11    1    3    3    0    0  0.13954278628E+02 -0.12505532013E+02 -0.44900017511E+01  0.19268376655E+02  0.51100000000E-03 0.  1.
        -12    1    3    3    0    0  0.77117259950E+01 -0.11345703124E+01 -0.93244877805E+01  0.12153355092E+02  0.00000000000E+00 0.  1.
</event>
<event>
 7    1  0.1813014E-010  0.4778726E+02  0.7816164E-02  0.1312668E+00
        -11   -1    0    0    0    0  0.00000000000E+00  0.00000000000E+00  0.45593999997E+02  0.45594000000E+02  0.51100000000E-03 0.  1.
         11   -1    0    0    0    0 -0.00000000000E+00 -0.00000000000E+00 -0.45593999997E+02  0.45594000000E+02  0.51100000000E-03 0. -1.
    9900012    2    1    2    0    0  0.12944979597E+02 -0.32083459236E+02  0.26205018832E+02  0.47787264231E+02  0.19999968934E+02 0.  0.
         12    1    1    2    0    0 -0.12944979597E+02  0.32083459236E+02 -0.26205018832E+02  0.43400735769E+02  0.00000000000E+00 0. -1.
         11    1    3    3    0    0  0.12032914390E+02 -0.26180926781E+02  0.27960402145E+02  0.40149919604E+02  0.51100000000E-03 0. -1.
        -11    1    3    3    0    0  0.40211410858E+00 -0.53998107925E+01  0.33757456683E+00  0.54252750346E+01  0.51100000000E-03 0.  1.
         12    1    3    3    0    0  0.50995109897E+00 -0.50272166263E+00 -0.20929578802E+01  0.22120695924E+01  0.00000000000E+00 0. -1.
</event>
<event>
 7    1  0.1813014E-010  0.4778727E+02  0.7816164E-02  0.1312668E+00
        -11   -1    0    0    0    0  0.00000000000E+00  0.00000000000E+00  0.45593999997E+02  0.45594000000E+02  0.51100000000E-03 0. -1.
         11   -1    0    0    0    0 -0.00000000000E+00 -0.00000000000E+00 -0.45593999997E+02  0.45594000000E+02  0.51100000000E-03 0.  1.
    9900012    2    1    2    0    0  0.12270836111E+02  0.22976095824E+02 -0.34715260242E+02  0.47787266229E+02  0.19999978046E+02 0.  0.
         12    1    1    2    0    0 -0.12270836111E+02 -0.22976095824E+02  0.34715260242E+02  0.43400733771E+02  0.00000000000E+00 0. -1.
         11    1    3    3    0    0 -0.11523507956E+01  0.24981796843E+01  0.95432604045E+00  0.29119671261E+01  0.51100000000E-03 0. -1.
        -11    1    3    3    0    0  0.28170101038E+01  0.14677465804E+02 -0.22364610178E+02  0.26898686530E+02  0.51100000000E-03 0.  1.
        -12    1    3    3    0    0  0.10606176803E+02  0.58004503355E+01 -0.13304976104E+02  0.17976612573E+02  0.00000000000E+00 0.  1.
</event>
<event>
 7    1  0.1813014E-010  0.4778727E+02  0.7816164E-02  0.1312668E+00
        -11   -1    0    0    0    0  0.00000000000E+00  0.00000000000E+00  0.45593999997E+02  0.45594000000E+02  0.51100000000E-03 0.  1.
         11   -1    0    0    0    0 -0.00000000000E+00 -0.00000000000E+00 -0.45593999997E+02  0.45594000000E+02  0.51100000000E-03 0. -1.
    9900012    2    1    2    0    0 -0.43352631162E+02  0.29702695626E+00 -0.20210470350E+01  0.47787268614E+02  0.19999988919E+02 0.  0.
         12    1    1    2    0    0  0.43352631162E+02 -0.29702695626E+00  0.20210470350E+01  0.43400731386E+02  0.00000000000E+00 0. -1.
         11    1    3    3    0    0 -0.95731200178E+01  0.30586390088E+00  0.38638532361E+01  0.10327997952E+02  0.51100000000E-03 0.  1.
        -11    1    3    3    0    0 -0.16746361199E+02 -0.67424335574E+01  0.50784539879E+00  0.18059870733E+02  0.51100000000E-03 0. -1.
         12    1    3    3    0    0 -0.17033149946E+02  0.67335966128E+01 -0.63927456699E+01  0.19399399930E+02  0.00000000000E+00 0. -1.
</event>
<event>
 7    1  0.1813014E-010  0.4778727E+02  0.7816164E-02  0.1312668E+00
        -11   -1    0    0    0    0  0.00000000000E+00  0.00000000000E+00  0.45593999997E+02  0.45594000000E+02  0.51100000000E-03 0. -1.
         11   -1    0    0    0    0 -0.00000000000E+00 -0.00000000000E+00 -0.45593999997E+02  0.45594000000E+02  0.51100000000E-03 0.  1.
    9900012    2    1    2    0    0  0.24335493453E+02 -0.28969576702E+02 -0.21264300615E+02  0.47787273087E+02  0.20000009314E+02 0.  0.
         12    1    1    2    0    0 -0.24335493453E+02  0.28969576702E+02  0.21264300615E+02  0.43400726913E+02  0.00000000000E+00 0. -1.
         11    1    3    3    0    0  0.10395010296E+02 -0.11829021724E+02 -0.29968202158E+01  0.16030063184E+02  0.51100000000E-03 0. -1.
        -11    1    3    3    0    0  0.16462404051E+02 -0.12857131888E+02 -0.15901629778E+02  0.26252207857E+02  0.51100000000E-03 0.  1.
         12    1    3    3    0    0 -0.25219208943E+01 -0.42834230908E+01 -0.23658506211E+01  0.55050020466E+01  0.00000000000E+00 0. -1.
</event>
<event>
 7    1  0.1813014E-010  0.4778727E+02  0.7816164E-02  0.1312668E+00
        -11   -1    0    0    0    0  0.00000000000E+00  0.00000000000E+00  0.45593999997E+02  0.45594000000E+02  0.51100000000E-03 0. -1.
         11   -1    0    0    0    0 -0.00000000000E+00 -0.00000000000E+00 -0.45593999997E+02  0.45594000000E+02  0.51100000000E-03 0.  1.
    9900012    2    1    2    0    0 -0.21049477712E+02 -0.14697987048E+01 -0.37926009848E+02  0.47787273703E+02  0.20000012120E+02 0.  0.
         12    1    1    2    0    0  0.21049477712E+02  0.14697987048E+01  0.37926009848E+02  0.43400726297E+02  0.00000000000E+00 0. -1.
         11    1    3    3    0    0  0.72258473270E+00 -0.26251544736E+01 -0.34120712195E+00  0.27440822268E+01  0.51100000000E-03 0. -1.
        -11    1    3    3    0    0 -0.15812818793E+02 -0.27492926248E+01 -0.17565478761E+02  0.23793904524E+02  0.51100000000E-03 0.  1.
        -12    1    3    3    0    0 -0.59592436517E+01  0.39046483936E+01 -0.20019323965E+02  0.21249286952E+02  0.00000000000E+00 0.  1.
</event>
<event>
 7    1  0.1813014E-010  0.4778727E+02  0.7816164E-02  0.1312668E+00
        -11   -1    0    0    0    0  0.00000000000E+00  0.00000000000E+00  0.45593999997E+02  0.45594000000E+02  0.51100000000E-03 0.  1.
         11   -1    0    0    0    0 -0.00000000000E+00 -0.00000000000E+00 -0.45593999997E+02  0.45594000000E+02  0.51100000000E-03 0. -1.
    9900012    2    1    2    0    0  0.19455506403E+02  0.35236224799E+02  0.16233155637E+02  0.47787267178E+02  0.19999982373E+02 0.  0.
         12    1    1    2    0    0 -0.19455506403E+02 -0.35236224799E+02 -0.16233155637E+02  0.43400732822E+02  0.00000000000E+00 0. -1.
         11    1    3    3    0    0  0.31419197903E+01 -0.74838938389E+00  0.20062226874E+01  0.38021936262E+01  0.51100000000E-03 0.  1.
        -11    1    3    3    0    0  0.64384020178E+01  0.36990633771E+01  0.51098597738E+01  0.90136983297E+01  0.51100000000E-03 0. -1.
        -12    1    3    3    0    0  0.98751845951E+01  0.32285550806E+02  0.91170731758E+01  0.34971375222E+02  0.00000000000E+00 0.  1.
</event>
<event>
 7    1  0.1813014E-010  0.4778727E+02  0.7816164E-02  0.1312668E+00
        -11   -1    0    0    0    0  0.00000000000E+00  0.00000000000E+00  0.45593999997E+02  0.45594000000E+02  0.51100000000E-03 0.  1.
         11   -1    0    0    0    0 -0.00000000000E+00 -0.00000000000E+00 -0.45593999997E+02  0.45594000000E+02  0.51100000000E-03 0. -1.
    9900012    2    1    2    0    0 -0.13795449834E+02  0.38452096587E+02 -0.14654183697E+02  0.47787271113E+02  0.20000000313E+02 0.  0.
         12    1    1    2    0    0  0.13795449834E+02 -0.38452096587E+02  0.14654183697E+02  0.43400728887E+02  0.00000000000E+00 0. -1.
         11    1    3    3    0    0 -0.45465312626E+01  0.10973228226E+02 -0.31923683664E+01  0.12299345522E+02  0.51100000000E-03 0. -1.
        -11    1    3    3    0    0 -0.67565400167E+00  0.20574280518E+02 -0.14971625777E+01  0.20639743778E+02  0.51100000000E-03 0.  1.
         12    1    3    3    0    0 -0.85732645700E+01  0.69045878427E+01 -0.99646527528E+01  0.14848181813E+02  0.00000000000E+00 0. -1.
</event>
<event>
 7    1  0.1813014E-010  0.4778727E+02  0.7816164E-02  0.1312668E+00
        -11   -1    0    0    0    0  0.00000000000E+00  0.00000000000E+00  0.45593999997E+02  0.45594000000E+02  0.51100000000E-03 0. -1.
         11   -1    0    0    0    0 -0.00000000000E+00 -0.00000000000E+00 -0.45593999997E+02  0.45594000000E+02  0.51100000000E-03 0.  1.
    9900012    2    1    2    0    0  0.42243487050E+02  0.43148023293E+01 -0.89718296766E+01  0.47787269073E+02  0.19999991010E+02 0.  0.
         12    1    1    2    0    0 -0.42243487050E+02 -0.43148023293E+01  0.89718296766E+01  0.43400730927E+02  0.00000000000E+00 0. -1.
         11    1    3    3    0    0  0.30999839296E+01 -0.30040613166E+01 -0.38920476886E+01  0.58122560361E+01  0.51100000000E-03 0. -1.
        -11    1    3    3    0    0  0.14418275028E+02  0.33747560841E+00 -0.73422897454E+01  0.16183626403E+02  0.51100000000E-03 0.  1.
         12    1    3    3    0    0  0.24725228092E+02  0.69813880376E+01  0.22625077574E+01  0.25791386634E+02  0.00000000000E+00 0. -1.
</event>
<event>
 7    1  0.1813014E-010  0.4778727E+02  0.7816164E-02  0.1312668E+00
        -11   -1    0    0    0    0  0.00000000000E+00  0.00000000000E+00  0.45593999997E+02  0.45594000000E+02  0.51100000000E-03 0.  1.
         11   -1    0    0    0    0 -0.00000000000E+00 -0.00000000000E+00 -0.45593999997E+02  0.45594000000E+02  0.51100000000E-03 0. -1.
    9900012    2    1    2    0    0  0.76360114444E+01 -0.22482784827E+02  0.36329588762E+02  0.47787270698E+02  0.19999998421E+02 0.  0.
         12    1    1    2    0    0 -0.76360114444E+01  0.22482784827E+02 -0.36329588762E+02  0.43400729302E+02  0.00000000000E+00 0. -1.
         11    1    3    3    0    0  0.61515307662E+01 -0.18627745408E+01  0.28757563883E+01  0.70413943806E+01  0.51100000000E-03 0. -1.
        -11    1    3    3    0    0  0.49016547694E+01 -0.14904433983E+02  0.17760777753E+02  0.23698388099E+02  0.51100000000E-03 0.  1.
         12    1    3    3    0    0 -0.34171740911E+01 -0.57155763024E+01  0.15693054621E+02  0.17047488219E+02  0.00000000000E+00 0. -1.
</event>
<event>
 7    1  0.1813014E-010  0.4778725E+02  0.7816164E-02  0.1312668E+00
        -11   -1    0    0    0    0  0.00000000000E+00  0.00000000000E+00  0.45593999997E+02  0.45594000000E+02  0.51100000000E-03 0. -1.
         11   -1    0    0    0    0 -0.00000000000E+00 -0.00000000000E+00 -0.45593999997E+02  0.45594000000E+02  0.51100000000E-03 0.  1.
    9900012    2    1    2    0    0 -0.14884408205E+02  0.40747996542E+02 -0.12960860375E+01  0.47787254974E+02  0.19999926730E+02 0.  0.
         12    1    1    2    0    0  0.14884408205E+02 -0.40747996542E+02  0.12960860375E+01  0.43400745026E+02  0.00000000000E+00 0. -1.
         11    1    3    3    0    0  0.26945351552E+01  0.40025525543E+00 -0.14428357810E+01  0.30826124187E+01  0.51100000000E-03 0. -1.
        -11    1    3    3    0    0 -0.90152464046E+01  0.21610336489E+02 -0.38189614698E+01  0.23724792473E+02  0.51100000000E-03 0.  1.
        -12    1    3    3    0    0 -0.85636969556E+01  0.18737404797E+02  0.39657112132E+01  0.20979850083E+02  0.00000000000E+00 0.  1.
</event>
<event>
 7    1  0.1813014E-010  0.4778727E+02  0.7816164E-02  0.1312668E+00
        -11   -1    0    0    0    0  0.00000000000E+00  0.00000000000E+00  0.45593999997E+02  0.45594000000E+02  0.51100000000E-03 0. -1.
         11   -1    0    0    0    0 -0.00000000000E+00 -0.00000000000E+00 -0.45593999997E+02  0.45594000000E+02  0.51100000000E-03 0.  1.
    9900012    2    1    2    0    0  0.42861739070E+02 -0.53025887935E+01  0.42868300228E+01  0.47787273789E+02  0.20000012515E+02 0.  0.
         12    1    1    2    0    0 -0.42861739070E+02  0.53025887935E+01 -0.42868300228E+01  0.43400726211E+02  0.00000000000E+00 0. -1.
         11    1    3    3    0    0  0.19209451934E+01 -0.18686153783E+01  0.44740676863E+01  0.52152694840E+01  0.51100000000E-03 0. -1.
        -11    1    3    3    0    0  0.27107143894E+02  0.18255277805E+00  0.45959456600E+01  0.27494604787E+02  0.51100000000E-03 0.  1.
         12    1    3    3    0    0  0.13833649982E+02 -0.36165261933E+01 -0.47831833234E+01  0.15077399518E+02  0.00000000000E+00 0. -1.
</event>
<event>
 7    1  0.1813014E-010  0.4778728E+02  0.7816164E-02  0.1312668E+00
        -11   -1    0    0    0    0  0.00000000000E+00  0.00000000000E+00  0.45593999997E+02  0.45594000000E+02  0.51100000000E-03 0.  1.
         11   -1    0    0    0    0 -0.00000000000E+00 -0.00000000000E+00 -0.45593999997E+02  0.45594000000E+02  0.51100000000E-03 0. -1.
    9900012    2    1    2    0    0  0.89874748704E+00  0.30811365457E+02  0.30552814071E+02  0.47787280697E+02  0.20000044012E+02 0.  0.
         12    1    1    2    0    0 -0.89874748704E+00 -0.30811365457E+02 -0.30552814071E+02  0.43400719303E+02  0.00000000000E+00 0. -1.
         11    1    3    3    0    0 -0.50805908068E-01  0.21307316686E+02  0.11863734168E+02  0.24387548345E+02  0.51100000000E-03 0. -1.
        -11    1    3    3    0    0 -0.42904682898E+01  0.29135417798E+01  0.43391500536E+01  0.67620312996E+01  0.51100000000E-03 0.  1.
        -12    1    3    3    0    0  0.52400216849E+01  0.65905069905E+01  0.14349929849E+02  0.16637701053E+02  0.00000000000E+00 0.  1.
</event>
<event>
 7    1  0.1813014E-010  0.4778730E+02  0.7816164E-02  0.1312668E+00
        -11   -1    0    0    0    0  0.00000000000E+00  0.00000000000E+00  0.45593999997E+02  0.45594000000E+02  0.51100000000E-03 0.  1.
         11   -1    0    0    0    0 -0.00000000000E+00 -0.00000000000E+00 -0.45593999997E+02  0.45594000000E+02  0.51100000000E-03 0. -1.
    9900012    2    1    2    0    0  0.21410234045E+02 -0.36450297223E+00  0.37750365989E+02  0.47787295897E+02  0.20000113314E+02 0.  0.
         12    1    1    2    0    0 -0.21410234045E+02  0.36450297223E+00 -0.37750365989E+02  0.43400704103E+02  0.00000000000E+00 0. -1.
         11    1    3    3    0    0 -0.17145400728E+01 -0.72797268044E+00  0.40421521248E+01  0.44506837616E+01  0.51100000000E-03 0. -1.
        -11    1    3    3    0    0  0.16658649418E+00 -0.30682783935E+01  0.86453613592E+01  0.91752033575E+01  0.51100000000E-03 0.  1.
         12    1    3    3    0    0  0.22958187624E+02  0.34317481017E+01  0.25062852505E+02  0.34161408778E+02  0.00000000000E+00 0. -1.
</event>
<event>
 7    1  0.1813014E-010  0.4778727E+02  0.7816164E-02  0.1312668E+00
        -11   -1    0    0    0    0  0.00000000000E+00  0.00000000000E+00  0.45593999997E+02  0.45594000000E+02  0.51100000000E-03 0. -1.
         11   -1    0    0    0    0 -0.00000000000E+00 -0.00000000000E+00 -0.45593999997E+02  0.45594000000E+02  0.51100000000E-03 0.  1.
    9900012    2    1    2    0    0  0.21019512487E+02 -0.18281907534E+01  0.37927046898E+02  0.47787273358E+02  0.20000010549E+02 0.  0.
         12    1    1    2    0    0 -0.21019512487E+02  0.18281907534E+01 -0.37927046898E+02  0.43400726642E+02  0.00000000000E+00 0. -1.
         11    1    3    3    0    0  0.52141822880E+01 -0.48080349075E+01  0.12418574322E+02  0.14301254667E+02  0.51100000000E-03 0. -1.
        -11    1    3    3    0    0  0.51363338301E+01  0.75116711388E+01  0.16354853870E+02  0.18715992463E+02  0.51100000000E-03 0.  1.
         12    1    3    3    0    0  0.10668996369E+02 -0.45318269847E+01  0.91536187061E+01  0.14770026228E+02  0.00000000000E+00 0. -1.
</event>
<event>
 7    1  0.1813014E-010  0.4778727E+02  0.7816164E-02  0.1312668E+00
        -11   -1    0    0    0    0  0.00000000000E+00  0.00000000000E+00  0.45593999997E+02  0.45594000000E+02  0.51100000000E-03 0.  1.
         11   -1    0    0    0    0 -0.00000000000E+00 -0.00000000000E+00 -0.45593999997E+02  0.45594000000E+02  0.51100000000E-03 0. -1.
    9900012    2    1    2    0    0 -0.14518048345E+02  0.28294920625E+02  0.29533828759E+02  0.47787270720E+02  0.19999998520E+02 0.  0.
         12    1    1    2    0    0  0.14518048345E+02 -0.28294920625E+02 -0.29533828759E+02  0.43400729280E+02  0.00000000000E+00 0. -1.
         11    1    3    3    0    0  0.23920625396E+01  0.80808618313E+00  0.25422306916E+00  0.25376359279E+01  0.51100000000E-03 0. -1.
        -11    1    3    3    0    0 -0.11305389421E+02  0.73412912425E+01  0.97396246846E+01  0.16630293934E+02  0.51100000000E-03 0.  1.
         12    1    3    3    0    0 -0.56047214638E+01  0.20145543199E+02  0.19539981005E+02  0.28619340858E+02  0.00000000000E+00 0. -1.
</event>
<event>
 7    1  0.1813014E-010  0.4778727E+02  0.7816164E-02  0.1312668E+00
        -11   -1    0    0    0    0  0.00000000000E+00  0.00000000000E+00  0.45593999997E+02  0.45594000000E+02  0.51100000000E-03 0.  1.
         11   -1    0    0    0    0 -0.00000000000E+00 -0.00000000000E+00 -0.45593999997E+02  0.45594000000E+02  0.51100000000E-03 0. -1.
    9900012    2    1    2    0    0 -0.19096895701E+02  0.34262122888E+02  0.18575222832E+02  0.47787269667E+02  0.19999993718E+02 0.  0.
         12    1    1    2    0    0  0.19096895701E+02 -0.34262122888E+02 -0.18575222832E+02  0.43400730333E+02  0.00000000000E+00 0. -1.
         11    1    3    3    0    0 -0.44026968522E+01  0.12893749332E+02  0.11425328431E+02  0.17781187852E+02  0.51100000000E-03 0. -1.
        -11    1    3    3    0    0 -0.45274790417E+00 -0.15493522691E+01 -0.90069053777E+00  0.18484363188E+01  0.51100000000E-03 0.  1.
        -12    1    3    3    0    0 -0.14241450944E+02  0.22917725825E+02  0.80505849382E+01  0.28157645495E+02  0.00000000000E+00 0.  1.
</event>
<event>
 7    1  0.1813014E-010  0.4778727E+02  0.7816164E-02  0.1312668E+00
        -11   -1    0    0    0    0  0.00000000000E+00  0.00000000000E+00  0.45593999997E+02  0.45594000000E+02  0.51100000000E-03 0. -1.
         11   -1    0    0    0    0 -0.00000000000E+00 -0.00000000000E+00 -0.45593999997E+02  0.45594000000E+02  0.51100000000E-03 0.  1.
    9900012    2    1    2    0    0  0.24343976974E+02  0.23140788806E+02 -0.27486320726E+02  0.47787272488E+02  0.20000006584E+02 0.  0.
         12    1    1    2    0    0 -0.24343976974E+02 -0.23140788806E+02  0.27486320726E+02  0.43400727512E+02  0.00000000000E+00 0. -1.
         11    1    3    3    0    0  0.11587658539E+02  0.17050827189E+02 -0.13025120780E+02  0.24385616864E+02  0.51100000000E-03 0.  1.
        -11    1    3    3    0    0  0.58206647645E+01  0.22150130573E+00  0.55464206211E+00  0.58512245904E+01  0.51100000000E-03 0. -1.
         12    1    3    3    0    0  0.69356536707E+01  0.58684603116E+01 -0.15015842008E+02  0.17550431034E+02  0.00000000000E+00 0. -1.
</event>
<event>
 7    1  0.1813014E-010  0.4778727E+02  0.7816164E-02  0.1312668E+00
        -11   -1    0    0    0    0  0.00000000000E+00  0.00000000000E+00  0.45593999997E+02  0.45594000000E+02  0.51100000000E-03 0.  1.
         11   -1    0    0    0    0 -0.00000000000E+00 -0.00000000000E+00 -0.45593999997E+02  0.45594000000E+02  0.51100000000E-03 0. -1.
    9900012    2    1    2    0    0 -0.14401558419E+02  0.26641631576E+02  0.31087647495E+02  0.47787271380E+02  0.20000001532E+02 0.  0.
         12    1    1    2    0    0  0.14401558419E+02 -0.26641631576E+02 -0.31087647495E+02  0.43400728620E+02  0.00000000000E+00 0. -1.
         11    1    3    3    0    0  0.22274533894E+01  0.12254355814E+01 -0.51014330352E-01  0.25428023300E+01  0.51100000000E-03 0. -1.
        -11    1    3    3    0    0 -0.10404454878E+02  0.23092275154E+02  0.19990357557E+02  0.32266395036E+02  0.51100000000E-03 0.  1.
         12    1    3    3    0    0 -0.62245569311E+01  0.23239208402E+01  0.11148304268E+02  0.12978074014E+02  0.00000000000E+00 0. -1.
</event>
<event>
 7    1  0.1813014E-010  0.4778724E+02  0.7816164E-02  0.1312668E+00
        -11   -1    0    0    0    0  0.00000000000E+00  0.00000000000E+00  0.45593999997E+02  0.45594000000E+02  0.51100000000E-03 0. -1.
         11   -1    0    0    0    0 -0.00000000000E+00 -0.00000000000E+00 -0.45593999997E+02  0.45594000000E+02  0.51100000000E-03 0.  1.
    9900012    2    1    2    0    0  0.25609329149E+02  0.34727833346E+02  0.46653440806E+01  0.47787244433E+02  0.19999878668E+02 0.  0.
         12    1    1    2    0    0 -0.25609329149E+02 -0.34727833346E+02 -0.46653440806E+01  0.43400755567E+02  0.00000000000E+00 0. -1.
         11    1    3    3    0    0  0.26631581177E+02  0.22762412384E+02  0.59101769291E+01  0.35528843566E+02  0.51100000000E-03 0. -1.
        -11    1    3    3    0    0 -0.35806703136E+00  0.51958169699E+01  0.51151926036E+00  0.52331996139E+01  0.51100000000E-03 0.  1.
         12    1    3    3    0    0 -0.66418499659E+00  0.67696039923E+01 -0.17563521088E+01  0.70252012535E+01  0.00000000000E+00 0. -1.
</event>
<event>
 7    1  0.1813014E-010  0.4778727E+02  0.7816164E-02  0.1312668E+00
        -11   -1    0    0    0    0  0.00000000000E+00  0.00000000000E+00  0.45593999997E+02  0.45594000000E+02  0.51100000000E-03 0. -1.
         11   -1    0    0    0    0 -0.00000000000E+00 -0.00000000000E+00 -0.45593999997E+02  0.45594000000E+02  0.51100000000E-03 0.  1.
    9900012    2    1    2    0    0  0.31270964935E+02 -0.29570280356E+02  0.55989634625E+01  0.47787272816E+02  0.20000008075E+02 0.  0.
         12    1    1    2    0    0 -0.31270964935E+02  0.29570280356E+02 -0.55989634625E+01  0.43400727184E+02  0.00000000000E+00 0. -1.
         11    1    3    3    0    0  0.11124299285E+01  0.74765453850E+00 -0.21026650863E+01  0.24935293023E+01  0.51100000000E-03 0. -1.
        -11    1    3    3    0    0 -0.31122309951E+00 -0.49097583988E+01  0.24543319807E+00  0.49257309171E+01  0.51100000000E-03 0.  1.
        -12    1    3    3    0    0  0.30469758106E+02 -0.25408176495E+02  0.74561953508E+01  0.40368012596E+02  0.00000000000E+00 0.  1.
</event>
<event>
 7    1  0.1813014E-010  0.4778727E+02  0.7816164E-02  0.1312668E+00
        -11   -1    0    0    0    0  0.00000000000E+00  0.00000000000E+00  0.45593999997E+02  0.45594000000E+02  0.51100000000E-03 0. -1.
         11   -1    0    0    0    0 -0.00000000000E+00 -0.00000000000E+00 -0.45593999997E+02  0.45594000000E+02  0.51100000000E-03 0.  1.
    9900012    2    1    2    0    0  0.40201217009E+02  0.15967477966E+02 -0.35390670861E+01  0.47787271925E+02  0.20000004016E+02 0.  0.
         12    1    1    2    0    0 -0.40201217009E+02 -0.15967477966E+02  0.35390670861E+01  0.43400728075E+02  0.00000000000E+00 0. -1.
         11    1    3    3    0    0  0.26869286522E+02  0.49150883308E+01  0.42404493563E+00  0.27318427222E+02  0.51100000000E-03 0. -1.
        -11    1    3    3    0    0  0.14926154863E+02  0.10736678070E+02 -0.31603571034E+01  0.18656211091E+02  0.51100000000E-03 0.  1.
         12    1    3    3    0    0 -0.15942243764E+01  0.31571156493E+00 -0.80275491828E+00  0.18126336126E+01  0.00000000000E+00 0. -1.
</event>
<event>
 7    1  0.1813014E-010  0.4778727E+02  0.7816164E-02  0.1312668E+00
        -11   -1    0    0    0    0  0.00000000000E+00  0.00000000000E+00  0.45593999997E+02  0.45594000000E+02  0.51100000000E-03 0. -1.
         11   -1    0    0    0    0 -0.00000000000E+00 -0.00000000000E+00 -0.45593999997E+02  0.45594000000E+02  0.51100000000E-03 0.  1.
    9900012    2    1    2    0    0  0.10430083918E+02 -0.21468343370E+02  0.36248404067E+02  0.47787271723E+02  0.20000003093E+02 0.  0.
         12    1    1    2    0    0 -0.10430083918E+02  0.21468343370E+02 -0.36248404067E+02  0.43400728277E+02  0.00000000000E+00 0. -1.
         11    1    3    3    0    0  0.21569950908E+01  0.21079723268E+01  0.70850388681E+01  0.77002565656E+01  0.51100000000E-03 0. -1.
        -11    1    3    3    0    0 -0.19458688336E+01 -0.84677747856E+01  0.57987346940E+01  0.10445809669E+02  0.51100000000E-03 0.  1.
        -12    1    3    3    0    0  0.10218957660E+02 -0.15108540911E+02  0.23364630505E+02  0.29641205488E+02  0.00000000000E+00 0.  1.
</event>
<event>
 7    1  0.1813014E-010  0.4778726E+02  0.7816164E-02  0.1312668E+00
        -11   -1    0    0    0    0  0.00000000000E+00  0.00000000000E+00  0.45593999997E+02  0.45594000000E+02  0.51100000000E-03 0.  1.
         11   -1    0    0    0    0 -0.00000000000E+00 -0.00000000000E+00 -0.45593999997E+02  0.45594000000E+02  0.51100000000E-03 0. -1.
    9900012    2    1    2    0    0 -0.30594849203E+02  0.10949821125E+02  0.28769442879E+02  0.47787260098E+02  0.19999950093E+02 0.  0.
         12    1    1    2    0    0  0.30594849203E+02 -0.10949821125E+02 -0.28769442879E+02  0.43400739902E+02  0.00000000000E+00 0. -1.
         11    1    3    3    0    0 -0.18774771135E+02  0.36570029052E+01  0.10806454150E+02  0.21969186443E+02  0.51100000000E-03 0. -1.
        -11    1    3    3    0    0 -0.10411373281E+02  0.45774989074E+01  0.19361313110E+02  0.22454635055E+02  0.51100000000E-03 0.  1.
        -12    1    3    3    0    0 -0.14087047865E+01  0.27153193128E+01 -0.13983243805E+01  0.33634386005E+01  0.00000000000E+00 0.  1.
</event>
<event>
 7    1  0.1813014E-010  0.4778727E+02  0.7816164E-02  0.1312668E+00
        -11   -1    0    0    0    0  0.00000000000E+00  0.00000000000E+00  0.45593999997E+02  0.45594000000E+02  0.51100000000E-03 0. -1.
         11   -1    0    0    0    0 -0.00000000000E+00 -0.00000000000E+00 -0.45593999997E+02  0.45594000000E+02  0.51100000000E-03 0.  1.
    9900012    2    1    2    0    0 -0.42620026856E+02  0.32562484128E+01 -0.75202232559E+01  0.47787267279E+02  0.19999982832E+02 0.  0.
         12    1    1    2    0    0  0.42620026856E+02 -0.32562484128E+01  0.75202232559E+01  0.43400732721E+02  0.00000000000E+00 0. -1.
         11    1    3    3    0    0 -0.25264930293E+01  0.26506196230E+01  0.36549859515E+01  0.51737678707E+01  0.51100000000E-03 0. -1.
        -11    1    3    3    0    0 -0.13763451872E+02 -0.14156544823E+01 -0.80866780753E+01  0.16025949195E+02  0.51100000000E-03 0.  1.
        -12    1    3    3    0    0 -0.26330081955E+02  0.20212832721E+01 -0.30885311322E+01  0.26587550214E+02  0.00000000000E+00 0.  1.
</event>
<event>
 7    1  0.1813014E-010  0.4778727E+02  0.7816164E-02  0.1312668E+00
        -11   -1    0    0    0    0  0.00000000000E+00  0.00000000000E+00  0.45593999997E+02  0.45594000000E+02  0.51100000000E-03 0. -1.
         11   -1    0    0    0    0 -0.00000000000E+00 -0.00000000000E+00 -0.45593999997E+02  0.45594000000E+02  0.51100000000E-03 0.  1.
    9900012    2    1    2    0    0  0.65214030533E+01 -0.39534030921E+02 -0.16677970794E+02  0.47787274103E+02  0.20000013944E+02 0.  0.
         12    1    1    2    0    0 -0.65214030533E+01  0.39534030921E+02  0.16677970794E+02  0.43400725897E+02  0.00000000000E+00 0. -1.
         11    1    3    3    0    0  0.11472622948E+02 -0.30175571094E+02 -0.16042473711E+02  0.36049232047E+02  0.51100000000E-03 0.  1.
        -11    1    3    3    0    0 -0.21551149028E+01 -0.84622491150E+01 -0.95527070064E+00  0.87844591582E+01  0.51100000000E-03 0. -1.
        -12    1    3    3    0    0 -0.27961049916E+01 -0.89621071108E+00  0.31977361780E+00  0.29535828970E+01  0.00000000000E+00 0.  1.
</event>
<event>
 7    1  0.1813014E-010  0.4778726E+02  0.7816164E-02  0.1312668E+00
        -11   -1    0    0    0    0  0.00000000000E+00  0.00000000000E+00  0.45593999997E+02  0.45594000000E+02  0.51100000000E-03 0.  1.
         11   -1    0    0    0    0 -0.00000000000E+00 -0.00000000000E+00 -0.45593999997E+02  0.45594000000E+02  0.51100000000E-03 0. -1.
    9900012    2    1    2    0    0 -0.33662139986E+02  0.13178761791E+02  0.24016768725E+02  0.47787255642E+02  0.19999929776E+02 0.  0.
         12    1    1    2    0    0  0.33662139986E+02 -0.13178761791E+02 -0.24016768725E+02  0.43400744358E+02  0.00000000000E+00 0. -1.
         11    1    3    3    0    0 -0.79204931585E+01  0.33862551870E+01  0.12475679810E+01  0.87038705295E+01  0.51100000000E-03 0.  1.
        -11    1    3    3    0    0 -0.96404140138E+01  0.11833448918E+02  0.84877917478E+01  0.17464555668E+02  0.51100000000E-03 0. -1.
         12    1    3    3    0    0 -0.16101232814E+02 -0.20409423144E+01  0.14281408996E+02  0.21618829445E+02  0.00000000000E+00 0. -1.
</event>
<event>
 7    1  0.1813014E-010  0.4778725E+02  0.7816164E-02  0.1312668E+00
        -11   -1    0    0    0    0  0.00000000000E+00  0.00000000000E+00  0.45593999997E+02  0.45594000000E+02  0.51100000000E-03 0. -1.
         11   -1    0    0    0    0 -0.00000000000E+00 -0.00000000000E+00 -0.45593999997E+02  0.45594000000E+02  0.51100000000E-03 0.  1.
    9900012    2    1    2    0    0 -0.22853169485E+02 -0.99096591282E+01 -0.35540907884E+02  0.47787253086E+02  0.19999918119E+02 0.  0.
         12    1    1    2    0    0  0.22853169485E+02  0.99096591282E+01  0.35540907884E+02  0.43400746914E+02  0.00000000000E+00 0. -1.
         11    1    3    3    0    0 -0.29062439106E+01 -0.84172671669E+01 -0.12475879252E+02  0.15327889731E+02  0.51100000000E-03 0. -1.
        -11    1    3    3    0    0 -0.16060507965E+01 -0.35905927486E+01 -0.67999796810E+01  0.78556654314E+01  0.51100000000E-03 0.  1.
        -12    1    3    3    0    0 -0.18340874778E+02  0.20982007873E+01 -0.16265048951E+02  0.24603697924E+02  0.00000000000E+00 0.  1.
</event>
<event>
 7    1  0.1813014E-010  0.4778727E+02  0.7816164E-02  0.1312668E+00
        -11   -1    0    0    0    0  0.00000000000E+00  0.00000000000E+00  0.45593999997E+02  0.45594000000E+02  0.51100000000E-03 0. -1.
         11   -1    0    0    0    0 -0.00000000000E+00 -0.00000000000E+00 -0.45593999997E+02  0.45594000000E+02  0.51100000000E-03 0.  1.
    9900012    2    1    2    0    0 -0.24647316342E+02  0.10851652945E+02 -0.34034909676E+02  0.47787266698E+02  0.19999980183E+02 0.  0.
         12    1    1    2    0    0  0.24647316342E+02 -0.10851652945E+02  0.34034909676E+02  0.43400733302E+02  0.00000000000E+00 0. -1.
         11    1    3    3    0    0 -0.15296536000E+02  0.13128361549E+01 -0.14704876836E+02  0.21258902967E+02  0.51100000000E-03 0.  1.
        -11    1    3    3    0    0 -0.56983646069E+01  0.97126249197E+01 -0.19863189293E+02  0.22833149830E+02  0.51100000000E-03 0. -1.
         12    1    3    3    0    0 -0.36524157352E+01 -0.17380812955E+00  0.53315645230E+00  0.36952139006E+01  0.00000000000E+00 0. -1.
</event>
<event>
 7    1  0.1813014E-010  0.4778726E+02  0.7816164E-02  0.1312668E+00
        -11   -1    0    0    0    0  0.00000000000E+00  0.00000000000E+00  0.45593999997E+02  0.45594000000E+02  0.51100000000E-03 0.  1.
         11   -1    0    0    0    0 -0.00000000000E+00 -0.00000000000E+00 -0.45593999997E+02  0.45594000000E+02  0.51100000000E-03 0. -1.
    9900012    2    1    2    0    0  0.30464305803E+02 -0.58561503234E+01  0.30352196167E+02  0.47787259951E+02  0.19999949419E+02 0.  0.
         12    1    1    2    0    0 -0.30464305803E+02  0.58561503234E+01 -0.30352196167E+02  0.43400740049E+02  0.00000000000E+00 0. -1.
         11    1    3    3    0    0  0.26740216092E+01 -0.40278883222E+01  0.12010587793E+02  0.12947142361E+02  0.51100000000E-03 0. -1.
        -11    1    3    3    0    0  0.97048636488E+01 -0.53516524761E+01  0.83801591484E+01  0.13894302080E+02  0.51100000000E-03 0.  1.
         12    1    3    3    0    0  0.18085420545E+02  0.35233904748E+01  0.99614492256E+01  0.20945815510E+02  0.00000000000E+00 0. -1.
</event>
<event>
 7    1  0.1813014E-010  0.4778727E+02  0.7816164E-02  0.1312668E+00
        -11   -1    0    0    0    0  0.00000000000E+00  0.00000000000E+00  0.45593999997E+02  0.45594000000E+02  0.51100000000E-03 0.  1.
         11   -1    0    0    0    0 -0.00000000000E+00 -0.00000000000E+00 -0.45593999997E+02  0.45594000000E+02  0.51100000000E-03 0. -1.
    9900012    2    1    2    0    0  0.18837374633E+02 -0.16353194524E+02  0.35515484280E+02  0.47787270999E+02  0.19999999792E+02 0.  0.
         12    1    1    2    0    0 -0.18837374633E+02  0.16353194524E+02 -0.35515484280E+02  0.43400729001E+02  0.00000000000E+00 0. -1.
         11    1    3    3    0    0 -0.17338363973E+01 -0.42147133531E+00 -0.12095527031E+01  0.21556541332E+01  0.51100000000E-03 0. -1.
        -11    1    3    3    0    0  0.67631900809E+01 -0.99600570120E+01  0.16421816309E+02  0.20362208301E+02  0.51100000000E-03 0.  1.
         12    1    3    3    0    0  0.13808020950E+02 -0.59716661765E+01  0.20303220674E+02  0.25269408565E+02  0.00000000000E+00 0. -1.
</event>
<event>
 7    1  0.1813014E-010  0.4778727E+02  0.7816164E-02  0.1312668E+00
        -11   -1    0    0    0    0  0.00000000000E+00  0.00000000000E+00  0.45593999997E+02  0.45594000000E+02  0.51100000000E-03 0.  1.
         11   -1    0    0    0    0 -0.00000000000E+00 -0.00000000000E+00 -0.45593999997E+02  0.45594000000E+02  0.51100000000E-03 0. -1.
    9900012    2    1    2    0    0  0.42876730099E+02  0.66559675143E+01  0.95239481343E+00  0.47787274852E+02  0.20000017360E+02 0.  0.
         12    1    1    2    0    0 -0.42876730099E+02 -0.66559675143E+01 -0.95239481343E+00  0.43400725148E+02  0.00000000000E+00 0. -1.
         11    1    3    3    0    0  0.24121991600E+02  0.32700130551E+01 -0.74216299916E+01  0.25448851765E+02  0.51100000000E-03 0. -1.
        -11    1    3    3    0    0  0.89793700889E+01  0.55489711570E+01  0.29907042103E+01  0.10971074698E+02  0.51100000000E-03 0.  1.
         12    1    3    3    0    0  0.97753684095E+01 -0.21630166978E+01  0.53833205948E+01  0.11367348389E+02  0.00000000000E+00 0. -1.
</event>
<event>
 7    1  0.1813014E-010  0.4778726E+02  0.7816164E-02  0.1312668E+00
        -11   -1    0    0    0    0  0.00000000000E+00  0.00000000000E+00  0.45593999997E+02  0.45594000000E+02  0.51100000000E-03 0.  1.
         11   -1    0    0    0    0 -0.00000000000E+00 -0.00000000000E+00 -0.45593999997E+02  0.45594000000E+02  0.51100000000E-03 0. -1.
    9900012    2    1    2    0    0  0.20145429994E+02 -0.38021791716E+02 -0.56682279365E+01  0.47787264950E+02  0.19999972214E+02 0.  0.
         12    1    1    2    0    0 -0.20145429994E+02  0.38021791716E+02  0.56682279365E+01  0.43400735050E+02  0.00000000000E+00 0. -1.
         11    1    3    3    0    0  0.50228245396E+01 -0.10784152903E+01  0.43225148189E+00  0.51554425124E+01  0.51100000000E-03 0. -1.
        -11    1    3    3    0    0  0.17367218919E+02 -0.33369186780E+02 -0.71291897857E+01  0.38287703856E+02  0.51100000000E-03 0.  1.
         12    1    3    3    0    0 -0.22446134649E+01 -0.35741896457E+01  0.10287103674E+01  0.43441185815E+01  0.00000000000E+00 0. -1.
</event>
<event>
 7    1  0.1813014E-010  0.4778727E+02  0.7816164E-02  0.1312668E+00
        -11   -1    0    0    0    0  0.00000000000E+00  0.00000000000E+00  0.45593999997E+02  0.45594000000E+02  0.51100000000E-03 0.  1.
         11   -1    0    0    0    0 -0.00000000000E+00 -0.00000000000E+00 -0.45593999997E+02  0.45594000000E+02  0.51100000000E-03 0. -1.
    9900012    2    1    2    0    0 -0.11805094166E+02  0.21572868851E+02  0.35761348604E+02  0.47787274514E+02  0.20000015820E+02 0.  0.
         12    1    1    2    0    0  0.11805094166E+02 -0.21572868851E+02 -0.35761348604E+02  0.43400725486E+02  0.00000000000E+00 0. -1.
         11    1    3    3    0    0 -0.79290685373E+01  0.12732728227E+01  0.28855719711E+01  0.85333391712E+01  0.51100000000E-03 0. -1.
        -11    1    3    3    0    0 -0.22878647973E+01  0.58102733557E+01  0.14585173101E+02  0.15865713865E+02  0.51100000000E-03 0.  1.
         12    1    3    3    0    0 -0.15881608310E+01  0.14489322673E+02  0.18290603532E+02  0.23388221478E+02  0.00000000000E+00 0. -1.
</event>
<event>
 7    1  0.1813014E-010  0.4778727E+02  0.7816164E-02  0.1312668E+00
        -11   -1    0    0    0    0  0.00000000000E+00  0.00000000000E+00  0.45593999997E+02  0.45594000000E+02  0.51100000000E-03 0. -1.
         11   -1    0    0    0    0 -0.00000000000E+00 -0.00000000000E+00 -0.45593999997E+02  0.45594000000E+02  0.51100000000E-03 0.  1.
    9900012    2    1    2    0    0 -0.19282259448E+02  0.30249289326E+02  0.24429450744E+02  0.47787273073E+02  0.20000009249E+02 0.  0.
         12    1    1    2    0    0  0.19282259448E+02 -0.30249289326E+02 -0.24429450744E+02  0.43400726927E+02  0.00000000000E+00 0. -1.
         11    1    3    3    0    0 -0.63542891682E+01  0.23344066818E+02  0.18476131617E+02  0.30441581533E+02  0.51100000000E-03 0. -1.
        -11    1    3    3    0    0 -0.88192888207E+01  0.64539417073E+01  0.71291673467E+01  0.13048304341E+02  0.51100000000E-03 0.  1.
         12    1    3    3    0    0 -0.41086814594E+01  0.45128080035E+00 -0.11758482203E+01  0.42973871984E+01  0.00000000000E+00 0. -1.
</event>
<event>
 7    1  0.1813014E-010  0.4778727E+02  0.7816164E-02  0.1312668E+00
        -11   -1    0    0    0    0  0.00000000000E+00  0.00000000000E+00  0.45593999997E+02  0.45594000000E+02  0.51100000000E-03 0.  1.
         11   -1    0    0    0    0 -0.00000000000E+00 -0.00000000000E+00 -0.45593999997E+02  0.45594000000E+02  0.51100000000E-03 0. -1.
    9900012    2    1    2    0    0  0.10356255970E+02 -0.16308332312E+02  0.38863987235E+02  0.47787271385E+02  0.20000001554E+02 0.  0.
         12    1    1    2    0    0 -0.10356255970E+02  0.16308332312E+02 -0.38863987235E+02  0.43400728615E+02  0.00000000000E+00 0. -1.
         11    1    3    3    0    0 -0.37074611190E+01 -0.30452605018E+01  0.31180163300E+01  0.57219669318E+01  0.51100000000E-03 0. -1.
        -11    1    3    3    0    0  0.57148924080E+01  0.43374043237E+00  0.13246546737E+02  0.14433264589E+02  0.51100000000E-03 0.  1.
        -12    1    3    3    0    0  0.83488246811E+01 -0.13696812242E+02  0.22499424168E+02  0.27632039864E+02  0.00000000000E+00 0.  1.
</event>
<event>
 7    1  0.1813014E-010  0.4778721E+02  0.7816164E-02  0.1312668E+00
        -11   -1    0    0    0    0  0.00000000000E+00  0.00000000000E+00  0.45593999997E+02  0.45594000000E+02  0.51100000000E-03 0.  1.
         11   -1    0    0    0    0 -0.00000000000E+00 -0.00000000000E+00 -0.45593999997E+02  0.45594000000E+02  0.51100000000E-03 0. -1.
    9900012    2    1    2    0    0  0.16313635592E+02  0.20771354459E+02  0.34438994147E+02  0.47787214406E+02  0.19999741762E+02 0.  0.
         12    1    1    2    0    0 -0.16313635592E+02 -0.20771354459E+02 -0.34438994147E+02  0.43400785594E+02  0.00000000000E+00 0. -1.
         11    1    3    3    0    0 -0.24516171954E+01  0.46090579409E+01  0.26717995833E+01  0.58644995737E+01  0.51100000000E-03 0. -1.
        -11    1    3    3    0    0  0.92258699383E+01  0.48345081201E+01  0.21536832407E+02  0.23923300259E+02  0.51100000000E-03 0.  1.
         12    1    3    3    0    0  0.95393828494E+01  0.11327788398E+02  0.10230362157E+02  0.17999414574E+02  0.00000000000E+00 0. -1.
</event>
<event>
 7    1  0.1813014E-010  0.4778727E+02  0.7816164E-02  0.1312668E+00
        -11   -1    0    0    0    0  0.00000000000E+00  0.00000000000E+00  0.45593999997E+02  0.45594000000E+02  0.51100000000E-03 0. -1.
         11   -1    0    0    0    0 -0.00000000000E+00 -0.00000000000E+00 -0.45593999997E+02  0.45594000000E+02  0.51100000000E-03 0.  1.
    9900012    2    1    2    0    0 -0.10629485238E+02 -0.41695813496E+02 -0.56653722197E+01  0.47787271182E+02  0.20000000626E+02 0.  0.
         12    1    1    2    0    0  0.10629485238E+02  0.41695813496E+02  0.56653722197E+01  0.43400728818E+02  0.00000000000E+00 0. -1.
         11    1    3    3    0    0 -0.23519137935E+01 -0.50739282322E+01  0.41087039675E+01  0.69395745368E+01  0.51100000000E-03 0. -1.
        -11    1    3    3    0    0 -0.65545695312E+01 -0.10432820797E+02 -0.76801074777E+01  0.14518615039E+02  0.51100000000E-03 0.  1.
        -12    1    3    3    0    0 -0.17230019134E+01 -0.26189064467E+02 -0.20939687095E+01  0.26329081606E+02  0.00000000000E+00 0.  1.
</event>
<event>
 7    1  0.1813014E-010  0.4778727E+02  0.7816164E-02  0.1312668E+00
        -11   -1    0    0    0    0  0.00000000000E+00  0.00000000000E+00  0.45593999997E+02  0.45594000000E+02  0.51100000000E-03 0.  1.
         11   -1    0    0    0    0 -0.00000000000E+00 -0.00000000000E+00 -0.45593999997E+02  0.45594000000E+02  0.51100000000E-03 0. -1.
    9900012    2    1    2    0    0  0.74946165979E+01 -0.21113788771E+02  0.37170712695E+02  0.47787271476E+02  0.20000001967E+02 0.  0.
         12    1    1    2    0    0 -0.74946165979E+01  0.21113788771E+02 -0.37170712695E+02  0.43400728524E+02  0.00000000000E+00 0. -1.
         11    1    3    3    0    0 -0.18548788880E+01  0.58907788532E+00  0.68134969831E+01  0.70859953319E+01  0.51100000000E-03 0. -1.
        -11    1    3    3    0    0  0.54869103930E+01 -0.61073862931E+01  0.19910786304E+02  0.21537078830E+02  0.51100000000E-03 0.  1.
         12    1    3    3    0    0  0.38625850929E+01 -0.15595480363E+02  0.10446429407E+02  0.19164197314E+02  0.00000000000E+00 0. -1.
</event>
<event>
 7    1  0.1813014E-010  0.4778730E+02  0.7816164E-02  0.1312668E+00
        -11   -1    0    0    0    0  0.00000000000E+00  0.00000000000E+00  0.45593999997E+02  0.45594000000E+02  0.51100000000E-03 0.  1.
         11   -1    0    0    0    0 -0.00000000000E+00 -0.00000000000E+00 -0.45593999997E+02  0.45594000000E+02  0.51100000000E-03 0. -1.
    9900012    2    1    2    0    0 -0.85995507098E+01  0.13993196933E+02  0.40172864656E+02  0.47787298537E+02  0.20000125348E+02 0.  0.
         12    1    1    2    0    0  0.85995507098E+01 -0.13993196933E+02 -0.40172864656E+02  0.43400701463E+02  0.00000000000E+00 0. -1.
         11    1    3    3    0    0 -0.25026566234E+01  0.59819229432E+01  0.49757684184E+01  0.81734303623E+01  0.51100000000E-03 0. -1.
        -11    1    3    3    0    0  0.45118875116E+01  0.39477441656E+01  0.70125507181E+01  0.92259243845E+01  0.51100000000E-03 0.  1.
         12    1    3    3    0    0 -0.10608781598E+02  0.40635298244E+01  0.28184545520E+02  0.30387943790E+02  0.00000000000E+00 0. -1.
</event>
<event>
 7    1  0.1813014E-010  0.4778727E+02  0.7816164E-02  0.1312668E+00
        -11   -1    0    0    0    0  0.00000000000E+00  0.00000000000E+00  0.45593999997E+02  0.45594000000E+02  0.51100000000E-03 0. -1.
         11   -1    0    0    0    0 -0.00000000000E+00 -0.00000000000E+00 -0.45593999997E+02  0.45594000000E+02  0.51100000000E-03 0.  1.
    9900012    2    1    2    0    0  0.21161871880E+02 -0.18706966701E+02 -0.32952202788E+02  0.47787273126E+02  0.20000009489E+02 0.  0.
         12    1    1    2    0    0 -0.21161871880E+02  0.18706966701E+02  0.32952202788E+02  0.43400726874E+02  0.00000000000E+00 0. -1.
         11    1    3    3    0    0  0.81938906313E+01 -0.22848023904E+01 -0.11490877909E+02  0.14296868225E+02  0.51100000000E-03 0.  1.
        -11    1    3    3    0    0  0.12498200881E+01 -0.12411520455E+02 -0.15037836326E+02  0.19538280678E+02  0.51100000000E-03 0. -1.
         12    1    3    3    0    0  0.11718161161E+02 -0.40106438558E+01 -0.64234885534E+01  0.13952124223E+02  0.00000000000E+00 0. -1.
</event>
<event>
 7    1  0.1813014E-010  0.4778727E+02  0.7816164E-02  0.1312668E+00
        -11   -1    0    0    0    0  0.00000000000E+00  0.00000000000E+00  0.45593999997E+02  0.45594000000E+02  0.51100000000E-03 0.  1.
         11   -1    0    0    0    0 -0.00000000000E+00 -0.00000000000E+00 -0.45593999997E+02  0.45594000000E+02  0.51100000000E-03 0. -1.
    9900012    2    1    2    0    0 -0.43648544280E+01  0.42381396616E+02  0.82697452959E+01  0.47787269354E+02  0.19999992294E+02 0.  0.
         12    1    1    2    0    0  0.43648544280E+01 -0.42381396616E+02 -0.82697452959E+01  0.43400730646E+02  0.00000000000E+00 0. -1.
         11    1    3    3    0    0 -0.23955404724E+01  0.58202999995E+01 -0.45709908329E+01  0.77787186409E+01  0.51100000000E-03 0. -1.
        -11    1    3    3    0    0 -0.17371852735E+01  0.10238494707E+02  0.83044201455E+01  0.13296916213E+02  0.51100000000E-03 0.  1.
        -12    1    3    3    0    0 -0.23212868209E+00  0.26322601909E+02  0.45363159833E+01  0.26711634501E+02  0.00000000000E+00 0.  1.
</event>
<event>
 7    1  0.1813014E-010  0.4778727E+02  0.7816164E-02  0.1312668E+00
        -11   -1    0    0    0    0  0.00000000000E+00  0.00000000000E+00  0.45593999997E+02  0.45594000000E+02  0.51100000000E-03 0.  1.
         11   -1    0    0    0    0 -0.00000000000E+00 -0.00000000000E+00 -0.45593999997E+02  0.45594000000E+02  0.51100000000E-03 0. -1.
    9900012    2    1    2    0    0  0.17285064786E+02  0.12670129614E+02  0.37740133821E+02  0.47787270168E+02  0.19999996005E+02 0.  0.
         12    1    1    2    0    0 -0.17285064786E+02 -0.12670129614E+02 -0.37740133821E+02  0.43400729832E+02  0.00000000000E+00 0. -1.
         11    1    3    3    0    0  0.61347836660E+01 -0.18311120450E+01  0.39407619441E+01  0.75178552068E+01  0.51100000000E-03 0. -1.
        -11    1    3    3    0    0  0.10593717623E+02  0.73790761177E+01  0.28766363813E+02  0.31530640728E+02  0.51100000000E-03 0.  1.
         12    1    3    3    0    0  0.55656349663E+00  0.71221655418E+01  0.50330080637E+01  0.87387742333E+01  0.00000000000E+00 0. -1.
</event>
<event>
 7    1  0.1813014E-010  0.4778726E+02  0.7816164E-02  0.1312668E+00
        -11   -1    0    0    0    0  0.00000000000E+00  0.00000000000E+00  0.45593999997E+02  0.45594000000E+02  0.51100000000E-03 0.  1.
         11   -1    0    0    0    0 -0.00000000000E+00 -0.00000000000E+00 -0.45593999997E+02  0.45594000000E+02  0.51100000000E-03 0. -1.
    9900012    2    1    2    0    0 -0.29051451288E+02  0.30792161310E+02  0.95645327679E+01  0.47787259140E+02  0.19999945725E+02 0.  0.
         12    1    1    2    0    0  0.29051451288E+02 -0.30792161310E+02 -0.95645327679E+01  0.43400740860E+02  0.00000000000E+00 0. -1.
         11    1    3    3    0    0 -0.89228184104E+01  0.55715082585E+01  0.10708681514E+02  0.15011137621E+02  0.51100000000E-03 0. -1.
        -11    1    3    3    0    0 -0.38993755306E+00  0.30125092023E+00  0.78608181754E+00  0.92775443799E+00  0.51100000000E-03 0.  1.
        -12    1    3    3    0    0 -0.19738695325E+02  0.24919402131E+02 -0.19302305637E+01  0.31848367081E+02  0.00000000000E+00 0.  1.
</event>
<event>
 7    1  0.1813014E-010  0.4778727E+02  0.7816164E-02  0.1312668E+00
        -11   -1    0    0    0    0  0.00000000000E+00  0.00000000000E+00  0.45593999997E+02  0.45594000000E+02  0.51100000000E-03 0.  1.
         11   -1    0    0    0    0 -0.00000000000E+00 -0.00000000000E+00 -0.45593999997E+02  0.45594000000E+02  0.51100000000E-03 0. -1.
    9900012    2    1    2    0    0 -0.22921969272E+02  0.90590144562E+01  0.35723111034E+02  0.47787273276E+02  0.20000010176E+02 0.  0.
         12    1    1    2    0    0  0.22921969272E+02 -0.90590144562E+01 -0.35723111034E+02  0.43400726724E+02  0.00000000000E+00 0. -1.
         11    1    3    3    0    0 -0.41586530398E+01  0.34647855110E+01  0.13790022758E+02  0.14814312730E+02  0.51100000000E-03 0. -1.
        -11    1    3    3    0    0 -0.17527450525E+02 -0.12825203901E+01  0.14641335556E+02  0.22874113919E+02  0.51100000000E-03 0.  1.
        -12    1    3    3    0    0 -0.12358657072E+01  0.68767493353E+01  0.72917527203E+01  0.10098846627E+02  0.00000000000E+00 0.  1.
</event>
<event>
 7    1  0.1813014E-010  0.4778727E+02  0.7816164E-02  0.1312668E+00
        -11   -1    0    0    0    0  0.00000000000E+00  0.00000000000E+00  0.45593999997E+02  0.45594000000E+02  0.51100000000E-03 0.  1.
         11   -1    0    0    0    0 -0.00000000000E+00 -0.00000000000E+00 -0.45593999997E+02  0.45594000000E+02  0.51100000000E-03 0. -1.
    9900012    2    1    2    0    0  0.43780703436E+01  0.13933805011E+02  0.40869366473E+02  0.47787268002E+02  0.19999986130E+02 0.  0.
         12    1    1    2    0    0 -0.43780703436E+01 -0.13933805011E+02 -0.40869366473E+02  0.43400731998E+02  0.00000000000E+00 0. -1.
         11    1    3    3    0    0 -0.11578897106E+01  0.20326857316E+00  0.37203886926E+00  0.12330611810E+01  0.51100000000E-03 0. -1.
        -11    1    3    3    0    0  0.10894420420E+02  0.35673293931E+01  0.20886934467E+02  0.23825999811E+02  0.51100000000E-03 0.  1.
         12    1    3    3    0    0 -0.53584603662E+01  0.10163207044E+02  0.19610393137E+02  0.22728207010E+02  0.00000000000E+00 0. -1.
</event>
<event>
 7    1  0.1813014E-010  0.4778727E+02  0.7816164E-02  0.1312668E+00
        -11   -1    0    0    0    0  0.00000000000E+00  0.00000000000E+00  0.45593999997E+02  0.45594000000E+02  0.51100000000E-03 0.  1.
         11   -1    0    0    0    0 -0.00000000000E+00 -0.00000000000E+00 -0.45593999997E+02  0.45594000000E+02  0.51100000000E-03 0. -1.
    9900012    2    1    2    0    0 -0.75767295582E+01 -0.12227560120E+02  0.40947567197E+02  0.47787270552E+02  0.19999997755E+02 0.  0.
         12    1    1    2    0    0  0.75767295582E+01  0.12227560120E+02 -0.40947567197E+02  0.43400729448E+02  0.00000000000E+00 0. -1.
         11    1    3    3    0    0 -0.50170790267E+01 -0.68617127390E+01  0.19783382959E+02  0.21532218307E+02  0.51100000000E-03 0. -1.
        -11    1    3    3    0    0 -0.12944636283E+01 -0.10170071277E+02  0.16588795835E+02  0.19501131592E+02  0.51100000000E-03 0.  1.
         12    1    3    3    0    0 -0.12651869032E+01  0.48042238960E+01  0.45753884025E+01  0.67539206522E+01  0.00000000000E+00 0. -1.
</event>
<event>
 7    1  0.1813014E-010  0.4778729E+02  0.7816164E-02  0.1312668E+00
        -11   -1    0    0    0    0  0.00000000000E+00  0.00000000000E+00  0.45593999997E+02  0.45594000000E+02  0.51100000000E-03 0.  1.
         11   -1    0    0    0    0 -0.00000000000E+00 -0.00000000000E+00 -0.45593999997E+02  0.45594000000E+02  0.51100000000E-03 0. -1.
    9900012    2    1    2    0    0  0.13905452936E+02  0.30973327082E+02  0.27035399626E+02  0.47787292116E+02  0.20000096074E+02 0.  0.
         12    1    1    2    0    0 -0.13905452936E+02 -0.30973327082E+02 -0.27035399626E+02  0.43400707884E+02  0.00000000000E+00 0. -1.
         11    1    3    3    0    0 -0.22547194151E+01  0.22483632227E+01 -0.11239150892E+01  0.33766969379E+01  0.51100000000E-03 0. -1.
        -11    1    3    3    0    0  0.71045856799E+00 -0.76720655731E+00  0.94588489826E+00  0.14099843192E+01  0.51100000000E-03 0.  1.
        -12    1    3    3    0    0  0.15449713783E+02  0.29492170417E+02  0.27213429817E+02  0.43000610859E+02  0.00000000000E+00 0.  1.
</event>
<event>
 7    1  0.1813014E-010  0.4778728E+02  0.7816164E-02  0.1312668E+00
        -11   -1    0    0    0    0  0.00000000000E+00  0.00000000000E+00  0.45593999997E+02  0.45594000000E+02  0.51100000000E-03 0.  1.
         11   -1    0    0    0    0 -0.00000000000E+00 -0.00000000000E+00 -0.45593999997E+02  0.45594000000E+02  0.51100000000E-03 0. -1.
    9900012    2    1    2    0    0  0.18960550576E+02 -0.22890742699E+02  0.31624891659E+02  0.47787281666E+02  0.20000048428E+02 0.  0.
         12    1    1    2    0    0 -0.18960550576E+02  0.22890742699E+02 -0.31624891659E+02  0.43400718334E+02  0.00000000000E+00 0. -1.
         11    1    3    3    0    0 -0.71522025402E+00  0.68077001310E+00  0.14218429097E+00  0.99759934654E+00  0.51100000000E-03 0. -1.
        -11    1    3    3    0    0  0.13024502951E+02 -0.24381204284E+02  0.27518380120E+02  0.39004384935E+02  0.51100000000E-03 0.  1.
         12    1    3    3    0    0  0.66512678789E+01  0.80969157171E+00  0.39643272475E+01  0.77852973845E+01  0.00000000000E+00 0. -1.
</event>
<event>
 7    1  0.1813014E-010  0.4778727E+02  0.7816164E-02  0.1312668E+00
        -11   -1    0    0    0    0  0.00000000000E+00  0.00000000000E+00  0.45593999997E+02  0.45594000000E+02  0.51100000000E-03 0.  1.
         11   -1    0    0    0    0 -0.00000000000E+00 -0.00000000000E+00 -0.45593999997E+02  0.45594000000E+02  0.51100000000E-03 0. -1.
    9900012    2    1    2    0    0  0.15426041287E+02  0.18636117683E+02  0.36032702577E+02  0.47787270892E+02  0.19999999304E+02 0.  0.
         12    1    1    2    0    0 -0.15426041287E+02 -0.18636117683E+02 -0.36032702577E+02  0.43400729108E+02  0.00000000000E+00 0. -1.
         11    1    3    3    0    0  0.94764707648E-01  0.27983160413E+01 -0.79625404373E-01  0.28010522100E+01  0.51100000000E-03 0. -1.
        -11    1    3    3    0    0  0.77358468506E+01  0.16361045250E+02  0.30727336748E+02  0.35660851813E+02  0.51100000000E-03 0.  1.
         12    1    3    3    0    0  0.75954297292E+01 -0.52324360791E+00  0.53849912339E+01  0.93253668686E+01  0.00000000000E+00 0. -1.
</event>
<event>
 7    1  0.1813014E-010  0.4778727E+02  0.7816164E-02  0.1312668E+00
        -11   -1    0    0    0    0  0.00000000000E+00  0.00000000000E+00  0.45593999997E+02  0.45594000000E+02  0.51100000000E-03 0. -1.
         11   -1    0    0    0    0 -0.00000000000E+00 -0.00000000000E+00 -0.45593999997E+02  0.45594000000E+02  0.51100000000E-03 0.  1.
    9900012    2    1    2    0    0  0.38962853582E+02  0.16330845754E+01 -0.19048683572E+02  0.47787271086E+02  0.20000000188E+02 0.  0.
         12    1    1    2    0    0 -0.38962853582E+02 -0.16330845754E+01  0.19048683572E+02  0.43400728914E+02  0.00000000000E+00 0. -1.
         11    1    3    3    0    0  0.77743763872E+01 -0.31631147416E+01 -0.17416425205E+01  0.85720208824E+01  0.51100000000E-03 0. -1.
        -11    1    3    3    0    0  0.15562141343E+01  0.53212402925E+01 -0.24166716571E+01  0.60479503009E+01  0.51100000000E-03 0.  1.
        -12    1    3    3    0    0  0.29632263060E+02 -0.52504097557E+00 -0.14890369394E+02  0.33167299902E+02  0.00000000000E+00 0.  1.
</event>
<event>
 7    1  0.1813014E-010  0.4778728E+02  0.7816164E-02  0.1312668E+00
        -11   -1    0    0    0    0  0.00000000000E+00  0.00000000000E+00  0.45593999997E+02  0.45594000000E+02  0.51100000000E-03 0. -1.
         11   -1    0    0    0    0 -0.00000000000E+00 -0.00000000000E+00 -0.45593999997E+02  0.45594000000E+02  0.51100000000E-03 0.  1.
    9900012    2    1    2    0    0  0.83202557720E+01 -0.13684578162E+02 -0.40337676285E+02  0.47787280379E+02  0.20000042558E+02 0.  0.
         12    1    1    2    0    0 -0.83202557720E+01  0.13684578162E+02  0.40337676285E+02  0.43400719621E+02  0.00000000000E+00 0. -1.
         11    1    3    3    0    0  0.47359935956E+01 -0.89732357835E+01 -0.59388298503E+01  0.11756627748E+02  0.51100000000E-03 0. -1.
        -11    1    3    3    0    0  0.23737013765E+01 -0.72826666390E+01 -0.21537449498E+02  0.22858989976E+02  0.51100000000E-03 0.  1.
        -12    1    3    3    0    0  0.12105607999E+01  0.25713242604E+01 -0.12861396937E+02  0.13171662654E+02  0.00000000000E+00 0.  1.
</event>
<event>
 7    1  0.1813014E-010  0.4778726E+02  0.7816164E-02  0.1312668E+00
        -11   -1    0    0    0    0  0.00000000000E+00  0.00000000000E+00  0.45593999997E+02  0.45594000000E+02  0.51100000000E-03 0.  1.
         11   -1    0    0    0    0 -0.00000000000E+00 -0.00000000000E+00 -0.45593999997E+02  0.45594000000E+02  0.51100000000E-03 0. -1.
    9900012    2    1    2    0    0 -0.11999521259E+02 -0.35015500898E+02  0.22661651437E+02  0.47787259690E+02  0.19999948231E+02 0.  0.
         12    1    1    2    0    0  0.11999521259E+02  0.35015500898E+02 -0.22661651437E+02  0.43400740310E+02  0.00000000000E+00 0. -1.
         11    1    3    3    0    0 -0.14759270681E+02 -0.22242092434E+02  0.17927958355E+02  0.32155224115E+02  0.51100000000E-03 0. -1.
        -11    1    3    3    0    0  0.14846855612E+01 -0.17816217955E+01  0.38971029437E+01  0.45349618579E+01  0.51100000000E-03 0.  1.
        -12    1    3    3    0    0  0.12750638607E+01 -0.10991786669E+02  0.83659013868E+00  0.11097073717E+02  0.00000000000E+00 0.  1.
</event>
<event>
 7    1  0.1813014E-010  0.4778727E+02  0.7816164E-02  0.1312668E+00
        -11   -1    0    0    0    0  0.00000000000E+00  0.00000000000E+00  0.45593999997E+02  0.45594000000E+02  0.51100000000E-03 0.  1.
         11   -1    0    0    0    0 -0.00000000000E+00 -0.00000000000E+00 -0.45593999997E+02  0.45594000000E+02  0.51100000000E-03 0. -1.
    9900012    2    1    2    0    0  0.13821814781E+02  0.20447099861E+02  0.35700096653E+02  0.47787270080E+02  0.19999995601E+02 0.  0.
         12    1    1    2    0    0 -0.13821814781E+02 -0.20447099861E+02 -0.35700096653E+02  0.43400729920E+02  0.00000000000E+00 0. -1.
         11    1    3    3    0    0  0.86911291474E+01  0.15541897849E+02  0.13910741503E+02  0.22596350237E+02  0.51100000000E-03 0. -1.
        -11    1    3    3    0    0 -0.30290282524E+01  0.26209091341E+01  0.52104208028E+01  0.65721124494E+01  0.51100000000E-03 0.  1.
         12    1    3    3    0    0  0.81597138861E+01  0.22842928779E+01  0.16578934347E+02  0.18618807393E+02  0.00000000000E+00 0. -1.
</event>
<event>
 7    1  0.2151936E-010  0.4778727E+02  0.7816164E-02  0.1312668E+00
        -11   -1    0    0    0    0  0.00000000000E+00  0.00000000000E+00  0.45593999997E+02  0.45594000000E+02  0.51100000000E-03 0.  1.
         11   -1    0    0    0    0 -0.00000000000E+00 -0.00000000000E+00 -0.45593999997E+02  0.45594000000E+02  0.51100000000E-03 0. -1.
    9900012    2    1    2    0    0 -0.24422036530E+02  0.14650671844E+02  0.32749731132E+02  0.47787274856E+02  0.20000017380E+02 0.  0.
         12    1    1    2    0    0  0.24422036530E+02 -0.14650671844E+02 -0.32749731132E+02  0.43400725144E+02  0.00000000000E+00 0. -1.
         11    1    3    3    0    0  0.18012799508E+01  0.54424067063E+01  0.21884276017E+01  0.61362542196E+01  0.51100000000E-03 0. -1.
        -11    1    3    3    0    0 -0.98002626072E+01  0.59857943945E+01  0.10926566252E+02  0.15851332185E+02  0.51100000000E-03 0.  1.
         12    1    3    3    0    0 -0.16423053874E+02  0.32224707427E+01  0.19634737278E+02  0.25799688452E+02  0.00000000000E+00 0. -1.
</event>
<event>
 7    1  0.1813014E-010  0.4778727E+02  0.7816164E-02  0.1312668E+00
        -11   -1    0    0    0    0  0.00000000000E+00  0.00000000000E+00  0.45593999997E+02  0.45594000000E+02  0.51100000000E-03 0.  1.
         11   -1    0    0    0    0 -0.00000000000E+00 -0.00000000000E+00 -0.45593999997E+02  0.45594000000E+02  0.51100000000E-03 0. -1.
    9900012    2    1    2    0    0  0.26216724424E+02  0.18924532998E+02  0.28951143486E+02  0.47787270768E+02  0.19999998740E+02 0.  0.
         12    1    1    2    0    0 -0.26216724424E+02 -0.18924532998E+02 -0.28951143486E+02  0.43400729232E+02  0.00000000000E+00 0. -1.
         11    1    3    3    0    0  0.49267107713E+01  0.73734260461E+01  0.78868432563E+00  0.89029160340E+01  0.51100000000E-03 0. -1.
        -11    1    3    3    0    0  0.88326367394E+01  0.66678564107E+01  0.50199243990E+01  0.12152177670E+02  0.51100000000E-03 0.  1.
         12    1    3    3    0    0  0.12457376914E+02  0.48832505408E+01  0.23142534761E+02  0.26732177064E+02  0.00000000000E+00 0. -1.
</event>
<event>
 7    1  0.1813014E-010  0.4778727E+02  0.7816164E-02  0.1312668E+00
        -11   -1    0    0    0    0  0.00000000000E+00  0.00000000000E+00  0.45593999997E+02  0.45594000000E+02  0.51100000000E-03 0. -1.
         11   -1    0    0    0    0 -0.00000000000E+00 -0.00000000000E+00 -0.45593999997E+02  0.45594000000E+02  0.51100000000E-03 0.  1.
    9900012    2    1    2    0    0 -0.14741850758E+02  0.40806097990E+02 -0.10784932572E+01  0.47787274838E+02  0.20000017296E+02 0.  0.
         12    1    1    2    0    0  0.14741850758E+02 -0.40806097990E+02  0.10784932572E+01  0.43400725162E+02  0.00000000000E+00 0. -1.
         11    1    3    3    0    0 -0.24257558190E+01  0.90318666042E+01 -0.32063336546E+01  0.98863280046E+01  0.51100000000E-03 0. -1.
        -11    1    3    3    0    0 -0.13196472326E+02  0.25079769946E+02 -0.41974445719E+01  0.28648914178E+02  0.51100000000E-03 0.  1.
         12    1    3    3    0    0  0.88037738723E+00  0.66944614393E+01  0.63252849693E+01  0.92520326550E+01  0.00000000000E+00 0. -1.
</event>
<event>
 7    1  0.1813014E-010  0.4778726E+02  0.7816164E-02  0.1312668E+00
        -11   -1    0    0    0    0  0.00000000000E+00  0.00000000000E+00  0.45593999997E+02  0.45594000000E+02  0.51100000000E-03 0. -1.
         11   -1    0    0    0    0 -0.00000000000E+00 -0.00000000000E+00 -0.45593999997E+02  0.45594000000E+02  0.51100000000E-03 0.  1.
    9900012    2    1    2    0    0 -0.26801827418E+02 -0.34135023913E+02  0.29329868139E+00  0.47787264585E+02  0.19999970547E+02 0.  0.
         12    1    1    2    0    0  0.26801827418E+02  0.34135023913E+02 -0.29329868139E+00  0.43400735415E+02  0.00000000000E+00 0. -1.
         11    1    3    3    0    0 -0.12675009266E+02 -0.60211308535E+01  0.25376754297E+01  0.14260072703E+02  0.51100000000E-03 0. -1.
        -11    1    3    3    0    0 -0.10831197348E+02 -0.12252404903E+02  0.27314397951E+01  0.16580018863E+02  0.51100000000E-03 0.  1.
        -12    1    3    3    0    0 -0.32956208037E+01 -0.15861488157E+02 -0.49758165434E+01  0.16947173018E+02  0.00000000000E+00 0.  1.
</event>
<event>
 7    1  0.1813014E-010  0.4778727E+02  0.7816164E-02  0.1312668E+00
        -11   -1    0    0    0    0  0.00000000000E+00  0.00000000000E+00  0.45593999997E+02  0.45594000000E+02  0.51100000000E-03 0.  1.
         11   -1    0    0    0    0 -0.00000000000E+00 -0.00000000000E+00 -0.45593999997E+02  0.45594000000E+02  0.51100000000E-03 0. -1.
    9900012    2    1    2    0    0 -0.10672530197E+02 -0.23849053644E+02 -0.34654621316E+02  0.47787273750E+02  0.20000012336E+02 0.  0.
         12    1    1    2    0    0  0.10672530197E+02  0.23849053644E+02  0.34654621316E+02  0.43400726250E+02  0.00000000000E+00 0. -1.
         11    1    3    3    0    0  0.24402802285E+01 -0.29836045821E-01 -0.57442212336E+01  0.62411485822E+01  0.51100000000E-03 0. -1.
        -11    1    3    3    0    0 -0.33441275710E+01 -0.15447539315E+02 -0.21548428027E+02  0.26723480514E+02  0.51100000000E-03 0.  1.
        -12    1    3    3    0    0 -0.97686828547E+01 -0.83716782830E+01 -0.73619720550E+01  0.14822644654E+02  0.00000000000E+00 0.  1.
</event>
<event>
 7    1  0.1813014E-010  0.4778728E+02  0.7816164E-02  0.1312668E+00
        -11   -1    0    0    0    0  0.00000000000E+00  0.00000000000E+00  0.45593999997E+02  0.45594000000E+02  0.51100000000E-03 0.  1.
         11   -1    0    0    0    0 -0.00000000000E+00 -0.00000000000E+00 -0.45593999997E+02  0.45594000000E+02  0.51100000000E-03 0. -1.
    9900012    2    1    2    0    0  0.35874870300E+02  0.42710713816E+01  0.24049410620E+02  0.47787279719E+02  0.20000039550E+02 0.  0.
         12    1    1    2    0    0 -0.35874870300E+02 -0.42710713816E+01 -0.24049410620E+02  0.43400720281E+02  0.00000000000E+00 0. -1.
         11    1    3    3    0    0  0.19703110743E+02  0.96958558813E+01  0.67171434628E+01  0.22963932825E+02  0.51100000000E-03 0.  1.
        -11    1    3    3    0    0  0.12757361568E+02 -0.20495823731E+01  0.11800004310E+02  0.17498318892E+02  0.51100000000E-03 0. -1.
        -12    1    3    3    0    0  0.34143979888E+01 -0.33752021266E+01  0.55322628473E+01  0.73250280022E+01  0.00000000000E+00 0.  1.
</event>
<event>
 7    1  0.1813014E-010  0.4778727E+02  0.7816164E-02  0.1312668E+00
        -11   -1    0    0    0    0  0.00000000000E+00  0.00000000000E+00  0.45593999997E+02  0.45594000000E+02  0.51100000000E-03 0. -1.
         11   -1    0    0    0    0 -0.00000000000E+00 -0.00000000000E+00 -0.45593999997E+02  0.45594000000E+02  0.51100000000E-03 0.  1.
    9900012    2    1    2    0    0  0.30791979848E+01 -0.42818498736E+02  0.63810602098E+01  0.47787271623E+02  0.20000002639E+02 0.  0.
         12    1    1    2    0    0 -0.30791979848E+01  0.42818498736E+02 -0.63810602098E+01  0.43400728377E+02  0.00000000000E+00 0. -1.
         11    1    3    3    0    0 -0.43670862562E+01 -0.41661919832E+01  0.14359737843E+01  0.62040808328E+01  0.51100000000E-03 0. -1.
        -11    1    3    3    0    0 -0.11467248041E+01 -0.24697444443E+00 -0.12831161360E+01  0.17384940127E+01  0.51100000000E-03 0.  1.
        -12    1    3    3    0    0  0.85930090451E+01 -0.38405332308E+02  0.62282025615E+01  0.39844696778E+02  0.00000000000E+00 0.  1.
</event>
<event>
 7    1  0.1813014E-010  0.4778727E+02  0.7816164E-02  0.1312668E+00
        -11   -1    0    0    0    0  0.00000000000E+00  0.00000000000E+00  0.45593999997E+02  0.45594000000E+02  0.51100000000E-03 0. -1.
         11   -1    0    0    0    0 -0.00000000000E+00 -0.00000000000E+00 -0.45593999997E+02  0.45594000000E+02  0.51100000000E-03 0.  1.
    9900012    2    1    2    0    0 -0.12098251386E+02  0.41273187828E+02  0.58120233394E+01  0.47787270336E+02  0.19999996771E+02 0.  0.
         12    1    1    2    0    0  0.12098251386E+02 -0.41273187828E+02 -0.58120233394E+01  0.43400729664E+02  0.00000000000E+00 0. -1.
         11    1    3    3    0    0 -0.14133210407E+01  0.14236162641E+02  0.61502327986E+01  0.15572127884E+02  0.51100000000E-03 0.  1.
        -11    1    3    3    0    0 -0.13391590879E+02  0.16815667731E+02  0.12008853272E+01  0.21530060691E+02  0.51100000000E-03 0. -1.
         12    1    3    3    0    0  0.27066605343E+01  0.10221357455E+02 -0.15390947864E+01  0.10685081761E+02  0.00000000000E+00 0. -1.
</event>
<event>
 7    1  0.1813014E-010  0.4778727E+02  0.7816164E-02  0.1312668E+00
        -11   -1    0    0    0    0  0.00000000000E+00  0.00000000000E+00  0.45593999997E+02  0.45594000000E+02  0.51100000000E-03 0.  1.
         11   -1    0    0    0    0 -0.00000000000E+00 -0.00000000000E+00 -0.45593999997E+02  0.45594000000E+02  0.51100000000E-03 0. -1.
    9900012    2    1    2    0    0  0.22316777755E+02  0.29554153888E+02 -0.22630437201E+02  0.47787271097E+02  0.20000000241E+02 0.  0.
         12    1    1    2    0    0 -0.22316777755E+02 -0.29554153888E+02  0.22630437201E+02  0.43400728903E+02  0.00000000000E+00 0. -1.
         11    1    3    3    0    0  0.71088718437E+01  0.64654544660E+01 -0.75768608443E+01  0.12237114891E+02  0.51100000000E-03 0. -1.
        -11    1    3    3    0    0  0.28508101495E+01  0.96688550704E+01  0.23357061096E+01  0.10347434473E+02  0.51100000000E-03 0.  1.
        -12    1    3    3    0    0  0.12357095761E+02  0.13419844352E+02 -0.17389282466E+02  0.25202721733E+02  0.00000000000E+00 0.  1.
</event>
<event>
 7    1  0.1813014E-010  0.4778727E+02  0.7816164E-02  0.1312668E+00
        -11   -1    0    0    0    0  0.00000000000E+00  0.00000000000E+00  0.45593999997E+02  0.45594000000E+02  0.51100000000E-03 0.  1.
         11   -1    0    0    0    0 -0.00000000000E+00 -0.00000000000E+00 -0.45593999997E+02  0.45594000000E+02  0.51100000000E-03 0. -1.
    9900012    2    1    2    0    0 -0.81768070114E+01  0.22651999014E+02  0.36106091817E+02  0.47787273065E+02  0.20000009211E+02 0.  0.
         12    1    1    2    0    0  0.81768070114E+01 -0.22651999014E+02 -0.36106091817E+02  0.43400726935E+02  0.00000000000E+00 0. -1.
         11    1    3    3    0    0 -0.16298948694E+01  0.48059567322E+00 -0.44907951651E+00  0.17576126308E+01  0.51100000000E-03 0. -1.
        -11    1    3    3    0    0 -0.45066191171E+01  0.22399683938E+02  0.37385782710E+02  0.43814976954E+02  0.51100000000E-03 0.  1.
        -12    1    3    3    0    0 -0.20402930248E+01 -0.22828059716E+00 -0.83061137648E+00  0.22146834801E+01  0.00000000000E+00 0.  1.
</event>
<event>
 7    1  0.1813014E-010  0.4778727E+02  0.7816164E-02  0.1312668E+00
        -11   -1    0    0    0    0  0.00000000000E+00  0.00000000000E+00  0.45593999997E+02  0.45594000000E+02  0.51100000000E-03 0. -1.
         11   -1    0    0    0    0 -0.00000000000E+00 -0.00000000000E+00 -0.45593999997E+02  0.45594000000E+02  0.51100000000E-03 0.  1.
    9900012    2    1    2    0    0 -0.66326866231E+01  0.22528456303E+02 -0.36497933901E+02  0.47787273575E+02  0.20000011536E+02 0.  0.
         12    1    1    2    0    0  0.66326866231E+01 -0.22528456303E+02  0.36497933901E+02  0.43400726425E+02  0.00000000000E+00 0. -1.
         11    1    3    3    0    0  0.30499638869E+01 -0.19172359585E+01 -0.73012450479E+01  0.81416369940E+01  0.51100000000E-03 0. -1.
        -11    1    3    3    0    0 -0.54261559319E+01  0.77725580347E+01 -0.12302073103E+02  0.15530512853E+02  0.51100000000E-03 0.  1.
        -12    1    3    3    0    0 -0.42564945781E+01  0.16673134227E+02 -0.16894615750E+02  0.24115123727E+02  0.00000000000E+00 0.  1.
</event>
<event>
 7    1  0.1813014E-010  0.4778727E+02  0.7816164E-02  0.1312668E+00
        -11   -1    0    0    0    0  0.00000000000E+00  0.00000000000E+00  0.45593999997E+02  0.45594000000E+02  0.51100000000E-03 0. -1.
         11   -1    0    0    0    0 -0.00000000000E+00 -0.00000000000E+00 -0.45593999997E+02  0.45594000000E+02  0.51100000000E-03 0.  1.
    9900012    2    1    2    0    0  0.41353590439E+02 -0.80219198300E+00  0.13147651004E+02  0.47787266354E+02  0.19999978612E+02 0.  0.
         12    1    1    2    0    0 -0.41353590439E+02  0.80219198300E+00 -0.13147651004E+02  0.43400733646E+02  0.00000000000E+00 0. -1.
         11    1    3    3    0    0  0.20106045847E+02 -0.35325509468E+01  0.12651203653E+02  0.24016347556E+02  0.51100000000E-03 0. -1.
        -11    1    3    3    0    0  0.18962865628E+02 -0.13946990649E+01  0.92082162881E+00  0.19036369692E+02  0.51100000000E-03 0.  1.
        -12    1    3    3    0    0  0.22846789632E+01  0.41250580287E+01 -0.42437427827E+00  0.47345491056E+01  0.00000000000E+00 0.  1.
</event>
<event>
 7    1  0.2013885E-010  0.4778728E+02  0.7816164E-02  0.1312668E+00
        -11   -1    0    0    0    0  0.00000000000E+00  0.00000000000E+00  0.45593999997E+02  0.45594000000E+02  0.51100000000E-03 0.  1.
         11   -1    0    0    0    0 -0.00000000000E+00 -0.00000000000E+00 -0.45593999997E+02  0.45594000000E+02  0.51100000000E-03 0. -1.
    9900012    2    1    2    0    0 -0.99472428900E+01 -0.42027896930E+02  0.42814840860E+01  0.47787275726E+02  0.20000021347E+02 0.  0.
         12    1    1    2    0    0  0.99472428900E+01  0.42027896930E+02 -0.42814840860E+01  0.43400724274E+02  0.00000000000E+00 0. -1.
         11    1    3    3    0    0  0.28869509481E+00 -0.36199155730E+01  0.45281747026E+01  0.58044379583E+01  0.51100000000E-03 0. -1.
        -11    1    3    3    0    0 -0.57242977480E+01 -0.36442209073E+02  0.10127116622E+01  0.36902950722E+02  0.51100000000E-03 0.  1.
         12    1    3    3    0    0 -0.45116402369E+01 -0.19657722841E+01 -0.12594022787E+01  0.50798870459E+01  0.00000000000E+00 0. -1.
</event>
<event>
 7    1  0.1813014E-010  0.4778727E+02  0.7816164E-02  0.1312668E+00
        -11   -1    0    0    0    0  0.00000000000E+00  0.00000000000E+00  0.45593999997E+02  0.45594000000E+02  0.51100000000E-03 0. -1.
         11   -1    0    0    0    0 -0.00000000000E+00 -0.00000000000E+00 -0.45593999997E+02  0.45594000000E+02  0.51100000000E-03 0.  1.
    9900012    2    1    2    0    0 -0.19474583140E+02 -0.39242604403E+01 -0.38587093396E+02  0.47787274370E+02  0.20000015161E+02 0.  0.
         12    1    1    2    0    0  0.19474583140E+02  0.39242604403E+01  0.38587093396E+02  0.43400725630E+02  0.00000000000E+00 0. -1.
         11    1    3    3    0    0 -0.31356792977E+01  0.87314169414E+00 -0.30126347759E+01  0.44351809016E+01  0.51100000000E-03 0. -1.
        -11    1    3    3    0    0 -0.13628241542E+02 -0.91208242331E+01 -0.34410311654E+02  0.38118079052E+02  0.51100000000E-03 0.  1.
         12    1    3    3    0    0 -0.27106622997E+01  0.43234220987E+01 -0.11641469660E+01  0.52340144158E+01  0.00000000000E+00 0. -1.
</event>
<event>
 7    1  0.1813014E-010  0.4778727E+02  0.7816164E-02  0.1312668E+00
        -11   -1    0    0    0    0  0.00000000000E+00  0.00000000000E+00  0.45593999997E+02  0.45594000000E+02  0.51100000000E-03 0. -1.
         11   -1    0    0    0    0 -0.00000000000E+00 -0.00000000000E+00 -0.45593999997E+02  0.45594000000E+02  0.51100000000E-03 0.  1.
    9900012    2    1    2    0    0 -0.87422480835E+00  0.30055355822E+01 -0.43287709641E+02  0.47787270523E+02  0.19999997625E+02 0.  0.
         12    1    1    2    0    0  0.87422480835E+00 -0.30055355822E+01  0.43287709641E+02  0.43400729477E+02  0.00000000000E+00 0. -1.
         11    1    3    3    0    0 -0.57690265662E+01 -0.98588520026E+00 -0.25576568042E+01  0.63871156040E+01  0.51100000000E-03 0. -1.
        -11    1    3    3    0    0  0.73583381494E+00  0.27849281453E+01 -0.21265917749E+02  0.21460114961E+02  0.51100000000E-03 0.  1.
         12    1    3    3    0    0  0.41589679429E+01  0.12064926371E+01 -0.19464135088E+02  0.19940039958E+02  0.00000000000E+00 0. -1.
</event>
<event>
 7    1  0.1813014E-010  0.4778727E+02  0.7816164E-02  0.1312668E+00
        -11   -1    0    0    0    0  0.00000000000E+00  0.00000000000E+00  0.45593999997E+02  0.45594000000E+02  0.51100000000E-03 0.  1.
         11   -1    0    0    0    0 -0.00000000000E+00 -0.00000000000E+00 -0.45593999997E+02  0.45594000000E+02  0.51100000000E-03 0. -1.
    9900012    2    1    2    0    0  0.22256899763E+02  0.24560293060E+02  0.28018669866E+02  0.47787269092E+02  0.19999991099E+02 0.  0.
         12    1    1    2    0    0 -0.22256899763E+02 -0.24560293060E+02 -0.28018669866E+02  0.43400730908E+02  0.00000000000E+00 0. -1.
         11    1    3    3    0    0  0.10459416326E+00  0.80720994901E+01  0.56260067564E+01  0.98398009330E+01  0.51100000000E-03 0. -1.
        -11    1    3    3    0    0  0.14383824301E+02  0.99167301427E+01  0.21542993806E+02  0.27736916206E+02  0.51100000000E-03 0.  1.
         12    1    3    3    0    0  0.77684812987E+01  0.65714634275E+01  0.84966930410E+00  0.10210551953E+02  0.00000000000E+00 0. -1.
</event>
<event>
 7    1  0.1813014E-010  0.4778727E+02  0.7816164E-02  0.1312668E+00
        -11   -1    0    0    0    0  0.00000000000E+00  0.00000000000E+00  0.45593999997E+02  0.45594000000E+02  0.51100000000E-03 0. -1.
         11   -1    0    0    0    0 -0.00000000000E+00 -0.00000000000E+00 -0.45593999997E+02  0.45594000000E+02  0.51100000000E-03 0.  1.
    9900012    2    1    2    0    0 -0.24161334671E+02 -0.32513365723E+02 -0.15579924740E+02  0.47787273063E+02  0.20000009205E+02 0.  0.
         12    1    1    2    0    0  0.24161334671E+02  0.32513365723E+02  0.15579924740E+02  0.43400726937E+02  0.00000000000E+00 0. -1.
         11    1    3    3    0    0 -0.16090368558E+02 -0.13617081271E+02 -0.56435180313E+01  0.21821415140E+02  0.51100000000E-03 0. -1.
        -11    1    3    3    0    0 -0.10203056987E+02 -0.92627264013E+01 -0.79233842736E+01  0.15895926864E+02  0.51100000000E-03 0.  1.
        -12    1    3    3    0    0  0.21320908739E+01 -0.96335580507E+01 -0.20130224347E+01  0.10069931059E+02  0.00000000000E+00 0.  1.
</event>
<event>
 7    1  0.1813014E-010  0.4778727E+02  0.7816164E-02  0.1312668E+00
        -11   -1    0    0    0    0  0.00000000000E+00  0.00000000000E+00  0.45593999997E+02  0.45594000000E+02  0.51100000000E-03 0.  1.
         11   -1    0    0    0    0 -0.00000000000E+00 -0.00000000000E+00 -0.45593999997E+02  0.45594000000E+02  0.51100000000E-03 0. -1.
    9900012    2    1    2    0    0 -0.12639384521E+02 -0.35145779978E+02  0.22105282095E+02  0.47787269731E+02  0.19999994012E+02 0.  0.
         12    1    1    2    0    0  0.12639384521E+02  0.35145779978E+02 -0.22105282095E+02  0.43400730269E+02  0.00000000000E+00 0. -1.
         11    1    3    3    0    0  0.12707031051E+01 -0.79246503403E+01  0.45112266749E+01  0.92068417913E+01  0.51100000000E-03 0. -1.
        -11    1    3    3    0    0 -0.15266027673E+02 -0.25257796436E+02  0.10879081924E+02  0.31454130182E+02  0.51100000000E-03 0.  1.
        -12    1    3    3    0    0  0.13559400468E+01 -0.19633332016E+01  0.67149734967E+01  0.71262977578E+01  0.00000000000E+00 0.  1.
</event>
<event>
 7    1  0.1813014E-010  0.4778727E+02  0.7816164E-02  0.1312668E+00
        -11   -1    0    0    0    0  0.00000000000E+00  0.00000000000E+00  0.45593999997E+02  0.45594000000E+02  0.51100000000E-03 0. -1.
         11   -1    0    0    0    0 -0.00000000000E+00 -0.00000000000E+00 -0.45593999997E+02  0.45594000000E+02  0.51100000000E-03 0.  1.
    9900012    2    1    2    0    0  0.43273075815E+02  0.11040442702E+01  0.31377179412E+01  0.47787270996E+02  0.19999999778E+02 0.  0.
         12    1    1    2    0    0 -0.43273075815E+02 -0.11040442702E+01 -0.31377179412E+01  0.43400729004E+02  0.00000000000E+00 0. -1.
         11    1    3    3    0    0  0.25199889121E+02  0.10093548105E+01 -0.16956242695E+01  0.25277032080E+02  0.51100000000E-03 0. -1.
        -11    1    3    3    0    0  0.13839484298E+02  0.50982316758E+01  0.58709848699E+01  0.15874248185E+02  0.51100000000E-03 0.  1.
         12    1    3    3    0    0  0.42337023962E+01 -0.50035422161E+01 -0.10376426592E+01  0.66359907305E+01  0.00000000000E+00 0. -1.
</event>
<event>
 7    1  0.1813014E-010  0.4778727E+02  0.7816164E-02  0.1312668E+00
        -11   -1    0    0    0    0  0.00000000000E+00  0.00000000000E+00  0.45593999997E+02  0.45594000000E+02  0.51100000000E-03 0.  1.
         11   -1    0    0    0    0 -0.00000000000E+00 -0.00000000000E+00 -0.45593999997E+02  0.45594000000E+02  0.51100000000E-03 0. -1.
    9900012    2    1    2    0    0  0.39442699194E+02 -0.18049166625E+02  0.14576855436E+01  0.47787265182E+02  0.19999973271E+02 0.  0.
         12    1    1    2    0    0 -0.39442699194E+02  0.18049166625E+02 -0.14576855436E+01  0.43400734818E+02  0.00000000000E+00 0. -1.
         11    1    3    3    0    0  0.23021911805E+01 -0.47737031695E+01  0.20699056310E+01  0.56897131531E+01  0.51100000000E-03 0. -1.
        -11    1    3    3    0    0  0.29730913804E+02 -0.76693822522E+01  0.51951023694E+01  0.31140580416E+02  0.51100000000E-03 0.  1.
         12    1    3    3    0    0  0.74095942095E+01 -0.56060812036E+01 -0.58073224568E+01  0.10956971613E+02  0.00000000000E+00 0. -1.
</event>
<event>
 7    1  0.1813014E-010  0.4778727E+02  0.7816164E-02  0.1312668E+00
        -11   -1    0    0    0    0  0.00000000000E+00  0.00000000000E+00  0.45593999997E+02  0.45594000000E+02  0.51100000000E-03 0.  1.
         11   -1    0    0    0    0 -0.00000000000E+00 -0.00000000000E+00 -0.45593999997E+02  0.45594000000E+02  0.51100000000E-03 0. -1.
    9900012    2    1    2    0    0 -0.81471335133E+01 -0.12098779637E+02  0.40876240627E+02  0.47787270732E+02  0.19999998576E+02 0.  0.
         12    1    1    2    0    0  0.81471335133E+01  0.12098779637E+02 -0.40876240627E+02  0.43400729268E+02  0.00000000000E+00 0. -1.
         11    1    3    3    0    0 -0.72642528956E+01 -0.11452192326E+02  0.28942295432E+02  0.31962142362E+02  0.51100000000E-03 0. -1.
        -11    1    3    3    0    0 -0.55855309397E+01 -0.91090066763E+00  0.59792857805E+01  0.82328460820E+01  0.51100000000E-03 0.  1.
         12    1    3    3    0    0  0.47026503220E+01  0.26431335749E+00  0.59546594146E+01  0.75922822883E+01  0.00000000000E+00 0. -1.
</event>
<event>
 7    1  0.1813014E-010  0.4778728E+02  0.7816164E-02  0.1312668E+00
        -11   -1    0    0    0    0  0.00000000000E+00  0.00000000000E+00  0.45593999997E+02  0.45594000000E+02  0.51100000000E-03 0.  1.
         11   -1    0    0    0    0 -0.00000000000E+00 -0.00000000000E+00 -0.45593999997E+02  0.45594000000E+02  0.51100000000E-03 0. -1.
    9900012    2    1    2    0    0  0.24192545497E+02  0.16553028327E+02  0.32005317120E+02  0.47787281937E+02  0.20000049664E+02 0.  0.
         12    1    1    2    0    0 -0.24192545497E+02 -0.16553028327E+02 -0.32005317120E+02  0.43400718063E+02  0.00000000000E+00 0. -1.
         11    1    3    3    0    0 -0.95290357594E+00  0.88392139725E+00 -0.90708356967E+00  0.15849741717E+01  0.51100000000E-03 0. -1.
        -11    1    3    3    0    0  0.10614669765E+02  0.21613789287E+01  0.19331954747E+02  0.22160037177E+02  0.51100000000E-03 0.  1.
         12    1    3    3    0    0  0.14530779308E+02  0.13507728001E+02  0.13580445943E+02  0.24042270588E+02  0.00000000000E+00 0. -1.
</event>
<event>
 7    1  0.1813014E-010  0.4778723E+02  0.7816164E-02  0.1312668E+00
        -11   -1    0    0    0    0  0.00000000000E+00  0.00000000000E+00  0.45593999997E+02  0.45594000000E+02  0.51100000000E-03 0. -1.
         11   -1    0    0    0    0 -0.00000000000E+00 -0.00000000000E+00 -0.45593999997E+02  0.45594000000E+02  0.51100000000E-03 0.  1.
    9900012    2    1    2    0    0 -0.27900338226E+02 -0.27290867197E+01 -0.33132311562E+02  0.47787229766E+02  0.19999811795E+02 0.  0.
         12    1    1    2    0    0  0.27900338226E+02  0.27290867197E+01  0.33132311562E+02  0.43400770234E+02  0.00000000000E+00 0. -1.
         11    1    3    3    0    0 -0.74301203216E+00  0.26509880717E+01 -0.11249525115E+01  0.29741087826E+01  0.51100000000E-03 0. -1.
        -11    1    3    3    0    0 -0.16526376615E+02 -0.10464507525E+02 -0.19201870391E+02  0.27410561259E+02  0.51100000000E-03 0.  1.
        -12    1    3    3    0    0 -0.10630949578E+02  0.50844327334E+01 -0.12805488659E+02  0.17402559724E+02  0.00000000000E+00 0.  1.
</event>
<event>
 7    1  0.1813014E-010  0.4778727E+02  0.7816164E-02  0.1312668E+00
        -11   -1    0    0    0    0  0.00000000000E+00  0.00000000000E+00  0.45593999997E+02  0.45594000000E+02  0.51100000000E-03 0.  1.
         11   -1    0    0    0    0 -0.00000000000E+00 -0.00000000000E+00 -0.45593999997E+02  0.45594000000E+02  0.51100000000E-03 0. -1.
    9900012    2    1    2    0    0  0.42130155632E+02 -0.10409749005E+02  0.55718186212E+00  0.47787270288E+02  0.19999996549E+02 0.  0.
         12    1    1    2    0    0 -0.42130155632E+02  0.10409749005E+02 -0.55718186212E+00  0.43400729712E+02  0.00000000000E+00 0. -1.
         11    1    3    3    0    0  0.17717769096E+02 -0.77957557116E+01 -0.35012443644E+00  0.19360158476E+02  0.51100000000E-03 0. -1.
        -11    1    3    3    0    0  0.15418043037E+02 -0.73635120312E+01 -0.33313899235E+01  0.17407915430E+02  0.51100000000E-03 0.  1.
         12    1    3    3    0    0  0.89943434999E+01  0.47495187380E+01  0.42386962221E+01  0.11019196382E+02  0.00000000000E+00 0. -1.
</event>
<event>
 7    1  0.1813014E-010  0.4778730E+02  0.7816164E-02  0.1312668E+00
        -11   -1    0    0    0    0  0.00000000000E+00  0.00000000000E+00  0.45593999997E+02  0.45594000000E+02  0.51100000000E-03 0. -1.
         11   -1    0    0    0    0 -0.00000000000E+00 -0.00000000000E+00 -0.45593999997E+02  0.45594000000E+02  0.51100000000E-03 0.  1.
    9900012    2    1    2    0    0 -0.42746944206E+02 -0.72288700503E+01 -0.20156482116E+01  0.47787301401E+02  0.20000138409E+02 0.  0.
         12    1    1    2    0    0  0.42746944206E+02  0.72288700503E+01  0.20156482116E+01  0.43400698599E+02  0.00000000000E+00 0. -1.
         11    1    3    3    0    0 -0.18837079606E+02 -0.42438079359E+01  0.32278355319E+01  0.19577139637E+02  0.51100000000E-03 0.  1.
        -11    1    3    3    0    0 -0.45913840135E+01 -0.65338414241E+01 -0.25596447611E+01  0.83859210871E+01  0.51100000000E-03 0. -1.
        -12    1    3    3    0    0 -0.19318480586E+02  0.35487793096E+01 -0.26838389824E+01  0.19824240677E+02  0.00000000000E+00 0.  1.
</event>
<event>
 7    1  0.1813014E-010  0.4778727E+02  0.7816164E-02  0.1312668E+00
        -11   -1    0    0    0    0  0.00000000000E+00  0.00000000000E+00  0.45593999997E+02  0.45594000000E+02  0.51100000000E-03 0. -1.
         11   -1    0    0    0    0 -0.00000000000E+00 -0.00000000000E+00 -0.45593999997E+02  0.45594000000E+02  0.51100000000E-03 0.  1.
    9900012    2    1    2    0    0  0.17492152354E+02 -0.17941016114E+02 -0.35436815614E+02  0.47787270121E+02  0.19999995789E+02 0.  0.
         12    1    1    2    0    0 -0.17492152354E+02  0.17941016114E+02  0.35436815614E+02  0.43400729879E+02  0.00000000000E+00 0. -1.
         11    1    3    3    0    0  0.72279101171E+01 -0.61653228364E+01 -0.13241897338E+02  0.16297292281E+02  0.51100000000E-03 0. -1.
        -11    1    3    3    0    0  0.34595829340E+01 -0.14407493759E+02 -0.16897398118E+02  0.22473688035E+02  0.51100000000E-03 0.  1.
         12    1    3    3    0    0  0.68046593029E+01  0.26318004819E+01 -0.52975201584E+01  0.90162898042E+01  0.00000000000E+00 0. -1.
</event>
<event>
 7    1  0.1813014E-010  0.4778727E+02  0.7816164E-02  0.1312668E+00
        -11   -1    0    0    0    0  0.00000000000E+00  0.00000000000E+00  0.45593999997E+02  0.45594000000E+02  0.51100000000E-03 0.  1.
         11   -1    0    0    0    0 -0.00000000000E+00 -0.00000000000E+00 -0.45593999997E+02  0.45594000000E+02  0.51100000000E-03 0. -1.
    9900012    2    1    2    0    0  0.27378734711E+02  0.26682175051E+02  0.20544819994E+02  0.47787271799E+02  0.20000003442E+02 0.  0.
         12    1    1    2    0    0 -0.27378734711E+02 -0.26682175051E+02 -0.20544819994E+02  0.43400728201E+02  0.00000000000E+00 0. -1.
         11    1    3    3    0    0  0.13193374512E+02  0.10089388561E+02 -0.25505130124E+00  0.16611018752E+02  0.51100000000E-03 0. -1.
        -11    1    3    3    0    0  0.33552264786E+01  0.42744257730E+01  0.11040088840E+01  0.55450064282E+01  0.51100000000E-03 0.  1.
        -12    1    3    3    0    0  0.10830133720E+02  0.12318360716E+02  0.19695862411E+02  0.25631246619E+02  0.00000000000E+00 0.  1.
</event>
<event>
 7    1  0.1813014E-010  0.4778727E+02  0.7816164E-02  0.1312668E+00
        -11   -1    0    0    0    0  0.00000000000E+00  0.00000000000E+00  0.45593999997E+02  0.45594000000E+02  0.51100000000E-03 0.  1.
         11   -1    0    0    0    0 -0.00000000000E+00 -0.00000000000E+00 -0.45593999997E+02  0.45594000000E+02  0.51100000000E-03 0. -1.
    9900012    2    1    2    0    0  0.11485574889E+02  0.33944045020E+02  0.24484820186E+02  0.47787273711E+02  0.20000012158E+02 0.  0.
         12    1    1    2    0    0 -0.11485574889E+02 -0.33944045020E+02 -0.24484820186E+02  0.43400726289E+02  0.00000000000E+00 0. -1.
         11    1    3    3    0    0 -0.60461470704E+00  0.32817043602E+01 -0.23340308464E+00  0.33450888946E+01  0.51100000000E-03 0. -1.
        -11    1    3    3    0    0  0.15603967689E+02  0.29049487672E+02  0.23043269339E+02  0.40228706216E+02  0.51100000000E-03 0.  1.
        -12    1    3    3    0    0 -0.35137780929E+01  0.16128529875E+01  0.16749539314E+01  0.42134786007E+01  0.00000000000E+00 0.  1.
</event>
<event>
 7    1  0.1813014E-010  0.4778727E+02  0.7816164E-02  0.1312668E+00
        -11   -1    0    0    0    0  0.00000000000E+00  0.00000000000E+00  0.45593999997E+02  0.45594000000E+02  0.51100000000E-03 0.  1.
         11   -1    0    0    0    0 -0.00000000000E+00 -0.00000000000E+00 -0.45593999997E+02  0.45594000000E+02  0.51100000000E-03 0. -1.
    9900012    2    1    2    0    0  0.11632143880E+02  0.40254992070E+02  0.11307176776E+02  0.47787269540E+02  0.19999993141E+02 0.  0.
         12    1    1    2    0    0 -0.11632143880E+02 -0.40254992070E+02 -0.11307176776E+02  0.43400730460E+02  0.00000000000E+00 0. -1.
         11    1    3    3    0    0  0.21480930126E+01  0.84821667947E+00  0.53314184389E+01  0.58101461219E+01  0.51100000000E-03 0. -1.
        -11    1    3    3    0    0  0.52676046739E+00  0.15153137085E+02 -0.10078033495E+01  0.15195746377E+02  0.51100000000E-03 0.  1.
        -12    1    3    3    0    0  0.89572904000E+01  0.24253638306E+02  0.69835616869E+01  0.26781377041E+02  0.00000000000E+00 0.  1.
</event>
<event>
 7    1  0.1813014E-010  0.4778730E+02  0.7816164E-02  0.1312668E+00
        -11   -1    0    0    0    0  0.00000000000E+00  0.00000000000E+00  0.45593999997E+02  0.45594000000E+02  0.51100000000E-03 0.  1.
         11   -1    0    0    0    0 -0.00000000000E+00 -0.00000000000E+00 -0.45593999997E+02  0.45594000000E+02  0.51100000000E-03 0. -1.
    9900012    2    1    2    0    0  0.42795891762E+01 -0.25420577535E+02  0.34915615154E+02  0.47787299230E+02  0.20000128510E+02 0.  0.
         12    1    1    2    0    0 -0.42795891762E+01  0.25420577535E+02 -0.34915615154E+02  0.43400700770E+02  0.00000000000E+00 0. -1.
         11    1    3    3    0    0  0.57848302660E+01 -0.27306349008E+01  0.24368585650E+01  0.68453566813E+01  0.51100000000E-03 0. -1.
        -11    1    3    3    0    0  0.28146845141E+01 -0.98295061285E+01  0.20216150021E+02  0.22654676374E+02  0.51100000000E-03 0.  1.
         12    1    3    3    0    0 -0.43199256039E+01 -0.12860436506E+02  0.12262606567E+02  0.18287266175E+02  0.00000000000E+00 0. -1.
</event>
<event>
 7    1  0.1813014E-010  0.4778727E+02  0.7816164E-02  0.1312668E+00
        -11   -1    0    0    0    0  0.00000000000E+00  0.00000000000E+00  0.45593999997E+02  0.45594000000E+02  0.51100000000E-03 0.  1.
         11   -1    0    0    0    0 -0.00000000000E+00 -0.00000000000E+00 -0.45593999997E+02  0.45594000000E+02  0.51100000000E-03 0. -1.
    9900012    2    1    2    0    0 -0.39235959581E+00 -0.25585887994E+02  0.35054694490E+02  0.47787271708E+02  0.20000003025E+02 0.  0.
         12    1    1    2    0    0  0.39235959581E+00  0.25585887994E+02 -0.35054694490E+02  0.43400728292E+02  0.00000000000E+00 0. -1.
         11    1    3    3    0    0 -0.30555625652E+01 -0.88164637389E+01  0.18459279019E+02  0.20683604077E+02  0.51100000000E-03 0. -1.
        -11    1    3    3    0    0 -0.41107651435E+01 -0.51530089371E+01  0.10364254552E+02  0.12282901280E+02  0.51100000000E-03 0.  1.
         12    1    3    3    0    0  0.67739681129E+01 -0.11616415318E+02  0.62311609189E+01  0.14820766351E+02  0.00000000000E+00 0. -1.
</event>
<event>
 7    1  0.1813014E-010  0.4778727E+02  0.7816164E-02  0.1312668E+00
        -11   -1    0    0    0    0  0.00000000000E+00  0.00000000000E+00  0.45593999997E+02  0.45594000000E+02  0.51100000000E-03 0.  1.
         11   -1    0    0    0    0 -0.00000000000E+00 -0.00000000000E+00 -0.45593999997E+02  0.45594000000E+02  0.51100000000E-03 0. -1.
    9900012    2    1    2    0    0  0.22825191304E+01  0.20833411584E+02  0.38005029276E+02  0.47787272103E+02  0.20000004824E+02 0.  0.
         12    1    1    2    0    0 -0.22825191304E+01 -0.20833411584E+02 -0.38005029276E+02  0.43400727897E+02  0.00000000000E+00 0. -1.
         11    1    3    3    0    0  0.30394288238E+01  0.16897187190E+02  0.21948919799E+02  0.27865895699E+02  0.51100000000E-03 0.  1.
        -11    1    3    3    0    0  0.50993150226E+01  0.11068351573E+01  0.60767170294E+01  0.80096559153E+01  0.51100000000E-03 0. -1.
         12    1    3    3    0    0 -0.58562247160E+01  0.28293892365E+01  0.99793924473E+01  0.11911720488E+02  0.00000000000E+00 0. -1.
</event>
<event>
 7    1  0.1813014E-010  0.4778727E+02  0.7816164E-02  0.1312668E+00
        -11   -1    0    0    0    0  0.00000000000E+00  0.00000000000E+00  0.45593999997E+02  0.45594000000E+02  0.51100000000E-03 0.  1.
         11   -1    0    0    0    0 -0.00000000000E+00 -0.00000000000E+00 -0.45593999997E+02  0.45594000000E+02  0.51100000000E-03 0. -1.
    9900012    2    1    2    0    0 -0.22170149821E+02  0.19898768766E+01  0.37257855929E+02  0.47787274413E+02  0.20000015357E+02 0.  0.
         12    1    1    2    0    0  0.22170149821E+02 -0.19898768766E+01 -0.37257855929E+02  0.43400725587E+02  0.00000000000E+00 0. -1.
         11    1    3    3    0    0  0.23655676175E+01 -0.15845089651E+01  0.50004967053E+01  0.57542633216E+01  0.51100000000E-03 0. -1.
        -11    1    3    3    0    0 -0.28472715023E+01 -0.11127967065E+01  0.10579229730E+02  0.11012055823E+02  0.51100000000E-03 0.  1.
         12    1    3    3    0    0 -0.21688445937E+02  0.46871825482E+01  0.21678129494E+02  0.31020955268E+02  0.00000000000E+00 0. -1.
</event>
<event>
 7    1  0.1813014E-010  0.4778725E+02  0.7816164E-02  0.1312668E+00
        -11   -1    0    0    0    0  0.00000000000E+00  0.00000000000E+00  0.45593999997E+02  0.45594000000E+02  0.51100000000E-03 0.  1.
         11   -1    0    0    0    0 -0.00000000000E+00 -0.00000000000E+00 -0.45593999997E+02  0.45594000000E+02  0.51100000000E-03 0. -1.
    9900012    2    1    2    0    0  0.37658597313E+02  0.18565472394E+02  0.10989934080E+02  0.47787246921E+02  0.19999890010E+02 0.  0.
         12    1    1    2    0    0 -0.37658597313E+02 -0.18565472394E+02 -0.10989934080E+02  0.43400753079E+02  0.00000000000E+00 0. -1.
         11    1    3    3    0    0  0.28178427897E+01 -0.77883043525E+00 -0.82449263626E+00  0.30375324200E+01  0.51100000000E-03 0. -1.
        -11    1    3    3    0    0  0.29960257291E+02  0.21144548227E+02  0.13801038951E+02  0.39181342665E+02  0.51100000000E-03 0.  1.
        -12    1    3    3    0    0  0.48804972321E+01 -0.18002453978E+01 -0.19866122349E+01  0.55683718354E+01  0.00000000000E+00 0.  1.
</event>
<event>
 7    1  0.1813014E-010  0.4778728E+02  0.7816164E-02  0.1312668E+00
        -11   -1    0    0    0    0  0.00000000000E+00  0.00000000000E+00  0.45593999997E+02  0.45594000000E+02  0.51100000000E-03 0.  1.
         11   -1    0    0    0    0 -0.00000000000E+00 -0.00000000000E+00 -0.45593999997E+02  0.45594000000E+02  0.51100000000E-03 0. -1.
    9900012    2    1    2    0    0  0.27496585005E+02 -0.84822196287E+01  0.32490193435E+02  0.47787275280E+02  0.20000019312E+02 0.  0.
         12    1    1    2    0    0 -0.27496585005E+02  0.84822196287E+01 -0.32490193435E+02  0.43400724720E+02  0.00000000000E+00 0. -1.
         11    1    3    3    0    0  0.66444952320E+01  0.27327817060E-02  0.16848097613E+02  0.18110983347E+02  0.51100000000E-03 0. -1.
        -11    1    3    3    0    0  0.12444477462E+02  0.88709023999E+00  0.61562762839E+01  0.13912285446E+02  0.51100000000E-03 0.  1.
        -12    1    3    3    0    0  0.84076123112E+01 -0.93720426504E+01  0.94858195383E+01  0.15764006487E+02  0.00000000000E+00 0.  1.
</event>
<event>
 7    1  0.1813014E-010  0.4778726E+02  0.7816164E-02  0.1312668E+00
        -11   -1    0    0    0    0  0.00000000000E+00  0.00000000000E+00  0.45593999997E+02  0.45594000000E+02  0.51100000000E-03 0.  1.
         11   -1    0    0    0    0 -0.00000000000E+00 -0.00000000000E+00 -0.45593999997E+02  0.45594000000E+02  0.51100000000E-03 0. -1.
    9900012    2    1    2    0    0  0.38271073050E+01  0.89073575999E+01  0.42304093775E+02  0.47787261298E+02  0.19999955561E+02 0.  0.
         12    1    1    2    0    0 -0.38271073050E+01 -0.89073575999E+01 -0.42304093775E+02  0.43400738702E+02  0.00000000000E+00 0. -1.
         11    1    3    3    0    0  0.14863369842E+01 -0.24948132735E+01  0.37365672770E+00  0.29279532974E+01  0.51100000000E-03 0. -1.
        -11    1    3    3    0    0  0.35146395141E+01  0.10158084092E+02  0.18724519260E+02  0.21590437354E+02  0.51100000000E-03 0.  1.
        -12    1    3    3    0    0 -0.11738691933E+01  0.12440867811E+01  0.23205917788E+02  0.23268870647E+02  0.00000000000E+00 0.  1.
</event>
<event>
 7    1  0.1813014E-010  0.4778727E+02  0.7816164E-02  0.1312668E+00
        -11   -1    0    0    0    0  0.00000000000E+00  0.00000000000E+00  0.45593999997E+02  0.45594000000E+02  0.51100000000E-03 0.  1.
         11   -1    0    0    0    0 -0.00000000000E+00 -0.00000000000E+00 -0.45593999997E+02  0.45594000000E+02  0.51100000000E-03 0. -1.
    9900012    2    1    2    0    0  0.55649754383E+01 -0.16896511379E+02  0.39587395617E+02  0.47787274889E+02  0.20000017529E+02 0.  0.
         12    1    1    2    0    0 -0.55649754383E+01  0.16896511379E+02 -0.39587395617E+02  0.43400725111E+02  0.00000000000E+00 0. -1.
         11    1    3    3    0    0 -0.52316922728E+01 -0.14304598554E+02  0.23648918170E+02  0.28129405872E+02  0.51100000000E-03 0.  1.
        -11    1    3    3    0    0  0.54047591579E+01 -0.11971377254E+01  0.53738019109E+01  0.77150701570E+01  0.51100000000E-03 0. -1.
        -12    1    3    3    0    0  0.53919085532E+01 -0.13947750994E+01  0.10564675536E+02  0.11942798860E+02  0.00000000000E+00 0.  1.
</event>
<event>
 7    1  0.1813014E-010  0.4778727E+02  0.7816164E-02  0.1312668E+00
        -11   -1    0    0    0    0  0.00000000000E+00  0.00000000000E+00  0.45593999997E+02  0.45594000000E+02  0.51100000000E-03 0. -1.
         11   -1    0    0    0    0 -0.00000000000E+00 -0.00000000000E+00 -0.45593999997E+02  0.45594000000E+02  0.51100000000E-03 0.  1.
    9900012    2    1    2    0    0  0.41502805206E+02 -0.12694027608E+02 -0.47764233007E-01  0.47787268919E+02  0.19999990312E+02 0.  0.
         12    1    1    2    0    0 -0.41502805206E+02  0.12694027608E+02  0.47764233007E-01  0.43400731081E+02  0.00000000000E+00 0. -1.
         11    1    3    3    0    0  0.31110535725E+02 -0.10797097185E+02 -0.77158576314E+01  0.33822732001E+02  0.51100000000E-03 0.  1.
        -11    1    3    3    0    0  0.14989265857E+01 -0.16869896240E+01  0.57538585500E-01  0.22574378952E+01  0.51100000000E-03 0. -1.
        -12    1    3    3    0    0  0.88933428951E+01 -0.20994079951E+00  0.76105548129E+01  0.11707099024E+02  0.00000000000E+00 0.  1.
</event>
<event>
 7    1  0.1813014E-010  0.4778727E+02  0.7816164E-02  0.1312668E+00
        -11   -1    0    0    0    0  0.00000000000E+00  0.00000000000E+00  0.45593999997E+02  0.45594000000E+02  0.51100000000E-03 0. -1.
         11   -1    0    0    0    0 -0.00000000000E+00 -0.00000000000E+00 -0.45593999997E+02  0.45594000000E+02  0.51100000000E-03 0.  1.
    9900012    2    1    2    0    0  0.14480741996E+02 -0.30682292460E+02 -0.27065256896E+02  0.47787273161E+02  0.20000009649E+02 0.  0.
         12    1    1    2    0    0 -0.14480741996E+02  0.30682292460E+02  0.27065256896E+02  0.43400726839E+02  0.00000000000E+00 0. -1.
         11    1    3    3    0    0  0.39341888351E+01 -0.37951717151E+01 -0.57108472375E+00  0.54961175534E+01  0.51100000000E-03 0. -1.
        -11    1    3    3    0    0  0.53281180232E+01 -0.26812362420E+02 -0.24484786273E+02  0.36698724491E+02  0.51100000000E-03 0.  1.
        -12    1    3    3    0    0  0.52184351379E+01 -0.74758324505E-01 -0.20093858996E+01  0.55924311161E+01  0.00000000000E+00 0.  1.
</event>
<event>
 7    1  0.1813014E-010  0.4778727E+02  0.7816164E-02  0.1312668E+00
        -11   -1    0    0    0    0  0.00000000000E+00  0.00000000000E+00  0.45593999997E+02  0.45594000000E+02  0.51100000000E-03 0.  1.
         11   -1    0    0    0    0 -0.00000000000E+00 -0.00000000000E+00 -0.45593999997E+02  0.45594000000E+02  0.51100000000E-03 0. -1.
    9900012    2    1    2    0    0  0.11813282016E+02  0.19046718413E+00  0.41761625105E+02  0.47787271421E+02  0.20000001718E+02 0.  0.
         12    1    1    2    0    0 -0.11813282016E+02 -0.19046718413E+00 -0.41761625105E+02  0.43400728579E+02  0.00000000000E+00 0. -1.
         11    1    3    3    0    0 -0.34353499478E+01 -0.41195194537E+00  0.87483312289E+01  0.94076901108E+01  0.51100000000E-03 0. -1.
        -11    1    3    3    0    0  0.81364279464E+01 -0.51942429322E+01  0.22136771361E+02  0.24149912338E+02  0.51100000000E-03 0.  1.
         12    1    3    3    0    0  0.71122040178E+01  0.57966620617E+01  0.10876522515E+02  0.14229668973E+02  0.00000000000E+00 0. -1.
</event>
<event>
 7    1  0.1813014E-010  0.4778727E+02  0.7816164E-02  0.1312668E+00
        -11   -1    0    0    0    0  0.00000000000E+00  0.00000000000E+00  0.45593999997E+02  0.45594000000E+02  0.51100000000E-03 0. -1.
         11   -1    0    0    0    0 -0.00000000000E+00 -0.00000000000E+00 -0.45593999997E+02  0.45594000000E+02  0.51100000000E-03 0.  1.
    9900012    2    1    2    0    0  0.30468874312E+02 -0.96757569186E+01 -0.29353892916E+02  0.47787267251E+02  0.19999982705E+02 0.  0.
         12    1    1    2    0    0 -0.30468874312E+02  0.96757569186E+01  0.29353892916E+02  0.43400732749E+02  0.00000000000E+00 0. -1.
         11    1    3    3    0    0  0.27732440770E+02 -0.66751610663E+01 -0.25672669290E+02  0.38376190471E+02  0.51100000000E-03 0. -1.
        -11    1    3    3    0    0  0.51887462780E+01 -0.61235972578E+00 -0.19670413122E+01  0.55827702940E+01  0.51100000000E-03 0.  1.
         12    1    3    3    0    0 -0.24523127354E+01 -0.23882361264E+01 -0.17141823136E+01  0.38283064862E+01  0.00000000000E+00 0. -1.
</event>
<event>
 7    1  0.1813014E-010  0.4778725E+02  0.7816164E-02  0.1312668E+00
        -11   -1    0    0    0    0  0.00000000000E+00  0.00000000000E+00  0.45593999997E+02  0.45594000000E+02  0.51100000000E-03 0.  1.
         11   -1    0    0    0    0 -0.00000000000E+00 -0.00000000000E+00 -0.45593999997E+02  0.45594000000E+02  0.51100000000E-03 0. -1.
    9900012    2    1    2    0    0  0.29144620780E+02 -0.24042357978E+02  0.21358402176E+02  0.47787248381E+02  0.19999896670E+02 0.  0.
         12    1    1    2    0    0 -0.29144620780E+02  0.24042357978E+02 -0.21358402176E+02  0.43400751619E+02  0.00000000000E+00 0. -1.
         11    1    3    3    0    0  0.98783398461E+01 -0.91067484173E+01  0.19656389297E+01  0.13578593503E+02  0.51100000000E-03 0. -1.
        -11    1    3    3    0    0  0.14855325083E+02 -0.58457758129E+01  0.52054528212E+01  0.16791382240E+02  0.51100000000E-03 0.  1.
        -12    1    3    3    0    0  0.44109558506E+01 -0.90898337474E+01  0.14187310426E+02  0.17417272639E+02  0.00000000000E+00 0.  1.
</event>
<event>
 7    1  0.1813014E-010  0.4778727E+02  0.7816164E-02  0.1312668E+00
        -11   -1    0    0    0    0  0.00000000000E+00  0.00000000000E+00  0.45593999997E+02  0.45594000000E+02  0.51100000000E-03 0.  1.
         11   -1    0    0    0    0 -0.00000000000E+00 -0.00000000000E+00 -0.45593999997E+02  0.45594000000E+02  0.51100000000E-03 0. -1.
    9900012    2    1    2    0    0 -0.13476578084E+02  0.40695065133E+02 -0.67761734675E+01  0.47787274086E+02  0.20000013866E+02 0.  0.
         12    1    1    2    0    0  0.13476578084E+02 -0.40695065133E+02  0.67761734675E+01  0.43400725914E+02  0.00000000000E+00 0. -1.
         11    1    3    3    0    0  0.68561535307E+00  0.13212713401E+01 -0.10175068421E+01  0.18030936752E+01  0.51100000000E-03 0. -1.
        -11    1    3    3    0    0 -0.10802888072E+02  0.40622577141E+02 -0.51461106209E+01  0.42348301253E+02  0.51100000000E-03 0.  1.
        -12    1    3    3    0    0 -0.33593053653E+01 -0.12487833480E+01 -0.61255600446E+00  0.36358791573E+01  0.00000000000E+00 0.  1.
</event>
<event>
 7    1  0.1813014E-010  0.4778727E+02  0.7816164E-02  0.1312668E+00
        -11   -1    0    0    0    0  0.00000000000E+00  0.00000000000E+00  0.45593999997E+02  0.45594000000E+02  0.51100000000E-03 0.  1.
         11   -1    0    0    0    0 -0.00000000000E+00 -0.00000000000E+00 -0.45593999997E+02  0.45594000000E+02  0.51100000000E-03 0. -1.
    9900012    2    1    2    0    0 -0.40735215684E+02  0.76541712957E+01  0.12871655173E+02  0.47787266804E+02  0.19999980668E+02 0.  0.
         12    1    1    2    0    0  0.40735215684E+02 -0.76541712957E+01 -0.12871655173E+02  0.43400733196E+02  0.00000000000E+00 0. -1.
         11    1    3    3    0    0 -0.15697473692E+02 -0.28439715265E+01 -0.24362068192E+01  0.16137966362E+02  0.51100000000E-03 0. -1.
        -11    1    3    3    0    0 -0.11097140467E+01 -0.48482567343E+00  0.34204832443E-01  0.12114831533E+01  0.51100000000E-03 0.  1.
        -12    1    3    3    0    0 -0.23928027945E+02  0.10982968496E+02  0.15273657160E+02  0.30437817289E+02  0.00000000000E+00 0.  1.
</event>
<event>
 7    1  0.1813014E-010  0.4778727E+02  0.7816164E-02  0.1312668E+00
        -11   -1    0    0    0    0  0.00000000000E+00  0.00000000000E+00  0.45593999997E+02  0.45594000000E+02  0.51100000000E-03 0. -1.
         11   -1    0    0    0    0 -0.00000000000E+00 -0.00000000000E+00 -0.45593999997E+02  0.45594000000E+02  0.51100000000E-03 0.  1.
    9900012    2    1    2    0    0  0.38221782998E+02 -0.20553684180E+02 -0.51453580880E+00  0.47787269867E+02  0.19999994633E+02 0.  0.
         12    1    1    2    0    0 -0.38221782998E+02  0.20553684180E+02  0.51453580880E+00  0.43400730133E+02  0.00000000000E+00 0. -1.
         11    1    3    3    0    0  0.15508616934E+02 -0.38455631891E+01 -0.33812049183E+01  0.16332118736E+02  0.51100000000E-03 0. -1.
        -11    1    3    3    0    0  0.22574508502E+02 -0.15795851149E+02  0.59922752844E+01  0.28196182560E+02  0.51100000000E-03 0.  1.
         12    1    3    3    0    0  0.13865756184E+00 -0.91226984200E+00 -0.31256061749E+01  0.32589685707E+01  0.00000000000E+00 0. -1.
</event>
<event>
 7    1  0.1813014E-010  0.4778728E+02  0.7816164E-02  0.1312668E+00
        -11   -1    0    0    0    0  0.00000000000E+00  0.00000000000E+00  0.45593999997E+02  0.45594000000E+02  0.51100000000E-03 0. -1.
         11   -1    0    0    0    0 -0.00000000000E+00 -0.00000000000E+00 -0.45593999997E+02  0.45594000000E+02  0.51100000000E-03 0.  1.
    9900012    2    1    2    0    0 -0.60912266931E+01 -0.42916905584E+02  0.21584859683E+01  0.47787275476E+02  0.20000020203E+02 0.  0.
         12    1    1    2    0    0  0.60912266931E+01  0.42916905584E+02 -0.21584859683E+01  0.43400724524E+02  0.00000000000E+00 0. -1.
         11    1    3    3    0    0 -0.15806899578E+01  0.29260013686E+00 -0.80460537556E+00  0.17976611623E+01  0.51100000000E-03 0. -1.
        -11    1    3    3    0    0 -0.14402195521E+01 -0.37199247165E+02 -0.24936683864E+01  0.37310542804E+02  0.51100000000E-03 0.  1.
        -12    1    3    3    0    0 -0.30703171833E+01 -0.60102585559E+01  0.54567597303E+01  0.86790715096E+01  0.00000000000E+00 0.  1.
</event>
<event>
 7    1  0.1813014E-010  0.4778727E+02  0.7816164E-02  0.1312668E+00
        -11   -1    0    0    0    0  0.00000000000E+00  0.00000000000E+00  0.45593999997E+02  0.45594000000E+02  0.51100000000E-03 0.  1.
         11   -1    0    0    0    0 -0.00000000000E+00 -0.00000000000E+00 -0.45593999997E+02  0.45594000000E+02  0.51100000000E-03 0. -1.
    9900012    2    1    2    0    0 -0.26917712852E+02 -0.72562741269E+01  0.33262688709E+02  0.47787271440E+02  0.20000001802E+02 0.  0.
         12    1    1    2    0    0  0.26917712852E+02  0.72562741269E+01 -0.33262688709E+02  0.43400728560E+02  0.00000000000E+00 0. -1.
         11    1    3    3    0    0 -0.53655484348E+01 -0.61807591245E+01  0.23701555914E+01  0.85210639681E+01  0.51100000000E-03 0. -1.
        -11    1    3    3    0    0 -0.18210959983E+02 -0.32603541636E+01  0.18165981084E+02  0.25928205526E+02  0.51100000000E-03 0.  1.
         12    1    3    3    0    0 -0.33412044345E+01  0.21848391611E+01  0.12726552034E+02  0.13338001945E+02  0.00000000000E+00 0. -1.
</event>
<event>
 7    1  0.1813014E-010  0.4778727E+02  0.7816164E-02  0.1312668E+00
        -11   -1    0    0    0    0  0.00000000000E+00  0.00000000000E+00  0.45593999997E+02  0.45594000000E+02  0.51100000000E-03 0. -1.
         11   -1    0    0    0    0 -0.00000000000E+00 -0.00000000000E+00 -0.45593999997E+02  0.45594000000E+02  0.51100000000E-03 0.  1.
    9900012    2    1    2    0    0  0.34480047396E+02  0.22937048334E+02 -0.12986191297E+02  0.47787273979E+02  0.20000013381E+02 0.  0.
         12    1    1    2    0    0 -0.34480047396E+02 -0.22937048334E+02  0.12986191297E+02  0.43400726021E+02  0.00000000000E+00 0. -1.
         11    1    3    3    0    0  0.17571671948E+02  0.80689254203E+01 -0.21319597205E+01  0.19452929471E+02  0.51100000000E-03 0. -1.
        -11    1    3    3    0    0  0.84829422454E+01  0.53956573652E-01 -0.73712604653E+00  0.85150793021E+01  0.51100000000E-03 0.  1.
        -12    1    3    3    0    0  0.84254332024E+01  0.14814166340E+02 -0.10117105530E+02  0.19819265206E+02  0.00000000000E+00 0.  1.
</event>
<event>
 7    1  0.1813014E-010  0.4778726E+02  0.7816164E-02  0.1312668E+00
        -11   -1    0    0    0    0  0.00000000000E+00  0.00000000000E+00  0.45593999997E+02  0.45594000000E+02  0.51100000000E-03 0.  1.
         11   -1    0    0    0    0 -0.00000000000E+00 -0.00000000000E+00 -0.45593999997E+02  0.45594000000E+02  0.51100000000E-03 0. -1.
    9900012    2    1    2    0    0  0.27476476544E+02 -0.32835880762E+02  0.71044138691E+01  0.47787256629E+02  0.19999934276E+02 0.  0.
         12    1    1    2    0    0 -0.27476476544E+02  0.32835880762E+02 -0.71044138691E+01  0.43400743371E+02  0.00000000000E+00 0. -1.
         11    1    3    3    0    0  0.31689480486E+01  0.13369528992E+01 -0.29417169629E+01  0.45258561334E+01  0.51100000000E-03 0. -1.
        -11    1    3    3    0    0  0.81755579695E+01 -0.12118739755E+02  0.18560729969E+01  0.14735963103E+02  0.51100000000E-03 0.  1.
         12    1    3    3    0    0  0.16131970526E+02 -0.22054093907E+02  0.81900578351E+01  0.28525437393E+02  0.00000000000E+00 0. -1.
</event>
<event>
 7    1  0.1813014E-010  0.4778727E+02  0.7816164E-02  0.1312668E+00
        -11   -1    0    0    0    0  0.00000000000E+00  0.00000000000E+00  0.45593999997E+02  0.45594000000E+02  0.51100000000E-03 0.  1.
         11   -1    0    0    0    0 -0.00000000000E+00 -0.00000000000E+00 -0.45593999997E+02  0.45594000000E+02  0.51100000000E-03 0. -1.
    9900012    2    1    2    0    0  0.38456354166E+02  0.20114703221E+02 -0.36213641939E+00  0.47787267239E+02  0.19999982649E+02 0.  0.
         12    1    1    2    0    0 -0.38456354166E+02 -0.20114703221E+02  0.36213641939E+00  0.43400732761E+02  0.00000000000E+00 0. -1.
         11    1    3    3    0    0  0.18577619887E+01  0.45813395751E+01  0.91398878501E-01  0.49445228208E+01  0.51100000000E-03 0. -1.
        -11    1    3    3    0    0 -0.97682337263E+00 -0.13261435094E+01  0.15033626180E+00  0.16539170964E+01  0.51100000000E-03 0.  1.
        -12    1    3    3    0    0  0.37575415550E+02  0.16859507155E+02 -0.60387155969E+00  0.41188827322E+02  0.00000000000E+00 0.  1.
</event>
<event>
 7    1  0.1813014E-010  0.4778727E+02  0.7816164E-02  0.1312668E+00
        -11   -1    0    0    0    0  0.00000000000E+00  0.00000000000E+00  0.45593999997E+02  0.45594000000E+02  0.51100000000E-03 0.  1.
         11   -1    0    0    0    0 -0.00000000000E+00 -0.00000000000E+00 -0.45593999997E+02  0.45594000000E+02  0.51100000000E-03 0. -1.
    9900012    2    1    2    0    0 -0.14753301872E+02  0.40721227933E+02 -0.27830288530E+01  0.47787267632E+02  0.19999984442E+02 0.  0.
         12    1    1    2    0    0  0.14753301872E+02 -0.40721227933E+02  0.27830288530E+01  0.43400732368E+02  0.00000000000E+00 0. -1.
         11    1    3    3    0    0 -0.11103876155E+02  0.38177357200E+02  0.44510401944E+00  0.39761850891E+02  0.51100000000E-03 0.  1.
        -11    1    3    3    0    0 -0.44589984244E+01  0.36773680876E+01 -0.18567121395E+01  0.60706740343E+01  0.51100000000E-03 0. -1.
        -12    1    3    3    0    0  0.80957270734E+00 -0.11334973550E+01 -0.13714207330E+01  0.19547427066E+01  0.00000000000E+00 0.  1.
</event>
<event>
 7    1  0.1813014E-010  0.4778727E+02  0.7816164E-02  0.1312668E+00
        -11   -1    0    0    0    0  0.00000000000E+00  0.00000000000E+00  0.45593999997E+02  0.45594000000E+02  0.51100000000E-03 0.  1.
         11   -1    0    0    0    0 -0.00000000000E+00 -0.00000000000E+00 -0.45593999997E+02  0.45594000000E+02  0.51100000000E-03 0. -1.
    9900012    2    1    2    0    0 -0.10659368850E+02  0.31319110111E+01  0.41954647476E+02  0.47787268950E+02  0.19999990451E+02 0.  0.
         12    1    1    2    0    0  0.10659368850E+02 -0.31319110111E+01 -0.41954647476E+02  0.43400731050E+02  0.00000000000E+00 0. -1.
         11    1    3    3    0    0 -0.41395830395E+01 -0.41659918050E+01  0.13587668381E+02  0.14802579767E+02  0.51100000000E-03 0.  1.
        -11    1    3    3    0    0  0.37186705913E+01  0.14598548696E+01  0.29437686612E+01  0.49624048000E+01  0.51100000000E-03 0. -1.
         12    1    3    3    0    0 -0.10238456402E+02  0.58380479466E+01  0.25423210433E+02  0.28022284383E+02  0.00000000000E+00 0. -1.
</event>
<event>
 7    1  0.1813014E-010  0.4778727E+02  0.7816164E-02  0.1312668E+00
        -11   -1    0    0    0    0  0.00000000000E+00  0.00000000000E+00  0.45593999997E+02  0.45594000000E+02  0.51100000000E-03 0.  1.
         11   -1    0    0    0    0 -0.00000000000E+00 -0.00000000000E+00 -0.45593999997E+02  0.45594000000E+02  0.51100000000E-03 0. -1.
    9900012    2    1    2    0    0  0.25865860284E+02 -0.93216957060E+01  0.33581048546E+02  0.47787267743E+02  0.19999984946E+02 0.  0.
         12    1    1    2    0    0 -0.25865860284E+02  0.93216957060E+01 -0.33581048546E+02  0.43400732257E+02  0.00000000000E+00 0. -1.
         11    1    3    3    0    0  0.21282953983E+02 -0.15587099348E+01  0.21112768971E+02  0.30019039304E+02  0.51100000000E-03 0. -1.
        -11    1    3    3    0    0 -0.12966586488E+01 -0.47627019863E+00 -0.74844363322E+00  0.15710904133E+01  0.51100000000E-03 0.  1.
        -12    1    3    3    0    0  0.58795649500E+01 -0.72867155726E+01  0.13216723208E+02  0.16197138025E+02  0.00000000000E+00 0.  1.
</event>
<event>
 7    1  0.1813014E-010  0.4778726E+02  0.7816164E-02  0.1312668E+00
        -11   -1    0    0    0    0  0.00000000000E+00  0.00000000000E+00  0.45593999997E+02  0.45594000000E+02  0.51100000000E-03 0. -1.
         11   -1    0    0    0    0 -0.00000000000E+00 -0.00000000000E+00 -0.45593999997E+02  0.45594000000E+02  0.51100000000E-03 0.  1.
    9900012    2    1    2    0    0  0.36509356533E+02  0.17102501999E+02 -0.16068459264E+02  0.47787261848E+02  0.19999958068E+02 0.  0.
         12    1    1    2    0    0 -0.36509356533E+02 -0.17102501999E+02  0.16068459264E+02  0.43400738152E+02  0.00000000000E+00 0. -1.
         11    1    3    3    0    0  0.18707888296E+02  0.12597568019E+02 -0.85875908940E+01  0.24133597372E+02  0.51100000000E-03 0. -1.
        -11    1    3    3    0    0  0.11720150021E+02  0.79618405416E+01 -0.11437354244E+01  0.14214814536E+02  0.51100000000E-03 0.  1.
         12    1    3    3    0    0  0.60813182162E+01 -0.34569065613E+01 -0.63371329451E+01  0.94388499397E+01  0.00000000000E+00 0. -1.
</event>
<event>
 7    1  0.1813014E-010  0.4778727E+02  0.7816164E-02  0.1312668E+00
        -11   -1    0    0    0    0  0.00000000000E+00  0.00000000000E+00  0.45593999997E+02  0.45594000000E+02  0.51100000000E-03 0. -1.
         11   -1    0    0    0    0 -0.00000000000E+00 -0.00000000000E+00 -0.45593999997E+02  0.45594000000E+02  0.51100000000E-03 0.  1.
    9900012    2    1    2    0    0 -0.34850780067E+02 -0.11459384784E+02 -0.23188990034E+02  0.47787266945E+02  0.19999981308E+02 0.  0.
         12    1    1    2    0    0  0.34850780067E+02  0.11459384784E+02  0.23188990034E+02  0.43400733055E+02  0.00000000000E+00 0. -1.
         11    1    3    3    0    0 -0.18412297253E+02 -0.96247768882E+01 -0.15542768867E+02  0.25946612199E+02  0.51100000000E-03 0. -1.
        -11    1    3    3    0    0 -0.77214609466E+01 -0.68502294528E+01 -0.29116352301E+01  0.10724934624E+02  0.51100000000E-03 0.  1.
         12    1    3    3    0    0 -0.87170218681E+01  0.50156215567E+01 -0.47345859368E+01  0.11115720123E+02  0.00000000000E+00 0. -1.
</event>
<event>
 7    1  0.1813014E-010  0.4778727E+02  0.7816164E-02  0.1312668E+00
        -11   -1    0    0    0    0  0.00000000000E+00  0.00000000000E+00  0.45593999997E+02  0.45594000000E+02  0.51100000000E-03 0.  1.
         11   -1    0    0    0    0 -0.00000000000E+00 -0.00000000000E+00 -0.45593999997E+02  0.45594000000E+02  0.51100000000E-03 0. -1.
    9900012    2    1    2    0    0 -0.38217290940E+01 -0.13717956681E+02  0.40997992339E+02  0.47787270460E+02  0.19999997336E+02 0.  0.
         12    1    1    2    0    0  0.38217290940E+01  0.13717956681E+02 -0.40997992339E+02  0.43400729540E+02  0.00000000000E+00 0. -1.
         11    1    3    3    0    0  0.41965335731E+01  0.28468751945E+01  0.11267830996E+02  0.12356359011E+02  0.51100000000E-03 0. -1.
        -11    1    3    3    0    0 -0.42221761901E+01 -0.52537590043E+01  0.67547212140E+01  0.95422751164E+01  0.51100000000E-03 0.  1.
         12    1    3    3    0    0 -0.37960864770E+01 -0.11311072871E+02  0.22975440129E+02  0.25888636333E+02  0.00000000000E+00 0. -1.
</event>
<event>
 7    1  0.1813014E-010  0.4778727E+02  0.7816164E-02  0.1312668E+00
        -11   -1    0    0    0    0  0.00000000000E+00  0.00000000000E+00  0.45593999997E+02  0.45594000000E+02  0.51100000000E-03 0. -1.
         11   -1    0    0    0    0 -0.00000000000E+00 -0.00000000000E+00 -0.45593999997E+02  0.45594000000E+02  0.51100000000E-03 0.  1.
    9900012    2    1    2    0    0  0.15746652359E+02  0.23817765698E+02 -0.32686084113E+02  0.47787272840E+02  0.20000008188E+02 0.  0.
         12    1    1    2    0    0 -0.15746652359E+02 -0.23817765698E+02  0.32686084113E+02  0.43400727160E+02  0.00000000000E+00 0. -1.
         11    1    3    3    0    0 -0.68373726987E+00  0.52947811626E+01 -0.43177451727E+01  0.68662309786E+01  0.51100000000E-03 0.  1.
        -11    1    3    3    0    0  0.44458568793E+01 -0.73152342189E+00  0.12025034636E+00  0.45072419854E+01  0.51100000000E-03 0. -1.
         12    1    3    3    0    0  0.11984532749E+02  0.19254507957E+02 -0.28488589287E+02  0.36413799876E+02  0.00000000000E+00 0. -1.
</event>
<event>
 7    1  0.1813014E-010  0.4778727E+02  0.7816164E-02  0.1312668E+00
        -11   -1    0    0    0    0  0.00000000000E+00  0.00000000000E+00  0.45593999997E+02  0.45594000000E+02  0.51100000000E-03 0.  1.
         11   -1    0    0    0    0 -0.00000000000E+00 -0.00000000000E+00 -0.45593999997E+02  0.45594000000E+02  0.51100000000E-03 0. -1.
    9900012    2    1    2    0    0 -0.11526557138E+02  0.76293026048E+01  0.41140680837E+02  0.47787269621E+02  0.19999993509E+02 0.  0.
         12    1    1    2    0    0  0.11526557138E+02 -0.76293026048E+01 -0.41140680837E+02  0.43400730379E+02  0.00000000000E+00 0. -1.
         11    1    3    3    0    0 -0.63905894571E+00  0.16531882054E+01  0.21270925096E+02  0.21344640599E+02  0.51100000000E-03 0.  1.
        -11    1    3    3    0    0  0.78361404136E+00  0.22597691379E+01 -0.70889649184E+00  0.24946226207E+01  0.51100000000E-03 0. -1.
        -12    1    3    3    0    0 -0.11671112234E+02  0.37163452615E+01  0.20578652233E+02  0.23948006402E+02  0.00000000000E+00 0.  1.
</event>
<event>
 7    1  0.1813014E-010  0.4778727E+02  0.7816164E-02  0.1312668E+00
        -11   -1    0    0    0    0  0.00000000000E+00  0.00000000000E+00  0.45593999997E+02  0.45594000000E+02  0.51100000000E-03 0.  1.
         11   -1    0    0    0    0 -0.00000000000E+00 -0.00000000000E+00 -0.45593999997E+02  0.45594000000E+02  0.51100000000E-03 0. -1.
    9900012    2    1    2    0    0  0.95754262702E+01 -0.42145087708E+01  0.42120925107E+02  0.47787271846E+02  0.20000003654E+02 0.  0.
         12    1    1    2    0    0 -0.95754262702E+01  0.42145087708E+01 -0.42120925107E+02  0.43400728154E+02  0.00000000000E+00 0. -1.
         11    1    3    3    0    0  0.25162692362E+01 -0.11574862378E+02  0.21381280961E+02  0.24443163169E+02  0.51100000000E-03 0. -1.
        -11    1    3    3    0    0  0.39043782273E+01  0.32042463971E+01  0.13548619721E+02  0.14459476509E+02  0.51100000000E-03 0.  1.
        -12    1    3    3    0    0  0.31547788067E+01  0.41561072102E+01  0.71910244255E+01  0.88846321674E+01  0.00000000000E+00 0.  1.
</event>
<event>
 7    1  0.1813014E-010  0.4778727E+02  0.7816164E-02  0.1312668E+00
        -11   -1    0    0    0    0  0.00000000000E+00  0.00000000000E+00  0.45593999997E+02  0.45594000000E+02  0.51100000000E-03 0. -1.
         11   -1    0    0    0    0 -0.00000000000E+00 -0.00000000000E+00 -0.45593999997E+02  0.45594000000E+02  0.51100000000E-03 0.  1.
    9900012    2    1    2    0    0  0.12972067201E+02 -0.22248989419E+02 -0.34933238946E+02  0.47787271425E+02  0.20000001733E+02 0.  0.
         12    1    1    2    0    0 -0.12972067201E+02  0.22248989419E+02  0.34933238946E+02  0.43400728575E+02  0.00000000000E+00 0. -1.
         11    1    3    3    0    0 -0.26022057574E+01 -0.33267371646E+01 -0.45981375213E+01  0.62435185507E+01  0.51100000000E-03 0. -1.
        -11    1    3    3    0    0  0.12887097182E+02 -0.21177974790E+02 -0.25443248504E+02  0.35523834036E+02  0.51100000000E-03 0.  1.
         12    1    3    3    0    0  0.26871757772E+01  0.22557225354E+01 -0.48918529208E+01  0.60199188377E+01  0.00000000000E+00 0. -1.
</event>
<event>
 7    1  0.1813014E-010  0.4778727E+02  0.7816164E-02  0.1312668E+00
        -11   -1    0    0    0    0  0.00000000000E+00  0.00000000000E+00  0.45593999997E+02  0.45594000000E+02  0.51100000000E-03 0. -1.
         11   -1    0    0    0    0 -0.00000000000E+00 -0.00000000000E+00 -0.45593999997E+02  0.45594000000E+02  0.51100000000E-03 0.  1.
    9900012    2    1    2    0    0 -0.30607011146E+02  0.21455670226E+02 -0.22056479905E+02  0.47787271643E+02  0.20000002728E+02 0.  0.
         12    1    1    2    0    0  0.30607011146E+02 -0.21455670226E+02  0.22056479905E+02  0.43400728357E+02  0.00000000000E+00 0. -1.
         11    1    3    3    0    0 -0.14034368003E+02  0.14277274309E+02 -0.12018889246E+02  0.23350754718E+02  0.51100000000E-03 0. -1.
        -11    1    3    3    0    0 -0.62830943464E+01 -0.30701673448E+00 -0.98783921409E+01  0.11711283678E+02  0.51100000000E-03 0.  1.
         12    1    3    3    0    0 -0.10289548797E+02  0.74854126514E+01 -0.15919851759E+00  0.12725233246E+02  0.00000000000E+00 0. -1.
</event>
<event>
 7    1  0.1813014E-010  0.4778727E+02  0.7816164E-02  0.1312668E+00
        -11   -1    0    0    0    0  0.00000000000E+00  0.00000000000E+00  0.45593999997E+02  0.45594000000E+02  0.51100000000E-03 0. -1.
         11   -1    0    0    0    0 -0.00000000000E+00 -0.00000000000E+00 -0.45593999997E+02  0.45594000000E+02  0.51100000000E-03 0.  1.
    9900012    2    1    2    0    0  0.31328751445E+00 -0.43134875979E+02 -0.47862022049E+01  0.47787269518E+02  0.19999993040E+02 0.  0.
         12    1    1    2    0    0 -0.31328751445E+00  0.43134875979E+02  0.47862022049E+01  0.43400730482E+02  0.00000000000E+00 0. -1.
         11    1    3    3    0    0 -0.53517929925E+00 -0.43109311366E-01  0.19547019847E+01  0.20271002455E+01  0.51100000000E-03 0. -1.
        -11    1    3    3    0    0  0.14509461482E+01 -0.54469663820E+01 -0.58156726346E+01  0.80991811898E+01  0.51100000000E-03 0.  1.
        -12    1    3    3    0    0 -0.60247933446E+00 -0.37644800286E+02 -0.92523155499E+00  0.37660988083E+02  0.00000000000E+00 0.  1.
</event>
<event>
 7    1  0.2818154E-010  0.4778727E+02  0.7816164E-02  0.1312668E+00
        -11   -1    0    0    0    0  0.00000000000E+00  0.00000000000E+00  0.45593999997E+02  0.45594000000E+02  0.51100000000E-03 0. -1.
         11   -1    0    0    0    0 -0.00000000000E+00 -0.00000000000E+00 -0.45593999997E+02  0.45594000000E+02  0.51100000000E-03 0.  1.
    9900012    2    1    2    0    0  0.18261334030E+02  0.23423412190E+01 -0.39302174125E+02  0.47787265284E+02  0.19999973735E+02 0.  0.
         12    1    1    2    0    0 -0.18261334030E+02 -0.23423412190E+01  0.39302174125E+02  0.43400734716E+02  0.00000000000E+00 0. -1.
         11    1    3    3    0    0  0.11288183735E+02  0.84904481066E-01 -0.10151795858E+02  0.15181872750E+02  0.51100000000E-03 0. -1.
        -11    1    3    3    0    0  0.52529615159E+01 -0.31760801658E+01 -0.24477049125E+02  0.25235035646E+02  0.51100000000E-03 0.  1.
         12    1    3    3    0    0  0.17201887788E+01  0.54335169038E+01 -0.46733291427E+01  0.73703568879E+01  0.00000000000E+00 0. -1.
</event>
<event>
 7    1  0.1813014E-010  0.4778726E+02  0.7816164E-02  0.1312668E+00
        -11   -1    0    0    0    0  0.00000000000E+00  0.00000000000E+00  0.45593999997E+02  0.45594000000E+02  0.51100000000E-03 0. -1.
         11   -1    0    0    0    0 -0.00000000000E+00 -0.00000000000E+00 -0.45593999997E+02  0.45594000000E+02  0.51100000000E-03 0.  1.
    9900012    2    1    2    0    0 -0.42730723929E+02 -0.75777952554E+01 -0.53492774055E+00  0.47787263876E+02  0.19999967315E+02 0.  0.
         12    1    1    2    0    0  0.42730723929E+02  0.75777952554E+01  0.53492774055E+00  0.43400736124E+02  0.00000000000E+00 0. -1.
         11    1    3    3    0    0 -0.21018423799E+02  0.23326642761E+01 -0.27537986536E+01  0.21326013901E+02  0.51100000000E-03 0. -1.
        -11    1    3    3    0    0 -0.21984786809E+02 -0.94035098081E+01 -0.26364522234E+00  0.23912891018E+02  0.51100000000E-03 0.  1.
         12    1    3    3    0    0  0.27248667909E+00 -0.50694972344E+00  0.24825161354E+01  0.25483589572E+01  0.00000000000E+00 0. -1.
</event>
<event>
 7    1  0.1813014E-010  0.4778727E+02  0.7816164E-02  0.1312668E+00
        -11   -1    0    0    0    0  0.00000000000E+00  0.00000000000E+00  0.45593999997E+02  0.45594000000E+02  0.51100000000E-03 0. -1.
         11   -1    0    0    0    0 -0.00000000000E+00 -0.00000000000E+00 -0.45593999997E+02  0.45594000000E+02  0.51100000000E-03 0.  1.
    9900012    2    1    2    0    0  0.18690040499E+02 -0.17424642128E+02 -0.35081158581E+02  0.47787268963E+02  0.19999990512E+02 0.  0.
         12    1    1    2    0    0 -0.18690040499E+02  0.17424642128E+02  0.35081158581E+02  0.43400731037E+02  0.00000000000E+00 0. -1.
         11    1    3    3    0    0  0.71628079365E+01 -0.33276928455E+01 -0.21209309833E+02  0.22632149280E+02  0.51100000000E-03 0. -1.
        -11    1    3    3    0    0  0.29909584888E+01 -0.63319576799E+00 -0.72954269722E+01  0.79101216508E+01  0.51100000000E-03 0.  1.
        -12    1    3    3    0    0  0.85362740735E+01 -0.13463753514E+02 -0.65764217760E+01  0.17244998032E+02  0.00000000000E+00 0.  1.
</event>
<event>
 7    1  0.1813014E-010  0.4778724E+02  0.7816164E-02  0.1312668E+00
        -11   -1    0    0    0    0  0.00000000000E+00  0.00000000000E+00  0.45593999997E+02  0.45594000000E+02  0.51100000000E-03 0.  1.
         11   -1    0    0    0    0 -0.00000000000E+00 -0.00000000000E+00 -0.45593999997E+02  0.45594000000E+02  0.51100000000E-03 0. -1.
    9900012    2    1    2    0    0  0.29416181090E+02 -0.25807918630E+02  0.18768749203E+02  0.47787235945E+02  0.19999839968E+02 0.  0.
         12    1    1    2    0    0 -0.29416181090E+02  0.25807918630E+02 -0.18768749203E+02  0.43400764055E+02  0.00000000000E+00 0. -1.
         11    1    3    3    0    0 -0.27033094428E+01 -0.16240268882E+01  0.18608039208E+01  0.36616849633E+01  0.51100000000E-03 0. -1.
        -11    1    3    3    0    0  0.36067311371E+01 -0.48040201363E+00  0.20855806391E+01  0.41939173160E+01  0.51100000000E-03 0.  1.
        -12    1    3    3    0    0  0.28512759396E+02 -0.23703489728E+02  0.14822364643E+02  0.39931633666E+02  0.00000000000E+00 0.  1.
</event>
<event>
 7    1  0.1813014E-010  0.4778727E+02  0.7816164E-02  0.1312668E+00
        -11   -1    0    0    0    0  0.00000000000E+00  0.00000000000E+00  0.45593999997E+02  0.45594000000E+02  0.51100000000E-03 0. -1.
         11   -1    0    0    0    0 -0.00000000000E+00 -0.00000000000E+00 -0.45593999997E+02  0.45594000000E+02  0.51100000000E-03 0.  1.
    9900012    2    1    2    0    0 -0.20120750220E+02 -0.26275029842E+02 -0.28078488230E+02  0.47787270929E+02  0.19999999472E+02 0.  0.
         12    1    1    2    0    0  0.20120750220E+02  0.26275029842E+02  0.28078488230E+02  0.43400729071E+02  0.00000000000E+00 0. -1.
         11    1    3    3    0    0 -0.27294866355E+01 -0.96716429631E+01 -0.42621632399E+01  0.10915897152E+02  0.51100000000E-03 0. -1.
        -11    1    3    3    0    0 -0.15793455352E+02 -0.16390807144E+02 -0.25740803471E+02  0.34361035409E+02  0.51100000000E-03 0.  1.
        -12    1    3    3    0    0 -0.15978082333E+01 -0.21257973516E+00  0.19244784811E+01  0.25103383673E+01  0.00000000000E+00 0.  1.
</event>
<event>
 7    1  0.3434205E-010  0.4778728E+02  0.7816164E-02  0.1312668E+00
        -11   -1    0    0    0    0  0.00000000000E+00  0.00000000000E+00  0.45593999997E+02  0.45594000000E+02  0.51100000000E-03 0. -1.
         11   -1    0    0    0    0 -0.00000000000E+00 -0.00000000000E+00 -0.45593999997E+02  0.45594000000E+02  0.51100000000E-03 0.  1.
    9900012    2    1    2    0    0 -0.23405364160E+02  0.78187489529E+01 -0.35702645752E+02  0.47787276270E+02  0.20000023825E+02 0.  0.
         12    1    1    2    0    0  0.23405364160E+02 -0.78187489529E+01  0.35702645752E+02  0.43400723730E+02  0.00000000000E+00 0. -1.
         11    1    3    3    0    0  0.54617659482E+00  0.53639661829E+01 -0.46912553508E+01  0.71469097596E+01  0.51100000000E-03 0. -1.
        -11    1    3    3    0    0 -0.14186569467E+02  0.63543385599E+01 -0.20951114872E+02  0.26088035311E+02  0.51100000000E-03 0.  1.
         12    1    3    3    0    0 -0.97649712872E+01 -0.38995557900E+01 -0.10060275529E+02  0.14552331199E+02  0.00000000000E+00 0. -1.
</event>
<event>
 7    1  0.1813014E-010  0.4778728E+02  0.7816164E-02  0.1312668E+00
        -11   -1    0    0    0    0  0.00000000000E+00  0.00000000000E+00  0.45593999997E+02  0.45594000000E+02  0.51100000000E-03 0. -1.
         11   -1    0    0    0    0 -0.00000000000E+00 -0.00000000000E+00 -0.45593999997E+02  0.45594000000E+02  0.51100000000E-03 0.  1.
    9900012    2    1    2    0    0  0.24155390565E+02  0.31288022881E+02 -0.17922021491E+02  0.47787284298E+02  0.20000060428E+02 0.  0.
         12    1    1    2    0    0 -0.24155390565E+02 -0.31288022881E+02  0.17922021491E+02  0.43400715702E+02  0.00000000000E+00 0. -1.
         11    1    3    3    0    0 -0.29265333321E+01  0.20715857660E+01 -0.13423911274E+01  0.38285870932E+01  0.51100000000E-03 0. -1.
        -11    1    3    3    0    0  0.10407495376E+02  0.89635882728E+01 -0.18134051360E+01  0.13854613426E+02  0.51100000000E-03 0.  1.
        -12    1    3    3    0    0  0.16674428521E+02  0.20252848842E+02 -0.14766225228E+02  0.30104083779E+02  0.00000000000E+00 0.  1.
</event>
<event>
 7    1  0.1813014E-010  0.4778727E+02  0.7816164E-02  0.1312668E+00
        -11   -1    0    0    0    0  0.00000000000E+00  0.00000000000E+00  0.45593999997E+02  0.45594000000E+02  0.51100000000E-03 0.  1.
         11   -1    0    0    0    0 -0.00000000000E+00 -0.00000000000E+00 -0.45593999997E+02  0.45594000000E+02  0.51100000000E-03 0. -1.
    9900012    2    1    2    0    0  0.38379395161E+02 -0.30387856815E+01  0.20035245973E+02  0.47787271060E+02  0.20000000072E+02 0.  0.
         12    1    1    2    0    0 -0.38379395161E+02  0.30387856815E+01 -0.20035245973E+02  0.43400728940E+02  0.00000000000E+00 0. -1.
         11    1    3    3    0    0  0.12540304207E+02  0.87195116625E+00  0.87996661987E+01  0.15344499142E+02  0.51100000000E-03 0. -1.
        -11    1    3    3    0    0  0.90191241438E+01  0.34489993872E+01  0.10212358139E+02  0.14054624012E+02  0.51100000000E-03 0.  1.
         12    1    3    3    0    0  0.16819966810E+02 -0.73597362350E+01  0.10232216358E+01  0.18388147907E+02  0.00000000000E+00 0. -1.
</event>
<event>
 7    1  0.1813014E-010  0.4778727E+02  0.7816164E-02  0.1312668E+00
        -11   -1    0    0    0    0  0.00000000000E+00  0.00000000000E+00  0.45593999997E+02  0.45594000000E+02  0.51100000000E-03 0.  1.
         11   -1    0    0    0    0 -0.00000000000E+00 -0.00000000000E+00 -0.45593999997E+02  0.45594000000E+02  0.51100000000E-03 0. -1.
    9900012    2    1    2    0    0 -0.20441689647E+02 -0.32065440842E+02  0.20918125766E+02  0.47787272384E+02  0.20000006107E+02 0.  0.
         12    1    1    2    0    0  0.20441689647E+02  0.32065440842E+02 -0.20918125766E+02  0.43400727616E+02  0.00000000000E+00 0. -1.
         11    1    3    3    0    0 -0.23994586663E+01 -0.28081642096E+01 -0.10627378008E+00  0.36951972203E+01  0.51100000000E-03 0. -1.
        -11    1    3    3    0    0 -0.12557536952E+02 -0.10853025610E+02  0.14349135660E+01  0.16659498084E+02  0.51100000000E-03 0.  1.
        -12    1    3    3    0    0 -0.54846940290E+01 -0.18404251022E+02  0.19589485980E+02  0.27432577080E+02  0.00000000000E+00 0.  1.
</event>
<event>
 7    1  0.1813014E-010  0.4778721E+02  0.7816164E-02  0.1312668E+00
        -11   -1    0    0    0    0  0.00000000000E+00  0.00000000000E+00  0.45593999997E+02  0.45594000000E+02  0.51100000000E-03 0. -1.
         11   -1    0    0    0    0 -0.00000000000E+00 -0.00000000000E+00 -0.45593999997E+02  0.45594000000E+02  0.51100000000E-03 0.  1.
    9900012    2    1    2    0    0 -0.31940496121E+02  0.14670434965E+02 -0.25460000273E+02  0.47787210048E+02  0.19999721892E+02 0.  0.
         12    1    1    2    0    0  0.31940496121E+02 -0.14670434965E+02  0.25460000273E+02  0.43400789952E+02  0.00000000000E+00 0. -1.
         11    1    3    3    0    0 -0.22217731071E+01  0.16658716042E+01  0.40585256968E+00  0.28064426790E+01  0.51100000000E-03 0. -1.
        -11    1    3    3    0    0 -0.16532908222E+02  0.16094577623E+02 -0.14098323978E+02  0.27039512244E+02  0.51100000000E-03 0.  1.
         12    1    3    3    0    0 -0.13185814792E+02 -0.30900142624E+01 -0.11767528865E+02  0.17941255125E+02  0.00000000000E+00 0. -1.
</event>
<event>
 7    1  0.1813014E-010  0.4778728E+02  0.7816164E-02  0.1312668E+00
        -11   -1    0    0    0    0  0.00000000000E+00  0.00000000000E+00  0.45593999997E+02  0.45594000000E+02  0.51100000000E-03 0.  1.
         11   -1    0    0    0    0 -0.00000000000E+00 -0.00000000000E+00 -0.45593999997E+02  0.45594000000E+02  0.51100000000E-03 0. -1.
    9900012    2    1    2    0    0  0.60848257985E+01  0.42408900319E+02  0.69341644663E+01  0.47787279175E+02  0.20000037072E+02 0.  0.
         12    1    1    2    0    0 -0.60848257985E+01 -0.42408900319E+02 -0.69341644663E+01  0.43400720825E+02  0.00000000000E+00 0. -1.
         11    1    3    3    0    0  0.31614799711E+00 -0.66425013040E+00  0.35118916430E+00  0.81517598227E+00  0.51100000000E-03 0. -1.
        -11    1    3    3    0    0  0.36494852198E+01  0.43903562343E+02  0.53363911997E+01  0.44377005308E+02  0.51100000000E-03 0.  1.
        -12    1    3    3    0    0  0.21191925815E+01 -0.83041189385E+00  0.12465841023E+01  0.25950978855E+01  0.00000000000E+00 0.  1.
</event>
<event>
 7    1  0.1813014E-010  0.4778727E+02  0.7816164E-02  0.1312668E+00
        -11   -1    0    0    0    0  0.00000000000E+00  0.00000000000E+00  0.45593999997E+02  0.45594000000E+02  0.51100000000E-03 0.  1.
         11   -1    0    0    0    0 -0.00000000000E+00 -0.00000000000E+00 -0.45593999997E+02  0.45594000000E+02  0.51100000000E-03 0. -1.
    9900012    2    1    2    0    0  0.15873871893E+02 -0.62636130289E+01  0.39905016103E+02  0.47787274577E+02  0.20000016108E+02 0.  0.
         12    1    1    2    0    0 -0.15873871893E+02  0.62636130289E+01 -0.39905016103E+02  0.43400725423E+02  0.00000000000E+00 0. -1.
         11    1    3    3    0    0  0.58832629014E+01  0.31921825733E+00  0.10178674186E+02  0.11760956216E+02  0.51100000000E-03 0. -1.
        -11    1    3    3    0    0  0.72835353010E+01  0.46380875890E+01  0.15091644874E+02  0.17387337008E+02  0.51100000000E-03 0.  1.
         12    1    3    3    0    0  0.27070736909E+01 -0.11220918875E+02  0.14634697042E+02  0.18638981353E+02  0.00000000000E+00 0. -1.
</event>
<event>
 7    1  0.1813014E-010  0.4778727E+02  0.7816164E-02  0.1312668E+00
        -11   -1    0    0    0    0  0.00000000000E+00  0.00000000000E+00  0.45593999997E+02  0.45594000000E+02  0.51100000000E-03 0.  1.
         11   -1    0    0    0    0 -0.00000000000E+00 -0.00000000000E+00 -0.45593999997E+02  0.45594000000E+02  0.51100000000E-03 0. -1.
    9900012    2    1    2    0    0 -0.98096263108E+00  0.86319759154E+01  0.42522346465E+02  0.47787271380E+02  0.20000001528E+02 0.  0.
         12    1    1    2    0    0  0.98096263108E+00 -0.86319759154E+01 -0.42522346465E+02  0.43400728620E+02  0.00000000000E+00 0. -1.
         11    1    3    3    0    0 -0.37340106293E+01 -0.14032655009E+01  0.78531755408E+01  0.88081982142E+01  0.51100000000E-03 0. -1.
        -11    1    3    3    0    0 -0.53878384375E+01  0.54125683473E+01  0.21541468912E+02  0.22855187208E+02  0.51100000000E-03 0.  1.
        -12    1    3    3    0    0  0.81408864357E+01  0.46226730690E+01  0.13127702012E+02  0.16123885958E+02  0.00000000000E+00 0.  1.
</event>
<event>
 7    1  0.1813014E-010  0.4778727E+02  0.7816164E-02  0.1312668E+00
        -11   -1    0    0    0    0  0.00000000000E+00  0.00000000000E+00  0.45593999997E+02  0.45594000000E+02  0.51100000000E-03 0.  1.
         11   -1    0    0    0    0 -0.00000000000E+00 -0.00000000000E+00 -0.45593999997E+02  0.45594000000E+02  0.51100000000E-03 0. -1.
    9900012    2    1    2    0    0  0.38866249098E+02 -0.26052252552E+01  0.19137671058E+02  0.47787274532E+02  0.20000015902E+02 0.  0.
         12    1    1    2    0    0 -0.38866249098E+02  0.26052252552E+01 -0.19137671058E+02  0.43400725468E+02  0.00000000000E+00 0. -1.
         11    1    3    3    0    0  0.78277287992E+00  0.30868118402E-01 -0.22033867303E+01  0.23385037025E+01  0.51100000000E-03 0. -1.
        -11    1    3    3    0    0  0.28442193145E+02 -0.11574894509E+00  0.95326264971E+01  0.29997378501E+02  0.51100000000E-03 0.  1.
        -12    1    3    3    0    0  0.96412830731E+01 -0.25203444285E+01  0.11808431291E+02  0.15451392329E+02  0.00000000000E+00 0.  1.
</event>
<event>
 7    1  0.1813014E-010  0.4778727E+02  0.7816164E-02  0.1312668E+00
        -11   -1    0    0    0    0  0.00000000000E+00  0.00000000000E+00  0.45593999997E+02  0.45594000000E+02  0.51100000000E-03 0. -1.
         11   -1    0    0    0    0 -0.00000000000E+00 -0.00000000000E+00 -0.45593999997E+02  0.45594000000E+02  0.51100000000E-03 0.  1.
    9900012    2    1    2    0    0 -0.18741038736E+02  0.30211372713E+02 -0.24893165455E+02  0.47787271199E+02  0.20000000705E+02 0.  0.
         12    1    1    2    0    0  0.18741038736E+02 -0.30211372713E+02  0.24893165455E+02  0.43400728801E+02  0.00000000000E+00 0. -1.
         11    1    3    3    0    0 -0.47720369059E+01  0.26061314814E+00 -0.56023613353E+01  0.73638786137E+01  0.51100000000E-03 0. -1.
        -11    1    3    3    0    0 -0.74815756461E+01  0.38441138314E+01 -0.65352840934E+01  0.10651813167E+02  0.51100000000E-03 0.  1.
         12    1    3    3    0    0 -0.64874261840E+01  0.26106645733E+02 -0.12755520026E+02  0.29771579419E+02  0.00000000000E+00 0. -1.
</event>
<event>
 7    1  0.1813014E-010  0.4778727E+02  0.7816164E-02  0.1312668E+00
        -11   -1    0    0    0    0  0.00000000000E+00  0.00000000000E+00  0.45593999997E+02  0.45594000000E+02  0.51100000000E-03 0. -1.
         11   -1    0    0    0    0 -0.00000000000E+00 -0.00000000000E+00 -0.45593999997E+02  0.45594000000E+02  0.51100000000E-03 0.  1.
    9900012    2    1    2    0    0 -0.11421213738E+02  0.39189387491E+02 -0.14743510103E+02  0.47787270682E+02  0.19999998349E+02 0.  0.
         12    1    1    2    0    0  0.11421213738E+02 -0.39189387491E+02  0.14743510103E+02  0.43400729318E+02  0.00000000000E+00 0. -1.
         11    1    3    3    0    0 -0.15431664566E+01  0.69037128929E+01 -0.44436306516E+00  0.70880232234E+01  0.51100000000E-03 0. -1.
        -11    1    3    3    0    0 -0.31460894100E+01  0.30353007418E+02 -0.86977372366E+01  0.31730956040E+02  0.51100000000E-03 0.  1.
         12    1    3    3    0    0 -0.67319578714E+01  0.19326671794E+01 -0.56014098016E+01  0.89682914189E+01  0.00000000000E+00 0. -1.
</event>
<event>
 7    1  0.1813014E-010  0.4778727E+02  0.7816164E-02  0.1312668E+00
        -11   -1    0    0    0    0  0.00000000000E+00  0.00000000000E+00  0.45593999997E+02  0.45594000000E+02  0.51100000000E-03 0.  1.
         11   -1    0    0    0    0 -0.00000000000E+00 -0.00000000000E+00 -0.45593999997E+02  0.45594000000E+02  0.51100000000E-03 0. -1.
    9900012    2    1    2    0    0 -0.22180648064E+02 -0.36118432735E+02  0.93327828604E+01  0.47787272268E+02  0.20000005578E+02 0.  0.
         12    1    1    2    0    0  0.22180648064E+02  0.36118432735E+02 -0.93327828604E+01  0.43400727732E+02  0.00000000000E+00 0. -1.
         11    1    3    3    0    0 -0.94707831537E+01 -0.26446675006E+02 -0.74825862415E+00  0.28101285445E+02  0.51100000000E-03 0. -1.
        -11    1    3    3    0    0 -0.50973676947E+01 -0.67071844957E+01  0.70064747072E+01  0.10957197149E+02  0.51100000000E-03 0.  1.
         12    1    3    3    0    0 -0.76124972154E+01 -0.29645732334E+01  0.30745667774E+01  0.87287896744E+01  0.00000000000E+00 0. -1.
</event>
<event>
 7    1  0.1813014E-010  0.4778728E+02  0.7816164E-02  0.1312668E+00
        -11   -1    0    0    0    0  0.00000000000E+00  0.00000000000E+00  0.45593999997E+02  0.45594000000E+02  0.51100000000E-03 0.  1.
         11   -1    0    0    0    0 -0.00000000000E+00 -0.00000000000E+00 -0.45593999997E+02  0.45594000000E+02  0.51100000000E-03 0. -1.
    9900012    2    1    2    0    0 -0.43324348071E+02 -0.16438446900E+01  0.19802541200E+01  0.47787276878E+02  0.20000026598E+02 0.  0.
         12    1    1    2    0    0  0.43324348071E+02  0.16438446900E+01 -0.19802541200E+01  0.43400723122E+02  0.00000000000E+00 0. -1.
         11    1    3    3    0    0 -0.69099003085E+01 -0.55649192133E+01  0.27518451496E+01  0.92891172946E+01  0.51100000000E-03 0. -1.
        -11    1    3    3    0    0 -0.84249673048E+01 -0.28807313645E+01  0.31150380861E+01  0.94330350269E+01  0.51100000000E-03 0.  1.
         12    1    3    3    0    0 -0.27989480457E+02  0.68018058878E+01 -0.38866291157E+01  0.29065124557E+02  0.00000000000E+00 0. -1.
</event>
<event>
 7    1  0.1813014E-010  0.4778727E+02  0.7816164E-02  0.1312668E+00
        -11   -1    0    0    0    0  0.00000000000E+00  0.00000000000E+00  0.45593999997E+02  0.45594000000E+02  0.51100000000E-03 0.  1.
         11   -1    0    0    0    0 -0.00000000000E+00 -0.00000000000E+00 -0.45593999997E+02  0.45594000000E+02  0.51100000000E-03 0. -1.
    9900012    2    1    2    0    0 -0.19384514110E+01  0.43053774370E+02 -0.51223080751E+01  0.47787272801E+02  0.20000008008E+02 0.  0.
         12    1    1    2    0    0  0.19384514110E+01 -0.43053774370E+02  0.51223080751E+01  0.43400727199E+02  0.00000000000E+00 0. -1.
         11    1    3    3    0    0  0.47102543363E+00  0.18731189874E+02 -0.66587667475E+01  0.19885132987E+02  0.51100000000E-03 0. -1.
        -11    1    3    3    0    0 -0.19615318432E+00  0.12982291635E+02 -0.57948377935E+01  0.14218245936E+02  0.51100000000E-03 0.  1.
        -12    1    3    3    0    0 -0.22133236604E+01  0.11340292861E+02  0.73312964658E+01  0.13683893878E+02  0.00000000000E+00 0.  1.
</event>
<event>
 7    1  0.1813014E-010  0.4778727E+02  0.7816164E-02  0.1312668E+00
        -11   -1    0    0    0    0  0.00000000000E+00  0.00000000000E+00  0.45593999997E+02  0.45594000000E+02  0.51100000000E-03 0.  1.
         11   -1    0    0    0    0 -0.00000000000E+00 -0.00000000000E+00 -0.45593999997E+02  0.45594000000E+02  0.51100000000E-03 0. -1.
    9900012    2    1    2    0    0  0.24194059068E+02 -0.24493237586E+02  0.26426351870E+02  0.47787271265E+02  0.20000001004E+02 0.  0.
         12    1    1    2    0    0 -0.24194059068E+02  0.24493237586E+02 -0.26426351870E+02  0.43400728735E+02  0.00000000000E+00 0. -1.
         11    1    3    3    0    0  0.15170054000E+02 -0.16703873427E+02  0.94278163664E+01  0.24454726486E+02  0.51100000000E-03 0. -1.
        -11    1    3    3    0    0 -0.18500467592E+01 -0.12003849024E+01  0.13034566738E+00  0.22092051012E+01  0.51100000000E-03 0.  1.
        -12    1    3    3    0    0  0.10874051827E+02 -0.65889792565E+01  0.16868189836E+02  0.21123339677E+02  0.00000000000E+00 0.  1.
</event>
<event>
 7    1  0.1813014E-010  0.4778727E+02  0.7816164E-02  0.1312668E+00
        -11   -1    0    0    0    0  0.00000000000E+00  0.00000000000E+00  0.45593999997E+02  0.45594000000E+02  0.51100000000E-03 0.  1.
         11   -1    0    0    0    0 -0.00000000000E+00 -0.00000000000E+00 -0.45593999997E+02  0.45594000000E+02  0.51100000000E-03 0. -1.
    9900012    2    1    2    0    0 -0.29341663188E+02 -0.21423188065E+02  0.23743143241E+02  0.47787273780E+02  0.20000012472E+02 0.  0.
         12    1    1    2    0    0  0.29341663188E+02  0.21423188065E+02 -0.23743143241E+02  0.43400726220E+02  0.00000000000E+00 0. -1.
         11    1    3    3    0    0 -0.86965657189E+00 -0.51616600204E+00 -0.23660607970E+01  0.25731253080E+01  0.51100000000E-03 0. -1.
        -11    1    3    3    0    0 -0.11168277397E+02 -0.47709269372E+01  0.14330423506E+02  0.18784387187E+02  0.51100000000E-03 0.  1.
        -12    1    3    3    0    0 -0.17303729219E+02 -0.16136095125E+02  0.11778780531E+02  0.26429761285E+02  0.00000000000E+00 0.  1.
</event>
<event>
 7    1  0.1813014E-010  0.4778727E+02  0.7816164E-02  0.1312668E+00
        -11   -1    0    0    0    0  0.00000000000E+00  0.00000000000E+00  0.45593999997E+02  0.45594000000E+02  0.51100000000E-03 0. -1.
         11   -1    0    0    0    0 -0.00000000000E+00 -0.00000000000E+00 -0.45593999997E+02  0.45594000000E+02  0.51100000000E-03 0.  1.
    9900012    2    1    2    0    0  0.34262504014E+01 -0.42559299269E+02 -0.77839559951E+01  0.47787272852E+02  0.20000008241E+02 0.  0.
         12    1    1    2    0    0 -0.34262504014E+01  0.42559299269E+02  0.77839559951E+01  0.43400727148E+02  0.00000000000E+00 0. -1.
         11    1    3    3    0    0 -0.11338677458E+01 -0.16541775160E+02  0.68558283687E+00  0.16594758377E+02  0.51100000000E-03 0.  1.
        -11    1    3    3    0    0 -0.25890820109E+01 -0.12248836891E+02  0.17117235559E+01  0.12635954599E+02  0.51100000000E-03 0. -1.
        -12    1    3    3    0    0  0.71492001581E+01 -0.13768687218E+02 -0.10181262388E+02  0.18556559875E+02  0.00000000000E+00 0.  1.
</event>
<event>
 7    1  0.1813014E-010  0.4778726E+02  0.7816164E-02  0.1312668E+00
        -11   -1    0    0    0    0  0.00000000000E+00  0.00000000000E+00  0.45593999997E+02  0.45594000000E+02  0.51100000000E-03 0.  1.
         11   -1    0    0    0    0 -0.00000000000E+00 -0.00000000000E+00 -0.45593999997E+02  0.45594000000E+02  0.51100000000E-03 0. -1.
    9900012    2    1    2    0    0  0.19879534073E+02  0.15738787717E+02  0.35223844276E+02  0.47787256696E+02  0.19999934579E+02 0.  0.
         12    1    1    2    0    0 -0.19879534073E+02 -0.15738787717E+02 -0.35223844276E+02  0.43400743304E+02  0.00000000000E+00 0. -1.
         11    1    3    3    0    0  0.20992187915E+00  0.55352031115E+01  0.72180756671E+01  0.90985250056E+01  0.51100000000E-03 0. -1.
        -11    1    3    3    0    0  0.16391806385E+02  0.42581337111E+01  0.26933174424E+02  0.31815387850E+02  0.51100000000E-03 0.  1.
        -12    1    3    3    0    0  0.32778058089E+01  0.59454508945E+01  0.10725941854E+01  0.68733438403E+01  0.00000000000E+00 0.  1.
</event>
<event>
 7    1  0.1813014E-010  0.4778727E+02  0.7816164E-02  0.1312668E+00
        -11   -1    0    0    0    0  0.00000000000E+00  0.00000000000E+00  0.45593999997E+02  0.45594000000E+02  0.51100000000E-03 0.  1.
         11   -1    0    0    0    0 -0.00000000000E+00 -0.00000000000E+00 -0.45593999997E+02  0.45594000000E+02  0.51100000000E-03 0. -1.
    9900012    2    1    2    0    0  0.36302849692E+02  0.26877470754E+01  0.23632659057E+02  0.47787268967E+02  0.19999990528E+02 0.  0.
         12    1    1    2    0    0 -0.36302849692E+02 -0.26877470754E+01 -0.23632659057E+02  0.43400731033E+02  0.00000000000E+00 0. -1.
         11    1    3    3    0    0  0.43065646589E+01 -0.10069736793E+01  0.75296466371E+01  0.87324723814E+01  0.51100000000E-03 0. -1.
        -11    1    3    3    0    0  0.29909172088E+02  0.24503417021E+01  0.86730044691E+01  0.31237537614E+02  0.51100000000E-03 0.  1.
        -12    1    3    3    0    0  0.20871129454E+01  0.12443790526E+01  0.74300079508E+01  0.78172589712E+01  0.00000000000E+00 0.  1.
</event>
<event>
 7    1  0.1813014E-010  0.4778728E+02  0.7816164E-02  0.1312668E+00
        -11   -1    0    0    0    0  0.00000000000E+00  0.00000000000E+00  0.45593999997E+02  0.45594000000E+02  0.51100000000E-03 0.  1.
         11   -1    0    0    0    0 -0.00000000000E+00 -0.00000000000E+00 -0.45593999997E+02  0.45594000000E+02  0.51100000000E-03 0. -1.
    9900012    2    1    2    0    0 -0.31657988783E+02  0.25045620396E+02  0.15940864971E+02  0.47787279605E+02  0.20000039033E+02 0.  0.
         12    1    1    2    0    0  0.31657988783E+02 -0.25045620396E+02 -0.15940864971E+02  0.43400720395E+02  0.00000000000E+00 0. -1.
         11    1    3    3    0    0 -0.17341267294E+02  0.17425225692E+02  0.79428527705E+01  0.25834994720E+02  0.51100000000E-03 0. -1.
        -11    1    3    3    0    0 -0.16602242186E+02  0.70324156705E+01  0.65477655704E+01  0.19182349960E+02  0.51100000000E-03 0.  1.
         12    1    3    3    0    0  0.22855206978E+01  0.58797903340E+00  0.14502466297E+01  0.27699349254E+01  0.00000000000E+00 0. -1.
</event>
<event>
 7    1  0.1813014E-010  0.4778727E+02  0.7816164E-02  0.1312668E+00
        -11   -1    0    0    0    0  0.00000000000E+00  0.00000000000E+00  0.45593999997E+02  0.45594000000E+02  0.51100000000E-03 0. -1.
         11   -1    0    0    0    0 -0.00000000000E+00 -0.00000000000E+00 -0.45593999997E+02  0.45594000000E+02  0.51100000000E-03 0.  1.
    9900012    2    1    2    0    0  0.39956454104E+02  0.14950552088E+02  0.79740824971E+01  0.47787271620E+02  0.20000002622E+02 0.  0.
         12    1    1    2    0    0 -0.39956454104E+02 -0.14950552088E+02 -0.79740824971E+01  0.43400728380E+02  0.00000000000E+00 0. -1.
         11    1    3    3    0    0  0.26931669235E+01  0.51060442099E+01  0.23249133457E+01  0.62233478030E+01  0.51100000000E-03 0. -1.
        -11    1    3    3    0    0  0.18310960289E+01  0.26762000643E+01  0.43040705113E+01  0.53888758270E+01  0.51100000000E-03 0.  1.
        -12    1    3    3    0    0  0.35432191151E+02  0.71683078139E+01  0.13450986401E+01  0.36175047990E+02  0.00000000000E+00 0.  1.
</event>
<event>
 7    1  0.1813014E-010  0.4778727E+02  0.7816164E-02  0.1312668E+00
        -11   -1    0    0    0    0  0.00000000000E+00  0.00000000000E+00  0.45593999997E+02  0.45594000000E+02  0.51100000000E-03 0. -1.
         11   -1    0    0    0    0 -0.00000000000E+00 -0.00000000000E+00 -0.45593999997E+02  0.45594000000E+02  0.51100000000E-03 0.  1.
    9900012    2    1    2    0    0 -0.88619873760E+01 -0.41452000553E+02 -0.93177201650E+01  0.47787273287E+02  0.20000010225E+02 0.  0.
         12    1    1    2    0    0  0.88619873760E+01  0.41452000553E+02  0.93177201650E+01  0.43400726713E+02  0.00000000000E+00 0. -1.
         11    1    3    3    0    0 -0.66234508667E+01 -0.12588672801E+02 -0.11933610264E+02  0.18567601850E+02  0.51100000000E-03 0. -1.
        -11    1    3    3    0    0 -0.16024702317E+01 -0.71370747440E+01  0.14193879895E+01  0.74512018675E+01  0.51100000000E-03 0.  1.
        -12    1    3    3    0    0 -0.63606627762E+00 -0.21726253008E+02  0.11965021095E+01  0.21768469569E+02  0.00000000000E+00 0.  1.
</event>
<event>
 7    1  0.1813014E-010  0.4778728E+02  0.7816164E-02  0.1312668E+00
        -11   -1    0    0    0    0  0.00000000000E+00  0.00000000000E+00  0.45593999997E+02  0.45594000000E+02  0.51100000000E-03 0. -1.
         11   -1    0    0    0    0 -0.00000000000E+00 -0.00000000000E+00 -0.45593999997E+02  0.45594000000E+02  0.51100000000E-03 0.  1.
    9900012    2    1    2    0    0  0.64682573808E+01  0.30322017587E+02 -0.30370372013E+02  0.47787278804E+02  0.20000035381E+02 0.  0.
         12    1    1    2    0    0 -0.64682573808E+01 -0.30322017587E+02  0.30370372013E+02  0.43400721196E+02  0.00000000000E+00 0. -1.
         11    1    3    3    0    0 -0.23469728829E+01  0.16089677580E+02 -0.18699315246E+02  0.24780040300E+02  0.51100000000E-03 0. -1.
        -11    1    3    3    0    0  0.68501564961E+01  0.11040577769E+02 -0.13585424835E+02  0.18798477856E+02  0.51100000000E-03 0.  1.
         12    1    3    3    0    0  0.19650737676E+01  0.31917622383E+01  0.19143680679E+01  0.42087606486E+01  0.00000000000E+00 0. -1.
</event>
<event>
 7    1  0.1813014E-010  0.4778727E+02  0.7816164E-02  0.1312668E+00
        -11   -1    0    0    0    0  0.00000000000E+00  0.00000000000E+00  0.45593999997E+02  0.45594000000E+02  0.51100000000E-03 0.  1.
         11   -1    0    0    0    0 -0.00000000000E+00 -0.00000000000E+00 -0.45593999997E+02  0.45594000000E+02  0.51100000000E-03 0. -1.
    9900012    2    1    2    0    0 -0.39483569897E+02 -0.23947871418E+00 -0.18017038985E+02  0.47787270333E+02  0.19999996757E+02 0.  0.
         12    1    1    2    0    0  0.39483569897E+02  0.23947871418E+00  0.18017038985E+02  0.43400729667E+02  0.00000000000E+00 0. -1.
         11    1    3    3    0    0 -0.14034481782E+01 -0.17709187885E+01 -0.57388852875E+01  0.61677082250E+01  0.51100000000E-03 0. -1.
        -11    1    3    3    0    0 -0.13664501557E+02  0.46117976400E+01 -0.74254189224E+00  0.14440867321E+02  0.51100000000E-03 0.  1.
         12    1    3    3    0    0 -0.24415620162E+02 -0.30803575657E+01 -0.11535611805E+02  0.27178694787E+02  0.00000000000E+00 0. -1.
</event>
<event>
 7    1  0.1813014E-010  0.4778727E+02  0.7816164E-02  0.1312668E+00
        -11   -1    0    0    0    0  0.00000000000E+00  0.00000000000E+00  0.45593999997E+02  0.45594000000E+02  0.51100000000E-03 0.  1.
         11   -1    0    0    0    0 -0.00000000000E+00 -0.00000000000E+00 -0.45593999997E+02  0.45594000000E+02  0.51100000000E-03 0. -1.
    9900012    2    1    2    0    0 -0.17074966603E+02  0.10531779501E+02  0.38485719932E+02  0.47787268409E+02  0.19999987986E+02 0.  0.
         12    1    1    2    0    0  0.17074966603E+02 -0.10531779501E+02 -0.38485719932E+02  0.43400731591E+02  0.00000000000E+00 0. -1.
         11    1    3    3    0    0 -0.98732139664E+01 -0.34675047948E+01  0.14177705937E+02  0.17621330524E+02  0.51100000000E-03 0. -1.
        -11    1    3    3    0    0 -0.22504401741E+01 -0.27166684073E+00  0.61014766499E+01  0.65089401149E+01  0.51100000000E-03 0.  1.
         12    1    3    3    0    0 -0.49513124621E+01  0.14270951136E+02  0.18206537345E+02  0.23656997771E+02  0.00000000000E+00 0. -1.
</event>
<event>
 7    1  0.1813014E-010  0.4778728E+02  0.7816164E-02  0.1312668E+00
        -11   -1    0    0    0    0  0.00000000000E+00  0.00000000000E+00  0.45593999997E+02  0.45594000000E+02  0.51100000000E-03 0.  1.
         11   -1    0    0    0    0 -0.00000000000E+00 -0.00000000000E+00 -0.45593999997E+02  0.45594000000E+02  0.51100000000E-03 0. -1.
    9900012    2    1    2    0    0  0.25561210605E+02  0.94608182040E+01  0.33774847714E+02  0.47787275274E+02  0.20000019282E+02 0.  0.
         12    1    1    2    0    0 -0.25561210605E+02 -0.94608182040E+01 -0.33774847714E+02  0.43400724726E+02  0.00000000000E+00 0. -1.
         11    1    3    3    0    0  0.34588960695E+01  0.37211643660E+01  0.49624655829E+01  0.71019075734E+01  0.51100000000E-03 0. -1.
        -11    1    3    3    0    0  0.10101418676E+02 -0.88248618672E+00  0.24174996123E+02  0.26215413004E+02  0.51100000000E-03 0.  1.
        -12    1    3    3    0    0  0.12000895859E+02  0.66221400248E+01  0.46373860080E+01  0.14469954697E+02  0.00000000000E+00 0.  1.
</event>
<event>
 7    1  0.1813014E-010  0.4778727E+02  0.7816164E-02  0.1312668E+00
        -11   -1    0    0    0    0  0.00000000000E+00  0.00000000000E+00  0.45593999997E+02  0.45594000000E+02  0.51100000000E-03 0. -1.
         11   -1    0    0    0    0 -0.00000000000E+00 -0.00000000000E+00 -0.45593999997E+02  0.45594000000E+02  0.51100000000E-03 0.  1.
    9900012    2    1    2    0    0 -0.19018718462E+02  0.85059863432E+01 -0.38073086417E+02  0.47787269995E+02  0.19999995215E+02 0.  0.
         12    1    1    2    0    0  0.19018718462E+02 -0.85059863432E+01  0.38073086417E+02  0.43400730005E+02  0.00000000000E+00 0. -1.
         11    1    3    3    0    0 -0.52551145355E+01  0.55198053097E+01 -0.59195334768E+01  0.96501479927E+01  0.51100000000E-03 0. -1.
        -11    1    3    3    0    0 -0.13661143811E+02  0.60643840498E+01 -0.16837856160E+02  0.22514817443E+02  0.51100000000E-03 0.  1.
         12    1    3    3    0    0 -0.10246011520E+00 -0.30782030162E+01 -0.15315696781E+02  0.15622304560E+02  0.00000000000E+00 0. -1.
</event>
<event>
 7    1  0.1813014E-010  0.4778726E+02  0.7816164E-02  0.1312668E+00
        -11   -1    0    0    0    0  0.00000000000E+00  0.00000000000E+00  0.45593999997E+02  0.45594000000E+02  0.51100000000E-03 0.  1.
         11   -1    0    0    0    0 -0.00000000000E+00 -0.00000000000E+00 -0.45593999997E+02  0.45594000000E+02  0.51100000000E-03 0. -1.
    9900012    2    1    2    0    0  0.30579833233E+02  0.32484897866E+00  0.30795986929E+02  0.47787256477E+02  0.19999933582E+02 0.  0.
         12    1    1    2    0    0 -0.30579833233E+02 -0.32484897866E+00 -0.30795986929E+02  0.43400743523E+02  0.00000000000E+00 0. -1.
         11    1    3    3    0    0  0.24327033576E+02 -0.81380983039E+01  0.21948532769E+02  0.33760499071E+02  0.51100000000E-03 0.  1.
        -11    1    3    3    0    0  0.19410271943E+01  0.27636648374E+01  0.12626621833E+01  0.36055160453E+01  0.51100000000E-03 0. -1.
        -12    1    3    3    0    0  0.43117724627E+01  0.56992824452E+01  0.75847919771E+01  0.10421241361E+02  0.00000000000E+00 0.  1.
</event>
<event>
 7    1  0.1813014E-010  0.4778727E+02  0.7816164E-02  0.1312668E+00
        -11   -1    0    0    0    0  0.00000000000E+00  0.00000000000E+00  0.45593999997E+02  0.45594000000E+02  0.51100000000E-03 0.  1.
         11   -1    0    0    0    0 -0.00000000000E+00 -0.00000000000E+00 -0.45593999997E+02  0.45594000000E+02  0.51100000000E-03 0. -1.
    9900012    2    1    2    0    0 -0.74163100410E+01 -0.27238043328E+02  0.32965294091E+02  0.47787271049E+02  0.20000000020E+02 0.  0.
         12    1    1    2    0    0  0.74163100410E+01  0.27238043328E+02 -0.32965294091E+02  0.43400728951E+02  0.00000000000E+00 0. -1.
         11    1    3    3    0    0 -0.20287605792E+01 -0.71889708440E+01  0.44351160002E+01  0.86871989433E+01  0.51100000000E-03 0. -1.
        -11    1    3    3    0    0 -0.21594623747E+01 -0.17901168291E+02  0.10945747219E+02  0.21093233190E+02  0.51100000000E-03 0.  1.
         12    1    3    3    0    0 -0.32280870871E+01 -0.21479041930E+01  0.17584430872E+02  0.18006838916E+02  0.00000000000E+00 0. -1.
</event>
<event>
 7    1  0.1813014E-010  0.4778727E+02  0.7816164E-02  0.1312668E+00
        -11   -1    0    0    0    0  0.00000000000E+00  0.00000000000E+00  0.45593999997E+02  0.45594000000E+02  0.51100000000E-03 0.  1.
         11   -1    0    0    0    0 -0.00000000000E+00 -0.00000000000E+00 -0.45593999997E+02  0.45594000000E+02  0.51100000000E-03 0. -1.
    9900012    2    1    2    0    0  0.49763317894E+01  0.42394540298E+02 -0.78461637239E+01  0.47787271776E+02  0.20000003338E+02 0.  0.
         12    1    1    2    0    0 -0.49763317894E+01 -0.42394540298E+02  0.78461637239E+01  0.43400728224E+02  0.00000000000E+00 0. -1.
         11    1    3    3    0    0  0.49415178086E+01  0.26580865088E+02 -0.12632612588E+02  0.29841981974E+02  0.51100000000E-03 0. -1.
        -11    1    3    3    0    0 -0.12641517914E+01  0.49439486559E+01 -0.15034501665E+01  0.53198750669E+01  0.51100000000E-03 0.  1.
        -12    1    3    3    0    0  0.12989657723E+01  0.10869726554E+02  0.62898990302E+01  0.12625414736E+02  0.00000000000E+00 0.  1.
</event>
<event>
 7    1  0.1813014E-010  0.4778727E+02  0.7816164E-02  0.1312668E+00
        -11   -1    0    0    0    0  0.00000000000E+00  0.00000000000E+00  0.45593999997E+02  0.45594000000E+02  0.51100000000E-03 0.  1.
         11   -1    0    0    0    0 -0.00000000000E+00 -0.00000000000E+00 -0.45593999997E+02  0.45594000000E+02  0.51100000000E-03 0. -1.
    9900012    2    1    2    0    0  0.79713098735E+01 -0.34085566011E+02  0.25656491775E+02  0.47787272338E+02  0.20000005899E+02 0.  0.
         12    1    1    2    0    0 -0.79713098735E+01  0.34085566011E+02 -0.25656491775E+02  0.43400727662E+02  0.00000000000E+00 0. -1.
         11    1    3    3    0    0 -0.24732938306E+01  0.72287819539E+00 -0.38895814483E+00  0.26059593162E+01  0.51100000000E-03 0. -1.
        -11    1    3    3    0    0  0.61675485975E+00 -0.11641719270E+02  0.97814741361E+01  0.15217991019E+02  0.51100000000E-03 0.  1.
         12    1    3    3    0    0  0.98278488444E+01 -0.23166724936E+02  0.16263975783E+02  0.29963322003E+02  0.00000000000E+00 0. -1.
</event>
<event>
 7    1  0.1813014E-010  0.4778728E+02  0.7816164E-02  0.1312668E+00
        -11   -1    0    0    0    0  0.00000000000E+00  0.00000000000E+00  0.45593999997E+02  0.45594000000E+02  0.51100000000E-03 0.  1.
         11   -1    0    0    0    0 -0.00000000000E+00 -0.00000000000E+00 -0.45593999997E+02  0.45594000000E+02  0.51100000000E-03 0. -1.
    9900012    2    1    2    0    0 -0.69282669285E+01 -0.31078201554E+02  0.29491807516E+02  0.47787283358E+02  0.20000056143E+02 0.  0.
         12    1    1    2    0    0  0.69282669285E+01  0.31078201554E+02 -0.29491807516E+02  0.43400716642E+02  0.00000000000E+00 0. -1.
         11    1    3    3    0    0 -0.77470137986E+01 -0.11293309091E+02  0.56709555285E+01  0.14822779425E+02  0.51100000000E-03 0.  1.
        -11    1    3    3    0    0 -0.38206336860E+01 -0.37778964595E+01  0.25642978443E+01  0.59536011889E+01  0.51100000000E-03 0. -1.
         12    1    3    3    0    0  0.46393805562E+01 -0.16006996004E+02  0.21256554143E+02  0.27010902744E+02  0.00000000000E+00 0. -1.
</event>
<event>
 7    1  0.1813014E-010  0.4778727E+02  0.7816164E-02  0.1312668E+00
        -11   -1    0    0    0    0  0.00000000000E+00  0.00000000000E+00  0.45593999997E+02  0.45594000000E+02  0.51100000000E-03 0. -1.
         11   -1    0    0    0    0 -0.00000000000E+00 -0.00000000000E+00 -0.45593999997E+02  0.45594000000E+02  0.51100000000E-03 0.  1.
    9900012    2    1    2    0    0 -0.17106916347E+02 -0.13952085301E+02 -0.37367312071E+02  0.47787270945E+02  0.19999999545E+02 0.  0.
         12    1    1    2    0    0  0.17106916347E+02  0.13952085301E+02  0.37367312071E+02  0.43400729055E+02  0.00000000000E+00 0. -1.
         11    1    3    3    0    0 -0.22047823563E+01 -0.86661144208E+01 -0.16377934264E+02  0.18660100091E+02  0.51100000000E-03 0.  1.
        -11    1    3    3    0    0 -0.15360141672E+02 -0.73332268212E+01 -0.20996966186E+02  0.27029294425E+02  0.51100000000E-03 0. -1.
         12    1    3    3    0    0  0.45800768194E+00  0.20472559413E+01  0.75883799104E-02  0.20978764285E+01  0.00000000000E+00 0. -1.
</event>
<event>
 7    1  0.1813014E-010  0.4778728E+02  0.7816164E-02  0.1312668E+00
        -11   -1    0    0    0    0  0.00000000000E+00  0.00000000000E+00  0.45593999997E+02  0.45594000000E+02  0.51100000000E-03 0. -1.
         11   -1    0    0    0    0 -0.00000000000E+00 -0.00000000000E+00 -0.45593999997E+02  0.45594000000E+02  0.51100000000E-03 0.  1.
    9900012    2    1    2    0    0 -0.31591673492E+02  0.90655447828E+01 -0.28344395180E+02  0.47787277951E+02  0.20000031491E+02 0.  0.
         12    1    1    2    0    0  0.31591673492E+02 -0.90655447828E+01  0.28344395180E+02  0.43400722049E+02  0.00000000000E+00 0. -1.
         11    1    3    3    0    0 -0.86957366104E+01 -0.13530912302E+01 -0.17942590987E+02  0.19984575618E+02  0.51100000000E-03 0. -1.
        -11    1    3    3    0    0 -0.82346583731E+01  0.12253738464E+01 -0.19824941983E+01  0.85581203013E+01  0.51100000000E-03 0.  1.
         12    1    3    3    0    0 -0.14661278509E+02  0.91932621666E+01 -0.84193099949E+01  0.19244582031E+02  0.00000000000E+00 0. -1.
</event>
<event>
 7    1  0.1813014E-010  0.4778727E+02  0.7816164E-02  0.1312668E+00
        -11   -1    0    0    0    0  0.00000000000E+00  0.00000000000E+00  0.45593999997E+02  0.45594000000E+02  0.51100000000E-03 0.  1.
         11   -1    0    0    0    0 -0.00000000000E+00 -0.00000000000E+00 -0.45593999997E+02  0.45594000000E+02  0.51100000000E-03 0. -1.
    9900012    2    1    2    0    0 -0.37215315096E+02 -0.19335458153E+02  0.11170661843E+02  0.47787270678E+02  0.19999998327E+02 0.  0.
         12    1    1    2    0    0  0.37215315096E+02  0.19335458153E+02 -0.11170661843E+02  0.43400729322E+02  0.00000000000E+00 0. -1.
         11    1    3    3    0    0 -0.11438400703E+02 -0.33416890383E+01  0.67208195380E+00  0.11935476140E+02  0.51100000000E-03 0. -1.
        -11    1    3    3    0    0 -0.27482299284E+02 -0.12197080015E+02  0.85718542745E+01  0.31265351762E+02  0.51100000000E-03 0.  1.
         12    1    3    3    0    0  0.17053848904E+01 -0.37966890994E+01  0.19267256152E+01  0.45864427761E+01  0.00000000000E+00 0. -1.
</event>
<event>
 7    1  0.1813014E-010  0.4778727E+02  0.7816164E-02  0.1312668E+00
        -11   -1    0    0    0    0  0.00000000000E+00  0.00000000000E+00  0.45593999997E+02  0.45594000000E+02  0.51100000000E-03 0.  1.
         11   -1    0    0    0    0 -0.00000000000E+00 -0.00000000000E+00 -0.45593999997E+02  0.45594000000E+02  0.51100000000E-03 0. -1.
    9900012    2    1    2    0    0 -0.42419101884E+02  0.67587901149E+01  0.62098378841E+01  0.47787268036E+02  0.19999986283E+02 0.  0.
         12    1    1    2    0    0  0.42419101884E+02 -0.67587901149E+01 -0.62098378841E+01  0.43400731964E+02  0.00000000000E+00 0. -1.
         11    1    3    3    0    0 -0.32815051744E+01  0.40671282391E+01  0.68810306545E+00  0.52709860949E+01  0.51100000000E-03 0. -1.
        -11    1    3    3    0    0 -0.27119401378E+02 -0.49161681915E+01  0.62962514704E+01  0.28271424153E+02  0.51100000000E-03 0.  1.
         12    1    3    3    0    0 -0.12018195331E+02  0.76078300674E+01 -0.77451665175E+00  0.14244857788E+02  0.00000000000E+00 0. -1.
</event>
<event>
 7    1  0.1813014E-010  0.4778727E+02  0.7816164E-02  0.1312668E+00
        -11   -1    0    0    0    0  0.00000000000E+00  0.00000000000E+00  0.45593999997E+02  0.45594000000E+02  0.51100000000E-03 0.  1.
         11   -1    0    0    0    0 -0.00000000000E+00 -0.00000000000E+00 -0.45593999997E+02  0.45594000000E+02  0.51100000000E-03 0. -1.
    9900012    2    1    2    0    0  0.43023951138E+02  0.56958116938E+01 -0.34713765443E+00  0.47787272507E+02  0.20000006666E+02 0.  0.
         12    1    1    2    0    0 -0.43023951138E+02 -0.56958116938E+01  0.34713765443E+00  0.43400727493E+02  0.00000000000E+00 0. -1.
         11    1    3    3    0    0  0.30777283424E+01  0.26324911344E+01 -0.29251051551E+01  0.49958644649E+01  0.51100000000E-03 0. -1.
        -11    1    3    3    0    0  0.31312298351E+02  0.79779101668E+01  0.46425987014E+01  0.32644460504E+02  0.51100000000E-03 0.  1.
         12    1    3    3    0    0  0.86339244449E+01 -0.49145896073E+01 -0.20646312007E+01  0.10146947537E+02  0.00000000000E+00 0. -1.
</event>
<event>
 7    1  0.1813014E-010  0.4778721E+02  0.7816164E-02  0.1312668E+00
        -11   -1    0    0    0    0  0.00000000000E+00  0.00000000000E+00  0.45593999997E+02  0.45594000000E+02  0.51100000000E-03 0.  1.
         11   -1    0    0    0    0 -0.00000000000E+00 -0.00000000000E+00 -0.45593999997E+02  0.45594000000E+02  0.51100000000E-03 0. -1.
    9900012    2    1    2    0    0 -0.41384865002E+02 -0.12664226988E+02 -0.32463585367E+01  0.47787210373E+02  0.19999723374E+02 0.  0.
         12    1    1    2    0    0  0.41384865002E+02  0.12664226988E+02  0.32463585367E+01  0.43400789627E+02  0.00000000000E+00 0. -1.
         11    1    3    3    0    0  0.15119713166E+00 -0.25611630282E+01 -0.19110965338E+01  0.31991728387E+01  0.51100000000E-03 0. -1.
        -11    1    3    3    0    0 -0.18102523841E+02 -0.63455053161E+01  0.53814051540E+01  0.19923010034E+02  0.51100000000E-03 0.  1.
         12    1    3    3    0    0 -0.23433538293E+02 -0.37575586436E+01 -0.67166671570E+01  0.24665027500E+02  0.00000000000E+00 0. -1.
</event>
<event>
 7    1  0.1813014E-010  0.4778727E+02  0.7816164E-02  0.1312668E+00
        -11   -1    0    0    0    0  0.00000000000E+00  0.00000000000E+00  0.45593999997E+02  0.45594000000E+02  0.51100000000E-03 0.  1.
         11   -1    0    0    0    0 -0.00000000000E+00 -0.00000000000E+00 -0.45593999997E+02  0.45594000000E+02  0.51100000000E-03 0. -1.
    9900012    2    1    2    0    0 -0.28993398709E+02  0.25235662458E+02  0.20153591549E+02  0.47787273270E+02  0.20000010147E+02 0.  0.
         12    1    1    2    0    0  0.28993398709E+02 -0.25235662458E+02 -0.20153591549E+02  0.43400726730E+02  0.00000000000E+00 0. -1.
         11    1    3    3    0    0 -0.26738450307E+02  0.20915250648E+02  0.15051256497E+02  0.37133983854E+02  0.51100000000E-03 0. -1.
        -11    1    3    3    0    0 -0.63064778925E+00  0.35250893331E+01  0.71040273240E+01  0.79555751471E+01  0.51100000000E-03 0.  1.
        -12    1    3    3    0    0 -0.16243006123E+01  0.79532247691E+00 -0.20016922720E+01  0.26977142683E+01  0.00000000000E+00 0.  1.
</event>
<event>
 7    1  0.1813014E-010  0.4778727E+02  0.7816164E-02  0.1312668E+00
        -11   -1    0    0    0    0  0.00000000000E+00  0.00000000000E+00  0.45593999997E+02  0.45594000000E+02  0.51100000000E-03 0.  1.
         11   -1    0    0    0    0 -0.00000000000E+00 -0.00000000000E+00 -0.45593999997E+02  0.45594000000E+02  0.51100000000E-03 0. -1.
    9900012    2    1    2    0    0 -0.33281388204E+02 -0.27684701204E+02  0.30870669921E+01  0.47787268852E+02  0.19999990003E+02 0.  0.
         12    1    1    2    0    0  0.33281388204E+02  0.27684701204E+02 -0.30870669921E+01  0.43400731148E+02  0.00000000000E+00 0. -1.
         11    1    3    3    0    0 -0.24115017648E+02 -0.10722276889E+02  0.45651688721E+01  0.26783242242E+02  0.51100000000E-03 0. -1.
        -11    1    3    3    0    0 -0.71781158517E+01 -0.84711061147E+01 -0.41953324518E+01  0.11869532452E+02  0.51100000000E-03 0.  1.
        -12    1    3    3    0    0 -0.19882547043E+01 -0.84913182001E+01  0.27172305719E+01  0.91344941581E+01  0.00000000000E+00 0.  1.
</event>
<event>
 7    1  0.1813014E-010  0.4778727E+02  0.7816164E-02  0.1312668E+00
        -11   -1    0    0    0    0  0.00000000000E+00  0.00000000000E+00  0.45593999997E+02  0.45594000000E+02  0.51100000000E-03 0.  1.
         11   -1    0    0    0    0 -0.00000000000E+00 -0.00000000000E+00 -0.45593999997E+02  0.45594000000E+02  0.51100000000E-03 0. -1.
    9900012    2    1    2    0    0 -0.27939860189E+02  0.50344107638E+01  0.32827459526E+02  0.47787272148E+02  0.20000005033E+02 0.  0.
         12    1    1    2    0    0  0.27939860189E+02 -0.50344107638E+01 -0.32827459526E+02  0.43400727852E+02  0.00000000000E+00 0. -1.
         11    1    3    3    0    0 -0.72821277971E+01 -0.37623353070E+01  0.47654685498E+01  0.94812574575E+01  0.51100000000E-03 0. -1.
        -11    1    3    3    0    0 -0.12067210309E+02  0.32575842036E+01  0.24459752385E+02  0.27468325513E+02  0.51100000000E-03 0.  1.
         12    1    3    3    0    0 -0.85905220829E+01  0.55391618672E+01  0.36022385916E+01  0.10837689178E+02  0.00000000000E+00 0. -1.
</event>
<event>
 7    1  0.1813014E-010  0.4778727E+02  0.7816164E-02  0.1312668E+00
        -11   -1    0    0    0    0  0.00000000000E+00  0.00000000000E+00  0.45593999997E+02  0.45594000000E+02  0.51100000000E-03 0.  1.
         11   -1    0    0    0    0 -0.00000000000E+00 -0.00000000000E+00 -0.45593999997E+02  0.45594000000E+02  0.51100000000E-03 0. -1.
    9900012    2    1    2    0    0  0.13959845042E+02 -0.22766555368E+02  0.34211547070E+02  0.47787271091E+02  0.20000000213E+02 0.  0.
         12    1    1    2    0    0 -0.13959845042E+02  0.22766555368E+02 -0.34211547070E+02  0.43400728909E+02  0.00000000000E+00 0. -1.
         11    1    3    3    0    0 -0.85355260190E+00 -0.59311983865E+01  0.44305344050E+01  0.74523353199E+01  0.51100000000E-03 0. -1.
        -11    1    3    3    0    0  0.83191138347E+01  0.56478923523E+00  0.12079316807E+02  0.14677756527E+02  0.51100000000E-03 0.  1.
        -12    1    3    3    0    0  0.64942838090E+01 -0.17400146217E+02  0.17701695858E+02  0.25657179245E+02  0.00000000000E+00 0.  1.
</event>
<event>
 7    1  0.1813014E-010  0.4778727E+02  0.7816164E-02  0.1312668E+00
        -11   -1    0    0    0    0  0.00000000000E+00  0.00000000000E+00  0.45593999997E+02  0.45594000000E+02  0.51100000000E-03 0.  1.
         11   -1    0    0    0    0 -0.00000000000E+00 -0.00000000000E+00 -0.45593999997E+02  0.45594000000E+02  0.51100000000E-03 0. -1.
    9900012    2    1    2    0    0 -0.29101452773E+02  0.82949086288E+01  0.31111464520E+02  0.47787270890E+02  0.19999999297E+02 0.  0.
         12    1    1    2    0    0  0.29101452773E+02 -0.82949086288E+01 -0.31111464520E+02  0.43400729110E+02  0.00000000000E+00 0. -1.
         11    1    3    3    0    0 -0.12135084934E+02 -0.10259258795E+01  0.27408514136E+01  0.12482991508E+02  0.51100000000E-03 0. -1.
        -11    1    3    3    0    0 -0.79923955660E+01  0.18394533161E+00  0.13395563417E+02  0.15599786610E+02  0.51100000000E-03 0.  1.
        -12    1    3    3    0    0 -0.89739722732E+01  0.91368891767E+01  0.14975049690E+02  0.19704492772E+02  0.00000000000E+00 0.  1.
</event>
<event>
 7    1  0.1813014E-010  0.4778727E+02  0.7816164E-02  0.1312668E+00
        -11   -1    0    0    0    0  0.00000000000E+00  0.00000000000E+00  0.45593999997E+02  0.45594000000E+02  0.51100000000E-03 0.  1.
         11   -1    0    0    0    0 -0.00000000000E+00 -0.00000000000E+00 -0.45593999997E+02  0.45594000000E+02  0.51100000000E-03 0. -1.
    9900012    2    1    2    0    0  0.31374878567E+01 -0.24488919944E+02  0.35694153988E+02  0.47787266608E+02  0.19999979771E+02 0.  0.
         12    1    1    2    0    0 -0.31374878567E+01  0.24488919944E+02 -0.35694153988E+02  0.43400733392E+02  0.00000000000E+00 0. -1.
         11    1    3    3    0    0  0.46115324854E+01 -0.31708993430E+01  0.17471524480E+02  0.18345980552E+02  0.51100000000E-03 0. -1.
        -11    1    3    3    0    0 -0.33366204151E+00 -0.14592646940E+02  0.17175412770E+02  0.22539997319E+02  0.51100000000E-03 0.  1.
        -12    1    3    3    0    0 -0.11403825872E+01 -0.67253736608E+01  0.10472167381E+01  0.69012887361E+01  0.00000000000E+00 0.  1.
</event>
<event>
 7    1  0.1813014E-010  0.4778729E+02  0.7816164E-02  0.1312668E+00
        -11   -1    0    0    0    0  0.00000000000E+00  0.00000000000E+00  0.45593999997E+02  0.45594000000E+02  0.51100000000E-03 0. -1.
         11   -1    0    0    0    0 -0.00000000000E+00 -0.00000000000E+00 -0.45593999997E+02  0.45594000000E+02  0.51100000000E-03 0.  1.
    9900012    2    1    2    0    0 -0.34734052169E+02  0.87578663809E+01  0.24504429077E+02  0.47787289775E+02  0.20000085401E+02 0.  0.
         12    1    1    2    0    0  0.34734052169E+02 -0.87578663809E+01 -0.24504429077E+02  0.43400710225E+02  0.00000000000E+00 0. -1.
         11    1    3    3    0    0 -0.18016828180E+01 -0.24797551520E+01  0.71011777030E+00  0.31463493289E+01  0.51100000000E-03 0. -1.
        -11    1    3    3    0    0 -0.31046390334E+02  0.62064157518E+01  0.16864517553E+02  0.35872132663E+02  0.51100000000E-03 0.  1.
        -12    1    3    3    0    0 -0.18859790169E+01  0.50312057812E+01  0.69297937537E+01  0.87688077829E+01  0.00000000000E+00 0.  1.
</event>
<event>
 7    1  0.1813014E-010  0.4778727E+02  0.7816164E-02  0.1312668E+00
        -11   -1    0    0    0    0  0.00000000000E+00  0.00000000000E+00  0.45593999997E+02  0.45594000000E+02  0.51100000000E-03 0. -1.
         11   -1    0    0    0    0 -0.00000000000E+00 -0.00000000000E+00 -0.45593999997E+02  0.45594000000E+02  0.51100000000E-03 0.  1.
    9900012    2    1    2    0    0 -0.16246312610E+02  0.13002559227E+02 -0.38086924910E+02  0.47787273405E+02  0.20000010761E+02 0.  0.
         12    1    1    2    0    0  0.16246312610E+02 -0.13002559227E+02  0.38086924910E+02  0.43400726595E+02  0.00000000000E+00 0. -1.
         11    1    3    3    0    0 -0.58360163854E+01  0.20026551168E+01 -0.38471352972E+01  0.72711873187E+01  0.51100000000E-03 0. -1.
        -11    1    3    3    0    0  0.25475843931E+01  0.33641474671E+01 -0.17545628457E+02  0.18045962225E+02  0.51100000000E-03 0.  1.
        -12    1    3    3    0    0 -0.12957880617E+02  0.76357566435E+01 -0.16694161157E+02  0.22470123861E+02  0.00000000000E+00 0.  1.
</event>
<event>
 7    1  0.1813014E-010  0.4778727E+02  0.7816164E-02  0.1312668E+00
        -11   -1    0    0    0    0  0.00000000000E+00  0.00000000000E+00  0.45593999997E+02  0.45594000000E+02  0.51100000000E-03 0.  1.
         11   -1    0    0    0    0 -0.00000000000E+00 -0.00000000000E+00 -0.45593999997E+02  0.45594000000E+02  0.51100000000E-03 0. -1.
    9900012    2    1    2    0    0 -0.25918981023E+02  0.24253848962E+02  0.24971592663E+02  0.47787271817E+02  0.20000003520E+02 0.  0.
         12    1    1    2    0    0  0.25918981023E+02 -0.24253848962E+02 -0.24971592663E+02  0.43400728183E+02  0.00000000000E+00 0. -1.
         11    1    3    3    0    0 -0.19347069909E+02  0.14765463023E+02  0.13988313295E+02  0.28071354107E+02  0.51100000000E-03 0. -1.
        -11    1    3    3    0    0 -0.19654061754E+01  0.96661281766E+01  0.11414325111E+02  0.15085876619E+02  0.51100000000E-03 0.  1.
         12    1    3    3    0    0 -0.46065049395E+01 -0.17774223750E+00 -0.43104574398E+00  0.46300410899E+01  0.00000000000E+00 0. -1.
</event>
<event>
 7    1  0.1813014E-010  0.4778722E+02  0.7816164E-02  0.1312668E+00
        -11   -1    0    0    0    0  0.00000000000E+00  0.00000000000E+00  0.45593999997E+02  0.45594000000E+02  0.51100000000E-03 0. -1.
         11   -1    0    0    0    0 -0.00000000000E+00 -0.00000000000E+00 -0.45593999997E+02  0.45594000000E+02  0.51100000000E-03 0.  1.
    9900012    2    1    2    0    0  0.18286702792E+02 -0.38991636222E+02  0.53737239264E+01  0.47787215409E+02  0.19999746333E+02 0.  0.
         12    1    1    2    0    0 -0.18286702792E+02  0.38991636222E+02 -0.53737239264E+01  0.43400784591E+02  0.00000000000E+00 0. -1.
         11    1    3    3    0    0  0.29207676900E+01 -0.14012966014E+02  0.12614790941E+01  0.14369600906E+02  0.51100000000E-03 0.  1.
        -11    1    3    3    0    0 -0.16064635100E-02 -0.81194247625E+01 -0.41960441839E+01  0.91395759261E+01  0.51100000000E-03 0. -1.
         12    1    3    3    0    0  0.15367541566E+02 -0.16859245445E+02  0.83082890162E+01  0.24278038577E+02  0.00000000000E+00 0. -1.
</event>
<event>
 7    1  0.1813014E-010  0.4778727E+02  0.7816164E-02  0.1312668E+00
        -11   -1    0    0    0    0  0.00000000000E+00  0.00000000000E+00  0.45593999997E+02  0.45594000000E+02  0.51100000000E-03 0.  1.
         11   -1    0    0    0    0 -0.00000000000E+00 -0.00000000000E+00 -0.45593999997E+02  0.45594000000E+02  0.51100000000E-03 0. -1.
    9900012    2    1    2    0    0  0.19411771663E+02 -0.22449419960E+01  0.38752633383E+02  0.47787271461E+02  0.20000001897E+02 0.  0.
         12    1    1    2    0    0 -0.19411771663E+02  0.22449419960E+01 -0.38752633383E+02  0.43400728539E+02  0.00000000000E+00 0. -1.
         11    1    3    3    0    0 -0.20141379000E+01  0.12453093558E+01  0.61263821031E+01  0.65681127279E+01  0.51100000000E-03 0. -1.
        -11    1    3    3    0    0  0.12932292432E+02  0.41840342641E+01  0.19937720628E+02  0.24130127110E+02  0.51100000000E-03 0.  1.
        -12    1    3    3    0    0  0.84936171313E+01 -0.76742856159E+01  0.12688530652E+02  0.17089031622E+02  0.00000000000E+00 0.  1.
</event>
<event>
 7    1  0.1813014E-010  0.4778727E+02  0.7816164E-02  0.1312668E+00
        -11   -1    0    0    0    0  0.00000000000E+00  0.00000000000E+00  0.45593999997E+02  0.45594000000E+02  0.51100000000E-03 0.  1.
         11   -1    0    0    0    0 -0.00000000000E+00 -0.00000000000E+00 -0.45593999997E+02  0.45594000000E+02  0.51100000000E-03 0. -1.
    9900012    2    1    2    0    0  0.15587960172E+02 -0.20079120402E+02  0.35177665527E+02  0.47787265786E+02  0.19999976023E+02 0.  0.
         12    1    1    2    0    0 -0.15587960172E+02  0.20079120402E+02 -0.35177665527E+02  0.43400734214E+02  0.00000000000E+00 0. -1.
         11    1    3    3    0    0 -0.13339088234E+01 -0.72293334006E+00  0.77196159410E+01  0.78673004202E+01  0.51100000000E-03 0. -1.
        -11    1    3    3    0    0  0.14869725513E+02 -0.93066451735E+01  0.22492527625E+02  0.28524308588E+02  0.51100000000E-03 0.  1.
        -12    1    3    3    0    0  0.20521434825E+01 -0.10049541888E+02  0.49655219609E+01  0.11395656777E+02  0.00000000000E+00 0.  1.
</event>
<event>
 7    1  0.1813014E-010  0.4778721E+02  0.7816164E-02  0.1312668E+00
        -11   -1    0    0    0    0  0.00000000000E+00  0.00000000000E+00  0.45593999997E+02  0.45594000000E+02  0.51100000000E-03 0. -1.
         11   -1    0    0    0    0 -0.00000000000E+00 -0.00000000000E+00 -0.45593999997E+02  0.45594000000E+02  0.51100000000E-03 0.  1.
    9900012    2    1    2    0    0  0.30484810183E+02  0.18810999135E+02 -0.24504107048E+02  0.47787209655E+02  0.19999720099E+02 0.  0.
         12    1    1    2    0    0 -0.30484810183E+02 -0.18810999135E+02  0.24504107048E+02  0.43400790345E+02  0.00000000000E+00 0. -1.
         11    1    3    3    0    0  0.65086582633E+01  0.42775922459E+01 -0.62587951544E+01  0.99916437515E+01  0.51100000000E-03 0.  1.
        -11    1    3    3    0    0  0.21943145081E+01 -0.39396584711E+01 -0.30527363800E+01  0.54456519074E+01  0.51100000000E-03 0. -1.
         12    1    3    3    0    0  0.21781837412E+02  0.18473065360E+02 -0.15192575513E+02  0.32349913996E+02  0.00000000000E+00 0. -1.
</event>
<event>
 7    1  0.1813014E-010  0.4778727E+02  0.7816164E-02  0.1312668E+00
        -11   -1    0    0    0    0  0.00000000000E+00  0.00000000000E+00  0.45593999997E+02  0.45594000000E+02  0.51100000000E-03 0.  1.
         11   -1    0    0    0    0 -0.00000000000E+00 -0.00000000000E+00 -0.45593999997E+02  0.45594000000E+02  0.51100000000E-03 0. -1.
    9900012    2    1    2    0    0 -0.83521297674E+01 -0.71405329342E+01  0.41986641423E+02  0.47787270280E+02  0.19999996515E+02 0.  0.
         12    1    1    2    0    0  0.83521297674E+01  0.71405329342E+01 -0.41986641423E+02  0.43400729720E+02  0.00000000000E+00 0. -1.
         11    1    3    3    0    0 -0.12311354215E+01 -0.84445035686E+00 -0.14008815653E+01  0.20472567627E+01  0.51100000000E-03 0. -1.
        -11    1    3    3    0    0 -0.16098541854E+01 -0.76553082528E+01  0.16508431578E+02  0.18268105768E+02  0.51100000000E-03 0.  1.
         12    1    3    3    0    0 -0.55111401606E+01  0.13592256754E+01  0.26879091411E+02  0.27471907749E+02  0.00000000000E+00 0. -1.
</event>
<event>
 7    1  0.1813014E-010  0.4778727E+02  0.7816164E-02  0.1312668E+00
        -11   -1    0    0    0    0  0.00000000000E+00  0.00000000000E+00  0.45593999997E+02  0.45594000000E+02  0.51100000000E-03 0. -1.
         11   -1    0    0    0    0 -0.00000000000E+00 -0.00000000000E+00 -0.45593999997E+02  0.45594000000E+02  0.51100000000E-03 0.  1.
    9900012    2    1    2    0    0  0.13521386359E+02  0.23502295468E+02 -0.33888609205E+02  0.47787267112E+02  0.19999982072E+02 0.  0.
         12    1    1    2    0    0 -0.13521386359E+02 -0.23502295468E+02  0.33888609205E+02  0.43400732888E+02  0.00000000000E+00 0. -1.
         11    1    3    3    0    0  0.80061017044E+01  0.12007203426E+02 -0.24095493032E+02  0.28086711864E+02  0.51100000000E-03 0. -1.
        -11    1    3    3    0    0 -0.23453034202E+01  0.76932639217E+01 -0.65970474472E+01  0.10402297495E+02  0.51100000000E-03 0.  1.
        -12    1    3    3    0    0  0.78605880748E+01  0.38018281210E+01 -0.31960687253E+01  0.92982577530E+01  0.00000000000E+00 0.  1.
</event>
<event>
 7    1  0.1813014E-010  0.4778727E+02  0.7816164E-02  0.1312668E+00
        -11   -1    0    0    0    0  0.00000000000E+00  0.00000000000E+00  0.45593999997E+02  0.45594000000E+02  0.51100000000E-03 0.  1.
         11   -1    0    0    0    0 -0.00000000000E+00 -0.00000000000E+00 -0.45593999997E+02  0.45594000000E+02  0.51100000000E-03 0. -1.
    9900012    2    1    2    0    0  0.34628833802E+02 -0.12553022699E+02  0.22954060723E+02  0.47787269441E+02  0.19999992688E+02 0.  0.
         12    1    1    2    0    0 -0.34628833802E+02  0.12553022699E+02 -0.22954060723E+02  0.43400730559E+02  0.00000000000E+00 0. -1.
         11    1    3    3    0    0  0.11728689067E+02 -0.47577290895E+01  0.57608138670E+01  0.13906297494E+02  0.51100000000E-03 0. -1.
        -11    1    3    3    0    0  0.51359246456E+00  0.38999272758E+01  0.24948633780E+01  0.46580632791E+01  0.51100000000E-03 0.  1.
        -12    1    3    3    0    0  0.22386552271E+02 -0.11695220885E+02  0.14698383478E+02  0.29222908668E+02  0.00000000000E+00 0.  1.
</event>
<event>
 7    1  0.1813014E-010  0.4778727E+02  0.7816164E-02  0.1312668E+00
        -11   -1    0    0    0    0  0.00000000000E+00  0.00000000000E+00  0.45593999997E+02  0.45594000000E+02  0.51100000000E-03 0.  1.
         11   -1    0    0    0    0 -0.00000000000E+00 -0.00000000000E+00 -0.45593999997E+02  0.45594000000E+02  0.51100000000E-03 0. -1.
    9900012    2    1    2    0    0 -0.24052974746E+02 -0.11372470196E+02  0.34289130724E+02  0.47787272376E+02  0.20000006070E+02 0.  0.
         12    1    1    2    0    0  0.24052974746E+02  0.11372470196E+02 -0.34289130724E+02  0.43400727624E+02  0.00000000000E+00 0. -1.
         11    1    3    3    0    0 -0.53914854185E+01  0.25868375735E+01  0.11822684706E+02  0.13248989304E+02  0.51100000000E-03 0. -1.
        -11    1    3    3    0    0 -0.10726343830E+02 -0.94026457466E+01  0.20825156866E+02  0.25241857257E+02  0.51100000000E-03 0.  1.
         12    1    3    3    0    0 -0.79351454976E+01 -0.45566620233E+01  0.16412891513E+01  0.92964258154E+01  0.00000000000E+00 0. -1.
</event>
<event>
 7    1  0.1813014E-010  0.4778727E+02  0.7816164E-02  0.1312668E+00
        -11   -1    0    0    0    0  0.00000000000E+00  0.00000000000E+00  0.45593999997E+02  0.45594000000E+02  0.51100000000E-03 0.  1.
         11   -1    0    0    0    0 -0.00000000000E+00 -0.00000000000E+00 -0.45593999997E+02  0.45594000000E+02  0.51100000000E-03 0. -1.
    9900012    2    1    2    0    0 -0.40603623182E+01 -0.23965846112E+02  0.35955175674E+02  0.47787274433E+02  0.20000015448E+02 0.  0.
         12    1    1    2    0    0  0.40603623182E+01  0.23965846112E+02 -0.35955175674E+02  0.43400725567E+02  0.00000000000E+00 0. -1.
         11    1    3    3    0    0 -0.13391843981E+01  0.15434038488E+01  0.30908414095E+00  0.20666503236E+01  0.51100000000E-03 0. -1.
        -11    1    3    3    0    0 -0.82941540444E+00 -0.25083896149E+02  0.27013749808E+02  0.36873194259E+02  0.51100000000E-03 0.  1.
         12    1    3    3    0    0 -0.18917625157E+01 -0.42535381144E+00  0.86323417257E+01  0.88474298500E+01  0.00000000000E+00 0. -1.
</event>
<event>
 7    1  0.1813014E-010  0.4778727E+02  0.7816164E-02  0.1312668E+00
        -11   -1    0    0    0    0  0.00000000000E+00  0.00000000000E+00  0.45593999997E+02  0.45594000000E+02  0.51100000000E-03 0.  1.
         11   -1    0    0    0    0 -0.00000000000E+00 -0.00000000000E+00 -0.45593999997E+02  0.45594000000E+02  0.51100000000E-03 0. -1.
    9900012    2    1    2    0    0 -0.41438118710E+02 -0.43061309505E+01  0.12163995085E+02  0.47787271638E+02  0.20000002705E+02 0.  0.
         12    1    1    2    0    0  0.41438118710E+02  0.43061309505E+01 -0.12163995085E+02  0.43400728362E+02  0.00000000000E+00 0. -1.
         11    1    3    3    0    0 -0.12095711172E+02  0.72082362400E+01  0.48296726756E+01  0.14885920760E+02  0.51100000000E-03 0. -1.
        -11    1    3    3    0    0 -0.60276387988E+01 -0.50392191832E+01  0.13048506125E+01  0.79642196635E+01  0.51100000000E-03 0.  1.
        -12    1    3    3    0    0 -0.23314768739E+02 -0.64751480073E+01  0.60294717969E+01  0.24937131214E+02  0.00000000000E+00 0.  1.
</event>
<event>
 7    1  0.1813014E-010  0.4778727E+02  0.7816164E-02  0.1312668E+00
        -11   -1    0    0    0    0  0.00000000000E+00  0.00000000000E+00  0.45593999997E+02  0.45594000000E+02  0.51100000000E-03 0. -1.
         11   -1    0    0    0    0 -0.00000000000E+00 -0.00000000000E+00 -0.45593999997E+02  0.45594000000E+02  0.51100000000E-03 0.  1.
    9900012    2    1    2    0    0 -0.10885862968E+02  0.14408969693E+02 -0.39465211968E+02  0.47787269869E+02  0.19999994643E+02 0.  0.
         12    1    1    2    0    0  0.10885862968E+02 -0.14408969693E+02  0.39465211968E+02  0.43400730131E+02  0.00000000000E+00 0. -1.
         11    1    3    3    0    0 -0.64673549428E+01  0.10753966840E+02 -0.26602353244E+02  0.29413596875E+02  0.51100000000E-03 0.  1.
        -11    1    3    3    0    0  0.12045431968E+01 -0.24224712713E+01 -0.86908537561E+01  0.91022102065E+01  0.51100000000E-03 0. -1.
         12    1    3    3    0    0 -0.56230512223E+01  0.60774741235E+01 -0.41720049683E+01  0.92714627878E+01  0.00000000000E+00 0. -1.
</event>
<event>
 7    1  0.1813014E-010  0.4778727E+02  0.7816164E-02  0.1312668E+00
        -11   -1    0    0    0    0  0.00000000000E+00  0.00000000000E+00  0.45593999997E+02  0.45594000000E+02  0.51100000000E-03 0.  1.
         11   -1    0    0    0    0 -0.00000000000E+00 -0.00000000000E+00 -0.45593999997E+02  0.45594000000E+02  0.51100000000E-03 0. -1.
    9900012    2    1    2    0    0  0.61069198468E+00 -0.42296765072E+02 -0.97074171013E+01  0.47787271584E+02  0.20000002460E+02 0.  0.
         12    1    1    2    0    0 -0.61069198468E+00  0.42296765072E+02  0.97074171013E+01  0.43400728416E+02  0.00000000000E+00 0. -1.
         11    1    3    3    0    0  0.62067974411E+01 -0.19075174230E+02 -0.93468756150E+01  0.22130311575E+02  0.51100000000E-03 0. -1.
        -11    1    3    3    0    0 -0.53928963598E+01 -0.14329606639E+02 -0.43384772027E+01  0.15913621281E+02  0.51100000000E-03 0.  1.
        -12    1    3    3    0    0 -0.20320909664E+00 -0.88919842025E+01  0.39779357164E+01  0.97433387274E+01  0.00000000000E+00 0.  1.
</event>
<event>
 7    1  0.1813014E-010  0.4778726E+02  0.7816164E-02  0.1312668E+00
        -11   -1    0    0    0    0  0.00000000000E+00  0.00000000000E+00  0.45593999997E+02  0.45594000000E+02  0.51100000000E-03 0.  1.
         11   -1    0    0    0    0 -0.00000000000E+00 -0.00000000000E+00 -0.45593999997E+02  0.45594000000E+02  0.51100000000E-03 0. -1.
    9900012    2    1    2    0    0 -0.34175416268E+02 -0.23304619747E+02  0.13136201430E+02  0.47787260759E+02  0.19999953106E+02 0.  0.
         12    1    1    2    0    0  0.34175416268E+02  0.23304619747E+02 -0.13136201430E+02  0.43400739241E+02  0.00000000000E+00 0. -1.
         11    1    3    3    0    0 -0.83195526544E+01 -0.11061276094E+01 -0.31608813640E+01  0.89682576856E+01  0.51100000000E-03 0. -1.
        -11    1    3    3    0    0 -0.98168587502E+01 -0.74475968165E+01  0.10703269274E+02  0.16321684578E+02  0.51100000000E-03 0.  1.
        -12    1    3    3    0    0 -0.16039004863E+02 -0.14750895321E+02  0.55938135198E+01  0.22497318495E+02  0.00000000000E+00 0.  1.
</event>
<event>
 7    1  0.1813014E-010  0.4778727E+02  0.7816164E-02  0.1312668E+00
        -11   -1    0    0    0    0  0.00000000000E+00  0.00000000000E+00  0.45593999997E+02  0.45594000000E+02  0.51100000000E-03 0. -1.
         11   -1    0    0    0    0 -0.00000000000E+00 -0.00000000000E+00 -0.45593999997E+02  0.45594000000E+02  0.51100000000E-03 0.  1.
    9900012    2    1    2    0    0 -0.25832539278E+02 -0.26194666133E+02  0.23024822724E+02  0.47787273268E+02  0.20000010140E+02 0.  0.
         12    1    1    2    0    0  0.25832539278E+02  0.26194666133E+02 -0.23024822724E+02  0.43400726732E+02  0.00000000000E+00 0. -1.
         11    1    3    3    0    0 -0.10913089266E+02 -0.12747436607E+02  0.69021039556E+01  0.18144742948E+02  0.51100000000E-03 0. -1.
        -11    1    3    3    0    0 -0.16522923586E+02 -0.15232919702E+02  0.14481134144E+02  0.26734847912E+02  0.51100000000E-03 0.  1.
         12    1    3    3    0    0  0.16034735745E+01  0.17856901765E+01  0.16415846246E+01  0.29076824087E+01  0.00000000000E+00 0. -1.
</event>
<event>
 7    1  0.1813014E-010  0.4778727E+02  0.7816164E-02  0.1312668E+00
        -11   -1    0    0    0    0  0.00000000000E+00  0.00000000000E+00  0.45593999997E+02  0.45594000000E+02  0.51100000000E-03 0. -1.
         11   -1    0    0    0    0 -0.00000000000E+00 -0.00000000000E+00 -0.45593999997E+02  0.45594000000E+02  0.51100000000E-03 0.  1.
    9900012    2    1    2    0    0 -0.71861411735E+01 -0.42790126670E+02 -0.99385162055E+00  0.47787270669E+02  0.19999998290E+02 0.  0.
         12    1    1    2    0    0  0.71861411735E+01  0.42790126670E+02  0.99385162055E+00  0.43400729331E+02  0.00000000000E+00 0. -1.
         11    1    3    3    0    0  0.19150138894E+01  0.95753001858E-01  0.19943650324E+01  0.27665753157E+01  0.51100000000E-03 0. -1.
        -11    1    3    3    0    0 -0.21315163419E+01 -0.16210367464E+02 -0.57039169895E+01  0.17316294191E+02  0.51100000000E-03 0.  1.
        -12    1    3    3    0    0 -0.69696387210E+01 -0.26675512208E+02  0.27157003365E+01  0.27704401162E+02  0.00000000000E+00 0.  1.
</event>
<event>
 7    1  0.1813014E-010  0.4778727E+02  0.7816164E-02  0.1312668E+00
        -11   -1    0    0    0    0  0.00000000000E+00  0.00000000000E+00  0.45593999997E+02  0.45594000000E+02  0.51100000000E-03 0. -1.
         11   -1    0    0    0    0 -0.00000000000E+00 -0.00000000000E+00 -0.45593999997E+02  0.45594000000E+02  0.51100000000E-03 0.  1.
    9900012    2    1    2    0    0 -0.25024864976E+02 -0.40315935157E+01 -0.35229612260E+02  0.47787271972E+02  0.20000004230E+02 0.  0.
         12    1    1    2    0    0  0.25024864976E+02  0.40315935157E+01  0.35229612260E+02  0.43400728028E+02  0.00000000000E+00 0. -1.
         11    1    3    3    0    0 -0.45176371080E+01  0.12622497559E+01  0.32715025789E-01  0.46907771233E+01  0.51100000000E-03 0. -1.
        -11    1    3    3    0    0 -0.22238400038E+02 -0.39535859246E+01 -0.32175661564E+02  0.39312217888E+02  0.51100000000E-03 0.  1.
         12    1    3    3    0    0  0.17311721702E+01 -0.13402573471E+01 -0.30866657217E+01  0.37842769609E+01  0.00000000000E+00 0. -1.
</event>
<event>
 7    1  0.1813014E-010  0.4778727E+02  0.7816164E-02  0.1312668E+00
        -11   -1    0    0    0    0  0.00000000000E+00  0.00000000000E+00  0.45593999997E+02  0.45594000000E+02  0.51100000000E-03 0.  1.
         11   -1    0    0    0    0 -0.00000000000E+00 -0.00000000000E+00 -0.45593999997E+02  0.45594000000E+02  0.51100000000E-03 0. -1.
    9900012    2    1    2    0    0  0.12405465136E+02 -0.69032661165E+01  0.41013076705E+02  0.47787272942E+02  0.20000008654E+02 0.  0.
         12    1    1    2    0    0 -0.12405465136E+02  0.69032661165E+01 -0.41013076705E+02  0.43400727058E+02  0.00000000000E+00 0. -1.
         11    1    3    3    0    0  0.37653383350E+01 -0.60659854615E-01  0.23194102370E+02  0.23497826227E+02  0.51100000000E-03 0.  1.
        -11    1    3    3    0    0  0.54600035596E+01  0.25397381731E+01  0.37898762689E+01  0.71151297426E+01  0.51100000000E-03 0. -1.
         12    1    3    3    0    0  0.31801232413E+01 -0.93823444351E+01  0.14029098067E+02  0.17174316973E+02  0.00000000000E+00 0. -1.
</event>
<event>
 7    1  0.1813014E-010  0.4778726E+02  0.7816164E-02  0.1312668E+00
        -11   -1    0    0    0    0  0.00000000000E+00  0.00000000000E+00  0.45593999997E+02  0.45594000000E+02  0.51100000000E-03 0.  1.
         11   -1    0    0    0    0 -0.00000000000E+00 -0.00000000000E+00 -0.45593999997E+02  0.45594000000E+02  0.51100000000E-03 0. -1.
    9900012    2    1    2    0    0  0.19560504017E+02 -0.38710046317E+02  0.15946180836E+01  0.47787264866E+02  0.19999971832E+02 0.  0.
         12    1    1    2    0    0 -0.19560504017E+02  0.38710046317E+02 -0.15946180836E+01  0.43400735134E+02  0.00000000000E+00 0. -1.
         11    1    3    3    0    0  0.11515465848E+02 -0.21645139653E+02 -0.60232203823E+01  0.25246726686E+02  0.51100000000E-03 0. -1.
        -11    1    3    3    0    0  0.10177058111E+02 -0.13042589887E+02  0.49684867847E+01  0.17273318267E+02  0.51100000000E-03 0.  1.
        -12    1    3    3    0    0 -0.21320199423E+01 -0.40223167775E+01  0.26493516812E+01  0.52672199141E+01  0.00000000000E+00 0.  1.
</event>
<event>
 7    1  0.1813014E-010  0.4778727E+02  0.7816164E-02  0.1312668E+00
        -11   -1    0    0    0    0  0.00000000000E+00  0.00000000000E+00  0.45593999997E+02  0.45594000000E+02  0.51100000000E-03 0.  1.
         11   -1    0    0    0    0 -0.00000000000E+00 -0.00000000000E+00 -0.45593999997E+02  0.45594000000E+02  0.51100000000E-03 0. -1.
    9900012    2    1    2    0    0 -0.35400030441E+02  0.63893823202E+01  0.24282446152E+02  0.47787267831E+02  0.19999985348E+02 0.  0.
         12    1    1    2    0    0  0.35400030441E+02 -0.63893823202E+01 -0.24282446152E+02  0.43400732169E+02  0.00000000000E+00 0. -1.
         11    1    3    3    0    0  0.10337473307E+00 -0.17776933115E+01  0.18217184421E+01  0.25474572005E+01  0.51100000000E-03 0. -1.
        -11    1    3    3    0    0 -0.31183646787E+02  0.55789339789E+01  0.24250722197E+02  0.39895386432E+02  0.51100000000E-03 0.  1.
         12    1    3    3    0    0 -0.43197583878E+01  0.25881416528E+01 -0.17899944871E+01  0.53444241979E+01  0.00000000000E+00 0. -1.
</event>
<event>
 7    1  0.1813014E-010  0.4778727E+02  0.7816164E-02  0.1312668E+00
        -11   -1    0    0    0    0  0.00000000000E+00  0.00000000000E+00  0.45593999997E+02  0.45594000000E+02  0.51100000000E-03 0.  1.
         11   -1    0    0    0    0 -0.00000000000E+00 -0.00000000000E+00 -0.45593999997E+02  0.45594000000E+02  0.51100000000E-03 0. -1.
    9900012    2    1    2    0    0  0.29222590756E+01  0.16626927815E+02  0.39982859670E+02  0.47787269660E+02  0.19999993689E+02 0.  0.
         12    1    1    2    0    0 -0.29222590756E+01 -0.16626927815E+02 -0.39982859670E+02  0.43400730340E+02  0.00000000000E+00 0. -1.
         11    1    3    3    0    0 -0.36514621392E+01  0.79014153092E+01  0.16404072946E+02  0.18570383656E+02  0.51100000000E-03 0. -1.
        -11    1    3    3    0    0  0.34677223216E+01  0.77349864539E+01  0.24420490597E+02  0.25849864116E+02  0.51100000000E-03 0.  1.
         12    1    3    3    0    0  0.31059988931E+01  0.99052605146E+00 -0.84170387399E+00  0.33670218880E+01  0.00000000000E+00 0. -1.
</event>
<event>
 7    1  0.1813014E-010  0.4778727E+02  0.7816164E-02  0.1312668E+00
        -11   -1    0    0    0    0  0.00000000000E+00  0.00000000000E+00  0.45593999997E+02  0.45594000000E+02  0.51100000000E-03 0.  1.
         11   -1    0    0    0    0 -0.00000000000E+00 -0.00000000000E+00 -0.45593999997E+02  0.45594000000E+02  0.51100000000E-03 0. -1.
    9900012    2    1    2    0    0 -0.19436614233E+02 -0.80293806553E+01  0.37965385842E+02  0.47787269031E+02  0.19999990818E+02 0.  0.
         12    1    1    2    0    0  0.19436614233E+02  0.80293806553E+01 -0.37965385842E+02  0.43400730969E+02  0.00000000000E+00 0. -1.
         11    1    3    3    0    0  0.39658851252E+01 -0.15374168596E+01  0.43537790588E+01  0.60866483207E+01  0.51100000000E-03 0. -1.
        -11    1    3    3    0    0 -0.11516557906E+02 -0.35629850719E+01  0.20350891468E+02  0.23653430035E+02  0.51100000000E-03 0.  1.
        -12    1    3    3    0    0 -0.11885941453E+02 -0.29289787239E+01  0.13260715315E+02  0.18047190675E+02  0.00000000000E+00 0.  1.
</event>
<event>
 7    1  0.1813014E-010  0.4778727E+02  0.7816164E-02  0.1312668E+00
        -11   -1    0    0    0    0  0.00000000000E+00  0.00000000000E+00  0.45593999997E+02  0.45594000000E+02  0.51100000000E-03 0. -1.
         11   -1    0    0    0    0 -0.00000000000E+00 -0.00000000000E+00 -0.45593999997E+02  0.45594000000E+02  0.51100000000E-03 0.  1.
    9900012    2    1    2    0    0 -0.26943434961E+00 -0.33018330590E+02 -0.28166296471E+02  0.47787274123E+02  0.20000014035E+02 0.  0.
         12    1    1    2    0    0  0.26943434961E+00  0.33018330590E+02  0.28166296471E+02  0.43400725877E+02  0.00000000000E+00 0. -1.
         11    1    3    3    0    0  0.31238868503E+01 -0.15991022915E+02 -0.11593949534E+02  0.19997278539E+02  0.51100000000E-03 0.  1.
        -11    1    3    3    0    0 -0.24894226399E+01 -0.49183264747E+00  0.17579451689E+01  0.30869881618E+01  0.51100000000E-03 0. -1.
         12    1    3    3    0    0 -0.90389855992E+00 -0.16535475027E+02 -0.18330292106E+02  0.24703007422E+02  0.00000000000E+00 0. -1.
</event>
<event>
 7    1  0.1813014E-010  0.4778729E+02  0.7816164E-02  0.1312668E+00
        -11   -1    0    0    0    0  0.00000000000E+00  0.00000000000E+00  0.45593999997E+02  0.45594000000E+02  0.51100000000E-03 0. -1.
         11   -1    0    0    0    0 -0.00000000000E+00 -0.00000000000E+00 -0.45593999997E+02  0.45594000000E+02  0.51100000000E-03 0.  1.
    9900012    2    1    2    0    0  0.73619710190E+01  0.19157381340E+02 -0.38241566005E+02  0.47787294388E+02  0.20000106432E+02 0.  0.
         12    1    1    2    0    0 -0.73619710190E+01 -0.19157381340E+02  0.38241566005E+02  0.43400705612E+02  0.00000000000E+00 0. -1.
         11    1    3    3    0    0  0.61778984335E+01  0.11379587018E+02 -0.17736219644E+02  0.21959847842E+02  0.51100000000E-03 0.  1.
        -11    1    3    3    0    0  0.10954102342E+01  0.11034406603E+02 -0.10372511517E+02  0.15183775818E+02  0.51100000000E-03 0. -1.
        -12    1    3    3    0    0  0.88662351314E-01 -0.32566122810E+01 -0.10132834845E+02  0.10643670727E+02  0.00000000000E+00 0.  1.
</event>
<event>
 7    1  0.1813014E-010  0.4778727E+02  0.7816164E-02  0.1312668E+00
        -11   -1    0    0    0    0  0.00000000000E+00  0.00000000000E+00  0.45593999997E+02  0.45594000000E+02  0.51100000000E-03 0.  1.
         11   -1    0    0    0    0 -0.00000000000E+00 -0.00000000000E+00 -0.45593999997E+02  0.45594000000E+02  0.51100000000E-03 0. -1.
    9900012    2    1    2    0    0 -0.18231821892E+02  0.33581071933E+02  0.20579979060E+02  0.47787271207E+02  0.20000000739E+02 0.  0.
         12    1    1    2    0    0  0.18231821892E+02 -0.33581071933E+02 -0.20579979060E+02  0.43400728793E+02  0.00000000000E+00 0. -1.
         11    1    3    3    0    0  0.16829588713E+01  0.32603834292E+01  0.48482550601E+00  0.37010142799E+01  0.51100000000E-03 0. -1.
        -11    1    3    3    0    0 -0.16161266203E+02  0.14163357085E+02  0.16551128924E+02  0.27124289449E+02  0.51100000000E-03 0.  1.
        -12    1    3    3    0    0 -0.37535145609E+01  0.16157331419E+02  0.35440246301E+01  0.16961967478E+02  0.00000000000E+00 0.  1.
</event>
<event>
 7    1  0.1813014E-010  0.4778727E+02  0.7816164E-02  0.1312668E+00
        -11   -1    0    0    0    0  0.00000000000E+00  0.00000000000E+00  0.45593999997E+02  0.45594000000E+02  0.51100000000E-03 0.  1.
         11   -1    0    0    0    0 -0.00000000000E+00 -0.00000000000E+00 -0.45593999997E+02  0.45594000000E+02  0.51100000000E-03 0. -1.
    9900012    2    1    2    0    0  0.82529508304E+01  0.14569026748E+01  0.42583909746E+02  0.47787272678E+02  0.20000007449E+02 0.  0.
         12    1    1    2    0    0 -0.82529508304E+01 -0.14569026748E+01 -0.42583909746E+02  0.43400727322E+02  0.00000000000E+00 0. -1.
         11    1    3    3    0    0  0.10529107096E+02  0.37894945400E+01  0.22447784216E+02  0.25082371928E+02  0.51100000000E-03 0.  1.
        -11    1    3    3    0    0 -0.84712553645E-01 -0.51949201276E+01  0.52414345562E+01  0.73801766792E+01  0.51100000000E-03 0. -1.
        -12    1    3    3    0    0 -0.21914437116E+01  0.28623282624E+01  0.14894690974E+02  0.15324724071E+02  0.00000000000E+00 0.  1.
</event>
<event>
 7    1  0.1813014E-010  0.4778727E+02  0.7816164E-02  0.1312668E+00
        -11   -1    0    0    0    0  0.00000000000E+00  0.00000000000E+00  0.45593999997E+02  0.45594000000E+02  0.51100000000E-03 0.  1.
         11   -1    0    0    0    0 -0.00000000000E+00 -0.00000000000E+00 -0.45593999997E+02  0.45594000000E+02  0.51100000000E-03 0. -1.
    9900012    2    1    2    0    0 -0.32992547874E+02  0.27837350731E+02  0.44941027865E+01  0.47787271079E+02  0.20000000160E+02 0.  0.
         12    1    1    2    0    0  0.32992547874E+02 -0.27837350731E+02 -0.44941027865E+01  0.43400728921E+02  0.00000000000E+00 0. -1.
         11    1    3    3    0    0 -0.87770052126E+01  0.17986607799E+02  0.51902492238E+01  0.20675893400E+02  0.51100000000E-03 0. -1.
        -11    1    3    3    0    0 -0.81477750073E+01  0.30914620515E+01 -0.36195306093E+01  0.94363328300E+01  0.51100000000E-03 0.  1.
        -12    1    3    3    0    0 -0.16067767654E+02  0.67592808811E+01  0.29233841720E+01  0.17675044850E+02  0.00000000000E+00 0.  1.
</event>
<event>
 7    1  0.1813014E-010  0.4778727E+02  0.7816164E-02  0.1312668E+00
        -11   -1    0    0    0    0  0.00000000000E+00  0.00000000000E+00  0.45593999997E+02  0.45594000000E+02  0.51100000000E-03 0.  1.
         11   -1    0    0    0    0 -0.00000000000E+00 -0.00000000000E+00 -0.45593999997E+02  0.45594000000E+02  0.51100000000E-03 0. -1.
    9900012    2    1    2    0    0  0.41714132116E+02 -0.31012356907E+01  0.11573098473E+02  0.47787273172E+02  0.20000009699E+02 0.  0.
         12    1    1    2    0    0 -0.41714132116E+02  0.31012356907E+01 -0.11573098473E+02  0.43400726828E+02  0.00000000000E+00 0. -1.
         11    1    3    3    0    0  0.95673948490E+01  0.12497803162E+01  0.33131855435E+00  0.96543651930E+01  0.51100000000E-03 0. -1.
        -11    1    3    3    0    0  0.28602998092E+02  0.23370395767E+01  0.10367990464E+02  0.30513742484E+02  0.51100000000E-03 0.  1.
         12    1    3    3    0    0  0.35437391747E+01 -0.66880555837E+01  0.87378945406E+00  0.76191654949E+01  0.00000000000E+00 0. -1.
</event>
<event>
 7    1  0.1813014E-010  0.4778727E+02  0.7816164E-02  0.1312668E+00
        -11   -1    0    0    0    0  0.00000000000E+00  0.00000000000E+00  0.45593999997E+02  0.45594000000E+02  0.51100000000E-03 0.  1.
         11   -1    0    0    0    0 -0.00000000000E+00 -0.00000000000E+00 -0.45593999997E+02  0.45594000000E+02  0.51100000000E-03 0. -1.
    9900012    2    1    2    0    0 -0.21983484913E+02 -0.80690362187E+01  0.36540937660E+02  0.47787273284E+02  0.20000010210E+02 0.  0.
         12    1    1    2    0    0  0.21983484913E+02  0.80690362187E+01 -0.36540937660E+02  0.43400726716E+02  0.00000000000E+00 0. -1.
         11    1    3    3    0    0  0.21913139201E-01  0.20524384224E+01  0.14326526751E+01  0.25030936083E+01  0.51100000000E-03 0. -1.
        -11    1    3    3    0    0 -0.85418091001E+01 -0.11307541902E+02  0.23623031131E+02  0.27547606187E+02  0.51100000000E-03 0.  1.
        -12    1    3    3    0    0 -0.13463588952E+02  0.11860672612E+01  0.11485253854E+02  0.17736573488E+02  0.00000000000E+00 0.  1.
</event>
<event>
 7    1  0.1813014E-010  0.4778727E+02  0.7816164E-02  0.1312668E+00
        -11   -1    0    0    0    0  0.00000000000E+00  0.00000000000E+00  0.45593999997E+02  0.45594000000E+02  0.51100000000E-03 0. -1.
         11   -1    0    0    0    0 -0.00000000000E+00 -0.00000000000E+00 -0.45593999997E+02  0.45594000000E+02  0.51100000000E-03 0.  1.
    9900012    2    1    2    0    0  0.29427475045E+02  0.23145962830E+02 -0.21952479118E+02  0.47787271639E+02  0.20000002709E+02 0.  0.
         12    1    1    2    0    0 -0.29427475045E+02 -0.23145962830E+02  0.21952479118E+02  0.43400728361E+02  0.00000000000E+00 0. -1.
         11    1    3    3    0    0  0.60589736735E+01  0.88447870650E+01  0.50111003400E+00  0.10732778379E+02  0.51100000000E-03 0. -1.
        -11    1    3    3    0    0  0.12974033901E+02  0.12146680253E+02 -0.90129272905E+01  0.19927374524E+02  0.51100000000E-03 0.  1.
         12    1    3    3    0    0  0.10394467471E+02  0.21544955128E+01 -0.13440661861E+02  0.17127118736E+02  0.00000000000E+00 0. -1.
</event>
<event>
 7    1  0.1813014E-010  0.4778727E+02  0.7816164E-02  0.1312668E+00
        -11   -1    0    0    0    0  0.00000000000E+00  0.00000000000E+00  0.45593999997E+02  0.45594000000E+02  0.51100000000E-03 0. -1.
         11   -1    0    0    0    0 -0.00000000000E+00 -0.00000000000E+00 -0.45593999997E+02  0.45594000000E+02  0.51100000000E-03 0.  1.
    9900012    2    1    2    0    0 -0.22985890315E+02 -0.98460855277E+01 -0.35472905369E+02  0.47787267643E+02  0.19999984492E+02 0.  0.
         12    1    1    2    0    0  0.22985890315E+02  0.98460855277E+01  0.35472905369E+02  0.43400732357E+02  0.00000000000E+00 0. -1.
         11    1    3    3    0    0  0.15934595127E+01 -0.58942156386E+00  0.96132256206E+00  0.19520943441E+01  0.51100000000E-03 0. -1.
        -11    1    3    3    0    0 -0.98100320307E+01 -0.76731494988E+01 -0.12355897865E+02  0.17543721498E+02  0.51100000000E-03 0.  1.
        -12    1    3    3    0    0 -0.14769317797E+02 -0.15835144651E+01 -0.24078330066E+02  0.28291451801E+02  0.00000000000E+00 0.  1.
</event>
<event>
 7    1  0.1813014E-010  0.4778728E+02  0.7816164E-02  0.1312668E+00
        -11   -1    0    0    0    0  0.00000000000E+00  0.00000000000E+00  0.45593999997E+02  0.45594000000E+02  0.51100000000E-03 0.  1.
         11   -1    0    0    0    0 -0.00000000000E+00 -0.00000000000E+00 -0.45593999997E+02  0.45594000000E+02  0.51100000000E-03 0. -1.
    9900012    2    1    2    0    0  0.32697243501E+02  0.25324004036E+02  0.13160824083E+02  0.47787283376E+02  0.20000056224E+02 0.  0.
         12    1    1    2    0    0 -0.32697243501E+02 -0.25324004036E+02 -0.13160824083E+02  0.43400716624E+02  0.00000000000E+00 0. -1.
         11    1    3    3    0    0  0.21925305660E+02  0.44493103132E+01  0.73446136394E+01  0.23546947579E+02  0.51100000000E-03 0. -1.
        -11    1    3    3    0    0  0.33451974168E+01  0.75265529518E+01  0.25232977708E+01  0.86143123344E+01  0.51100000000E-03 0.  1.
         12    1    3    3    0    0  0.74267404242E+01  0.13348140771E+02  0.32929126728E+01  0.15626023462E+02  0.00000000000E+00 0. -1.
</event>
<event>
 7    1  0.1813014E-010  0.4778727E+02  0.7816164E-02  0.1312668E+00
        -11   -1    0    0    0    0  0.00000000000E+00  0.00000000000E+00  0.45593999997E+02  0.45594000000E+02  0.51100000000E-03 0.  1.
         11   -1    0    0    0    0 -0.00000000000E+00 -0.00000000000E+00 -0.45593999997E+02  0.45594000000E+02  0.51100000000E-03 0. -1.
    9900012    2    1    2    0    0  0.25253269282E+02  0.25519107795E+02  0.24385875008E+02  0.47787269913E+02  0.19999994844E+02 0.  0.
         12    1    1    2    0    0 -0.25253269282E+02 -0.25519107795E+02 -0.24385875008E+02  0.43400730087E+02  0.00000000000E+00 0. -1.
         11    1    3    3    0    0  0.59916473222E+00  0.46171004188E+01 -0.20168737031E+01  0.50738934212E+01  0.51100000000E-03 0. -1.
        -11    1    3    3    0    0  0.70694367352E+01  0.81729664362E+01  0.14088668457E+02  0.17755700360E+02  0.51100000000E-03 0.  1.
        -12    1    3    3    0    0  0.17584667815E+02  0.12729040941E+02  0.12314080255E+02  0.24957676133E+02  0.00000000000E+00 0.  1.
</event>
<event>
 7    1  0.1813014E-010  0.4778727E+02  0.7816164E-02  0.1312668E+00
        -11   -1    0    0    0    0  0.00000000000E+00  0.00000000000E+00  0.45593999997E+02  0.45594000000E+02  0.51100000000E-03 0.  1.
         11   -1    0    0    0    0 -0.00000000000E+00 -0.00000000000E+00 -0.45593999997E+02  0.45594000000E+02  0.51100000000E-03 0. -1.
    9900012    2    1    2    0    0 -0.15315843053E+02  0.63256568249E+01  0.40112769182E+02  0.47787271502E+02  0.20000002088E+02 0.  0.
         12    1    1    2    0    0  0.15315843053E+02 -0.63256568249E+01 -0.40112769182E+02  0.43400728498E+02  0.00000000000E+00 0. -1.
         11    1    3    3    0    0  0.78810453000E+00 -0.11064342194E+00  0.19674777255E+02  0.19690866183E+02  0.51100000000E-03 0. -1.
        -11    1    3    3    0    0 -0.42545631027E+00 -0.52877068448E+00  0.49100601072E+01  0.49567430865E+01  0.51100000000E-03 0.  1.
        -12    1    3    3    0    0 -0.15678491273E+02  0.69650709313E+01  0.15527931819E+02  0.23139662233E+02  0.00000000000E+00 0.  1.
</event>
<event>
 7    1  0.1813014E-010  0.4778728E+02  0.7816164E-02  0.1312668E+00
        -11   -1    0    0    0    0  0.00000000000E+00  0.00000000000E+00  0.45593999997E+02  0.45594000000E+02  0.51100000000E-03 0.  1.
         11   -1    0    0    0    0 -0.00000000000E+00 -0.00000000000E+00 -0.45593999997E+02  0.45594000000E+02  0.51100000000E-03 0. -1.
    9900012    2    1    2    0    0  0.34162636003E+02  0.50770296438E+01  0.26282329305E+02  0.47787276938E+02  0.20000026869E+02 0.  0.
         12    1    1    2    0    0 -0.34162636003E+02 -0.50770296438E+01 -0.26282329305E+02  0.43400723062E+02  0.00000000000E+00 0. -1.
         11    1    3    3    0    0  0.73149100853E+01  0.11088687785E+00  0.14029501306E+02  0.15822361158E+02  0.51100000000E-03 0. -1.
        -11    1    3    3    0    0  0.23256391967E+02  0.53590467677E+00  0.12186836986E+02  0.26261491906E+02  0.51100000000E-03 0.  1.
        -12    1    3    3    0    0  0.35913339505E+01  0.44302380892E+01  0.65991012831E-01  0.57034238738E+01  0.00000000000E+00 0.  1.
</event>
<event>
 7    1  0.1934005E-010  0.4778727E+02  0.7816164E-02  0.1312668E+00
        -11   -1    0    0    0    0  0.00000000000E+00  0.00000000000E+00  0.45593999997E+02  0.45594000000E+02  0.51100000000E-03 0. -1.
         11   -1    0    0    0    0 -0.00000000000E+00 -0.00000000000E+00 -0.45593999997E+02  0.45594000000E+02  0.51100000000E-03 0.  1.
    9900012    2    1    2    0    0 -0.39026741478E+00 -0.20476435948E+01 -0.43350640968E+02  0.47787271604E+02  0.20000002551E+02 0.  0.
         12    1    1    2    0    0  0.39026741478E+00  0.20476435948E+01  0.43350640968E+02  0.43400728396E+02  0.00000000000E+00 0. -1.
         11    1    3    3    0    0 -0.57127349887E+01  0.17002743710E+00 -0.96101755480E+01  0.11181221968E+02  0.51100000000E-03 0. -1.
        -11    1    3    3    0    0  0.20393073848E+01  0.31176644562E+01 -0.27543429332E+02  0.27794227924E+02  0.51100000000E-03 0.  1.
         12    1    3    3    0    0  0.32831601891E+01 -0.53353354880E+01 -0.61970360880E+01  0.88118217114E+01  0.00000000000E+00 0. -1.
</event>
<event>
 7    1  0.1813014E-010  0.4778727E+02  0.7816164E-02  0.1312668E+00
        -11   -1    0    0    0    0  0.00000000000E+00  0.00000000000E+00  0.45593999997E+02  0.45594000000E+02  0.51100000000E-03 0.  1.
         11   -1    0    0    0    0 -0.00000000000E+00 -0.00000000000E+00 -0.45593999997E+02  0.45594000000E+02  0.51100000000E-03 0. -1.
    9900012    2    1    2    0    0  0.23909466116E+02  0.22637974912E+02  0.28275133925E+02  0.47787266406E+02  0.19999978849E+02 0.  0.
         12    1    1    2    0    0 -0.23909466116E+02 -0.22637974912E+02 -0.28275133925E+02  0.43400733594E+02  0.00000000000E+00 0. -1.
         11    1    3    3    0    0  0.83989485819E+01  0.60341477321E+01  0.18098071276E+02  0.20844506718E+02  0.51100000000E-03 0.  1.
        -11    1    3    3    0    0  0.37459206562E+01 -0.95221211305E-01 -0.68206739169E+00  0.38087011998E+01  0.51100000000E-03 0. -1.
        -12    1    3    3    0    0  0.11764596878E+02  0.16699048391E+02  0.10859130040E+02  0.23134058488E+02  0.00000000000E+00 0.  1.
</event>
<event>
 7    1  0.1813014E-010  0.4778728E+02  0.7816164E-02  0.1312668E+00
        -11   -1    0    0    0    0  0.00000000000E+00  0.00000000000E+00  0.45593999997E+02  0.45594000000E+02  0.51100000000E-03 0. -1.
         11   -1    0    0    0    0 -0.00000000000E+00 -0.00000000000E+00 -0.45593999997E+02  0.45594000000E+02  0.51100000000E-03 0.  1.
    9900012    2    1    2    0    0 -0.29926610855E+02  0.31255282628E+02  0.33358880325E+01  0.47787275600E+02  0.20000020773E+02 0.  0.
         12    1    1    2    0    0  0.29926610855E+02 -0.31255282628E+02 -0.33358880325E+01  0.43400724400E+02  0.00000000000E+00 0. -1.
         11    1    3    3    0    0 -0.14401831013E+02  0.13368167996E+02 -0.41503184373E+01  0.20083470703E+02  0.51100000000E-03 0. -1.
        -11    1    3    3    0    0 -0.66472029269E+01  0.39530238065E+01 -0.28190310332E+01  0.82315636542E+01  0.51100000000E-03 0.  1.
         12    1    3    3    0    0 -0.88775769151E+01  0.13934090826E+02  0.10305237503E+02  0.19472241243E+02  0.00000000000E+00 0. -1.
</event>
<event>
 7    1  0.1813014E-010  0.4778727E+02  0.7816164E-02  0.1312668E+00
        -11   -1    0    0    0    0  0.00000000000E+00  0.00000000000E+00  0.45593999997E+02  0.45594000000E+02  0.51100000000E-03 0. -1.
         11   -1    0    0    0    0 -0.00000000000E+00 -0.00000000000E+00 -0.45593999997E+02  0.45594000000E+02  0.51100000000E-03 0.  1.
    9900012    2    1    2    0    0 -0.66307599220E+01  0.34053945392E+02 -0.26076523846E+02  0.47787271091E+02  0.20000000212E+02 0.  0.
         12    1    1    2    0    0  0.66307599220E+01 -0.34053945392E+02  0.26076523846E+02  0.43400728909E+02  0.00000000000E+00 0. -1.
         11    1    3    3    0    0 -0.44596530260E+01  0.88835586444E+01 -0.11757950773E+01  0.10009426239E+02  0.51100000000E-03 0. -1.
        -11    1    3    3    0    0  0.54750330855E+01  0.93463564921E+01 -0.97805695824E+01  0.14594173789E+02  0.51100000000E-03 0.  1.
         12    1    3    3    0    0 -0.76461399814E+01  0.15824030256E+02 -0.15120159186E+02  0.23183671063E+02  0.00000000000E+00 0. -1.
</event>
<event>
 7    1  0.1813014E-010  0.4778724E+02  0.7816164E-02  0.1312668E+00
        -11   -1    0    0    0    0  0.00000000000E+00  0.00000000000E+00  0.45593999997E+02  0.45594000000E+02  0.51100000000E-03 0.  1.
         11   -1    0    0    0    0 -0.00000000000E+00 -0.00000000000E+00 -0.45593999997E+02  0.45594000000E+02  0.51100000000E-03 0. -1.
    9900012    2    1    2    0    0 -0.25420360161E+02  0.34361689231E+02  0.75303319896E+01  0.47787236212E+02  0.19999841183E+02 0.  0.
         12    1    1    2    0    0  0.25420360161E+02 -0.34361689231E+02 -0.75303319896E+01  0.43400763788E+02  0.00000000000E+00 0. -1.
         11    1    3    3    0    0  0.13162906238E+01  0.71693091629E+00 -0.14330698496E+01  0.20737165669E+01  0.51100000000E-03 0. -1.
        -11    1    3    3    0    0 -0.12774489074E+02  0.25222666233E+02  0.33606871954E+01  0.28472173814E+02  0.51100000000E-03 0.  1.
        -12    1    3    3    0    0 -0.13962161711E+02  0.84220920813E+01  0.56027146438E+01  0.17241345831E+02  0.00000000000E+00 0.  1.
</event>
<event>
 7    1  0.1813014E-010  0.4778727E+02  0.7816164E-02  0.1312668E+00
        -11   -1    0    0    0    0  0.00000000000E+00  0.00000000000E+00  0.45593999997E+02  0.45594000000E+02  0.51100000000E-03 0.  1.
         11   -1    0    0    0    0 -0.00000000000E+00 -0.00000000000E+00 -0.45593999997E+02  0.45594000000E+02  0.51100000000E-03 0. -1.
    9900012    2    1    2    0    0  0.27472258059E+02  0.13078467305E+01  0.33573622111E+02  0.47787268122E+02  0.19999986674E+02 0.  0.
         12    1    1    2    0    0 -0.27472258059E+02 -0.13078467305E+01 -0.33573622111E+02  0.43400731878E+02  0.00000000000E+00 0. -1.
         11    1    3    3    0    0  0.12743193150E+02 -0.63636681325E+00  0.90894418211E+01  0.15665627573E+02  0.51100000000E-03 0.  1.
        -11    1    3    3    0    0  0.11594098701E+02  0.29319347377E+01  0.25911570284E+02  0.28538199678E+02  0.51100000000E-03 0. -1.
         12    1    3    3    0    0  0.31349662076E+01 -0.98772119393E+00 -0.14273899939E+01  0.35834408708E+01  0.00000000000E+00 0. -1.
</event>
<event>
 7    1  0.1813014E-010  0.4778733E+02  0.7816164E-02  0.1312667E+00
        -11   -1    0    0    0    0  0.00000000000E+00  0.00000000000E+00  0.45593999997E+02  0.45594000000E+02  0.51100000000E-03 0.  1.
         11   -1    0    0    0    0 -0.00000000000E+00 -0.00000000000E+00 -0.45593999997E+02  0.45594000000E+02  0.51100000000E-03 0. -1.
    9900012    2    1    2    0    0 -0.42492008919E+02 -0.83967513130E+01  0.27462510392E+01  0.47787330081E+02  0.20000269172E+02 0.  0.
         12    1    1    2    0    0  0.42492008919E+02  0.83967513130E+01 -0.27462510392E+01  0.43400669919E+02  0.00000000000E+00 0. -1.
         11    1    3    3    0    0 -0.15198096566E+02  0.29257987606E+00  0.83396322106E+01  0.17338316178E+02  0.51100000000E-03 0. -1.
        -11    1    3    3    0    0 -0.19904312123E+02 -0.21917495216E+01 -0.27939835501E+01  0.20218599145E+02  0.51100000000E-03 0.  1.
         12    1    3    3    0    0 -0.73896002306E+01 -0.64975816674E+01 -0.27993976213E+01  0.10230414759E+02  0.00000000000E+00 0. -1.
</event>
<event>
 7    1  0.1813014E-010  0.4778727E+02  0.7816164E-02  0.1312668E+00
        -11   -1    0    0    0    0  0.00000000000E+00  0.00000000000E+00  0.45593999997E+02  0.45594000000E+02  0.51100000000E-03 0. -1.
         11   -1    0    0    0    0 -0.00000000000E+00 -0.00000000000E+00 -0.45593999997E+02  0.45594000000E+02  0.51100000000E-03 0.  1.
    9900012    2    1    2    0    0 -0.29418578814E+02  0.31875615709E+02 -0.14544715230E+01  0.47787272544E+02  0.20000006836E+02 0.  0.
         12    1    1    2    0    0  0.29418578814E+02 -0.31875615709E+02  0.14544715230E+01  0.43400727456E+02  0.00000000000E+00 0. -1.
         11    1    3    3    0    0 -0.11973565344E+02  0.16924036910E+02 -0.32130059117E+01  0.20978863164E+02  0.51100000000E-03 0. -1.
        -11    1    3    3    0    0 -0.39232083526E+01  0.58129291253E+01 -0.55334094979E+01  0.89331030290E+01  0.51100000000E-03 0.  1.
         12    1    3    3    0    0 -0.13521805118E+02  0.91386496740E+01  0.72919438867E+01  0.17875306351E+02  0.00000000000E+00 0. -1.
</event>
<event>
 7    1  0.1813014E-010  0.4778727E+02  0.7816164E-02  0.1312668E+00
        -11   -1    0    0    0    0  0.00000000000E+00  0.00000000000E+00  0.45593999997E+02  0.45594000000E+02  0.51100000000E-03 0.  1.
         11   -1    0    0    0    0 -0.00000000000E+00 -0.00000000000E+00 -0.45593999997E+02  0.45594000000E+02  0.51100000000E-03 0. -1.
    9900012    2    1    2    0    0 -0.83579674366E+01  0.37983049900E+02  0.19262806275E+02  0.47787269534E+02  0.19999993112E+02 0.  0.
         12    1    1    2    0    0  0.83579674366E+01 -0.37983049900E+02 -0.19262806275E+02  0.43400730466E+02  0.00000000000E+00 0. -1.
         11    1    3    3    0    0  0.39852688289E+01  0.11263887882E+02  0.41143997668E+01  0.12636685624E+02  0.51100000000E-03 0. -1.
        -11    1    3    3    0    0 -0.28976765801E+01  0.50801019305E+01  0.90325207414E+01  0.10760594611E+02  0.51100000000E-03 0.  1.
        -12    1    3    3    0    0 -0.94455596855E+01  0.21639060088E+02  0.61158857670E+01  0.24389989298E+02  0.00000000000E+00 0.  1.
</event>
<event>
 7    1  0.1813014E-010  0.4778727E+02  0.7816164E-02  0.1312668E+00
        -11   -1    0    0    0    0  0.00000000000E+00  0.00000000000E+00  0.45593999997E+02  0.45594000000E+02  0.51100000000E-03 0. -1.
         11   -1    0    0    0    0 -0.00000000000E+00 -0.00000000000E+00 -0.45593999997E+02  0.45594000000E+02  0.51100000000E-03 0.  1.
    9900012    2    1    2    0    0  0.34632633098E+01 -0.42691012100E+02  0.70075967597E+01  0.47787272826E+02  0.20000008121E+02 0.  0.
         12    1    1    2    0    0 -0.34632633098E+01  0.42691012100E+02 -0.70075967597E+01  0.43400727174E+02  0.00000000000E+00 0. -1.
         11    1    3    3    0    0  0.14242717413E+01 -0.69674543125E+01  0.53760964249E+01  0.89149527548E+01  0.51100000000E-03 0. -1.
        -11    1    3    3    0    0  0.62298766021E+01 -0.27459116226E+02 -0.33437861700E+01  0.28354811455E+02  0.51100000000E-03 0.  1.
        -12    1    3    3    0    0 -0.41908850336E+01 -0.82644415614E+01  0.49752865048E+01  0.10517508616E+02  0.00000000000E+00 0.  1.
</event>
<event>
 7    1  0.1813014E-010  0.4778727E+02  0.7816164E-02  0.1312668E+00
        -11   -1    0    0    0    0  0.00000000000E+00  0.00000000000E+00  0.45593999997E+02  0.45594000000E+02  0.51100000000E-03 0.  1.
         11   -1    0    0    0    0 -0.00000000000E+00 -0.00000000000E+00 -0.45593999997E+02  0.45594000000E+02  0.51100000000E-03 0. -1.
    9900012    2    1    2    0    0  0.14423029263E+02 -0.81833728142E+01  0.40107749662E+02  0.47787274814E+02  0.20000017185E+02 0.  0.
         12    1    1    2    0    0 -0.14423029263E+02  0.81833728142E+01 -0.40107749662E+02  0.43400725186E+02  0.00000000000E+00 0. -1.
         11    1    3    3    0    0 -0.83170909790E+00 -0.64219562545E+01  0.14212044590E+02  0.15617793501E+02  0.51100000000E-03 0. -1.
        -11    1    3    3    0    0  0.74436778138E+01  0.11530300484E+01  0.21422504582E+02  0.22708181797E+02  0.51100000000E-03 0.  1.
         12    1    3    3    0    0  0.78110605468E+01 -0.29144466082E+01  0.44732004907E+01  0.94612995158E+01  0.00000000000E+00 0. -1.
</event>
<event>
 7    1  0.1813014E-010  0.4778727E+02  0.7816164E-02  0.1312668E+00
        -11   -1    0    0    0    0  0.00000000000E+00  0.00000000000E+00  0.45593999997E+02  0.45594000000E+02  0.51100000000E-03 0.  1.
         11   -1    0    0    0    0 -0.00000000000E+00 -0.00000000000E+00 -0.45593999997E+02  0.45594000000E+02  0.51100000000E-03 0. -1.
    9900012    2    1    2    0    0 -0.21496904337E+02 -0.22523423530E+02  0.30235765531E+02  0.47787273960E+02  0.20000013293E+02 0.  0.
         12    1    1    2    0    0  0.21496904337E+02  0.22523423530E+02 -0.30235765531E+02  0.43400726040E+02  0.00000000000E+00 0. -1.
         11    1    3    3    0    0 -0.18194558657E+02 -0.13412362218E+02  0.14763003663E+02  0.26997772175E+02  0.51100000000E-03 0. -1.
        -11    1    3    3    0    0 -0.39671691596E+01 -0.74768150401E+00  0.99695118798E+01  0.10755864733E+02  0.51100000000E-03 0.  1.
         12    1    3    3    0    0  0.66482347921E+00 -0.83633798079E+01  0.55032499880E+01  0.10033637052E+02  0.00000000000E+00 0. -1.
</event>
<event>
 7    1  0.1813014E-010  0.4778728E+02  0.7816164E-02  0.1312668E+00
        -11   -1    0    0    0    0  0.00000000000E+00  0.00000000000E+00  0.45593999997E+02  0.45594000000E+02  0.51100000000E-03 0.  1.
         11   -1    0    0    0    0 -0.00000000000E+00 -0.00000000000E+00 -0.45593999997E+02  0.45594000000E+02  0.51100000000E-03 0. -1.
    9900012    2    1    2    0    0 -0.42864047080E+02 -0.67386300674E+01  0.94183553968E+00  0.47787277408E+02  0.20000029016E+02 0.  0.
         12    1    1    2    0    0  0.42864047080E+02  0.67386300674E+01 -0.94183553968E+00  0.43400722592E+02  0.00000000000E+00 0. -1.
         11    1    3    3    0    0 -0.16090524157E+02  0.56139084453E+00 -0.22604563499E+01  0.16258222243E+02  0.51100000000E-03 0. -1.
        -11    1    3    3    0    0 -0.91458199835E+01 -0.16287374137E+01  0.81542173018E+01  0.12360827998E+02  0.51100000000E-03 0.  1.
        -12    1    3    3    0    0 -0.17627702940E+02 -0.56712834982E+01 -0.49519254122E+01  0.19168227168E+02  0.00000000000E+00 0.  1.
</event>
<event>
 7    1  0.1813014E-010  0.4778727E+02  0.7816164E-02  0.1312668E+00
        -11   -1    0    0    0    0  0.00000000000E+00  0.00000000000E+00  0.45593999997E+02  0.45594000000E+02  0.51100000000E-03 0.  1.
         11   -1    0    0    0    0 -0.00000000000E+00 -0.00000000000E+00 -0.45593999997E+02  0.45594000000E+02  0.51100000000E-03 0. -1.
    9900012    2    1    2    0    0 -0.22719770947E+02  0.23531462777E+02  0.28525520394E+02  0.47787273669E+02  0.20000011966E+02 0.  0.
         12    1    1    2    0    0  0.22719770947E+02 -0.23531462777E+02 -0.28525520394E+02  0.43400726331E+02  0.00000000000E+00 0. -1.
         11    1    3    3    0    0 -0.77976518621E+01 -0.33405705877E+00  0.33394697410E+01  0.84892300648E+01  0.51100000000E-03 0. -1.
        -11    1    3    3    0    0 -0.16384513918E+02  0.20092722357E+02  0.20138050513E+02  0.32828506923E+02  0.51100000000E-03 0.  1.
         12    1    3    3    0    0  0.14623948323E+01  0.37727974784E+01  0.50480001401E+01  0.64695366815E+01  0.00000000000E+00 0. -1.
</event>
<event>
 7    1  0.1813014E-010  0.4778727E+02  0.7816164E-02  0.1312668E+00
        -11   -1    0    0    0    0  0.00000000000E+00  0.00000000000E+00  0.45593999997E+02  0.45594000000E+02  0.51100000000E-03 0.  1.
         11   -1    0    0    0    0 -0.00000000000E+00 -0.00000000000E+00 -0.45593999997E+02  0.45594000000E+02  0.51100000000E-03 0. -1.
    9900012    2    1    2    0    0 -0.31718932565E+02 -0.77023074137E+01  0.28604315867E+02  0.47787272946E+02  0.20000008672E+02 0.  0.
         12    1    1    2    0    0  0.31718932565E+02  0.77023074137E+01 -0.28604315867E+02  0.43400727054E+02  0.00000000000E+00 0. -1.
         11    1    3    3    0    0 -0.11872993472E+01 -0.36343811912E+01 -0.81022253958E+00  0.39083074607E+01  0.51100000000E-03 0. -1.
        -11    1    3    3    0    0 -0.13440870801E+01  0.17564886718E+01  0.27940718037E+00  0.22293252716E+01  0.51100000000E-03 0.  1.
        -12    1    3    3    0    0 -0.29187546138E+02 -0.58244148943E+01  0.29135131226E+02  0.41649640214E+02  0.00000000000E+00 0.  1.
</event>
<event>
 7    1  0.1813014E-010  0.4778727E+02  0.7816164E-02  0.1312668E+00
        -11   -1    0    0    0    0  0.00000000000E+00  0.00000000000E+00  0.45593999997E+02  0.45594000000E+02  0.51100000000E-03 0.  1.
         11   -1    0    0    0    0 -0.00000000000E+00 -0.00000000000E+00 -0.45593999997E+02  0.45594000000E+02  0.51100000000E-03 0. -1.
    9900012    2    1    2    0    0  0.13185752890E+02  0.41341199475E+02 -0.81527497807E+00  0.47787268133E+02  0.19999986725E+02 0.  0.
         12    1    1    2    0    0 -0.13185752890E+02 -0.41341199475E+02  0.81527497807E+00  0.43400731867E+02  0.00000000000E+00 0. -1.
         11    1    3    3    0    0 -0.23438710229E+01  0.76311524442E+01 -0.39837474019E+01  0.89217970511E+01  0.51100000000E-03 0. -1.
        -11    1    3    3    0    0  0.91712958068E+01  0.82071711630E+01 -0.55311848541E+00  0.12319751036E+02  0.51100000000E-03 0.  1.
         12    1    3    3    0    0  0.63583281061E+01  0.25502875868E+02  0.37215909093E+01  0.26545720045E+02  0.00000000000E+00 0. -1.
</event>
<event>
 7    1  0.1813014E-010  0.4778727E+02  0.7816164E-02  0.1312668E+00
        -11   -1    0    0    0    0  0.00000000000E+00  0.00000000000E+00  0.45593999997E+02  0.45594000000E+02  0.51100000000E-03 0.  1.
         11   -1    0    0    0    0 -0.00000000000E+00 -0.00000000000E+00 -0.45593999997E+02  0.45594000000E+02  0.51100000000E-03 0. -1.
    9900012    2    1    2    0    0 -0.30245120477E+02 -0.66360522578E+01  0.30410830460E+02  0.47787272915E+02  0.20000008529E+02 0.  0.
         12    1    1    2    0    0  0.30245120477E+02  0.66360522578E+01 -0.30410830460E+02  0.43400727085E+02  0.00000000000E+00 0. -1.
         11    1    3    3    0    0 -0.15021426960E+02 -0.94789507026E+01  0.11195236493E+02  0.20995882805E+02  0.51100000000E-03 0. -1.
        -11    1    3    3    0    0 -0.16351838440E+02  0.11368601376E+01  0.18247694901E+02  0.24528624927E+02  0.51100000000E-03 0.  1.
        -12    1    3    3    0    0  0.11281449237E+01  0.17060383072E+01  0.96789906644E+00  0.22627651838E+01  0.00000000000E+00 0.  1.
</event>
<event>
 7    1  0.1813014E-010  0.4778727E+02  0.7816164E-02  0.1312668E+00
        -11   -1    0    0    0    0  0.00000000000E+00  0.00000000000E+00  0.45593999997E+02  0.45594000000E+02  0.51100000000E-03 0.  1.
         11   -1    0    0    0    0 -0.00000000000E+00 -0.00000000000E+00 -0.45593999997E+02  0.45594000000E+02  0.51100000000E-03 0. -1.
    9900012    2    1    2    0    0  0.10855395216E+02  0.33014557758E+02  0.25996586629E+02  0.47787272522E+02  0.20000006736E+02 0.  0.
         12    1    1    2    0    0 -0.10855395216E+02 -0.33014557758E+02 -0.25996586629E+02  0.43400727478E+02  0.00000000000E+00 0. -1.
         11    1    3    3    0    0 -0.15916885569E+01  0.74588280852E+01  0.13483874758E+02  0.15491367520E+02  0.51100000000E-03 0.  1.
        -11    1    3    3    0    0  0.45150248146E+01  0.73123171248E+01 -0.35929962058E+00  0.86014258869E+01  0.51100000000E-03 0. -1.
        -12    1    3    3    0    0  0.79320589584E+01  0.18243412548E+02  0.12872011492E+02  0.23694479115E+02  0.00000000000E+00 0.  1.
</event>
<event>
 7    1  0.1813014E-010  0.4778730E+02  0.7816164E-02  0.1312668E+00
        -11   -1    0    0    0    0  0.00000000000E+00  0.00000000000E+00  0.45593999997E+02  0.45594000000E+02  0.51100000000E-03 0.  1.
         11   -1    0    0    0    0 -0.00000000000E+00 -0.00000000000E+00 -0.45593999997E+02  0.45594000000E+02  0.51100000000E-03 0. -1.
    9900012    2    1    2    0    0  0.10215887888E+02 -0.28107685181E+02  0.31451778173E+02  0.47787300907E+02  0.20000136153E+02 0.  0.
         12    1    1    2    0    0 -0.10215887888E+02  0.28107685181E+02 -0.31451778173E+02  0.43400699093E+02  0.00000000000E+00 0. -1.
         11    1    3    3    0    0 -0.51528730547E+00  0.43633024118E+00  0.17445696316E+00  0.69738122979E+00  0.51100000000E-03 0. -1.
        -11    1    3    3    0    0  0.81240782751E+01 -0.28735605476E+01  0.38657307279E+01  0.94446742857E+01  0.51100000000E-03 0.  1.
         12    1    3    3    0    0  0.26070969179E+01 -0.25670454875E+02  0.27411590481E+02  0.37645245391E+02  0.00000000000E+00 0. -1.
</event>
<event>
 7    1  0.1813014E-010  0.4778727E+02  0.7816164E-02  0.1312668E+00
        -11   -1    0    0    0    0  0.00000000000E+00  0.00000000000E+00  0.45593999997E+02  0.45594000000E+02  0.51100000000E-03 0.  1.
         11   -1    0    0    0    0 -0.00000000000E+00 -0.00000000000E+00 -0.45593999997E+02  0.45594000000E+02  0.51100000000E-03 0. -1.
    9900012    2    1    2    0    0  0.24452996369E+01  0.26936035437E+02  0.33942507132E+02  0.47787270907E+02  0.19999999374E+02 0.  0.
         12    1    1    2    0    0 -0.24452996369E+01 -0.26936035437E+02 -0.33942507132E+02  0.43400729093E+02  0.00000000000E+00 0. -1.
         11    1    3    3    0    0 -0.10913865948E+01  0.10700892015E+02  0.79005132402E+01  0.13346097719E+02  0.51100000000E-03 0. -1.
        -11    1    3    3    0    0  0.18619627236E+01 -0.21614764990E+01  0.85017658415E+01  0.89676590326E+01  0.51100000000E-03 0.  1.
        -12    1    3    3    0    0  0.16747235081E+01  0.18396619921E+02  0.17540228051E+02  0.25473514155E+02  0.00000000000E+00 0.  1.
</event>
<event>
 7    1  0.1813014E-010  0.4778727E+02  0.7816164E-02  0.1312668E+00
        -11   -1    0    0    0    0  0.00000000000E+00  0.00000000000E+00  0.45593999997E+02  0.45594000000E+02  0.51100000000E-03 0.  1.
         11   -1    0    0    0    0 -0.00000000000E+00 -0.00000000000E+00 -0.45593999997E+02  0.45594000000E+02  0.51100000000E-03 0. -1.
    9900012    2    1    2    0    0  0.27211771977E+01  0.43299705057E+02  0.11635757138E+01  0.47787272221E+02  0.20000005363E+02 0.  0.
         12    1    1    2    0    0 -0.27211771977E+01 -0.43299705057E+02 -0.11635757138E+01  0.43400727779E+02  0.00000000000E+00 0. -1.
         11    1    3    3    0    0  0.31213168104E+01  0.18872094737E+02 -0.16066052939E+01  0.19195826610E+02  0.51100000000E-03 0. -1.
        -11    1    3    3    0    0 -0.20125674290E+01  0.25952342670E+02  0.15919771063E+01  0.26078897774E+02  0.51100000000E-03 0.  1.
         12    1    3    3    0    0  0.16124278163E+01 -0.15247323503E+01  0.11782039014E+01  0.25125478375E+01  0.00000000000E+00 0. -1.
</event>
<event>
 7    1  0.1813014E-010  0.4778727E+02  0.7816164E-02  0.1312668E+00
        -11   -1    0    0    0    0  0.00000000000E+00  0.00000000000E+00  0.45593999997E+02  0.45594000000E+02  0.51100000000E-03 0.  1.
         11   -1    0    0    0    0 -0.00000000000E+00 -0.00000000000E+00 -0.45593999997E+02  0.45594000000E+02  0.51100000000E-03 0. -1.
    9900012    2    1    2    0    0  0.19593023057E+02 -0.58940364255E+01  0.38275279532E+02  0.47787271421E+02  0.20000001718E+02 0.  0.
         12    1    1    2    0    0 -0.19593023057E+02  0.58940364255E+01 -0.38275279532E+02  0.43400728579E+02  0.00000000000E+00 0. -1.
         11    1    3    3    0    0 -0.32119891142E+01 -0.37933859526E+01  0.43018879886E+01  0.65736513129E+01  0.51100000000E-03 0. -1.
        -11    1    3    3    0    0  0.65707712532E+01 -0.10747243668E+01  0.13605607611E+02  0.15147363666E+02  0.51100000000E-03 0.  1.
         12    1    3    3    0    0  0.16234240918E+02 -0.10259261062E+01  0.20367783933E+02  0.26066256442E+02  0.00000000000E+00 0. -1.
</event>
<event>
 7    1  0.1813014E-010  0.4778727E+02  0.7816164E-02  0.1312668E+00
        -11   -1    0    0    0    0  0.00000000000E+00  0.00000000000E+00  0.45593999997E+02  0.45594000000E+02  0.51100000000E-03 0. -1.
         11   -1    0    0    0    0 -0.00000000000E+00 -0.00000000000E+00 -0.45593999997E+02  0.45594000000E+02  0.51100000000E-03 0.  1.
    9900012    2    1    2    0    0  0.22874912303E+02  0.36521852882E+02 -0.51493655886E+01  0.47787270550E+02  0.19999997747E+02 0.  0.
         12    1    1    2    0    0 -0.22874912303E+02 -0.36521852882E+02  0.51493655886E+01  0.43400729450E+02  0.00000000000E+00 0. -1.
         11    1    3    3    0    0  0.47740111492E+01  0.18224807812E+02 -0.81156507407E+01  0.20513375867E+02  0.51100000000E-03 0. -1.
        -11    1    3    3    0    0  0.48635118531E+01  0.96194609503E+01  0.37859297035E+01  0.11424580539E+02  0.51100000000E-03 0.  1.
        -12    1    3    3    0    0  0.13237389301E+02  0.86775841194E+01 -0.81964455132E+00  0.15849314144E+02  0.00000000000E+00 0.  1.
</event>
<event>
 7    1  0.1813014E-010  0.4778727E+02  0.7816164E-02  0.1312668E+00
        -11   -1    0    0    0    0  0.00000000000E+00  0.00000000000E+00  0.45593999997E+02  0.45594000000E+02  0.51100000000E-03 0.  1.
         11   -1    0    0    0    0 -0.00000000000E+00 -0.00000000000E+00 -0.45593999997E+02  0.45594000000E+02  0.51100000000E-03 0. -1.
    9900012    2    1    2    0    0 -0.40591253898E+02 -0.15243896614E+02 -0.18966406126E+01  0.47787268178E+02  0.19999986933E+02 0.  0.
         12    1    1    2    0    0  0.40591253898E+02  0.15243896614E+02  0.18966406126E+01  0.43400731822E+02  0.00000000000E+00 0. -1.
         11    1    3    3    0    0 -0.10730234164E+02 -0.96620311844E+01  0.35617081244E+01  0.14872072379E+02  0.51100000000E-03 0. -1.
        -11    1    3    3    0    0 -0.23626511553E+02 -0.89561609890E+01 -0.31657072082E+01  0.25464614079E+02  0.51100000000E-03 0.  1.
        -12    1    3    3    0    0 -0.62345081814E+01  0.33742955593E+01 -0.22926415288E+01  0.74505817199E+01  0.00000000000E+00 0.  1.
</event>
<event>
 7    1  0.1813014E-010  0.4778728E+02  0.7816164E-02  0.1312668E+00
        -11   -1    0    0    0    0  0.00000000000E+00  0.00000000000E+00  0.45593999997E+02  0.45594000000E+02  0.51100000000E-03 0.  1.
         11   -1    0    0    0    0 -0.00000000000E+00 -0.00000000000E+00 -0.45593999997E+02  0.45594000000E+02  0.51100000000E-03 0. -1.
    9900012    2    1    2    0    0 -0.12966871924E+02  0.14013769438E+02  0.38975599279E+02  0.47787276037E+02  0.20000022764E+02 0.  0.
         12    1    1    2    0    0  0.12966871924E+02 -0.14013769438E+02 -0.38975599279E+02  0.43400723963E+02  0.00000000000E+00 0. -1.
         11    1    3    3    0    0 -0.22473912217E+01  0.97020276435E+01  0.12442961029E+02  0.15937609204E+02  0.51100000000E-03 0. -1.
        -11    1    3    3    0    0  0.29162136382E+01  0.18579293526E+01  0.31871605475E+01  0.47025733465E+01  0.51100000000E-03 0.  1.
         12    1    3    3    0    0 -0.13635694340E+02  0.24538124417E+01  0.23345477702E+02  0.27147093487E+02  0.00000000000E+00 0. -1.
</event>
<event>
 7    1  0.1813014E-010  0.4778726E+02  0.7816164E-02  0.1312668E+00
        -11   -1    0    0    0    0  0.00000000000E+00  0.00000000000E+00  0.45593999997E+02  0.45594000000E+02  0.51100000000E-03 0.  1.
         11   -1    0    0    0    0 -0.00000000000E+00 -0.00000000000E+00 -0.45593999997E+02  0.45594000000E+02  0.51100000000E-03 0. -1.
    9900012    2    1    2    0    0 -0.32016548853E+02  0.99634701080E+01  0.27555289394E+02  0.47787261405E+02  0.19999956049E+02 0.  0.
         12    1    1    2    0    0  0.32016548853E+02 -0.99634701080E+01 -0.27555289394E+02  0.43400738595E+02  0.00000000000E+00 0. -1.
         11    1    3    3    0    0 -0.12255972533E+01  0.23331856217E+01  0.90063086140E+01  0.93839990880E+01  0.51100000000E-03 0. -1.
        -11    1    3    3    0    0 -0.20567278188E+02  0.99259527152E+01  0.15075253907E+02  0.27364223907E+02  0.51100000000E-03 0.  1.
         12    1    3    3    0    0 -0.10223673411E+02 -0.22956682289E+01  0.34737268724E+01  0.11039038410E+02  0.00000000000E+00 0. -1.
</event>
<event>
 7    1  0.1813014E-010  0.4778728E+02  0.7816164E-02  0.1312668E+00
        -11   -1    0    0    0    0  0.00000000000E+00  0.00000000000E+00  0.45593999997E+02  0.45594000000E+02  0.51100000000E-03 0. -1.
         11   -1    0    0    0    0 -0.00000000000E+00 -0.00000000000E+00 -0.45593999997E+02  0.45594000000E+02  0.51100000000E-03 0.  1.
    9900012    2    1    2    0    0 -0.26011557542E+02 -0.96570055062E+01 -0.33373101739E+02  0.47787276495E+02  0.20000024850E+02 0.  0.
         12    1    1    2    0    0  0.26011557542E+02  0.96570055062E+01  0.33373101739E+02  0.43400723505E+02  0.00000000000E+00 0. -1.
         11    1    3    3    0    0 -0.11466435855E+01  0.19410182788E+01 -0.79633471240E+01  0.82763060087E+01  0.51100000000E-03 0. -1.
        -11    1    3    3    0    0 -0.71753866817E+01 -0.68153065762E+01 -0.16245807078E+02  0.19022639818E+02  0.51100000000E-03 0.  1.
        -12    1    3    3    0    0 -0.17689527275E+02 -0.47827172089E+01 -0.91639475370E+01  0.20488330668E+02  0.00000000000E+00 0.  1.
</event>
<event>
 7    1  0.1813014E-010  0.4778727E+02  0.7816164E-02  0.1312668E+00
        -11   -1    0    0    0    0  0.00000000000E+00  0.00000000000E+00  0.45593999997E+02  0.45594000000E+02  0.51100000000E-03 0. -1.
         11   -1    0    0    0    0 -0.00000000000E+00 -0.00000000000E+00 -0.45593999997E+02  0.45594000000E+02  0.51100000000E-03 0.  1.
    9900012    2    1    2    0    0 -0.18463436623E+02 -0.34251271555E+02 -0.19224338197E+02  0.47787271041E+02  0.19999999984E+02 0.  0.
         12    1    1    2    0    0  0.18463436623E+02  0.34251271555E+02  0.19224338197E+02  0.43400728959E+02  0.00000000000E+00 0. -1.
         11    1    3    3    0    0 -0.59018353337E+01 -0.79127061535E+01  0.50581375832E+00  0.98842514536E+01  0.51100000000E-03 0. -1.
        -11    1    3    3    0    0  0.10178798635E+01 -0.11678924024E+02 -0.11072144755E+02  0.16125313501E+02  0.51100000000E-03 0.  1.
         12    1    3    3    0    0 -0.13579481153E+02 -0.14659641377E+02 -0.86580072000E+01  0.21777706086E+02  0.00000000000E+00 0. -1.
</event>
<event>
 7    1  0.1813014E-010  0.4778727E+02  0.7816164E-02  0.1312668E+00
        -11   -1    0    0    0    0  0.00000000000E+00  0.00000000000E+00  0.45593999997E+02  0.45594000000E+02  0.51100000000E-03 0.  1.
         11   -1    0    0    0    0 -0.00000000000E+00 -0.00000000000E+00 -0.45593999997E+02  0.45594000000E+02  0.51100000000E-03 0. -1.
    9900012    2    1    2    0    0  0.23024246529E+02 -0.28638119030E+02  0.23094707582E+02  0.47787270650E+02  0.19999998202E+02 0.  0.
         12    1    1    2    0    0 -0.23024246529E+02  0.28638119030E+02 -0.23094707582E+02  0.43400729350E+02  0.00000000000E+00 0. -1.
         11    1    3    3    0    0  0.11894177231E+02 -0.12006244256E+02  0.11595792356E+02  0.20495944813E+02  0.51100000000E-03 0. -1.
        -11    1    3    3    0    0  0.12042226230E+02 -0.13412018201E+02  0.14235442556E+02  0.22968353659E+02  0.51100000000E-03 0.  1.
         12    1    3    3    0    0 -0.91215693230E+00 -0.32198565733E+01 -0.27365273302E+01  0.43229721778E+01  0.00000000000E+00 0. -1.
</event>
<event>
 7    1  0.1813014E-010  0.4778727E+02  0.7816164E-02  0.1312668E+00
        -11   -1    0    0    0    0  0.00000000000E+00  0.00000000000E+00  0.45593999997E+02  0.45594000000E+02  0.51100000000E-03 0. -1.
         11   -1    0    0    0    0 -0.00000000000E+00 -0.00000000000E+00 -0.45593999997E+02  0.45594000000E+02  0.51100000000E-03 0.  1.
    9900012    2    1    2    0    0 -0.79889824669E+01  0.17264039979E+02  0.39009644878E+02  0.47787270620E+02  0.19999998064E+02 0.  0.
         12    1    1    2    0    0  0.79889824669E+01 -0.17264039979E+02 -0.39009644878E+02  0.43400729380E+02  0.00000000000E+00 0. -1.
         11    1    3    3    0    0  0.12452880043E+01  0.97227794513E+01  0.10549951236E+02  0.14400856010E+02  0.51100000000E-03 0.  1.
        -11    1    3    3    0    0 -0.70864228620E+01  0.54599021009E-01  0.50144730370E+01  0.86813196078E+01  0.51100000000E-03 0. -1.
         12    1    3    3    0    0 -0.21478476092E+01  0.74866615062E+01  0.23445220604E+02  0.24705095002E+02  0.00000000000E+00 0. -1.
</event>
<event>
 7    1  0.1813014E-010  0.4778727E+02  0.7816164E-02  0.1312668E+00
        -11   -1    0    0    0    0  0.00000000000E+00  0.00000000000E+00  0.45593999997E+02  0.45594000000E+02  0.51100000000E-03 0.  1.
         11   -1    0    0    0    0 -0.00000000000E+00 -0.00000000000E+00 -0.45593999997E+02  0.45594000000E+02  0.51100000000E-03 0. -1.
    9900012    2    1    2    0    0 -0.27477843257E+01  0.37777671592E+02  0.21187744899E+02  0.47787270472E+02  0.19999997390E+02 0.  0.
         12    1    1    2    0    0  0.27477843257E+01 -0.37777671592E+02 -0.21187744899E+02  0.43400729528E+02  0.00000000000E+00 0. -1.
         11    1    3    3    0    0 -0.72370951382E+01  0.28928845451E+02  0.84536398264E+01  0.30995445984E+02  0.51100000000E-03 0. -1.
        -11    1    3    3    0    0  0.16225967866E+01  0.75943689092E+01  0.97830638966E+01  0.12490620438E+02  0.51100000000E-03 0.  1.
         12    1    3    3    0    0  0.28667140259E+01  0.12544572316E+01  0.29510411763E+01  0.43012040496E+01  0.00000000000E+00 0. -1.
</event>
<event>
 7    1  0.1813014E-010  0.4778724E+02  0.7816164E-02  0.1312668E+00
        -11   -1    0    0    0    0  0.00000000000E+00  0.00000000000E+00  0.45593999997E+02  0.45594000000E+02  0.51100000000E-03 0.  1.
         11   -1    0    0    0    0 -0.00000000000E+00 -0.00000000000E+00 -0.45593999997E+02  0.45594000000E+02  0.51100000000E-03 0. -1.
    9900012    2    1    2    0    0 -0.33829030950E+02 -0.10803138926E+02  0.24950243370E+02  0.47787242059E+02  0.19999867843E+02 0.  0.
         12    1    1    2    0    0  0.33829030950E+02  0.10803138926E+02 -0.24950243370E+02  0.43400757941E+02  0.00000000000E+00 0. -1.
         11    1    3    3    0    0 -0.97383472637E+00  0.26293893268E+01 -0.11675855828E+01  0.30373176753E+01  0.51100000000E-03 0. -1.
        -11    1    3    3    0    0 -0.34160142147E+01  0.61269928827E+00  0.10942860991E+01  0.36389580735E+01  0.51100000000E-03 0.  1.
        -12    1    3    3    0    0 -0.29439182009E+02 -0.14045227541E+02  0.25023542853E+02  0.41110966310E+02  0.00000000000E+00 0.  1.
</event>
<event>
 7    1  0.1813014E-010  0.4778727E+02  0.7816164E-02  0.1312668E+00
        -11   -1    0    0    0    0  0.00000000000E+00  0.00000000000E+00  0.45593999997E+02  0.45594000000E+02  0.51100000000E-03 0.  1.
         11   -1    0    0    0    0 -0.00000000000E+00 -0.00000000000E+00 -0.45593999997E+02  0.45594000000E+02  0.51100000000E-03 0. -1.
    9900012    2    1    2    0    0 -0.94634749132E+01  0.28120948618E+02  0.31674565199E+02  0.47787272020E+02  0.20000004450E+02 0.  0.
         12    1    1    2    0    0  0.94634749132E+01 -0.28120948618E+02 -0.31674565199E+02  0.43400727980E+02  0.00000000000E+00 0. -1.
         11    1    3    3    0    0 -0.95766225189E+01  0.69085225904E+01  0.49825565248E+01  0.12816600682E+02  0.51100000000E-03 0. -1.
        -11    1    3    3    0    0 -0.49527466180E+00  0.41864849953E+01  0.11109325829E+02  0.11882300882E+02  0.51100000000E-03 0.  1.
        -12    1    3    3    0    0  0.60842226755E+00  0.17025941033E+02  0.15582682845E+02  0.23088370457E+02  0.00000000000E+00 0.  1.
</event>
<event>
 7    1  0.1813014E-010  0.4778728E+02  0.7816164E-02  0.1312668E+00
        -11   -1    0    0    0    0  0.00000000000E+00  0.00000000000E+00  0.45593999997E+02  0.45594000000E+02  0.51100000000E-03 0. -1.
         11   -1    0    0    0    0 -0.00000000000E+00 -0.00000000000E+00 -0.45593999997E+02  0.45594000000E+02  0.51100000000E-03 0.  1.
    9900012    2    1    2    0    0 -0.74239731165E+01  0.41764621518E+02 -0.91773202590E+01  0.47787283479E+02  0.20000056695E+02 0.  0.
         12    1    1    2    0    0  0.74239731165E+01 -0.41764621518E+02  0.91773202590E+01  0.43400716521E+02  0.00000000000E+00 0. -1.
         11    1    3    3    0    0  0.10048570441E+01 -0.10037406613E+01  0.10608115957E+01  0.17727251611E+01  0.51100000000E-03 0. -1.
        -11    1    3    3    0    0  0.21238535864E+01  0.73124127323E+01 -0.36314954184E+01  0.84362250598E+01  0.51100000000E-03 0.  1.
        -12    1    3    3    0    0 -0.10552683747E+02  0.35455949447E+02 -0.66066364363E+01  0.37578333258E+02  0.00000000000E+00 0.  1.
</event>
<event>
 7    1  0.1813014E-010  0.4778728E+02  0.7816164E-02  0.1312668E+00
        -11   -1    0    0    0    0  0.00000000000E+00  0.00000000000E+00  0.45593999997E+02  0.45594000000E+02  0.51100000000E-03 0. -1.
         11   -1    0    0    0    0 -0.00000000000E+00 -0.00000000000E+00 -0.45593999997E+02  0.45594000000E+02  0.51100000000E-03 0.  1.
    9900012    2    1    2    0    0  0.17865211570E+02  0.84763731420E+01  0.38634288426E+02  0.47787275026E+02  0.20000018152E+02 0.  0.
         12    1    1    2    0    0 -0.17865211570E+02 -0.84763731420E+01 -0.38634288426E+02  0.43400724974E+02  0.00000000000E+00 0. -1.
         11    1    3    3    0    0  0.47438586261E+01  0.72523580676E+01  0.21829463199E+02  0.23486727231E+02  0.51100000000E-03 0. -1.
        -11    1    3    3    0    0  0.46078291791E+01  0.43581843126E+01  0.15133478213E+01  0.65204357320E+01  0.51100000000E-03 0.  1.
         12    1    3    3    0    0  0.85135237646E+01 -0.31341692382E+01  0.15291477406E+02  0.17780112063E+02  0.00000000000E+00 0. -1.
</event>
<event>
 7    1  0.1813014E-010  0.4778727E+02  0.7816164E-02  0.1312668E+00
        -11   -1    0    0    0    0  0.00000000000E+00  0.00000000000E+00  0.45593999997E+02  0.45594000000E+02  0.51100000000E-03 0. -1.
         11   -1    0    0    0    0 -0.00000000000E+00 -0.00000000000E+00 -0.45593999997E+02  0.45594000000E+02  0.51100000000E-03 0.  1.
    9900012    2    1    2    0    0  0.21083091361E+02  0.16411004046E+02 -0.34202424424E+02  0.47787266923E+02  0.19999981209E+02 0.  0.
         12    1    1    2    0    0 -0.21083091361E+02 -0.16411004046E+02  0.34202424424E+02  0.43400733077E+02  0.00000000000E+00 0. -1.
         11    1    3    3    0    0  0.53024157428E+01 -0.44077001958E+01 -0.70406806305E+01  0.98546749174E+01  0.51100000000E-03 0.  1.
        -11    1    3    3    0    0  0.66801528211E+01  0.82736022582E+01 -0.81119665080E+01  0.13374637824E+02  0.51100000000E-03 0. -1.
        -12    1    3    3    0    0  0.91005227969E+01  0.12545101983E+02 -0.19049777286E+02  0.24557954182E+02  0.00000000000E+00 0.  1.
</event>
<event>
 7    1  0.1813014E-010  0.4778727E+02  0.7816164E-02  0.1312668E+00
        -11   -1    0    0    0    0  0.00000000000E+00  0.00000000000E+00  0.45593999997E+02  0.45594000000E+02  0.51100000000E-03 0.  1.
         11   -1    0    0    0    0 -0.00000000000E+00 -0.00000000000E+00 -0.45593999997E+02  0.45594000000E+02  0.51100000000E-03 0. -1.
    9900012    2    1    2    0    0  0.33499230291E+02 -0.14969304477E+02  0.23180693895E+02  0.47787273323E+02  0.20000010390E+02 0.  0.
         12    1    1    2    0    0 -0.33499230291E+02  0.14969304477E+02 -0.23180693895E+02  0.43400726677E+02  0.00000000000E+00 0. -1.
         11    1    3    3    0    0  0.29047079549E+01  0.38380137558E+01  0.26586962413E+01  0.54987583923E+01  0.51100000000E-03 0. -1.
        -11    1    3    3    0    0  0.10822943705E+02 -0.73750325889E+01  0.12436077905E+02  0.18060544013E+02  0.51100000000E-03 0.  1.
         12    1    3    3    0    0  0.19771578631E+02 -0.11432285644E+02  0.80859197487E+01  0.24227970918E+02  0.00000000000E+00 0. -1.
</event>
<event>
 7    1  0.1813014E-010  0.4778727E+02  0.7816164E-02  0.1312668E+00
        -11   -1    0    0    0    0  0.00000000000E+00  0.00000000000E+00  0.45593999997E+02  0.45594000000E+02  0.51100000000E-03 0.  1.
         11   -1    0    0    0    0 -0.00000000000E+00 -0.00000000000E+00 -0.45593999997E+02  0.45594000000E+02  0.51100000000E-03 0. -1.
    9900012    2    1    2    0    0  0.35967035465E+02  0.23824416304E+02  0.47321199783E+01  0.47787269455E+02  0.19999992751E+02 0.  0.
         12    1    1    2    0    0 -0.35967035465E+02 -0.23824416304E+02 -0.47321199783E+01  0.43400730545E+02  0.00000000000E+00 0. -1.
         11    1    3    3    0    0  0.13759065391E+02  0.39349730129E+01 -0.27714593475E+01  0.14576586714E+02  0.51100000000E-03 0. -1.
        -11    1    3    3    0    0  0.16777793026E+02  0.99876544574E+01  0.95464838541E+01  0.21734372193E+02  0.51100000000E-03 0.  1.
         12    1    3    3    0    0  0.54301770479E+01  0.99017888333E+01 -0.20429045283E+01  0.11476310548E+02  0.00000000000E+00 0. -1.
</event>
<event>
 7    1  0.1813014E-010  0.4778728E+02  0.7816164E-02  0.1312668E+00
        -11   -1    0    0    0    0  0.00000000000E+00  0.00000000000E+00  0.45593999997E+02  0.45594000000E+02  0.51100000000E-03 0. -1.
         11   -1    0    0    0    0 -0.00000000000E+00 -0.00000000000E+00 -0.45593999997E+02  0.45594000000E+02  0.51100000000E-03 0.  1.
    9900012    2    1    2    0    0 -0.10605835600E+02 -0.39857484244E+02 -0.13510000738E+02  0.47787275133E+02  0.20000018641E+02 0.  0.
         12    1    1    2    0    0  0.10605835600E+02  0.39857484244E+02  0.13510000738E+02  0.43400724867E+02  0.00000000000E+00 0. -1.
         11    1    3    3    0    0 -0.29668466287E+01 -0.67008781108E+01  0.37749213974E+01  0.82434202969E+01  0.51100000000E-03 0. -1.
        -11    1    3    3    0    0  0.91284983852E+00 -0.18281467791E+02 -0.74124112933E+01  0.19748144239E+02  0.51100000000E-03 0.  1.
        -12    1    3    3    0    0 -0.85518388098E+01 -0.14875138342E+02 -0.98725108419E+01  0.19795710597E+02  0.00000000000E+00 0.  1.
</event>
<event>
 7    1  0.1813014E-010  0.4778727E+02  0.7816164E-02  0.1312668E+00
        -11   -1    0    0    0    0  0.00000000000E+00  0.00000000000E+00  0.45593999997E+02  0.45594000000E+02  0.51100000000E-03 0.  1.
         11   -1    0    0    0    0 -0.00000000000E+00 -0.00000000000E+00 -0.45593999997E+02  0.45594000000E+02  0.51100000000E-03 0. -1.
    9900012    2    1    2    0    0  0.93780308908E+01  0.41930166418E+02 -0.61267541566E+01  0.47787269179E+02  0.19999991496E+02 0.  0.
         12    1    1    2    0    0 -0.93780308908E+01 -0.41930166418E+02  0.61267541566E+01  0.43400730821E+02  0.00000000000E+00 0. -1.
         11    1    3    3    0    0  0.51714103638E+01  0.10954786334E+02 -0.44581054152E+01  0.12908351286E+02  0.51100000000E-03 0. -1.
        -11    1    3    3    0    0  0.90320213738E+01  0.27338721762E+02 -0.11648824775E+01  0.28815621963E+02  0.51100000000E-03 0.  1.
         12    1    3    3    0    0 -0.48254008467E+01  0.36366583226E+01 -0.50376626401E+00  0.60632959301E+01  0.00000000000E+00 0. -1.
</event>
<event>
 7    1  0.1813014E-010  0.4778728E+02  0.7816164E-02  0.1312668E+00
        -11   -1    0    0    0    0  0.00000000000E+00  0.00000000000E+00  0.45593999997E+02  0.45594000000E+02  0.51100000000E-03 0.  1.
         11   -1    0    0    0    0 -0.00000000000E+00 -0.00000000000E+00 -0.45593999997E+02  0.45594000000E+02  0.51100000000E-03 0. -1.
    9900012    2    1    2    0    0  0.13480184763E+02 -0.95253029401E+01  0.40139448954E+02  0.47787284111E+02  0.20000059575E+02 0.  0.
         12    1    1    2    0    0 -0.13480184763E+02  0.95253029401E+01 -0.40139448954E+02  0.43400715889E+02  0.00000000000E+00 0. -1.
         11    1    3    3    0    0  0.31749337735E+00 -0.33843503742E+01  0.65432225138E+00  0.34616134056E+01  0.51100000000E-03 0. -1.
        -11    1    3    3    0    0  0.74615732433E+01 -0.54922602462E+01  0.77588226674E+01  0.12084673240E+02  0.51100000000E-03 0.  1.
        -12    1    3    3    0    0  0.57011181424E+01 -0.64869231975E+00  0.31726304035E+02  0.32240997465E+02  0.00000000000E+00 0.  1.
</event>
<event>
 7    1  0.1813014E-010  0.4778726E+02  0.7816164E-02  0.1312668E+00
        -11   -1    0    0    0    0  0.00000000000E+00  0.00000000000E+00  0.45593999997E+02  0.45594000000E+02  0.51100000000E-03 0.  1.
         11   -1    0    0    0    0 -0.00000000000E+00 -0.00000000000E+00 -0.45593999997E+02  0.45594000000E+02  0.51100000000E-03 0. -1.
    9900012    2    1    2    0    0  0.24692435186E+02  0.32335602245E+02  0.15110154824E+02  0.47787259145E+02  0.19999945745E+02 0.  0.
         12    1    1    2    0    0 -0.24692435186E+02 -0.32335602245E+02 -0.15110154824E+02  0.43400740855E+02  0.00000000000E+00 0. -1.
         11    1    3    3    0    0  0.10296220305E+01  0.38136386006E+01 -0.32178284999E+01  0.50949368413E+01  0.51100000000E-03 0. -1.
        -11    1    3    3    0    0 -0.47049752992E+00 -0.46634903634E+00  0.96053001402E+00  0.11668194026E+01  0.51100000000E-03 0.  1.
        -12    1    3    3    0    0  0.24133310686E+02  0.28988312681E+02  0.17367453309E+02  0.41525502901E+02  0.00000000000E+00 0.  1.
</event>
<event>
 7    1  0.1813014E-010  0.4778727E+02  0.7816164E-02  0.1312668E+00
        -11   -1    0    0    0    0  0.00000000000E+00  0.00000000000E+00  0.45593999997E+02  0.45594000000E+02  0.51100000000E-03 0. -1.
         11   -1    0    0    0    0 -0.00000000000E+00 -0.00000000000E+00 -0.45593999997E+02  0.45594000000E+02  0.51100000000E-03 0.  1.
    9900012    2    1    2    0    0  0.18966909014E+02 -0.38599184531E+02 -0.58294770262E+01  0.47787268596E+02  0.19999988837E+02 0.  0.
         12    1    1    2    0    0 -0.18966909014E+02  0.38599184531E+02  0.58294770262E+01  0.43400731404E+02  0.00000000000E+00 0. -1.
         11    1    3    3    0    0  0.12060605209E+01 -0.15396941191E+01  0.33905182506E+01  0.39141862793E+01  0.51100000000E-03 0. -1.
        -11    1    3    3    0    0  0.92644110841E+01 -0.20233277486E+02 -0.11212152195E+02  0.24918410616E+02  0.51100000000E-03 0.  1.
         12    1    3    3    0    0  0.84964374089E+01 -0.16826212926E+02  0.19921569178E+01  0.18954671700E+02  0.00000000000E+00 0. -1.
</event>
<event>
 7    1  0.1813014E-010  0.4778727E+02  0.7816164E-02  0.1312668E+00
        -11   -1    0    0    0    0  0.00000000000E+00  0.00000000000E+00  0.45593999997E+02  0.45594000000E+02  0.51100000000E-03 0.  1.
         11   -1    0    0    0    0 -0.00000000000E+00 -0.00000000000E+00 -0.45593999997E+02  0.45594000000E+02  0.51100000000E-03 0. -1.
    9900012    2    1    2    0    0 -0.19711801733E+01  0.25743429484E+02  0.34885723423E+02  0.47787269458E+02  0.19999992766E+02 0.  0.
         12    1    1    2    0    0  0.19711801733E+01 -0.25743429484E+02 -0.34885723423E+02  0.43400730542E+02  0.00000000000E+00 0. -1.
         11    1    3    3    0    0  0.56693337170E+00 -0.14537103869E+01  0.93446620870E+00  0.18187673555E+01  0.51100000000E-03 0. -1.
        -11    1    3    3    0    0 -0.21416068304E+00  0.27781382596E+02  0.27518621698E+02  0.39104035907E+02  0.51100000000E-03 0.  1.
         12    1    3    3    0    0 -0.23239528619E+01 -0.58424272591E+00  0.64326355163E+01  0.68644661958E+01  0.00000000000E+00 0. -1.
</event>
<event>
 7    1  0.1813014E-010  0.4778729E+02  0.7816164E-02  0.1312668E+00
        -11   -1    0    0    0    0  0.00000000000E+00  0.00000000000E+00  0.45593999997E+02  0.45594000000E+02  0.51100000000E-03 0.  1.
         11   -1    0    0    0    0 -0.00000000000E+00 -0.00000000000E+00 -0.45593999997E+02  0.45594000000E+02  0.51100000000E-03 0. -1.
    9900012    2    1    2    0    0 -0.77042844679E+01  0.32806048073E+02  0.27350117067E+02  0.47787289258E+02  0.20000083041E+02 0.  0.
         12    1    1    2    0    0  0.77042844679E+01 -0.32806048073E+02 -0.27350117067E+02  0.43400710742E+02  0.00000000000E+00 0. -1.
         11    1    3    3    0    0  0.39884893756E+00  0.62493341115E+01  0.40308429914E+01  0.74472110749E+01  0.51100000000E-03 0.  1.
        -11    1    3    3    0    0  0.39820367220E+01  0.15734462231E+02  0.82878864022E+01  0.18224131788E+02  0.51100000000E-03 0. -1.
         12    1    3    3    0    0 -0.12085170127E+02  0.10822251731E+02  0.15031387674E+02  0.22115946395E+02  0.00000000000E+00 0. -1.
</event>
<event>
 7    1  0.2331265E-010  0.4778726E+02  0.7816164E-02  0.1312668E+00
        -11   -1    0    0    0    0  0.00000000000E+00  0.00000000000E+00  0.45593999997E+02  0.45594000000E+02  0.51100000000E-03 0. -1.
         11   -1    0    0    0    0 -0.00000000000E+00 -0.00000000000E+00 -0.45593999997E+02  0.45594000000E+02  0.51100000000E-03 0.  1.
    9900012    2    1    2    0    0  0.37068568619E+02 -0.54682726267E+00  0.22566489739E+02  0.47787259699E+02  0.19999948272E+02 0.  0.
         12    1    1    2    0    0 -0.37068568619E+02  0.54682726267E+00 -0.22566489739E+02  0.43400740301E+02  0.00000000000E+00 0. -1.
         11    1    3    3    0    0  0.10611403979E+02  0.53031417100E+01  0.11417240289E+02  0.16464464233E+02  0.51100000000E-03 0. -1.
        -11    1    3    3    0    0  0.19713916852E+02 -0.40087713758E+01  0.13171897016E+02  0.24045948450E+02  0.51100000000E-03 0.  1.
         12    1    3    3    0    0  0.67432477876E+01 -0.18411975969E+01 -0.20226475660E+01  0.72768470158E+01  0.00000000000E+00 0. -1.
</event>
<event>
 7    1  0.1813014E-010  0.4778727E+02  0.7816164E-02  0.1312668E+00
        -11   -1    0    0    0    0  0.00000000000E+00  0.00000000000E+00  0.45593999997E+02  0.45594000000E+02  0.51100000000E-03 0.  1.
         11   -1    0    0    0    0 -0.00000000000E+00 -0.00000000000E+00 -0.45593999997E+02  0.45594000000E+02  0.51100000000E-03 0. -1.
    9900012    2    1    2    0    0 -0.68965926169E+00  0.18635921602E+02  0.39189925367E+02  0.47787268968E+02  0.19999990531E+02 0.  0.
         12    1    1    2    0    0  0.68965926169E+00 -0.18635921602E+02 -0.39189925367E+02  0.43400731032E+02  0.00000000000E+00 0. -1.
         11    1    3    3    0    0 -0.45533190835E+01  0.95412111288E+01  0.10439505279E+02  0.14857681354E+02  0.51100000000E-03 0.  1.
        -11    1    3    3    0    0  0.64275890149E+01  0.28178031165E+01  0.61415919654E+01  0.93259351852E+01  0.51100000000E-03 0. -1.
         12    1    3    3    0    0 -0.25639291931E+01  0.62769073563E+01  0.22608828123E+02  0.23603652429E+02  0.00000000000E+00 0. -1.
</event>
<event>
 7    1  0.1813014E-010  0.4778727E+02  0.7816164E-02  0.1312668E+00
        -11   -1    0    0    0    0  0.00000000000E+00  0.00000000000E+00  0.45593999997E+02  0.45594000000E+02  0.51100000000E-03 0. -1.
         11   -1    0    0    0    0 -0.00000000000E+00 -0.00000000000E+00 -0.45593999997E+02  0.45594000000E+02  0.51100000000E-03 0.  1.
    9900012    2    1    2    0    0  0.34368536263E+02  0.20787322915E+02  0.16441235893E+02  0.47787270553E+02  0.19999997761E+02 0.  0.
         12    1    1    2    0    0 -0.34368536263E+02 -0.20787322915E+02 -0.16441235893E+02  0.43400729447E+02  0.00000000000E+00 0. -1.
         11    1    3    3    0    0  0.30967374894E+02  0.17821552412E+02  0.11537189804E+02  0.37545875766E+02  0.51100000000E-03 0.  1.
        -11    1    3    3    0    0  0.98666151664E+00  0.50669468865E+01  0.11145837796E+01  0.52810746029E+01  0.51100000000E-03 0. -1.
        -12    1    3    3    0    0  0.24144998527E+01 -0.21011763844E+01  0.37894623098E+01  0.49603201847E+01  0.00000000000E+00 0.  1.
</event>
<event>
 7    1  0.1813014E-010  0.4778727E+02  0.7816164E-02  0.1312668E+00
        -11   -1    0    0    0    0  0.00000000000E+00  0.00000000000E+00  0.45593999997E+02  0.45594000000E+02  0.51100000000E-03 0.  1.
         11   -1    0    0    0    0 -0.00000000000E+00 -0.00000000000E+00 -0.45593999997E+02  0.45594000000E+02  0.51100000000E-03 0. -1.
    9900012    2    1    2    0    0  0.24547794461E+02 -0.15284338291E+02  0.32363836324E+02  0.47787272915E+02  0.20000008530E+02 0.  0.
         12    1    1    2    0    0 -0.24547794461E+02  0.15284338291E+02 -0.32363836324E+02  0.43400727085E+02  0.00000000000E+00 0. -1.
         11    1    3    3    0    0  0.97934767903E+01 -0.78006063747E+01  0.27188727524E+02  0.29933067869E+02  0.51100000000E-03 0. -1.
        -11    1    3    3    0    0  0.52664845620E+01 -0.41004859851E+01  0.34619065942E+00  0.66835389720E+01  0.51100000000E-03 0.  1.
         12    1    3    3    0    0  0.94878331085E+01 -0.33832459316E+01  0.48289181407E+01  0.11170666074E+02  0.00000000000E+00 0. -1.
</event>
<event>
 7    1  0.1813014E-010  0.4778727E+02  0.7816164E-02  0.1312668E+00
        -11   -1    0    0    0    0  0.00000000000E+00  0.00000000000E+00  0.45593999997E+02  0.45594000000E+02  0.51100000000E-03 0.  1.
         11   -1    0    0    0    0 -0.00000000000E+00 -0.00000000000E+00 -0.45593999997E+02  0.45594000000E+02  0.51100000000E-03 0. -1.
    9900012    2    1    2    0    0  0.31276702018E+02 -0.22337917893E+02  0.20159573989E+02  0.47787273182E+02  0.20000009747E+02 0.  0.
         12    1    1    2    0    0 -0.31276702018E+02  0.22337917893E+02 -0.20159573989E+02  0.43400726818E+02  0.00000000000E+00 0. -1.
         11    1    3    3    0    0  0.11117590467E+02 -0.85267005151E+01  0.35144515068E+00  0.14015311392E+02  0.51100000000E-03 0. -1.
        -11    1    3    3    0    0  0.44641922652E+01 -0.10354350154E+02  0.85200334731E+01  0.14132676687E+02  0.51100000000E-03 0.  1.
         12    1    3    3    0    0  0.15694919285E+02 -0.34568672236E+01  0.11288095366E+02  0.19639285103E+02  0.00000000000E+00 0. -1.
</event>
<event>
 7    1  0.1813014E-010  0.4778727E+02  0.7816164E-02  0.1312668E+00
        -11   -1    0    0    0    0  0.00000000000E+00  0.00000000000E+00  0.45593999997E+02  0.45594000000E+02  0.51100000000E-03 0.  1.
         11   -1    0    0    0    0 -0.00000000000E+00 -0.00000000000E+00 -0.45593999997E+02  0.45594000000E+02  0.51100000000E-03 0. -1.
    9900012    2    1    2    0    0 -0.19839573300E+00 -0.20302705836E+02  0.38358626463E+02  0.47787269024E+02  0.19999990787E+02 0.  0.
         12    1    1    2    0    0  0.19839573300E+00  0.20302705836E+02 -0.38358626463E+02  0.43400730976E+02  0.00000000000E+00 0. -1.
         11    1    3    3    0    0  0.52925004343E+01 -0.88781459753E+01  0.19541196762E+02  0.22106343161E+02  0.51100000000E-03 0.  1.
        -11    1    3    3    0    0  0.16520409273E+00  0.20847568126E+01  0.36517204131E+00  0.21229352889E+01  0.51100000000E-03 0. -1.
         12    1    3    3    0    0 -0.56561002601E+01 -0.13509316674E+02  0.18452257660E+02  0.23557990574E+02  0.00000000000E+00 0. -1.
</event>
<event>
 7    1  0.1813014E-010  0.4778727E+02  0.7816164E-02  0.1312668E+00
        -11   -1    0    0    0    0  0.00000000000E+00  0.00000000000E+00  0.45593999997E+02  0.45594000000E+02  0.51100000000E-03 0.  1.
         11   -1    0    0    0    0 -0.00000000000E+00 -0.00000000000E+00 -0.45593999997E+02  0.45594000000E+02  0.51100000000E-03 0. -1.
    9900012    2    1    2    0    0  0.26174580104E+01  0.31655496335E+02  0.29575357573E+02  0.47787270626E+02  0.19999998090E+02 0.  0.
         12    1    1    2    0    0 -0.26174580104E+01 -0.31655496335E+02 -0.29575357573E+02  0.43400729374E+02  0.00000000000E+00 0. -1.
         11    1    3    3    0    0 -0.20390829484E+01  0.15417164448E+01  0.72860547985E+01  0.77214858450E+01  0.51100000000E-03 0. -1.
        -11    1    3    3    0    0 -0.25346045568E+01  0.23132276423E+02  0.15614521940E+02  0.28023913511E+02  0.51100000000E-03 0.  1.
         12    1    3    3    0    0  0.71911455156E+01  0.69815034668E+01  0.66747808349E+01  0.12041871270E+02  0.00000000000E+00 0. -1.
</event>
<event>
 7    1  0.1813014E-010  0.4778727E+02  0.7816164E-02  0.1312668E+00
        -11   -1    0    0    0    0  0.00000000000E+00  0.00000000000E+00  0.45593999997E+02  0.45594000000E+02  0.51100000000E-03 0.  1.
         11   -1    0    0    0    0 -0.00000000000E+00 -0.00000000000E+00 -0.45593999997E+02  0.45594000000E+02  0.51100000000E-03 0. -1.
    9900012    2    1    2    0    0 -0.91610008902E+01 -0.17469946375E+02  0.38658768387E+02  0.47787270319E+02  0.19999996693E+02 0.  0.
         12    1    1    2    0    0  0.91610008902E+01  0.17469946375E+02 -0.38658768387E+02  0.43400729681E+02  0.00000000000E+00 0. -1.
         11    1    3    3    0    0  0.43185151520E+01 -0.63496077242E+01  0.96873265737E+01  0.12361690328E+02  0.51100000000E-03 0. -1.
        -11    1    3    3    0    0 -0.50039131696E+01  0.13615299853E+01  0.91216008722E+01  0.10492688580E+02  0.51100000000E-03 0.  1.
         12    1    3    3    0    0 -0.84756028726E+01 -0.12481868636E+02  0.19849840941E+02  0.24932891410E+02  0.00000000000E+00 0. -1.
</event>
<event>
 7    1  0.1813014E-010  0.4778727E+02  0.7816164E-02  0.1312668E+00
        -11   -1    0    0    0    0  0.00000000000E+00  0.00000000000E+00  0.45593999997E+02  0.45594000000E+02  0.51100000000E-03 0.  1.
         11   -1    0    0    0    0 -0.00000000000E+00 -0.00000000000E+00 -0.45593999997E+02  0.45594000000E+02  0.51100000000E-03 0. -1.
    9900012    2    1    2    0    0  0.20330254713E+02  0.23900866869E+02  0.29984206042E+02  0.47787270677E+02  0.19999998326E+02 0.  0.
         12    1    1    2    0    0 -0.20330254713E+02 -0.23900866869E+02 -0.29984206042E+02  0.43400729323E+02  0.00000000000E+00 0. -1.
         11    1    3    3    0    0 -0.21150214544E+01  0.55303315185E+01  0.52766200595E+01  0.79309899742E+01  0.51100000000E-03 0. -1.
        -11    1    3    3    0    0  0.29615751377E+01  0.73150244437E+01  0.11187222747E+02  0.13690670654E+02  0.51100000000E-03 0.  1.
        -12    1    3    3    0    0  0.19483701029E+02  0.11055510907E+02  0.13520363235E+02  0.26165610049E+02  0.00000000000E+00 0.  1.
</event>
<event>
 7    1  0.1813014E-010  0.4778725E+02  0.7816164E-02  0.1312668E+00
        -11   -1    0    0    0    0  0.00000000000E+00  0.00000000000E+00  0.45593999997E+02  0.45594000000E+02  0.51100000000E-03 0.  1.
         11   -1    0    0    0    0 -0.00000000000E+00 -0.00000000000E+00 -0.45593999997E+02  0.45594000000E+02  0.51100000000E-03 0. -1.
    9900012    2    1    2    0    0  0.10965458490E+02  0.18172975035E+02  0.37856655534E+02  0.47787254963E+02  0.19999926678E+02 0.  0.
         12    1    1    2    0    0 -0.10965458490E+02 -0.18172975035E+02 -0.37856655534E+02  0.43400745037E+02  0.00000000000E+00 0. -1.
         11    1    3    3    0    0  0.21093055391E+01 -0.34647190756E+00  0.15063229929E+00  0.21428726025E+01  0.51100000000E-03 0. -1.
        -11    1    3    3    0    0  0.12404772588E+02  0.15787369313E+02  0.35170499562E+02  0.40497943805E+02  0.51100000000E-03 0.  1.
        -12    1    3    3    0    0 -0.35486196372E+01  0.27320776293E+01  0.25355236736E+01  0.51464385551E+01  0.00000000000E+00 0.  1.
</event>
<event>
 7    1  0.1813014E-010  0.4778728E+02  0.7816164E-02  0.1312668E+00
        -11   -1    0    0    0    0  0.00000000000E+00  0.00000000000E+00  0.45593999997E+02  0.45594000000E+02  0.51100000000E-03 0. -1.
         11   -1    0    0    0    0 -0.00000000000E+00 -0.00000000000E+00 -0.45593999997E+02  0.45594000000E+02  0.51100000000E-03 0.  1.
    9900012    2    1    2    0    0  0.28234583773E+02 -0.49574810087E+01  0.32586107089E+02  0.47787277495E+02  0.20000029411E+02 0.  0.
         12    1    1    2    0    0 -0.28234583773E+02  0.49574810087E+01 -0.32586107089E+02  0.43400722505E+02  0.00000000000E+00 0. -1.
         11    1    3    3    0    0  0.94479714335E-01  0.22580097852E+01 -0.62585565511E+00  0.23450437455E+01  0.51100000000E-03 0. -1.
        -11    1    3    3    0    0  0.17743433051E+02 -0.55369094497E+01  0.13099803255E+02  0.22739648816E+02  0.51100000000E-03 0.  1.
        -12    1    3    3    0    0  0.10396671007E+02 -0.16785813442E+01  0.20112159489E+02  0.22702584934E+02  0.00000000000E+00 0.  1.
</event>
<event>
 7    1  0.1813014E-010  0.4778729E+02  0.7816164E-02  0.1312668E+00
        -11   -1    0    0    0    0  0.00000000000E+00  0.00000000000E+00  0.45593999997E+02  0.45594000000E+02  0.51100000000E-03 0.  1.
         11   -1    0    0    0    0 -0.00000000000E+00 -0.00000000000E+00 -0.45593999997E+02  0.45594000000E+02  0.51100000000E-03 0. -1.
    9900012    2    1    2    0    0 -0.84255305336E+01  0.27512288414E+02  0.32491630113E+02  0.47787290260E+02  0.20000087612E+02 0.  0.
         12    1    1    2    0    0  0.84255305336E+01 -0.27512288414E+02 -0.32491630113E+02  0.43400709740E+02  0.00000000000E+00 0. -1.
         11    1    3    3    0    0  0.40939552454E+01  0.73352860031E+00  0.74264837703E+01  0.85118267846E+01  0.51100000000E-03 0. -1.
        -11    1    3    3    0    0 -0.29351882483E+01  0.12688819044E+02  0.87991851419E+01  0.15717732604E+02  0.51100000000E-03 0.  1.
        -12    1    3    3    0    0 -0.95842975308E+01  0.14089940770E+02  0.16265961201E+02  0.23557730872E+02  0.00000000000E+00 0.  1.
</event>
<event>
 7    1  0.1813014E-010  0.4778727E+02  0.7816164E-02  0.1312668E+00
        -11   -1    0    0    0    0  0.00000000000E+00  0.00000000000E+00  0.45593999997E+02  0.45594000000E+02  0.51100000000E-03 0.  1.
         11   -1    0    0    0    0 -0.00000000000E+00 -0.00000000000E+00 -0.45593999997E+02  0.45594000000E+02  0.51100000000E-03 0. -1.
    9900012    2    1    2    0    0  0.40868560800E+02 -0.11234696286E+02 -0.93362506210E+01  0.47787271455E+02  0.20000001874E+02 0.  0.
         12    1    1    2    0    0 -0.40868560800E+02  0.11234696286E+02  0.93362506210E+01  0.43400728545E+02  0.00000000000E+00 0. -1.
         11    1    3    3    0    0  0.26103477980E+02 -0.10075409638E+02 -0.73149876088E+01  0.28920831351E+02  0.51100000000E-03 0. -1.
        -11    1    3    3    0    0  0.11775671988E+02 -0.58346171493E+01 -0.69192515242E+00  0.13160089996E+02  0.51100000000E-03 0.  1.
        -12    1    3    3    0    0  0.29894108327E+01  0.46753305005E+01 -0.13293378597E+01  0.57063501085E+01  0.00000000000E+00 0.  1.
</event>
<event>
 7    1  0.1813014E-010  0.4778725E+02  0.7816164E-02  0.1312668E+00
        -11   -1    0    0    0    0  0.00000000000E+00  0.00000000000E+00  0.45593999997E+02  0.45594000000E+02  0.51100000000E-03 0.  1.
         11   -1    0    0    0    0 -0.00000000000E+00 -0.00000000000E+00 -0.45593999997E+02  0.45594000000E+02  0.51100000000E-03 0. -1.
    9900012    2    1    2    0    0 -0.22389654009E+02 -0.36619001115E+02 -0.64325216187E+01  0.47787249042E+02  0.19999899683E+02 0.  0.
         12    1    1    2    0    0  0.22389654009E+02  0.36619001115E+02  0.64325216187E+01  0.43400750958E+02  0.00000000000E+00 0. -1.
         11    1    3    3    0    0  0.90652878150E+00 -0.33570654187E+01  0.19535936666E+01  0.39885098887E+01  0.51100000000E-03 0. -1.
        -11    1    3    3    0    0 -0.16164967463E+02 -0.28197440607E+02 -0.12770042374E+01  0.32527412592E+02  0.51100000000E-03 0.  1.
         12    1    3    3    0    0 -0.71312153277E+01 -0.50644950900E+01 -0.71091110480E+01  0.11271326562E+02  0.00000000000E+00 0. -1.
</event>
<event>
 7    1  0.1813014E-010  0.4778729E+02  0.7816164E-02  0.1312668E+00
        -11   -1    0    0    0    0  0.00000000000E+00  0.00000000000E+00  0.45593999997E+02  0.45594000000E+02  0.51100000000E-03 0. -1.
         11   -1    0    0    0    0 -0.00000000000E+00 -0.00000000000E+00 -0.45593999997E+02  0.45594000000E+02  0.51100000000E-03 0.  1.
    9900012    2    1    2    0    0 -0.23108876610E+02  0.26518510549E+02 -0.25423812078E+02  0.47787288019E+02  0.20000077392E+02 0.  0.
         12    1    1    2    0    0  0.23108876610E+02 -0.26518510549E+02  0.25423812078E+02  0.43400711981E+02  0.00000000000E+00 0. -1.
         11    1    3    3    0    0 -0.67087737059E+01  0.16148751665E+02 -0.89649807931E+01  0.19650972135E+02  0.51100000000E-03 0. -1.
        -11    1    3    3    0    0 -0.13827305012E+02  0.73214910795E+01 -0.56834661177E+01  0.16646332416E+02  0.51100000000E-03 0.  1.
         12    1    3    3    0    0 -0.25727978918E+01  0.30482678044E+01 -0.10775365167E+02  0.11489983467E+02  0.00000000000E+00 0. -1.
</event>
<event>
 7    1  0.1813014E-010  0.4778727E+02  0.7816164E-02  0.1312668E+00
        -11   -1    0    0    0    0  0.00000000000E+00  0.00000000000E+00  0.45593999997E+02  0.45594000000E+02  0.51100000000E-03 0.  1.
         11   -1    0    0    0    0 -0.00000000000E+00 -0.00000000000E+00 -0.45593999997E+02  0.45594000000E+02  0.51100000000E-03 0. -1.
    9900012    2    1    2    0    0  0.24056932182E+02  0.26499639302E+02  0.24549055236E+02  0.47787274405E+02  0.20000015322E+02 0.  0.
         12    1    1    2    0    0 -0.24056932182E+02 -0.26499639302E+02 -0.24549055236E+02  0.43400725595E+02  0.00000000000E+00 0. -1.
         11    1    3    3    0    0  0.45906656136E+01  0.41572904288E+01  0.78619873228E+01  0.10008402440E+02  0.51100000000E-03 0. -1.
        -11    1    3    3    0    0  0.18867149210E+02  0.13602763866E+02  0.17314268338E+02  0.28996351364E+02  0.51100000000E-03 0.  1.
         12    1    3    3    0    0  0.59911735845E+00  0.87395850080E+01 -0.62720042452E+00  0.87825206003E+01  0.00000000000E+00 0. -1.
</event>
<event>
 7    1  0.2397487E-010  0.4778728E+02  0.7816164E-02  0.1312668E+00
        -11   -1    0    0    0    0  0.00000000000E+00  0.00000000000E+00  0.45593999997E+02  0.45594000000E+02  0.51100000000E-03 0.  1.
         11   -1    0    0    0    0 -0.00000000000E+00 -0.00000000000E+00 -0.45593999997E+02  0.45594000000E+02  0.51100000000E-03 0. -1.
    9900012    2    1    2    0    0  0.76105541109E+01 -0.41487250661E+02 -0.10223022224E+02  0.47787277832E+02  0.20000030949E+02 0.  0.
         12    1    1    2    0    0 -0.76105541109E+01  0.41487250661E+02  0.10223022224E+02  0.43400722168E+02  0.00000000000E+00 0. -1.
         11    1    3    3    0    0 -0.21749744110E+01 -0.42142411371E+01 -0.63410700500E+01  0.79183023237E+01  0.51100000000E-03 0. -1.
        -11    1    3    3    0    0  0.32723881650E+01 -0.23059966985E+02 -0.61039509355E+01  0.24077558409E+02  0.51100000000E-03 0.  1.
         12    1    3    3    0    0  0.65131403569E+01 -0.14213042539E+02  0.22219987617E+01  0.15791417100E+02  0.00000000000E+00 0. -1.
</event>
<event>
 7    1  0.1813014E-010  0.4778727E+02  0.7816164E-02  0.1312668E+00
        -11   -1    0    0    0    0  0.00000000000E+00  0.00000000000E+00  0.45593999997E+02  0.45594000000E+02  0.51100000000E-03 0.  1.
         11   -1    0    0    0    0 -0.00000000000E+00 -0.00000000000E+00 -0.45593999997E+02  0.45594000000E+02  0.51100000000E-03 0. -1.
    9900012    2    1    2    0    0 -0.17699505615E+02 -0.28806721022E+02  0.27212565866E+02  0.47787269406E+02  0.19999992530E+02 0.  0.
         12    1    1    2    0    0  0.17699505615E+02  0.28806721022E+02 -0.27212565866E+02  0.43400730594E+02  0.00000000000E+00 0. -1.
         11    1    3    3    0    0  0.17471877559E+01 -0.45409052279E+01  0.31320657619E+01  0.57863910636E+01  0.51100000000E-03 0.  1.
        -11    1    3    3    0    0 -0.15067774858E+01  0.12311516964E+01 -0.80995366613E+00  0.21076380367E+01  0.51100000000E-03 0. -1.
         12    1    3    3    0    0 -0.17939915885E+02 -0.25496967490E+02  0.24890453771E+02  0.39893240306E+02  0.00000000000E+00 0. -1.
</event>
<event>
 7    1  0.1813014E-010  0.4778727E+02  0.7816164E-02  0.1312668E+00
        -11   -1    0    0    0    0  0.00000000000E+00  0.00000000000E+00  0.45593999997E+02  0.45594000000E+02  0.51100000000E-03 0. -1.
         11   -1    0    0    0    0 -0.00000000000E+00 -0.00000000000E+00 -0.45593999997E+02  0.45594000000E+02  0.51100000000E-03 0.  1.
    9900012    2    1    2    0    0  0.71653651798E+01 -0.41641499280E+02 -0.99129574885E+01  0.47787266750E+02  0.19999980422E+02 0.  0.
         12    1    1    2    0    0 -0.71653651798E+01  0.41641499280E+02  0.99129574885E+01  0.43400733250E+02  0.00000000000E+00 0. -1.
         11    1    3    3    0    0 -0.23099323079E+01 -0.40695934778E+01  0.23268147515E+01  0.52260353511E+01  0.51100000000E-03 0. -1.
        -11    1    3    3    0    0  0.97271737668E+01 -0.13847852118E+02 -0.35257289950E+01  0.17286170281E+02  0.51100000000E-03 0.  1.
        -12    1    3    3    0    0 -0.25187627912E+00 -0.23724053684E+02 -0.87140432450E+01  0.25275061118E+02  0.00000000000E+00 0.  1.
</event>
<event>
 7    1  0.1813014E-010  0.4778727E+02  0.7816164E-02  0.1312668E+00
        -11   -1    0    0    0    0  0.00000000000E+00  0.00000000000E+00  0.45593999997E+02  0.45594000000E+02  0.51100000000E-03 0.  1.
         11   -1    0    0    0    0 -0.00000000000E+00 -0.00000000000E+00 -0.45593999997E+02  0.45594000000E+02  0.51100000000E-03 0. -1.
    9900012    2    1    2    0    0  0.13604596900E+02  0.40286269436E+02  0.86922298633E+01  0.47787269340E+02  0.19999992227E+02 0.  0.
         12    1    1    2    0    0 -0.13604596900E+02 -0.40286269436E+02 -0.86922298633E+01  0.43400730660E+02  0.00000000000E+00 0. -1.
         11    1    3    3    0    0  0.68732670641E+00 -0.96148808177E+00  0.40276778897E+01  0.41975072099E+01  0.51100000000E-03 0. -1.
        -11    1    3    3    0    0  0.34477373196E+01  0.16141681770E+02  0.19280931749E+01  0.16618012111E+02  0.51100000000E-03 0.  1.
         12    1    3    3    0    0  0.94695328737E+01  0.25106075748E+02  0.27364587987E+01  0.26971750019E+02  0.00000000000E+00 0. -1.
</event>
<event>
 7    1  0.1813014E-010  0.4778727E+02  0.7816164E-02  0.1312668E+00
        -11   -1    0    0    0    0  0.00000000000E+00  0.00000000000E+00  0.45593999997E+02  0.45594000000E+02  0.51100000000E-03 0.  1.
         11   -1    0    0    0    0 -0.00000000000E+00 -0.00000000000E+00 -0.45593999997E+02  0.45594000000E+02  0.51100000000E-03 0. -1.
    9900012    2    1    2    0    0 -0.16326347550E+02 -0.24117267002E+02  0.32178114153E+02  0.47787271637E+02  0.20000002703E+02 0.  0.
         12    1    1    2    0    0  0.16326347550E+02  0.24117267002E+02 -0.32178114153E+02  0.43400728363E+02  0.00000000000E+00 0. -1.
         11    1    3    3    0    0  0.59973987909E+00 -0.21254849547E+01  0.66591633459E+01  0.70158271746E+01  0.51100000000E-03 0. -1.
        -11    1    3    3    0    0 -0.13172901875E+02 -0.77351093401E+01  0.62390116843E+01  0.16500985648E+02  0.51100000000E-03 0.  1.
        -12    1    3    3    0    0 -0.37531855543E+01 -0.14256672708E+02  0.19279939123E+02  0.24270458815E+02  0.00000000000E+00 0.  1.
</event>
<event>
 7    1  0.1813014E-010  0.4778727E+02  0.7816164E-02  0.1312668E+00
        -11   -1    0    0    0    0  0.00000000000E+00  0.00000000000E+00  0.45593999997E+02  0.45594000000E+02  0.51100000000E-03 0.  1.
         11   -1    0    0    0    0 -0.00000000000E+00 -0.00000000000E+00 -0.45593999997E+02  0.45594000000E+02  0.51100000000E-03 0. -1.
    9900012    2    1    2    0    0  0.18276681923E+02  0.12024127427E+02  0.37483420503E+02  0.47787267804E+02  0.19999985228E+02 0.  0.
         12    1    1    2    0    0 -0.18276681923E+02 -0.12024127427E+02 -0.37483420503E+02  0.43400732196E+02  0.00000000000E+00 0. -1.
         11    1    3    3    0    0  0.11946868631E+01  0.58088628118E+01 -0.46572199830E-01  0.59306267037E+01  0.51100000000E-03 0. -1.
        -11    1    3    3    0    0  0.99129459541E+01  0.24133864773E+01  0.17689379105E+02  0.20420701878E+02  0.51100000000E-03 0.  1.
         12    1    3    3    0    0  0.71690491062E+01  0.38018781380E+01  0.19840613597E+02  0.21435939223E+02  0.00000000000E+00 0. -1.
</event>
<event>
 7    1  0.1813014E-010  0.4778727E+02  0.7816164E-02  0.1312668E+00
        -11   -1    0    0    0    0  0.00000000000E+00  0.00000000000E+00  0.45593999997E+02  0.45594000000E+02  0.51100000000E-03 0.  1.
         11   -1    0    0    0    0 -0.00000000000E+00 -0.00000000000E+00 -0.45593999997E+02  0.45594000000E+02  0.51100000000E-03 0. -1.
    9900012    2    1    2    0    0  0.23786542387E+02 -0.27389956730E+00  0.36300809196E+02  0.47787269960E+02  0.19999995056E+02 0.  0.
         12    1    1    2    0    0 -0.23786542387E+02  0.27389956730E+00 -0.36300809196E+02  0.43400730040E+02  0.00000000000E+00 0. -1.
         11    1    3    3    0    0  0.55233955522E+01  0.21123088352E+01 -0.58198821112E+00  0.59420920206E+01  0.51100000000E-03 0. -1.
        -11    1    3    3    0    0  0.12345644057E+02 -0.24358791639E+01  0.17331765711E+02  0.21418182402E+02  0.51100000000E-03 0.  1.
         12    1    3    3    0    0  0.59175027778E+01  0.49670761387E-01  0.19551031696E+02  0.20426995537E+02  0.00000000000E+00 0. -1.
</event>
<event>
 7    1  0.1813014E-010  0.4778727E+02  0.7816164E-02  0.1312668E+00
        -11   -1    0    0    0    0  0.00000000000E+00  0.00000000000E+00  0.45593999997E+02  0.45594000000E+02  0.51100000000E-03 0.  1.
         11   -1    0    0    0    0 -0.00000000000E+00 -0.00000000000E+00 -0.45593999997E+02  0.45594000000E+02  0.51100000000E-03 0. -1.
    9900012    2    1    2    0    0 -0.33551994571E+02  0.11332897535E+02  0.25088885278E+02  0.47787273384E+02  0.20000010668E+02 0.  0.
         12    1    1    2    0    0  0.33551994571E+02 -0.11332897535E+02 -0.25088885278E+02  0.43400726616E+02  0.00000000000E+00 0. -1.
         11    1    3    3    0    0 -0.10446500443E+01 -0.29248285132E+01  0.31849762930E+01  0.44485941369E+01  0.51100000000E-03 0. -1.
        -11    1    3    3    0    0 -0.22995182456E+02  0.60513223843E+01  0.19019415349E+02  0.30448892907E+02  0.51100000000E-03 0.  1.
        -12    1    3    3    0    0 -0.95121620713E+01  0.82064036643E+01  0.28844936367E+01  0.12889786341E+02  0.00000000000E+00 0.  1.
</event>
<event>
 7    1  0.1950912E-010  0.4778728E+02  0.7816164E-02  0.1312668E+00
        -11   -1    0    0    0    0  0.00000000000E+00  0.00000000000E+00  0.45593999997E+02  0.45594000000E+02  0.51100000000E-03 0.  1.
         11   -1    0    0    0    0 -0.00000000000E+00 -0.00000000000E+00 -0.45593999997E+02  0.45594000000E+02  0.51100000000E-03 0. -1.
    9900012    2    1    2    0    0 -0.35236622711E+02 -0.21488421410E+02  0.13425755604E+02  0.47787277099E+02  0.20000027607E+02 0.  0.
         12    1    1    2    0    0  0.35236622711E+02  0.21488421410E+02 -0.13425755604E+02  0.43400722901E+02  0.00000000000E+00 0. -1.
         11    1    3    3    0    0 -0.54794935448E+01 -0.22460627495E+01 -0.34960004446E+01  0.68768936848E+01  0.51100000000E-03 0. -1.
        -11    1    3    3    0    0 -0.20262016861E+02 -0.15452902250E+02  0.64716079669E+01  0.26291124456E+02  0.51100000000E-03 0.  1.
         12    1    3    3    0    0 -0.94951123055E+01 -0.37894564099E+01  0.10450148081E+02  0.14619258959E+02  0.00000000000E+00 0. -1.
</event>
<event>
 7    1  0.1813014E-010  0.4778727E+02  0.7816164E-02  0.1312668E+00
        -11   -1    0    0    0    0  0.00000000000E+00  0.00000000000E+00  0.45593999997E+02  0.45594000000E+02  0.51100000000E-03 0.  1.
         11   -1    0    0    0    0 -0.00000000000E+00 -0.00000000000E+00 -0.45593999997E+02  0.45594000000E+02  0.51100000000E-03 0. -1.
    9900012    2    1    2    0    0  0.10393868130E+02  0.69744565830E+01  0.41556562439E+02  0.47787269349E+02  0.19999992269E+02 0.  0.
         12    1    1    2    0    0 -0.10393868130E+02 -0.69744565830E+01 -0.41556562439E+02  0.43400730651E+02  0.00000000000E+00 0. -1.
         11    1    3    3    0    0  0.29916330233E+01 -0.23630223787E+01  0.11952272688E+02  0.12545539668E+02  0.51100000000E-03 0. -1.
        -11    1    3    3    0    0  0.11062739226E+02  0.96977611892E+01  0.19079318128E+02  0.24092553865E+02  0.51100000000E-03 0.  1.
         12    1    3    3    0    0 -0.36605041195E+01 -0.36028222742E+00  0.10524971623E+02  0.11149175815E+02  0.00000000000E+00 0. -1.
</event>
<event>
 7    1  0.1813014E-010  0.4778727E+02  0.7816164E-02  0.1312668E+00
        -11   -1    0    0    0    0  0.00000000000E+00  0.00000000000E+00  0.45593999997E+02  0.45594000000E+02  0.51100000000E-03 0.  1.
         11   -1    0    0    0    0 -0.00000000000E+00 -0.00000000000E+00 -0.45593999997E+02  0.45594000000E+02  0.51100000000E-03 0. -1.
    9900012    2    1    2    0    0 -0.39517788713E+02  0.17254845838E+02  0.49231968548E+01  0.47787271930E+02  0.20000004040E+02 0.  0.
         12    1    1    2    0    0  0.39517788713E+02 -0.17254845838E+02 -0.49231968548E+01  0.43400728070E+02  0.00000000000E+00 0. -1.
         11    1    3    3    0    0 -0.16609243219E+02  0.26833096303E+01  0.56528312102E+01  0.17748848183E+02  0.51100000000E-03 0.  1.
        -11    1    3    3    0    0 -0.22028578573E+02  0.13656045893E+02 -0.42788514130E+01  0.26268887168E+02  0.51100000000E-03 0. -1.
         12    1    3    3    0    0 -0.87996692139E+00  0.91549031515E+00  0.35492170576E+01  0.37695365792E+01  0.00000000000E+00 0. -1.
</event>
<event>
 7    1  0.1813014E-010  0.4778727E+02  0.7816164E-02  0.1312668E+00
        -11   -1    0    0    0    0  0.00000000000E+00  0.00000000000E+00  0.45593999997E+02  0.45594000000E+02  0.51100000000E-03 0.  1.
         11   -1    0    0    0    0 -0.00000000000E+00 -0.00000000000E+00 -0.45593999997E+02  0.45594000000E+02  0.51100000000E-03 0. -1.
    9900012    2    1    2    0    0  0.24008079660E+02 -0.22979188920E+02  0.27914017083E+02  0.47787270028E+02  0.19999995367E+02 0.  0.
         12    1    1    2    0    0 -0.24008079660E+02  0.22979188920E+02 -0.27914017083E+02  0.43400729972E+02  0.00000000000E+00 0. -1.
         11    1    3    3    0    0  0.31441478207E+01 -0.99278211371E+01  0.17458120047E+02  0.20328139460E+02  0.51100000000E-03 0. -1.
        -11    1    3    3    0    0  0.98614296669E+01 -0.73404901990E+01  0.20042811892E+01  0.12455831357E+02  0.51100000000E-03 0.  1.
        -12    1    3    3    0    0  0.11002502172E+02 -0.57108775836E+01  0.84516158470E+01  0.15003299212E+02  0.00000000000E+00 0.  1.
</event>
<event>
 7    1  0.1813014E-010  0.4778727E+02  0.7816164E-02  0.1312668E+00
        -11   -1    0    0    0    0  0.00000000000E+00  0.00000000000E+00  0.45593999997E+02  0.45594000000E+02  0.51100000000E-03 0.  1.
         11   -1    0    0    0    0 -0.00000000000E+00 -0.00000000000E+00 -0.45593999997E+02  0.45594000000E+02  0.51100000000E-03 0. -1.
    9900012    2    1    2    0    0  0.42069646446E+02  0.83172974600E+01  0.66776404461E+01  0.47787268773E+02  0.19999989642E+02 0.  0.
         12    1    1    2    0    0 -0.42069646446E+02 -0.83172974600E+01 -0.66776404461E+01  0.43400731227E+02  0.00000000000E+00 0. -1.
         11    1    3    3    0    0  0.14296756167E+02  0.84470302446E+01  0.79060549477E+01  0.18391717210E+02  0.51100000000E-03 0. -1.
        -11    1    3    3    0    0  0.22806011607E+02  0.15319674146E+01  0.24603652773E+01  0.22989442950E+02  0.51100000000E-03 0.  1.
        -12    1    3    3    0    0  0.49668786727E+01 -0.16617001992E+01 -0.36887797790E+01  0.64061086128E+01  0.00000000000E+00 0.  1.
</event>
<event>
 7    1  0.1813014E-010  0.4778728E+02  0.7816164E-02  0.1312668E+00
        -11   -1    0    0    0    0  0.00000000000E+00  0.00000000000E+00  0.45593999997E+02  0.45594000000E+02  0.51100000000E-03 0.  1.
         11   -1    0    0    0    0 -0.00000000000E+00 -0.00000000000E+00 -0.45593999997E+02  0.45594000000E+02  0.51100000000E-03 0. -1.
    9900012    2    1    2    0    0 -0.89595902139E+01 -0.29909029641E+02  0.30146285425E+02  0.47787276092E+02  0.20000023013E+02 0.  0.
         12    1    1    2    0    0  0.89595902139E+01  0.29909029641E+02 -0.30146285425E+02  0.43400723908E+02  0.00000000000E+00 0. -1.
         11    1    3    3    0    0 -0.23919622245E+00 -0.60533799552E+01  0.11509583462E+02  0.13006580467E+02  0.51100000000E-03 0.  1.
        -11    1    3    3    0    0 -0.10466487109E+02 -0.74018959088E+01  0.82513093743E+01  0.15245311479E+02  0.51100000000E-03 0. -1.
         12    1    3    3    0    0  0.17460931171E+01 -0.16453753777E+02  0.10385392588E+02  0.19535384146E+02  0.00000000000E+00 0. -1.
</event>
<event>
 7    1  0.1813014E-010  0.4778727E+02  0.7816164E-02  0.1312668E+00
        -11   -1    0    0    0    0  0.00000000000E+00  0.00000000000E+00  0.45593999997E+02  0.45594000000E+02  0.51100000000E-03 0.  1.
         11   -1    0    0    0    0 -0.00000000000E+00 -0.00000000000E+00 -0.45593999997E+02  0.45594000000E+02  0.51100000000E-03 0. -1.
    9900012    2    1    2    0    0 -0.76916700694E+01 -0.38089903281E+02  0.19329272794E+02  0.47787270661E+02  0.19999998252E+02 0.  0.
         12    1    1    2    0    0  0.76916700694E+01  0.38089903281E+02 -0.19329272794E+02  0.43400729339E+02  0.00000000000E+00 0. -1.
         11    1    3    3    0    0 -0.34745266566E+01  0.50163304721E-01  0.39136416509E+01  0.52336835095E+01  0.51100000000E-03 0. -1.
        -11    1    3    3    0    0  0.18406299023E+01 -0.12614344493E+02  0.14412319352E+01  0.12829136961E+02  0.51100000000E-03 0.  1.
         12    1    3    3    0    0 -0.60577733151E+01 -0.25525722093E+02  0.13974399208E+02  0.29724450190E+02  0.00000000000E+00 0. -1.
</event>
<event>
 7    1  0.1813014E-010  0.4778727E+02  0.7816164E-02  0.1312668E+00
        -11   -1    0    0    0    0  0.00000000000E+00  0.00000000000E+00  0.45593999997E+02  0.45594000000E+02  0.51100000000E-03 0. -1.
         11   -1    0    0    0    0 -0.00000000000E+00 -0.00000000000E+00 -0.45593999997E+02  0.45594000000E+02  0.51100000000E-03 0.  1.
    9900012    2    1    2    0    0 -0.16786309043E+02  0.14122244352E+02 -0.37448702930E+02  0.47787270652E+02  0.19999998209E+02 0.  0.
         12    1    1    2    0    0  0.16786309043E+02 -0.14122244352E+02  0.37448702930E+02  0.43400729348E+02  0.00000000000E+00 0. -1.
         11    1    3    3    0    0  0.46499578905E+00  0.65464286002E+01 -0.11795927068E+02  0.13498734909E+02  0.51100000000E-03 0. -1.
        -11    1    3    3    0    0 -0.71526453247E+01 -0.57727417896E-01 -0.18301654711E+02  0.19649789643E+02  0.51100000000E-03 0.  1.
         12    1    3    3    0    0 -0.10098659508E+02  0.76335431701E+01 -0.73511211516E+01  0.14638746100E+02  0.00000000000E+00 0. -1.
</event>
<event>
 7    1  0.1813014E-010  0.4778727E+02  0.7816164E-02  0.1312668E+00
        -11   -1    0    0    0    0  0.00000000000E+00  0.00000000000E+00  0.45593999997E+02  0.45594000000E+02  0.51100000000E-03 0. -1.
         11   -1    0    0    0    0 -0.00000000000E+00 -0.00000000000E+00 -0.45593999997E+02  0.45594000000E+02  0.51100000000E-03 0.  1.
    9900012    2    1    2    0    0  0.26844987209E+02  0.33598947595E+02  0.58378629310E+01  0.47787271189E+02  0.20000000659E+02 0.  0.
         12    1    1    2    0    0 -0.26844987209E+02 -0.33598947595E+02 -0.58378629310E+01  0.43400728811E+02  0.00000000000E+00 0. -1.
         11    1    3    3    0    0  0.49670953626E+01  0.15808377420E+02  0.40036949882E+01  0.17047181785E+02  0.51100000000E-03 0. -1.
        -11    1    3    3    0    0  0.11196744766E+02  0.83207297596E+01 -0.51222455557E+01  0.14860653986E+02  0.51100000000E-03 0.  1.
         12    1    3    3    0    0  0.10681147080E+02  0.94698404150E+01  0.69564134986E+01  0.15879435418E+02  0.00000000000E+00 0. -1.
</event>
<event>
 7    1  0.1813014E-010  0.4778725E+02  0.7816164E-02  0.1312668E+00
        -11   -1    0    0    0    0  0.00000000000E+00  0.00000000000E+00  0.45593999997E+02  0.45594000000E+02  0.51100000000E-03 0.  1.
         11   -1    0    0    0    0 -0.00000000000E+00 -0.00000000000E+00 -0.45593999997E+02  0.45594000000E+02  0.51100000000E-03 0. -1.
    9900012    2    1    2    0    0  0.38814152747E+02 -0.14901128296E+02  0.12451636539E+02  0.47787247351E+02  0.19999891974E+02 0.  0.
         12    1    1    2    0    0 -0.38814152747E+02  0.14901128296E+02 -0.12451636539E+02  0.43400752649E+02  0.00000000000E+00 0. -1.
         11    1    3    3    0    0  0.45505417596E+01 -0.33021581431E+01  0.33567364447E+01  0.65482332371E+01  0.51100000000E-03 0.  1.
        -11    1    3    3    0    0  0.17964809514E+02 -0.98707214301E+01  0.13151609394E+02  0.24354267641E+02  0.51100000000E-03 0. -1.
        -12    1    3    3    0    0  0.16298801474E+02 -0.17282487232E+01 -0.40567092997E+01  0.16884746474E+02  0.00000000000E+00 0.  1.
</event>
<event>
 7    1  0.1813014E-010  0.4778728E+02  0.7816164E-02  0.1312668E+00
        -11   -1    0    0    0    0  0.00000000000E+00  0.00000000000E+00  0.45593999997E+02  0.45594000000E+02  0.51100000000E-03 0. -1.
         11   -1    0    0    0    0 -0.00000000000E+00 -0.00000000000E+00 -0.45593999997E+02  0.45594000000E+02  0.51100000000E-03 0.  1.
    9900012    2    1    2    0    0  0.23178693396E+02 -0.28366670056E+02 -0.23274511074E+02  0.47787278078E+02  0.20000032067E+02 0.  0.
         12    1    1    2    0    0 -0.23178693396E+02  0.28366670056E+02  0.23274511074E+02  0.43400721922E+02  0.00000000000E+00 0. -1.
         11    1    3    3    0    0  0.65895130705E+01 -0.17737133063E+02 -0.11265261965E+02  0.22021210212E+02  0.51100000000E-03 0. -1.
        -11    1    3    3    0    0  0.10637368644E+02 -0.77635488290E+01 -0.13664958174E+01  0.13239849439E+02  0.51100000000E-03 0.  1.
         12    1    3    3    0    0  0.59518116820E+01 -0.28659881646E+01 -0.10642753292E+02  0.12526218427E+02  0.00000000000E+00 0. -1.
</event>
<event>
 7    1  0.1813014E-010  0.4778727E+02  0.7816164E-02  0.1312668E+00
        -11   -1    0    0    0    0  0.00000000000E+00  0.00000000000E+00  0.45593999997E+02  0.45594000000E+02  0.51100000000E-03 0.  1.
         11   -1    0    0    0    0 -0.00000000000E+00 -0.00000000000E+00 -0.45593999997E+02  0.45594000000E+02  0.51100000000E-03 0. -1.
    9900012    2    1    2    0    0  0.85289426028E+01 -0.71118001508E+01  0.41955961785E+02  0.47787270829E+02  0.19999999017E+02 0.  0.
         12    1    1    2    0    0 -0.85289426028E+01  0.71118001508E+01 -0.41955961785E+02  0.43400729171E+02  0.00000000000E+00 0. -1.
         11    1    3    3    0    0 -0.45638035880E+01 -0.23891678476E+01  0.59241566828E+01  0.78506088208E+01  0.51100000000E-03 0. -1.
        -11    1    3    3    0    0  0.72258913534E+01  0.49369223944E-01  0.74800801522E+01  0.10400362615E+02  0.51100000000E-03 0.  1.
         12    1    3    3    0    0  0.58668548374E+01 -0.47720015272E+01  0.28551724950E+02  0.29536299394E+02  0.00000000000E+00 0. -1.
</event>
<event>
 7    1  0.1813014E-010  0.4778726E+02  0.7816164E-02  0.1312668E+00
        -11   -1    0    0    0    0  0.00000000000E+00  0.00000000000E+00  0.45593999997E+02  0.45594000000E+02  0.51100000000E-03 0.  1.
         11   -1    0    0    0    0 -0.00000000000E+00 -0.00000000000E+00 -0.45593999997E+02  0.45594000000E+02  0.51100000000E-03 0. -1.
    9900012    2    1    2    0    0  0.43140242684E+02  0.47362757224E+01 -0.33334739094E+00  0.47787263059E+02  0.19999963591E+02 0.  0.
         12    1    1    2    0    0 -0.43140242684E+02 -0.47362757224E+01  0.33334739094E+00  0.43400736941E+02  0.00000000000E+00 0. -1.
         11    1    3    3    0    0  0.27670543056E+02 -0.31976917495E+01  0.52259834957E+01  0.28340696697E+02  0.51100000000E-03 0.  1.
        -11    1    3    3    0    0  0.13492801496E+02  0.40986886335E+01 -0.29587153262E+01  0.14408641066E+02  0.51100000000E-03 0. -1.
        -12    1    3    3    0    0  0.19768981324E+01  0.38352788384E+01 -0.26006155604E+01  0.50379252959E+01  0.00000000000E+00 0.  1.
</event>
<event>
 7    1  0.1813014E-010  0.4778729E+02  0.7816164E-02  0.1312668E+00
        -11   -1    0    0    0    0  0.00000000000E+00  0.00000000000E+00  0.45593999997E+02  0.45594000000E+02  0.51100000000E-03 0. -1.
         11   -1    0    0    0    0 -0.00000000000E+00 -0.00000000000E+00 -0.45593999997E+02  0.45594000000E+02  0.51100000000E-03 0.  1.
    9900012    2    1    2    0    0  0.98886871486E+01 -0.41021222597E+02 -0.10153577027E+02  0.47787286143E+02  0.20000068839E+02 0.  0.
         12    1    1    2    0    0 -0.98886871486E+01  0.41021222597E+02  0.10153577027E+02  0.43400713857E+02  0.00000000000E+00 0. -1.
         11    1    3    3    0    0  0.17141472456E+01 -0.68488160345E+01  0.17589008626E+01  0.72758720687E+01  0.51100000000E-03 0. -1.
        -11    1    3    3    0    0  0.54691008088E+01 -0.31094893605E+02 -0.15402549954E+02  0.35128934189E+02  0.51100000000E-03 0.  1.
        -12    1    3    3    0    0  0.27054390942E+01 -0.30775129580E+01  0.34900720639E+01  0.53824798848E+01  0.00000000000E+00 0.  1.
</event>
<event>
 7    1  0.1813014E-010  0.4778728E+02  0.7816164E-02  0.1312668E+00
        -11   -1    0    0    0    0  0.00000000000E+00  0.00000000000E+00  0.45593999997E+02  0.45594000000E+02  0.51100000000E-03 0.  1.
         11   -1    0    0    0    0 -0.00000000000E+00 -0.00000000000E+00 -0.45593999997E+02  0.45594000000E+02  0.51100000000E-03 0. -1.
    9900012    2    1    2    0    0 -0.23047796994E+02  0.11183841540E+02  0.35033462855E+02  0.47787276763E+02  0.20000026074E+02 0.  0.
         12    1    1    2    0    0  0.23047796994E+02 -0.11183841540E+02 -0.35033462855E+02  0.43400723237E+02  0.00000000000E+00 0. -1.
         11    1    3    3    0    0 -0.13312011576E+02 -0.97697537980E+00  0.63861414009E+01  0.14796855590E+02  0.51100000000E-03 0. -1.
        -11    1    3    3    0    0 -0.70207641419E+01  0.50175243064E+01  0.13456525676E+02  0.15985767508E+02  0.51100000000E-03 0.  1.
         12    1    3    3    0    0 -0.27150212762E+01  0.71432926137E+01  0.15190795778E+02  0.17004653665E+02  0.00000000000E+00 0. -1.
</event>
<event>
 7    1  0.1813014E-010  0.4778728E+02  0.7816164E-02  0.1312668E+00
        -11   -1    0    0    0    0  0.00000000000E+00  0.00000000000E+00  0.45593999997E+02  0.45594000000E+02  0.51100000000E-03 0.  1.
         11   -1    0    0    0    0 -0.00000000000E+00 -0.00000000000E+00 -0.45593999997E+02  0.45594000000E+02  0.51100000000E-03 0. -1.
    9900012    2    1    2    0    0  0.86299308321E+01  0.39265402960E+01  0.42352442219E+02  0.47787276656E+02  0.20000025585E+02 0.  0.
         12    1    1    2    0    0 -0.86299308321E+01 -0.39265402960E+01 -0.42352442219E+02  0.43400723344E+02  0.00000000000E+00 0. -1.
         11    1    3    3    0    0  0.90501121619E+00 -0.51876040937E+01  0.70264638391E+01  0.87807446084E+01  0.51100000000E-03 0. -1.
        -11    1    3    3    0    0  0.17400304773E+01 -0.13184265253E+01  0.16651954020E+02  0.16794449307E+02  0.51100000000E-03 0.  1.
         12    1    3    3    0    0  0.59848891386E+01  0.10432570915E+02  0.18674024360E+02  0.22212082741E+02  0.00000000000E+00 0. -1.
</event>
<event>
 7    1  0.1813014E-010  0.4778727E+02  0.7816164E-02  0.1312668E+00
        -11   -1    0    0    0    0  0.00000000000E+00  0.00000000000E+00  0.45593999997E+02  0.45594000000E+02  0.51100000000E-03 0.  1.
         11   -1    0    0    0    0 -0.00000000000E+00 -0.00000000000E+00 -0.45593999997E+02  0.45594000000E+02  0.51100000000E-03 0. -1.
    9900012    2    1    2    0    0 -0.12597435038E+01 -0.41275236808E+02  0.13356305884E+02  0.47787273806E+02  0.20000012592E+02 0.  0.
         12    1    1    2    0    0  0.12597435038E+01  0.41275236808E+02 -0.13356305884E+02  0.43400726194E+02  0.00000000000E+00 0. -1.
         11    1    3    3    0    0 -0.29638749028E+01 -0.80458684888E+01 -0.40432923454E+01  0.94799138936E+01  0.51100000000E-03 0. -1.
        -11    1    3    3    0    0 -0.26333414705E+01 -0.16097927145E+02  0.65987882038E+01  0.17596072052E+02  0.51100000000E-03 0.  1.
        -12    1    3    3    0    0  0.43374728695E+01 -0.17131441175E+02  0.10800810026E+02  0.20711287860E+02  0.00000000000E+00 0.  1.
</event>
<event>
 7    1  0.1813014E-010  0.4778727E+02  0.7816164E-02  0.1312668E+00
        -11   -1    0    0    0    0  0.00000000000E+00  0.00000000000E+00  0.45593999997E+02  0.45594000000E+02  0.51100000000E-03 0.  1.
         11   -1    0    0    0    0 -0.00000000000E+00 -0.00000000000E+00 -0.45593999997E+02  0.45594000000E+02  0.51100000000E-03 0. -1.
    9900012    2    1    2    0    0  0.16119716054E+02  0.40224000453E+02 -0.24099606200E+01  0.47787269957E+02  0.19999995041E+02 0.  0.
         12    1    1    2    0    0 -0.16119716054E+02 -0.40224000453E+02  0.24099606200E+01  0.43400730043E+02  0.00000000000E+00 0. -1.
         11    1    3    3    0    0  0.85494231155E+01  0.80669821562E+01  0.28025956205E+01  0.12084013373E+02  0.51100000000E-03 0. -1.
        -11    1    3    3    0    0  0.24615273220E+01  0.77247998023E+00 -0.28104500331E+01  0.38150323362E+01  0.51100000000E-03 0.  1.
        -12    1    3    3    0    0  0.51087656170E+01  0.31384538316E+02 -0.24021062074E+01  0.31888224248E+02  0.00000000000E+00 0.  1.
</event>
<event>
 7    1  0.1813014E-010  0.4778727E+02  0.7816164E-02  0.1312668E+00
        -11   -1    0    0    0    0  0.00000000000E+00  0.00000000000E+00  0.45593999997E+02  0.45594000000E+02  0.51100000000E-03 0.  1.
         11   -1    0    0    0    0 -0.00000000000E+00 -0.00000000000E+00 -0.45593999997E+02  0.45594000000E+02  0.51100000000E-03 0. -1.
    9900012    2    1    2    0    0  0.44899194136E+01  0.38874963967E+02  0.18767021193E+02  0.47787270925E+02  0.19999999457E+02 0.  0.
         12    1    1    2    0    0 -0.44899194136E+01 -0.38874963967E+02 -0.18767021193E+02  0.43400729075E+02  0.00000000000E+00 0. -1.
         11    1    3    3    0    0  0.45994092433E+01  0.12747918615E+02  0.36708283621E+01  0.14040618773E+02  0.51100000000E-03 0. -1.
        -11    1    3    3    0    0 -0.66156937990E+01  0.14524178636E+02  0.40756079989E+01  0.16472090041E+02  0.51100000000E-03 0.  1.
        -12    1    3    3    0    0  0.65062039693E+01  0.11602866716E+02  0.11020584832E+02  0.17274562112E+02  0.00000000000E+00 0.  1.
</event>
<event>
 7    1  0.1813014E-010  0.4778727E+02  0.7816164E-02  0.1312668E+00
        -11   -1    0    0    0    0  0.00000000000E+00  0.00000000000E+00  0.45593999997E+02  0.45594000000E+02  0.51100000000E-03 0.  1.
         11   -1    0    0    0    0 -0.00000000000E+00 -0.00000000000E+00 -0.45593999997E+02  0.45594000000E+02  0.51100000000E-03 0. -1.
    9900012    2    1    2    0    0 -0.41412464997E+02 -0.33137565988E+00  0.12981563235E+02  0.47787273612E+02  0.20000011707E+02 0.  0.
         12    1    1    2    0    0  0.41412464997E+02  0.33137565988E+00 -0.12981563235E+02  0.43400726388E+02  0.00000000000E+00 0. -1.
         11    1    3    3    0    0 -0.94072199058E+01  0.68967916898E+00 -0.21156735207E+01  0.96668256641E+01  0.51100000000E-03 0.  1.
        -11    1    3    3    0    0 -0.27050486551E+01  0.25011420993E+01 -0.18147708350E+01  0.41068714944E+01  0.51100000000E-03 0. -1.
        -12    1    3    3    0    0 -0.29300196436E+02 -0.35221969281E+01  0.16912007591E+02  0.34013576454E+02  0.00000000000E+00 0.  1.
</event>
<event>
 7    1  0.1813014E-010  0.4778727E+02  0.7816164E-02  0.1312668E+00
        -11   -1    0    0    0    0  0.00000000000E+00  0.00000000000E+00  0.45593999997E+02  0.45594000000E+02  0.51100000000E-03 0.  1.
         11   -1    0    0    0    0 -0.00000000000E+00 -0.00000000000E+00 -0.45593999997E+02  0.45594000000E+02  0.51100000000E-03 0. -1.
    9900012    2    1    2    0    0 -0.78134479079E+01  0.28476997494E+02  0.31806199180E+02  0.47787266588E+02  0.19999979680E+02 0.  0.
         12    1    1    2    0    0  0.78134479079E+01 -0.28476997494E+02 -0.31806199180E+02  0.43400733412E+02  0.00000000000E+00 0. -1.
         11    1    3    3    0    0  0.15792856354E+01  0.10273879204E+02  0.19565206829E+01  0.10577084214E+02  0.51100000000E-03 0. -1.
        -11    1    3    3    0    0 -0.45562121902E+01  0.14150937384E+02  0.15209596653E+02  0.21268284580E+02  0.51100000000E-03 0.  1.
        -12    1    3    3    0    0 -0.48365213530E+01  0.40521809061E+01  0.14640081844E+02  0.15941897794E+02  0.00000000000E+00 0.  1.
</event>
<event>
 7    1  0.1813014E-010  0.4778726E+02  0.7816164E-02  0.1312668E+00
        -11   -1    0    0    0    0  0.00000000000E+00  0.00000000000E+00  0.45593999997E+02  0.45594000000E+02  0.51100000000E-03 0.  1.
         11   -1    0    0    0    0 -0.00000000000E+00 -0.00000000000E+00 -0.45593999997E+02  0.45594000000E+02  0.51100000000E-03 0. -1.
    9900012    2    1    2    0    0 -0.20698662873E+02 -0.29039346062E+02 -0.24736727688E+02  0.47787263126E+02  0.19999963899E+02 0.  0.
         12    1    1    2    0    0  0.20698662873E+02  0.29039346062E+02  0.24736727688E+02  0.43400736874E+02  0.00000000000E+00 0. -1.
         11    1    3    3    0    0 -0.62692266858E+00 -0.39974351830E+01 -0.83295829432E+01  0.92603710694E+01  0.51100000000E-03 0. -1.
        -11    1    3    3    0    0  0.87727468121E+00 -0.69953230664E+01 -0.48565129890E+01  0.85609505513E+01  0.51100000000E-03 0.  1.
        -12    1    3    3    0    0 -0.20949014886E+02 -0.18046587812E+02 -0.11550631756E+02  0.29965941506E+02  0.00000000000E+00 0.  1.
</event>
<event>
 7    1  0.1813014E-010  0.4778727E+02  0.7816164E-02  0.1312668E+00
        -11   -1    0    0    0    0  0.00000000000E+00  0.00000000000E+00  0.45593999997E+02  0.45594000000E+02  0.51100000000E-03 0.  1.
         11   -1    0    0    0    0 -0.00000000000E+00 -0.00000000000E+00 -0.45593999997E+02  0.45594000000E+02  0.51100000000E-03 0. -1.
    9900012    2    1    2    0    0  0.22811578538E+02 -0.31936816640E+02  0.18528211302E+02  0.47787274354E+02  0.20000015091E+02 0.  0.
         12    1    1    2    0    0 -0.22811578538E+02  0.31936816640E+02 -0.18528211302E+02  0.43400725646E+02  0.00000000000E+00 0. -1.
         11    1    3    3    0    0  0.10808491870E+01  0.24918695222E+00 -0.23188331064E+01  0.25704700618E+01  0.51100000000E-03 0. -1.
        -11    1    3    3    0    0  0.54828298259E+01 -0.16711120553E+02  0.10739531920E+02  0.20607292863E+02  0.51100000000E-03 0.  1.
         12    1    3    3    0    0  0.16247899526E+02 -0.15474883040E+02  0.10107512488E+02  0.24609511429E+02  0.00000000000E+00 0. -1.
</event>
<event>
 7    1  0.1813014E-010  0.4778728E+02  0.7816164E-02  0.1312668E+00
        -11   -1    0    0    0    0  0.00000000000E+00  0.00000000000E+00  0.45593999997E+02  0.45594000000E+02  0.51100000000E-03 0. -1.
         11   -1    0    0    0    0 -0.00000000000E+00 -0.00000000000E+00 -0.45593999997E+02  0.45594000000E+02  0.51100000000E-03 0.  1.
    9900012    2    1    2    0    0 -0.14148964816E+02 -0.34003156814E+02  0.22961157144E+02  0.47787278622E+02  0.20000034550E+02 0.  0.
         12    1    1    2    0    0  0.14148964816E+02  0.34003156814E+02 -0.22961157144E+02  0.43400721378E+02  0.00000000000E+00 0. -1.
         11    1    3    3    0    0 -0.70148400198E+00  0.16294522998E+00  0.33984567950E+01  0.34739228261E+01  0.51100000000E-03 0. -1.
        -11    1    3    3    0    0 -0.33651446914E+01 -0.11019152600E+02  0.14573318195E+02  0.18577608196E+02  0.51100000000E-03 0.  1.
         12    1    3    3    0    0 -0.10082336122E+02 -0.23146949444E+02  0.49893821547E+01  0.25735747600E+02  0.00000000000E+00 0. -1.
</event>
<event>
 7    1  0.1813014E-010  0.4778727E+02  0.7816164E-02  0.1312668E+00
        -11   -1    0    0    0    0  0.00000000000E+00  0.00000000000E+00  0.45593999997E+02  0.45594000000E+02  0.51100000000E-03 0.  1.
         11   -1    0    0    0    0 -0.00000000000E+00 -0.00000000000E+00 -0.45593999997E+02  0.45594000000E+02  0.51100000000E-03 0. -1.
    9900012    2    1    2    0    0  0.20496812560E+02  0.31401008394E+02  0.21851328072E+02  0.47787271990E+02  0.20000004313E+02 0.  0.
         12    1    1    2    0    0 -0.20496812560E+02 -0.31401008394E+02 -0.21851328072E+02  0.43400728010E+02  0.00000000000E+00 0. -1.
         11    1    3    3    0    0 -0.32044771668E-01  0.53463504572E+01 -0.19092921409E+00  0.53498546060E+01  0.51100000000E-03 0. -1.
        -11    1    3    3    0    0  0.15426782072E+02  0.80605216204E+01  0.12585504352E+02  0.21479118556E+02  0.51100000000E-03 0.  1.
        -12    1    3    3    0    0  0.51020752596E+01  0.17994136316E+02  0.94567529338E+01  0.20958298828E+02  0.00000000000E+00 0.  1.
</event>
<event>
 7    1  0.1813014E-010  0.4778727E+02  0.7816164E-02  0.1312668E+00
        -11   -1    0    0    0    0  0.00000000000E+00  0.00000000000E+00  0.45593999997E+02  0.45594000000E+02  0.51100000000E-03 0.  1.
         11   -1    0    0    0    0 -0.00000000000E+00 -0.00000000000E+00 -0.45593999997E+02  0.45594000000E+02  0.51100000000E-03 0. -1.
    9900012    2    1    2    0    0  0.14159065680E+02  0.38094218808E+02  0.15230706364E+02  0.47787273464E+02  0.20000011031E+02 0.  0.
         12    1    1    2    0    0 -0.14159065680E+02 -0.38094218808E+02 -0.15230706364E+02  0.43400726536E+02  0.00000000000E+00 0. -1.
         11    1    3    3    0    0  0.36906246254E+01  0.58103943459E+01  0.97635880429E+01  0.11946089080E+02  0.51100000000E-03 0.  1.
        -11    1    3    3    0    0  0.11017662202E+01  0.88458340106E+01 -0.26971546973E+01  0.93132868456E+01  0.51100000000E-03 0. -1.
        -12    1    3    3    0    0  0.93666748344E+01  0.23437990452E+02  0.81642730180E+01  0.26527897538E+02  0.00000000000E+00 0.  1.
</event>
<event>
 7    1  0.1813014E-010  0.4778726E+02  0.7816164E-02  0.1312668E+00
        -11   -1    0    0    0    0  0.00000000000E+00  0.00000000000E+00  0.45593999997E+02  0.45594000000E+02  0.51100000000E-03 0.  1.
         11   -1    0    0    0    0 -0.00000000000E+00 -0.00000000000E+00 -0.45593999997E+02  0.45594000000E+02  0.51100000000E-03 0. -1.
    9900012    2    1    2    0    0  0.19991328741E+02 -0.26656707915E+02  0.27809910271E+02  0.47787257944E+02  0.19999940270E+02 0.  0.
         12    1    1    2    0    0 -0.19991328741E+02  0.26656707915E+02 -0.27809910271E+02  0.43400742056E+02  0.00000000000E+00 0. -1.
         11    1    3    3    0    0  0.51559858919E+01 -0.27919586708E+01  0.98098324117E+01  0.11428562287E+02  0.51100000000E-03 0. -1.
        -11    1    3    3    0    0  0.92183652992E-01 -0.61163319673E+01 -0.13283632766E+01  0.62595977360E+01  0.51100000000E-03 0.  1.
        -12    1    3    3    0    0  0.14743159196E+02 -0.17748417277E+02  0.19328441136E+02  0.30099097921E+02  0.00000000000E+00 0.  1.
</event>
<event>
 7    1  0.1813014E-010  0.4778727E+02  0.7816164E-02  0.1312668E+00
        -11   -1    0    0    0    0  0.00000000000E+00  0.00000000000E+00  0.45593999997E+02  0.45594000000E+02  0.51100000000E-03 0.  1.
         11   -1    0    0    0    0 -0.00000000000E+00 -0.00000000000E+00 -0.45593999997E+02  0.45594000000E+02  0.51100000000E-03 0. -1.
    9900012    2    1    2    0    0  0.11451467022E+02  0.18438566798E+02  0.37583324509E+02  0.47787272775E+02  0.20000007891E+02 0.  0.
         12    1    1    2    0    0 -0.11451467022E+02 -0.18438566798E+02 -0.37583324509E+02  0.43400727225E+02  0.00000000000E+00 0. -1.
         11    1    3    3    0    0  0.17156359382E+01  0.50757307614E+01  0.35426989963E+01  0.64231741276E+01  0.51100000000E-03 0. -1.
        -11    1    3    3    0    0 -0.16879985536E+01  0.11769142292E+02  0.15621206059E+02  0.19631202929E+02  0.51100000000E-03 0.  1.
         12    1    3    3    0    0  0.11423829638E+02  0.15936937438E+01  0.18419419453E+02  0.21732895719E+02  0.00000000000E+00 0. -1.
</event>
<event>
 7    1  0.1813014E-010  0.4778727E+02  0.7816164E-02  0.1312668E+00
        -11   -1    0    0    0    0  0.00000000000E+00  0.00000000000E+00  0.45593999997E+02  0.45594000000E+02  0.51100000000E-03 0. -1.
         11   -1    0    0    0    0 -0.00000000000E+00 -0.00000000000E+00 -0.45593999997E+02  0.45594000000E+02  0.51100000000E-03 0.  1.
    9900012    2    1    2    0    0  0.36120509473E+02 -0.16280032775E+02 -0.17717025409E+02  0.47787266584E+02  0.19999979662E+02 0.  0.
         12    1    1    2    0    0 -0.36120509473E+02  0.16280032775E+02  0.17717025409E+02  0.43400733416E+02  0.00000000000E+00 0. -1.
         11    1    3    3    0    0  0.10959834811E+02 -0.22953126762E+01  0.11299750883E+01  0.11254478368E+02  0.51100000000E-03 0. -1.
        -11    1    3    3    0    0  0.18582229435E+02 -0.15193766838E+02 -0.11560948724E+02  0.26642172156E+02  0.51100000000E-03 0.  1.
        -12    1    3    3    0    0  0.65784452263E+01  0.12090467392E+01 -0.72860517733E+01  0.98906160605E+01  0.00000000000E+00 0.  1.
</event>
<event>
 7    1  0.1813014E-010  0.4778727E+02  0.7816164E-02  0.1312668E+00
        -11   -1    0    0    0    0  0.00000000000E+00  0.00000000000E+00  0.45593999997E+02  0.45594000000E+02  0.51100000000E-03 0.  1.
         11   -1    0    0    0    0 -0.00000000000E+00 -0.00000000000E+00 -0.45593999997E+02  0.45594000000E+02  0.51100000000E-03 0. -1.
    9900012    2    1    2    0    0  0.21106924848E+02 -0.37134989681E+02 -0.76885528298E+01  0.47787267521E+02  0.19999983935E+02 0.  0.
         12    1    1    2    0    0 -0.21106924848E+02  0.37134989681E+02  0.76885528298E+01  0.43400732479E+02  0.00000000000E+00 0. -1.
         11    1    3    3    0    0 -0.45219464164E+00 -0.40083754175E-01 -0.31826856153E+01  0.32148988613E+01  0.51100000000E-03 0. -1.
        -11    1    3    3    0    0  0.46389760661E+01 -0.15982830446E+02  0.19523035983E+01  0.16756564613E+02  0.51100000000E-03 0.  1.
        -12    1    3    3    0    0  0.16920143423E+02 -0.21112075480E+02 -0.64581708128E+01  0.27815804047E+02  0.00000000000E+00 0.  1.
</event>
<event>
 7    1  0.1813014E-010  0.4778727E+02  0.7816164E-02  0.1312668E+00
        -11   -1    0    0    0    0  0.00000000000E+00  0.00000000000E+00  0.45593999997E+02  0.45594000000E+02  0.51100000000E-03 0.  1.
         11   -1    0    0    0    0 -0.00000000000E+00 -0.00000000000E+00 -0.45593999997E+02  0.45594000000E+02  0.51100000000E-03 0. -1.
    9900012    2    1    2    0    0  0.28481541265E+02  0.48828933172E+01  0.32381823791E+02  0.47787270144E+02  0.19999995895E+02 0.  0.
         12    1    1    2    0    0 -0.28481541265E+02 -0.48828933172E+01 -0.32381823791E+02  0.43400729856E+02  0.00000000000E+00 0. -1.
         11    1    3    3    0    0  0.97580104691E+01 -0.74068592207E+01  0.10136226317E+02  0.15900421882E+02  0.51100000000E-03 0. -1.
        -11    1    3    3    0    0  0.44564242178E+01  0.43222231081E+01  0.39606186898E+01  0.73639547848E+01  0.51100000000E-03 0.  1.
         12    1    3    3    0    0  0.14267106578E+02  0.79675294298E+01  0.18284978785E+02  0.24522893477E+02  0.00000000000E+00 0. -1.
</event>
<event>
 7    1  0.1813014E-010  0.4778727E+02  0.7816164E-02  0.1312668E+00
        -11   -1    0    0    0    0  0.00000000000E+00  0.00000000000E+00  0.45593999997E+02  0.45594000000E+02  0.51100000000E-03 0. -1.
         11   -1    0    0    0    0 -0.00000000000E+00 -0.00000000000E+00 -0.45593999997E+02  0.45594000000E+02  0.51100000000E-03 0.  1.
    9900012    2    1    2    0    0  0.27746225721E+02  0.32343166964E+02  0.82274067183E+01  0.47787265993E+02  0.19999976970E+02 0.  0.
         12    1    1    2    0    0 -0.27746225721E+02 -0.32343166964E+02 -0.82274067183E+01  0.43400734007E+02  0.00000000000E+00 0. -1.
         11    1    3    3    0    0 -0.15067454670E+01  0.87868111861E+01  0.35384670099E+01  0.95916151801E+01  0.51100000000E-03 0. -1.
        -11    1    3    3    0    0  0.12694334089E+02  0.13392334348E+02  0.15931351367E+01  0.18521307110E+02  0.51100000000E-03 0.  1.
        -12    1    3    3    0    0  0.16558637099E+02  0.10164021430E+02  0.30958045717E+01  0.19674343703E+02  0.00000000000E+00 0.  1.
</event>
<event>
 7    1  0.1813014E-010  0.4778727E+02  0.7816164E-02  0.1312668E+00
        -11   -1    0    0    0    0  0.00000000000E+00  0.00000000000E+00  0.45593999997E+02  0.45594000000E+02  0.51100000000E-03 0.  1.
         11   -1    0    0    0    0 -0.00000000000E+00 -0.00000000000E+00 -0.45593999997E+02  0.45594000000E+02  0.51100000000E-03 0. -1.
    9900012    2    1    2    0    0 -0.20551294055E+02 -0.36578084250E+02  0.11104569659E+02  0.47787269567E+02  0.19999993266E+02 0.  0.
         12    1    1    2    0    0  0.20551294055E+02  0.36578084250E+02 -0.11104569659E+02  0.43400730433E+02  0.00000000000E+00 0. -1.
         11    1    3    3    0    0 -0.49927977151E+01 -0.16740290214E+01  0.23195493272E-01  0.52660175161E+01  0.51100000000E-03 0. -1.
        -11    1    3    3    0    0  0.26269337756E+00 -0.15995229778E+02  0.72771537641E+01  0.17574793046E+02  0.51100000000E-03 0.  1.
        -12    1    3    3    0    0 -0.15821189718E+02 -0.18908825451E+02  0.38042204019E+01  0.24946459005E+02  0.00000000000E+00 0.  1.
</event>
<event>
 7    1  0.1813014E-010  0.4778727E+02  0.7816164E-02  0.1312668E+00
        -11   -1    0    0    0    0  0.00000000000E+00  0.00000000000E+00  0.45593999997E+02  0.45594000000E+02  0.51100000000E-03 0.  1.
         11   -1    0    0    0    0 -0.00000000000E+00 -0.00000000000E+00 -0.45593999997E+02  0.45594000000E+02  0.51100000000E-03 0. -1.
    9900012    2    1    2    0    0  0.56605724793E+01  0.30356281767E+02  0.30497169132E+02  0.47787271336E+02  0.20000001328E+02 0.  0.
         12    1    1    2    0    0 -0.56605724793E+01 -0.30356281767E+02 -0.30497169132E+02  0.43400728664E+02  0.00000000000E+00 0. -1.
         11    1    3    3    0    0  0.15588653766E+01  0.20649278183E+02  0.23243222303E+02  0.31129891327E+02  0.51100000000E-03 0. -1.
        -11    1    3    3    0    0 -0.25369029097E+01  0.68861955554E+01  0.16464226191E+01  0.75210553317E+01  0.51100000000E-03 0.  1.
         12    1    3    3    0    0  0.66386100125E+01  0.28208080280E+01  0.56075242100E+01  0.91363246765E+01  0.00000000000E+00 0. -1.
</event>
<event>
 7    1  0.1813014E-010  0.4778727E+02  0.7816164E-02  0.1312668E+00
        -11   -1    0    0    0    0  0.00000000000E+00  0.00000000000E+00  0.45593999997E+02  0.45594000000E+02  0.51100000000E-03 0.  1.
         11   -1    0    0    0    0 -0.00000000000E+00 -0.00000000000E+00 -0.45593999997E+02  0.45594000000E+02  0.51100000000E-03 0. -1.
    9900012    2    1    2    0    0 -0.22072816997E+02  0.20118329248E+02  0.31490746320E+02  0.47787268143E+02  0.19999986772E+02 0.  0.
         12    1    1    2    0    0  0.22072816997E+02 -0.20118329248E+02 -0.31490746320E+02  0.43400731857E+02  0.00000000000E+00 0. -1.
         11    1    3    3    0    0 -0.16531031290E+01 -0.20765465267E+01  0.77438404184E+01  0.81860772119E+01  0.51100000000E-03 0. -1.
        -11    1    3    3    0    0 -0.16129768933E+02  0.16676068995E+02  0.22833082285E+02  0.32551656945E+02  0.51100000000E-03 0.  1.
        -12    1    3    3    0    0 -0.42899449353E+01  0.55188067796E+01  0.91382361625E+00  0.70495339860E+01  0.00000000000E+00 0.  1.
</event>
<event>
 7    1  0.1813014E-010  0.4778727E+02  0.7816164E-02  0.1312668E+00
        -11   -1    0    0    0    0  0.00000000000E+00  0.00000000000E+00  0.45593999997E+02  0.45594000000E+02  0.51100000000E-03 0.  1.
         11   -1    0    0    0    0 -0.00000000000E+00 -0.00000000000E+00 -0.45593999997E+02  0.45594000000E+02  0.51100000000E-03 0. -1.
    9900012    2    1    2    0    0  0.36165251579E+02 -0.21200676272E+02  0.11235173440E+02  0.47787271684E+02  0.20000002916E+02 0.  0.
         12    1    1    2    0    0 -0.36165251579E+02  0.21200676272E+02 -0.11235173440E+02  0.43400728316E+02  0.00000000000E+00 0. -1.
         11    1    3    3    0    0  0.34562890371E+01 -0.10063094814E+01  0.66320878419E+01  0.75460706387E+01  0.51100000000E-03 0. -1.
        -11    1    3    3    0    0  0.96256841010E+01 -0.57002622685E+01 -0.36421796751E+01  0.11764873879E+02  0.51100000000E-03 0.  1.
         12    1    3    3    0    0  0.23083278440E+02 -0.14494104522E+02  0.82452652729E+01  0.28476327166E+02  0.00000000000E+00 0. -1.
</event>
<event>
 7    1  0.1813014E-010  0.4778727E+02  0.7816164E-02  0.1312668E+00
        -11   -1    0    0    0    0  0.00000000000E+00  0.00000000000E+00  0.45593999997E+02  0.45594000000E+02  0.51100000000E-03 0.  1.
         11   -1    0    0    0    0 -0.00000000000E+00 -0.00000000000E+00 -0.45593999997E+02  0.45594000000E+02  0.51100000000E-03 0. -1.
    9900012    2    1    2    0    0 -0.38836741835E+02 -0.19146153994E+02  0.29589588467E+01  0.47787272281E+02  0.20000005638E+02 0.  0.
         12    1    1    2    0    0  0.38836741835E+02  0.19146153994E+02 -0.29589588467E+01  0.43400727719E+02  0.00000000000E+00 0. -1.
         11    1    3    3    0    0 -0.18107159496E+02 -0.39109716909E+01 -0.30179174114E+01  0.18768930452E+02  0.51100000000E-03 0. -1.
        -11    1    3    3    0    0 -0.15727515130E+02 -0.15824174360E+02  0.16380682511E+01  0.22370572058E+02  0.51100000000E-03 0.  1.
         12    1    3    3    0    0 -0.50020672087E+01  0.58899205663E+00  0.43388080070E+01  0.66477697707E+01  0.00000000000E+00 0. -1.
</event>
<event>
 7    1  0.1813014E-010  0.4778727E+02  0.7816164E-02  0.1312668E+00
        -11   -1    0    0    0    0  0.00000000000E+00  0.00000000000E+00  0.45593999997E+02  0.45594000000E+02  0.51100000000E-03 0.  1.
         11   -1    0    0    0    0 -0.00000000000E+00 -0.00000000000E+00 -0.45593999997E+02  0.45594000000E+02  0.51100000000E-03 0. -1.
    9900012    2    1    2    0    0  0.14354958451E+02  0.37140767091E+02  0.17266200153E+02  0.47787273278E+02  0.20000010184E+02 0.  0.
         12    1    1    2    0    0 -0.14354958451E+02 -0.37140767091E+02 -0.17266200153E+02  0.43400726722E+02  0.00000000000E+00 0. -1.
         11    1    3    3    0    0  0.15625885012E+01  0.10924521923E+02  0.10900996213E+02  0.15511885145E+02  0.51100000000E-03 0. -1.
        -11    1    3    3    0    0  0.27138527714E+01  0.84031173012E+01 -0.35698874860E+01  0.95247821060E+01  0.51100000000E-03 0.  1.
         12    1    3    3    0    0  0.10078517178E+02  0.17813127868E+02  0.99350914259E+01  0.22750606027E+02  0.00000000000E+00 0. -1.
</event>
<event>
 7    1  0.1813014E-010  0.4778727E+02  0.7816164E-02  0.1312668E+00
        -11   -1    0    0    0    0  0.00000000000E+00  0.00000000000E+00  0.45593999997E+02  0.45594000000E+02  0.51100000000E-03 0.  1.
         11   -1    0    0    0    0 -0.00000000000E+00 -0.00000000000E+00 -0.45593999997E+02  0.45594000000E+02  0.51100000000E-03 0. -1.
    9900012    2    1    2    0    0 -0.26310239665E+02 -0.24161593557E+02  0.24649793789E+02  0.47787266731E+02  0.19999980336E+02 0.  0.
         12    1    1    2    0    0  0.26310239665E+02  0.24161593557E+02 -0.24649793789E+02  0.43400733269E+02  0.00000000000E+00 0. -1.
         11    1    3    3    0    0 -0.38109553165E+01  0.13487948878E+01  0.39499114484E+00  0.40618525748E+01  0.51100000000E-03 0. -1.
        -11    1    3    3    0    0 -0.21790263599E+02 -0.17078427752E+02  0.16391047173E+02  0.32173820256E+02  0.51100000000E-03 0.  1.
        -12    1    3    3    0    0 -0.70902074970E+00 -0.84319606924E+01  0.78637554706E+01  0.11551593901E+02  0.00000000000E+00 0.  1.
</event>
<event>
 7    1  0.1813014E-010  0.4778727E+02  0.7816164E-02  0.1312668E+00
        -11   -1    0    0    0    0  0.00000000000E+00  0.00000000000E+00  0.45593999997E+02  0.45594000000E+02  0.51100000000E-03 0.  1.
         11   -1    0    0    0    0 -0.00000000000E+00 -0.00000000000E+00 -0.45593999997E+02  0.45594000000E+02  0.51100000000E-03 0. -1.
    9900012    2    1    2    0    0 -0.75013877308E+01 -0.17544756699E+02  0.38981201852E+02  0.47787269553E+02  0.19999993198E+02 0.  0.
         12    1    1    2    0    0  0.75013877308E+01  0.17544756699E+02 -0.38981201852E+02  0.43400730447E+02  0.00000000000E+00 0. -1.
         11    1    3    3    0    0 -0.44581053575E+01 -0.31535151408E+01  0.71229840289E+01  0.89753140813E+01  0.51100000000E-03 0. -1.
        -11    1    3    3    0    0  0.60231142737E+01 -0.10736652272E+02  0.19401634692E+02  0.22977750903E+02  0.51100000000E-03 0.  1.
        -12    1    3    3    0    0 -0.90663966470E+01 -0.36545892864E+01  0.12456583131E+02  0.15834204569E+02  0.00000000000E+00 0.  1.
</event>
<event>
 7    1  0.1813014E-010  0.4778727E+02  0.7816164E-02  0.1312668E+00
        -11   -1    0    0    0    0  0.00000000000E+00  0.00000000000E+00  0.45593999997E+02  0.45594000000E+02  0.51100000000E-03 0.  1.
         11   -1    0    0    0    0 -0.00000000000E+00 -0.00000000000E+00 -0.45593999997E+02  0.45594000000E+02  0.51100000000E-03 0. -1.
    9900012    2    1    2    0    0 -0.26000628588E+01 -0.70728582947E+01  0.42741525368E+02  0.47787266802E+02  0.19999980656E+02 0.  0.
         12    1    1    2    0    0  0.26000628588E+01  0.70728582947E+01 -0.42741525368E+02  0.43400733198E+02  0.00000000000E+00 0. -1.
         11    1    3    3    0    0  0.13882133795E+01 -0.29354071803E+01  0.30155816702E+01  0.44314201755E+01  0.51100000000E-03 0. -1.
        -11    1    3    3    0    0 -0.95392230852E+01 -0.28302707240E+00  0.30230491592E+02  0.31701096251E+02  0.51100000000E-03 0.  1.
        -12    1    3    3    0    0  0.55509468470E+01 -0.38544240420E+01  0.94954521067E+01  0.11654750375E+02  0.00000000000E+00 0.  1.
</event>
<event>
 7    1  0.1813014E-010  0.4778727E+02  0.7816164E-02  0.1312668E+00
        -11   -1    0    0    0    0  0.00000000000E+00  0.00000000000E+00  0.45593999997E+02  0.45594000000E+02  0.51100000000E-03 0. -1.
         11   -1    0    0    0    0 -0.00000000000E+00 -0.00000000000E+00 -0.45593999997E+02  0.45594000000E+02  0.51100000000E-03 0.  1.
    9900012    2    1    2    0    0 -0.20947026437E+02  0.15900286267E+02 -0.34525733236E+02  0.47787271027E+02  0.19999999920E+02 0.  0.
         12    1    1    2    0    0  0.20947026437E+02 -0.15900286267E+02  0.34525733236E+02  0.43400728973E+02  0.00000000000E+00 0. -1.
         11    1    3    3    0    0 -0.53664780586E+01 -0.30089550048E+01 -0.11513496031E+02  0.13054251725E+02  0.51100000000E-03 0. -1.
        -11    1    3    3    0    0 -0.27150248858E+00  0.59339218816E+01 -0.56119160002E+01  0.81718262312E+01  0.51100000000E-03 0.  1.
        -12    1    3    3    0    0 -0.15309045890E+02  0.12975319390E+02 -0.17400321205E+02  0.26561193071E+02  0.00000000000E+00 0.  1.
</event>
<event>
 7    1  0.1813014E-010  0.4778727E+02  0.7816164E-02  0.1312668E+00
        -11   -1    0    0    0    0  0.00000000000E+00  0.00000000000E+00  0.45593999997E+02  0.45594000000E+02  0.51100000000E-03 0.  1.
         11   -1    0    0    0    0 -0.00000000000E+00 -0.00000000000E+00 -0.45593999997E+02  0.45594000000E+02  0.51100000000E-03 0. -1.
    9900012    2    1    2    0    0  0.23231468394E+02  0.35355400785E+02  0.96911114072E+01  0.47787272716E+02  0.20000007622E+02 0.  0.
         12    1    1    2    0    0 -0.23231468394E+02 -0.35355400785E+02 -0.96911114072E+01  0.43400727284E+02  0.00000000000E+00 0. -1.
         11    1    3    3    0    0  0.69816306259E+01  0.10991611915E+02  0.63017228823E+01  0.14466181606E+02  0.51100000000E-03 0.  1.
        -11    1    3    3    0    0  0.51762069647E+01  0.13093055165E+02 -0.55889861724E+01  0.15147870438E+02  0.51100000000E-03 0. -1.
         12    1    3    3    0    0  0.11073630804E+02  0.11270733705E+02  0.89783746973E+01  0.18173220673E+02  0.00000000000E+00 0. -1.
</event>
<event>
 7    1  0.1813014E-010  0.4778727E+02  0.7816164E-02  0.1312668E+00
        -11   -1    0    0    0    0  0.00000000000E+00  0.00000000000E+00  0.45593999997E+02  0.45594000000E+02  0.51100000000E-03 0.  1.
         11   -1    0    0    0    0 -0.00000000000E+00 -0.00000000000E+00 -0.45593999997E+02  0.45594000000E+02  0.51100000000E-03 0. -1.
    9900012    2    1    2    0    0 -0.10236451613E+01  0.11230609062E+02  0.41910009031E+02  0.47787270901E+02  0.19999999348E+02 0.  0.
         12    1    1    2    0    0  0.10236451613E+01 -0.11230609062E+02 -0.41910009031E+02  0.43400729099E+02  0.00000000000E+00 0. -1.
         11    1    3    3    0    0  0.95392863824E+00  0.13616339285E+01 -0.18012003368E+01  0.24511935290E+01  0.51100000000E-03 0. -1.
        -11    1    3    3    0    0  0.12464034384E+01  0.59917244815E+01  0.15259997019E+02  0.16441465661E+02  0.51100000000E-03 0.  1.
         12    1    3    3    0    0 -0.32239772380E+01  0.38772506525E+01  0.28451212349E+02  0.28894611712E+02  0.00000000000E+00 0. -1.
</event>
<event>
 7    1  0.1813014E-010  0.4778727E+02  0.7816164E-02  0.1312668E+00
        -11   -1    0    0    0    0  0.00000000000E+00  0.00000000000E+00  0.45593999997E+02  0.45594000000E+02  0.51100000000E-03 0.  1.
         11   -1    0    0    0    0 -0.00000000000E+00 -0.00000000000E+00 -0.45593999997E+02  0.45594000000E+02  0.51100000000E-03 0. -1.
    9900012    2    1    2    0    0  0.27544991699E+02 -0.32616272947E+02 -0.78150910749E+01  0.47787268703E+02  0.19999989324E+02 0.  0.
         12    1    1    2    0    0 -0.27544991699E+02  0.32616272947E+02  0.78150910749E+01  0.43400731297E+02  0.00000000000E+00 0. -1.
         11    1    3    3    0    0  0.99221859063E+01 -0.67337817662E+00  0.12720541955E+00  0.99458228824E+01  0.51100000000E-03 0. -1.
        -11    1    3    3    0    0  0.24146230891E+01 -0.13165305979E+01 -0.11389917422E+01  0.29767364558E+01  0.51100000000E-03 0.  1.
        -12    1    3    3    0    0  0.15208182703E+02 -0.30626364172E+02 -0.68033047523E+01  0.34864709365E+02  0.00000000000E+00 0.  1.
</event>
<event>
 7    1  0.1813014E-010  0.4778726E+02  0.7816164E-02  0.1312668E+00
        -11   -1    0    0    0    0  0.00000000000E+00  0.00000000000E+00  0.45593999997E+02  0.45594000000E+02  0.51100000000E-03 0.  1.
         11   -1    0    0    0    0 -0.00000000000E+00 -0.00000000000E+00 -0.45593999997E+02  0.45594000000E+02  0.51100000000E-03 0. -1.
    9900012    2    1    2    0    0 -0.10523083651E+02 -0.30004867190E+02  0.29539744139E+02  0.47787264656E+02  0.19999970871E+02 0.  0.
         12    1    1    2    0    0  0.10523083651E+02  0.30004867190E+02 -0.29539744139E+02  0.43400735344E+02  0.00000000000E+00 0. -1.
         11    1    3    3    0    0  0.22728808387E+01 -0.28604315715E+01  0.49191082421E+01  0.61274531610E+01  0.51100000000E-03 0. -1.
        -11    1    3    3    0    0  0.25544136436E+01 -0.10185850068E+02  0.55442855864E+01  0.11875002046E+02  0.51100000000E-03 0.  1.
        -12    1    3    3    0    0 -0.15350378133E+02 -0.16958585551E+02  0.19076350311E+02  0.29784809448E+02  0.00000000000E+00 0.  1.
</event>
<event>
 7    1  0.1813014E-010  0.4778725E+02  0.7816164E-02  0.1312668E+00
        -11   -1    0    0    0    0  0.00000000000E+00  0.00000000000E+00  0.45593999997E+02  0.45594000000E+02  0.51100000000E-03 0.  1.
         11   -1    0    0    0    0 -0.00000000000E+00 -0.00000000000E+00 -0.45593999997E+02  0.45594000000E+02  0.51100000000E-03 0. -1.
    9900012    2    1    2    0    0 -0.16166630904E+02 -0.40267380294E+02 -0.89605612651E+00  0.47787253611E+02  0.19999920513E+02 0.  0.
         12    1    1    2    0    0  0.16166630904E+02  0.40267380294E+02  0.89605612651E+00  0.43400746389E+02  0.00000000000E+00 0. -1.
         11    1    3    3    0    0 -0.54846411240E+01 -0.51839439075E+01 -0.28820043748E+01  0.80783978717E+01  0.51100000000E-03 0. -1.
        -11    1    3    3    0    0 -0.12501230589E+02 -0.34618886479E+02  0.39178699133E+01  0.37014831787E+02  0.51100000000E-03 0.  1.
        -12    1    3    3    0    0  0.18192408086E+01 -0.46454990768E+00 -0.19319216650E+01  0.26940239524E+01  0.00000000000E+00 0.  1.
</event>
<event>
 7    1  0.1813014E-010  0.4778725E+02  0.7816164E-02  0.1312668E+00
        -11   -1    0    0    0    0  0.00000000000E+00  0.00000000000E+00  0.45593999997E+02  0.45594000000E+02  0.51100000000E-03 0.  1.
         11   -1    0    0    0    0 -0.00000000000E+00 -0.00000000000E+00 -0.45593999997E+02  0.45594000000E+02  0.51100000000E-03 0. -1.
    9900012    2    1    2    0    0 -0.17396911602E+02 -0.26220081949E+02  0.29891138739E+02  0.47787246484E+02  0.19999888017E+02 0.  0.
         12    1    1    2    0    0  0.17396911602E+02  0.26220081949E+02 -0.29891138739E+02  0.43400753516E+02  0.00000000000E+00 0. -1.
         11    1    3    3    0    0 -0.90160929483E+00 -0.16000338583E+02  0.10801362867E+02  0.19325971492E+02  0.51100000000E-03 0. -1.
        -11    1    3    3    0    0 -0.80761879972E+01 -0.87588985498E+01  0.14482916804E+02  0.18753612873E+02  0.51100000000E-03 0.  1.
         12    1    3    3    0    0 -0.84191143095E+01 -0.14608448169E+01  0.46068590686E+01  0.97076621189E+01  0.00000000000E+00 0. -1.
</event>
<event>
 7    1  0.1813014E-010  0.4778727E+02  0.7816164E-02  0.1312668E+00
        -11   -1    0    0    0    0  0.00000000000E+00  0.00000000000E+00  0.45593999997E+02  0.45594000000E+02  0.51100000000E-03 0.  1.
         11   -1    0    0    0    0 -0.00000000000E+00 -0.00000000000E+00 -0.45593999997E+02  0.45594000000E+02  0.51100000000E-03 0. -1.
    9900012    2    1    2    0    0  0.43689975577E+01  0.39337005617E+02  0.17808294280E+02  0.47787268488E+02  0.19999988346E+02 0.  0.
         12    1    1    2    0    0 -0.43689975577E+01 -0.39337005617E+02 -0.17808294280E+02  0.43400731512E+02  0.00000000000E+00 0. -1.
         11    1    3    3    0    0  0.18583942941E+01  0.23669639193E+02  0.60929294051E+01  0.24511818331E+02  0.51100000000E-03 0.  1.
        -11    1    3    3    0    0 -0.47633153651E+01  0.87732075794E+01  0.46460568701E+01  0.11011093915E+02  0.51100000000E-03 0. -1.
         12    1    3    3    0    0  0.72739186286E+01  0.68941588448E+01  0.70693080048E+01  0.12264356243E+02  0.00000000000E+00 0. -1.
</event>
<event>
 7    1 -0.1813014E-010  0.4778727E+02  0.7816164E-02  0.1312668E+00
        -11   -1    0    0    0    0  0.00000000000E+00  0.00000000000E+00  0.45593999997E+02  0.45594000000E+02  0.51100000000E-03 0. -1.
         11   -1    0    0    0    0 -0.00000000000E+00 -0.00000000000E+00 -0.45593999997E+02  0.45594000000E+02  0.51100000000E-03 0.  1.
    9900012    2    1    2    0    0 -0.34816172160E+02  0.13700115446E+02 -0.21994639676E+02  0.47787272108E+02  0.20000004849E+02 0.  0.
         12    1    1    2    0    0  0.34816172160E+02 -0.13700115446E+02  0.21994639676E+02  0.43400727892E+02  0.00000000000E+00 0. -1.
         11    1    3    3    0    0 -0.15281250868E+02  0.54283333933E+01 -0.16923251796E+02  0.23438854134E+02  0.51100000000E-03 0. -1.
        -11    1    3    3    0    0 -0.53943084546E+01 -0.25509474491E+01 -0.18919660119E+01  0.62598268541E+01  0.51100000000E-03 0.  1.
         12    1    3    3    0    0 -0.14140612837E+02  0.10822729502E+02 -0.31794218683E+01  0.18088591120E+02  0.00000000000E+00 0. -1.
</event>
<event>
 7    1  0.1813014E-010  0.4778727E+02  0.7816164E-02  0.1312668E+00
        -11   -1    0    0    0    0  0.00000000000E+00  0.00000000000E+00  0.45593999997E+02  0.45594000000E+02  0.51100000000E-03 0.  1.
         11   -1    0    0    0    0 -0.00000000000E+00 -0.00000000000E+00 -0.45593999997E+02  0.45594000000E+02  0.51100000000E-03 0. -1.
    9900012    2    1    2    0    0 -0.75091200124E+01  0.83883073636E+01  0.41915065170E+02  0.47787271066E+02  0.20000000099E+02 0.  0.
         12    1    1    2    0    0  0.75091200124E+01 -0.83883073636E+01 -0.41915065170E+02  0.43400728934E+02  0.00000000000E+00 0. -1.
         11    1    3    3    0    0 -0.30605019771E+01  0.91732110340E+01  0.57069971922E+01  0.11228726118E+02  0.51100000000E-03 0. -1.
        -11    1    3    3    0    0 -0.30837138380E+01 -0.40698784499E+00  0.15914462079E+02  0.16215579967E+02  0.51100000000E-03 0.  1.
         12    1    3    3    0    0 -0.13649041973E+01 -0.37791582537E+00  0.20293605899E+02  0.20342964981E+02  0.00000000000E+00 0. -1.
</event>
<event>
 7    1  0.1813014E-010  0.4778727E+02  0.7816164E-02  0.1312668E+00
        -11   -1    0    0    0    0  0.00000000000E+00  0.00000000000E+00  0.45593999997E+02  0.45594000000E+02  0.51100000000E-03 0.  1.
         11   -1    0    0    0    0 -0.00000000000E+00 -0.00000000000E+00 -0.45593999997E+02  0.45594000000E+02  0.51100000000E-03 0. -1.
    9900012    2    1    2    0    0  0.23757671712E+02 -0.12678876905E+02  0.34035898432E+02  0.47787271126E+02  0.20000000370E+02 0.  0.
         12    1    1    2    0    0 -0.23757671712E+02  0.12678876905E+02 -0.34035898432E+02  0.43400728874E+02  0.00000000000E+00 0. -1.
         11    1    3    3    0    0  0.64154107483E+01 -0.69946894674E+01  0.47762036089E+01  0.10625219856E+02  0.51100000000E-03 0. -1.
        -11    1    3    3    0    0  0.32004628995E+00 -0.57975618480E+01  0.88580818266E+01  0.10591495027E+02  0.51100000000E-03 0.  1.
         12    1    3    3    0    0  0.17022214674E+02  0.11337441009E+00  0.20401612997E+02  0.26570556242E+02  0.00000000000E+00 0. -1.
</event>
<event>
 7    1  0.1813014E-010  0.4778727E+02  0.7816164E-02  0.1312668E+00
        -11   -1    0    0    0    0  0.00000000000E+00  0.00000000000E+00  0.45593999997E+02  0.45594000000E+02  0.51100000000E-03 0.  1.
         11   -1    0    0    0    0 -0.00000000000E+00 -0.00000000000E+00 -0.45593999997E+02  0.45594000000E+02  0.51100000000E-03 0. -1.
    9900012    2    1    2    0    0  0.29085757647E+02 -0.11319411784E+02  0.30158135440E+02  0.47787268275E+02  0.19999987374E+02 0.  0.
         12    1    1    2    0    0 -0.29085757647E+02  0.11319411784E+02 -0.30158135440E+02  0.43400731725E+02  0.00000000000E+00 0. -1.
         11    1    3    3    0    0  0.18052573636E+01 -0.51016653690E+01  0.26604363864E+01  0.60302459082E+01  0.51100000000E-03 0. -1.
        -11    1    3    3    0    0  0.48272604192E+01 -0.74274325059E+01  0.91504508689E+01  0.12735774344E+02  0.51100000000E-03 0.  1.
        -12    1    3    3    0    0  0.22453239864E+02  0.12096860909E+01  0.18347248184E+02  0.29021248023E+02  0.00000000000E+00 0.  1.
</event>
<event>
 7    1  0.1813014E-010  0.4778727E+02  0.7816164E-02  0.1312668E+00
        -11   -1    0    0    0    0  0.00000000000E+00  0.00000000000E+00  0.45593999997E+02  0.45594000000E+02  0.51100000000E-03 0.  1.
         11   -1    0    0    0    0 -0.00000000000E+00 -0.00000000000E+00 -0.45593999997E+02  0.45594000000E+02  0.51100000000E-03 0. -1.
    9900012    2    1    2    0    0 -0.50188218043E+01  0.19705025540E+02  0.38342492361E+02  0.47787270463E+02  0.19999997350E+02 0.  0.
         12    1    1    2    0    0  0.50188218043E+01 -0.19705025540E+02 -0.38342492361E+02  0.43400729537E+02  0.00000000000E+00 0. -1.
         11    1    3    3    0    0  0.35389269777E+01  0.43440214070E+01  0.16392292078E+01  0.58379447406E+01  0.51100000000E-03 0. -1.
        -11    1    3    3    0    0 -0.25465582075E+00  0.59014677926E+00 -0.66126573425E+00  0.92216887853E+00  0.51100000000E-03 0.  1.
        -12    1    3    3    0    0 -0.83030929613E+01  0.14770857354E+02  0.37364528888E+02  0.41027156844E+02  0.00000000000E+00 0.  1.
</event>
<event>
 7    1  0.2255471E-010  0.4778727E+02  0.7816164E-02  0.1312668E+00
        -11   -1    0    0    0    0  0.00000000000E+00  0.00000000000E+00  0.45593999997E+02  0.45594000000E+02  0.51100000000E-03 0. -1.
         11   -1    0    0    0    0 -0.00000000000E+00 -0.00000000000E+00 -0.45593999997E+02  0.45594000000E+02  0.51100000000E-03 0.  1.
    9900012    2    1    2    0    0  0.51399874778E+01  0.41603206915E+00 -0.43093275743E+02  0.47787274565E+02  0.20000016053E+02 0.  0.
         12    1    1    2    0    0 -0.51399874778E+01 -0.41603206915E+00  0.43093275743E+02  0.43400725435E+02  0.00000000000E+00 0. -1.
         11    1    3    3    0    0 -0.16098173494E+00 -0.69745971811E+00  0.14309970101E+01  0.16000368375E+01  0.51100000000E-03 0. -1.
        -11    1    3    3    0    0  0.57108202477E+01  0.50594308513E+01 -0.21270042456E+02  0.22597035531E+02  0.51100000000E-03 0.  1.
         12    1    3    3    0    0 -0.40985103494E+00 -0.39459390641E+01 -0.23254230297E+02  0.23590202197E+02  0.00000000000E+00 0. -1.
</event>
<event>
 7    1  0.1813014E-010  0.4778727E+02  0.7816164E-02  0.1312668E+00
        -11   -1    0    0    0    0  0.00000000000E+00  0.00000000000E+00  0.45593999997E+02  0.45594000000E+02  0.51100000000E-03 0.  1.
         11   -1    0    0    0    0 -0.00000000000E+00 -0.00000000000E+00 -0.45593999997E+02  0.45594000000E+02  0.51100000000E-03 0. -1.
    9900012    2    1    2    0    0 -0.32768708828E+02  0.11332691955E+02  0.26103732534E+02  0.47787273769E+02  0.20000012421E+02 0.  0.
         12    1    1    2    0    0  0.32768708828E+02 -0.11332691955E+02 -0.26103732534E+02  0.43400726231E+02  0.00000000000E+00 0. -1.
         11    1    3    3    0    0 -0.45322122083E+01 -0.13369616923E+01 -0.56361706885E+00  0.47587896076E+01  0.51100000000E-03 0. -1.
        -11    1    3    3    0    0  0.12274963689E+01 -0.47923106187E+00  0.27939540678E+00  0.13470233112E+01  0.51100000000E-03 0.  1.
        -12    1    3    3    0    0 -0.29463992989E+02  0.13148884709E+02  0.26387954196E+02  0.41681460850E+02  0.00000000000E+00 0.  1.
</event>
<event>
 7    1  0.1813014E-010  0.4778727E+02  0.7816164E-02  0.1312668E+00
        -11   -1    0    0    0    0  0.00000000000E+00  0.00000000000E+00  0.45593999997E+02  0.45594000000E+02  0.51100000000E-03 0. -1.
         11   -1    0    0    0    0 -0.00000000000E+00 -0.00000000000E+00 -0.45593999997E+02  0.45594000000E+02  0.51100000000E-03 0.  1.
    9900012    2    1    2    0    0  0.39679891030E+02  0.16819848360E+02 -0.51207503903E+01  0.47787272638E+02  0.20000007266E+02 0.  0.
         12    1    1    2    0    0 -0.39679891030E+02 -0.16819848360E+02  0.51207503903E+01  0.43400727362E+02  0.00000000000E+00 0. -1.
         11    1    3    3    0    0  0.16333315910E+02  0.82702286783E+01  0.52081762388E+01  0.19034153278E+02  0.51100000000E-03 0. -1.
        -11    1    3    3    0    0  0.20788799665E+02  0.95741001436E+01 -0.60667657641E+01  0.23677905992E+02  0.51100000000E-03 0.  1.
        -12    1    3    3    0    0  0.25577754553E+01 -0.10244804621E+01 -0.42621608650E+01  0.50752133686E+01  0.00000000000E+00 0.  1.
</event>
<event>
 7    1  0.2748254E-010  0.4778728E+02  0.7816164E-02  0.1312668E+00
        -11   -1    0    0    0    0  0.00000000000E+00  0.00000000000E+00  0.45593999997E+02  0.45594000000E+02  0.51100000000E-03 0. -1.
         11   -1    0    0    0    0 -0.00000000000E+00 -0.00000000000E+00 -0.45593999997E+02  0.45594000000E+02  0.51100000000E-03 0.  1.
    9900012    2    1    2    0    0  0.26989720495E+02  0.29221071114E+02  0.17358178850E+02  0.47787281314E+02  0.20000046823E+02 0.  0.
         12    1    1    2    0    0 -0.26989720495E+02 -0.29221071114E+02 -0.17358178850E+02  0.43400718686E+02  0.00000000000E+00 0. -1.
         11    1    3    3    0    0  0.11729928199E+02  0.45818637483E+01  0.99098150698E+01  0.16024641211E+02  0.51100000000E-03 0. -1.
        -11    1    3    3    0    0  0.15312732981E+02  0.20114335911E+02  0.92120416208E+01  0.26905910347E+02  0.51100000000E-03 0.  1.
         12    1    3    3    0    0 -0.52940685336E-01  0.45248714549E+01 -0.17636778408E+01  0.48567297563E+01  0.00000000000E+00 0. -1.
</event>
<event>
 7    1  0.1813014E-010  0.4778727E+02  0.7816164E-02  0.1312668E+00
        -11   -1    0    0    0    0  0.00000000000E+00  0.00000000000E+00  0.45593999997E+02  0.45594000000E+02  0.51100000000E-03 0.  1.
         11   -1    0    0    0    0 -0.00000000000E+00 -0.00000000000E+00 -0.45593999997E+02  0.45594000000E+02  0.51100000000E-03 0. -1.
    9900012    2    1    2    0    0  0.17234782407E+01  0.19851995235E+02  0.38555815514E+02  0.47787274177E+02  0.20000014281E+02 0.  0.
         12    1    1    2    0    0 -0.17234782407E+01 -0.19851995235E+02 -0.38555815514E+02  0.43400725823E+02  0.00000000000E+00 0. -1.
         11    1    3    3    0    0  0.29204456210E+01  0.97179416925E+00  0.16402612259E+01  0.34876702371E+01  0.51100000000E-03 0. -1.
        -11    1    3    3    0    0 -0.19694038676E+01  0.20866024991E+02  0.36557027760E+02  0.42138887378E+02  0.51100000000E-03 0.  1.
        -12    1    3    3    0    0  0.77243648731E+00 -0.19858239252E+01  0.35852652790E+00  0.21607165617E+01  0.00000000000E+00 0.  1.
</event>
<event>
 7    1  0.1813014E-010  0.4778727E+02  0.7816164E-02  0.1312668E+00
        -11   -1    0    0    0    0  0.00000000000E+00  0.00000000000E+00  0.45593999997E+02  0.45594000000E+02  0.51100000000E-03 0.  1.
         11   -1    0    0    0    0 -0.00000000000E+00 -0.00000000000E+00 -0.45593999997E+02  0.45594000000E+02  0.51100000000E-03 0. -1.
    9900012    2    1    2    0    0 -0.22925845855E+02  0.23052189077E+02  0.28751093991E+02  0.47787271491E+02  0.20000002037E+02 0.  0.
         12    1    1    2    0    0  0.22925845855E+02 -0.23052189077E+02 -0.28751093991E+02  0.43400728509E+02  0.00000000000E+00 0. -1.
         11    1    3    3    0    0 -0.23784002141E+02  0.19718483594E+02  0.25382518156E+02  0.39984616808E+02  0.51100000000E-03 0. -1.
        -11    1    3    3    0    0 -0.13387702901E+00  0.50442867903E+01  0.21914279172E+01  0.55013733612E+01  0.51100000000E-03 0.  1.
         12    1    3    3    0    0  0.99203331433E+00 -0.17105813068E+01  0.11771479173E+01  0.23012813220E+01  0.00000000000E+00 0. -1.
</event>
<event>
 7    1  0.1813014E-010  0.4778727E+02  0.7816164E-02  0.1312668E+00
        -11   -1    0    0    0    0  0.00000000000E+00  0.00000000000E+00  0.45593999997E+02  0.45594000000E+02  0.51100000000E-03 0.  1.
         11   -1    0    0    0    0 -0.00000000000E+00 -0.00000000000E+00 -0.45593999997E+02  0.45594000000E+02  0.51100000000E-03 0. -1.
    9900012    2    1    2    0    0 -0.25253813209E+02 -0.10535494307E+02  0.33687856153E+02  0.47787269891E+02  0.19999994740E+02 0.  0.
         12    1    1    2    0    0  0.25253813209E+02  0.10535494307E+02 -0.33687856153E+02  0.43400730109E+02  0.00000000000E+00 0. -1.
         11    1    3    3    0    0 -0.34164928717E+00 -0.39048294072E+01  0.11434828105E+02  0.12087998635E+02  0.51100000000E-03 0. -1.
        -11    1    3    3    0    0 -0.89580618965E+01 -0.71132676639E+01  0.59902524062E+01  0.12912341924E+02  0.51100000000E-03 0.  1.
        -12    1    3    3    0    0 -0.15954102025E+02  0.48260276420E+00  0.16262775641E+02  0.22786929332E+02  0.00000000000E+00 0.  1.
</event>
<event>
 7    1  0.1813014E-010  0.4778728E+02  0.7816164E-02  0.1312668E+00
        -11   -1    0    0    0    0  0.00000000000E+00  0.00000000000E+00  0.45593999997E+02  0.45594000000E+02  0.51100000000E-03 0.  1.
         11   -1    0    0    0    0 -0.00000000000E+00 -0.00000000000E+00 -0.45593999997E+02  0.45594000000E+02  0.51100000000E-03 0. -1.
    9900012    2    1    2    0    0 -0.32626279275E+02 -0.59804630009E+01  0.27988970627E+02  0.47787279801E+02  0.20000039925E+02 0.  0.
         12    1    1    2    0    0  0.32626279275E+02  0.59804630009E+01 -0.27988970627E+02  0.43400720199E+02  0.00000000000E+00 0. -1.
         11    1    3    3    0    0 -0.19958680217E+02  0.32575193414E+01  0.16111690141E+02  0.25856274049E+02  0.51100000000E-03 0. -1.
        -11    1    3    3    0    0 -0.12667198516E+02 -0.78321650949E+01  0.13273540237E+02  0.19949626538E+02  0.51100000000E-03 0.  1.
        -12    1    3    3    0    0 -0.40054217916E-03 -0.14058172474E+01 -0.13962597518E+01  0.19813792136E+01  0.00000000000E+00 0.  1.
</event>
<event>
 7    1  0.1813014E-010  0.4778725E+02  0.7816164E-02  0.1312668E+00
        -11   -1    0    0    0    0  0.00000000000E+00  0.00000000000E+00  0.45593999997E+02  0.45594000000E+02  0.51100000000E-03 0. -1.
         11   -1    0    0    0    0 -0.00000000000E+00 -0.00000000000E+00 -0.45593999997E+02  0.45594000000E+02  0.51100000000E-03 0.  1.
    9900012    2    1    2    0    0  0.70658285858E+01 -0.42491802555E+02 -0.53052971747E+01  0.47787246595E+02  0.19999888526E+02 0.  0.
         12    1    1    2    0    0 -0.70658285858E+01  0.42491802555E+02  0.53052971747E+01  0.43400753405E+02  0.00000000000E+00 0. -1.
         11    1    3    3    0    0  0.36334420811E+01 -0.11883598004E+02  0.60220323383E+01  0.13808934666E+02  0.51100000000E-03 0. -1.
        -11    1    3    3    0    0  0.22515003793E+01 -0.22638221658E+02 -0.40223748485E+01  0.23102766792E+02  0.51100000000E-03 0.  1.
        -12    1    3    3    0    0  0.11808861254E+01 -0.79699828936E+01 -0.73049546646E+01  0.10875545136E+02  0.00000000000E+00 0.  1.
</event>
<event>
 7    1  0.1813014E-010  0.4778726E+02  0.7816164E-02  0.1312668E+00
        -11   -1    0    0    0    0  0.00000000000E+00  0.00000000000E+00  0.45593999997E+02  0.45594000000E+02  0.51100000000E-03 0. -1.
         11   -1    0    0    0    0 -0.00000000000E+00 -0.00000000000E+00 -0.45593999997E+02  0.45594000000E+02  0.51100000000E-03 0.  1.
    9900012    2    1    2    0    0 -0.14095771786E+02 -0.40112198792E+02 -0.87146203122E+01  0.47787264046E+02  0.19999968090E+02 0.  0.
         12    1    1    2    0    0  0.14095771786E+02  0.40112198792E+02  0.87146203122E+01  0.43400735954E+02  0.00000000000E+00 0. -1.
         11    1    3    3    0    0 -0.61017109524E+01 -0.53560423163E+01  0.79615311188E+00  0.81579363738E+01  0.51100000000E-03 0. -1.
        -11    1    3    3    0    0 -0.11136109120E+01 -0.99753018155E+01 -0.96312950985E+01  0.13910737619E+02  0.51100000000E-03 0.  1.
         12    1    3    3    0    0 -0.68804499217E+01 -0.24780854660E+02  0.12052167445E+00  0.25718590053E+02  0.00000000000E+00 0. -1.
</event>
<event>
 7    1  0.1813014E-010  0.4778727E+02  0.7816164E-02  0.1312668E+00
        -11   -1    0    0    0    0  0.00000000000E+00  0.00000000000E+00  0.45593999997E+02  0.45594000000E+02  0.51100000000E-03 0. -1.
         11   -1    0    0    0    0 -0.00000000000E+00 -0.00000000000E+00 -0.45593999997E+02  0.45594000000E+02  0.51100000000E-03 0.  1.
    9900012    2    1    2    0    0 -0.61648250835E+01 -0.17227410534E+02 -0.39355240296E+02  0.47787266357E+02  0.19999978626E+02 0.  0.
         12    1    1    2    0    0  0.61648250835E+01  0.17227410534E+02  0.39355240296E+02  0.43400733643E+02  0.00000000000E+00 0. -1.
         11    1    3    3    0    0 -0.10201622988E+01 -0.17688564902E+00 -0.20895029421E+02  0.20920666204E+02  0.51100000000E-03 0. -1.
        -11    1    3    3    0    0 -0.68152087841E+01 -0.89768604926E+01 -0.10371833199E+02  0.15316854091E+02  0.51100000000E-03 0.  1.
        -12    1    3    3    0    0  0.16705459993E+01 -0.80736643926E+01 -0.80883776762E+01  0.11549746062E+02  0.00000000000E+00 0.  1.
</event>
<event>
 7    1  0.1813014E-010  0.4778727E+02  0.7816164E-02  0.1312668E+00
        -11   -1    0    0    0    0  0.00000000000E+00  0.00000000000E+00  0.45593999997E+02  0.45594000000E+02  0.51100000000E-03 0.  1.
         11   -1    0    0    0    0 -0.00000000000E+00 -0.00000000000E+00 -0.45593999997E+02  0.45594000000E+02  0.51100000000E-03 0. -1.
    9900012    2    1    2    0    0 -0.23705837951E+02  0.33694247464E+02  0.13651162809E+02  0.47787270615E+02  0.19999998040E+02 0.  0.
         12    1    1    2    0    0  0.23705837951E+02 -0.33694247464E+02 -0.13651162809E+02  0.43400729385E+02  0.00000000000E+00 0. -1.
         11    1    3    3    0    0 -0.39257234686E+01  0.11184314869E+02  0.59339025494E+01  0.13255617812E+02  0.51100000000E-03 0. -1.
        -11    1    3    3    0    0 -0.37816806761E+01  0.14883555378E+02  0.67717359841E+01  0.16783257668E+02  0.51100000000E-03 0.  1.
        -12    1    3    3    0    0 -0.15998433807E+02  0.76263772167E+01  0.94552427507E+00  0.17748395135E+02  0.00000000000E+00 0.  1.
</event>
<event>
 7    1  0.1813014E-010  0.4778727E+02  0.7816164E-02  0.1312668E+00
        -11   -1    0    0    0    0  0.00000000000E+00  0.00000000000E+00  0.45593999997E+02  0.45594000000E+02  0.51100000000E-03 0.  1.
         11   -1    0    0    0    0 -0.00000000000E+00 -0.00000000000E+00 -0.45593999997E+02  0.45594000000E+02  0.51100000000E-03 0. -1.
    9900012    2    1    2    0    0 -0.43016207052E+02 -0.12498515601E+01  0.56273379145E+01  0.47787272701E+02  0.20000007553E+02 0.  0.
         12    1    1    2    0    0  0.43016207052E+02  0.12498515601E+01 -0.56273379145E+01  0.43400727299E+02  0.00000000000E+00 0. -1.
         11    1    3    3    0    0 -0.24777903631E+02  0.81164516714E+00 -0.12299879262E+01  0.24821687025E+02  0.51100000000E-03 0. -1.
        -11    1    3    3    0    0 -0.15499622867E+02 -0.48469629167E+01  0.14632274964E+01  0.16305593933E+02  0.51100000000E-03 0.  1.
         12    1    3    3    0    0 -0.27386805544E+01  0.27854661894E+01  0.53940983443E+01  0.66599917432E+01  0.00000000000E+00 0. -1.
</event>
<event>
 7    1  0.1813014E-010  0.4778727E+02  0.7816164E-02  0.1312668E+00
        -11   -1    0    0    0    0  0.00000000000E+00  0.00000000000E+00  0.45593999997E+02  0.45594000000E+02  0.51100000000E-03 0.  1.
         11   -1    0    0    0    0 -0.00000000000E+00 -0.00000000000E+00 -0.45593999997E+02  0.45594000000E+02  0.51100000000E-03 0. -1.
    9900012    2    1    2    0    0 -0.22935843217E+02 -0.25016098175E+02  0.27051162145E+02  0.47787269069E+02  0.19999990991E+02 0.  0.
         12    1    1    2    0    0  0.22935843217E+02  0.25016098175E+02 -0.27051162145E+02  0.43400730931E+02  0.00000000000E+00 0. -1.
         11    1    3    3    0    0 -0.13359961056E+02 -0.67319160684E+01  0.14683046545E+02  0.20961848904E+02  0.51100000000E-03 0. -1.
        -11    1    3    3    0    0 -0.82804987068E+01 -0.88419746099E+01  0.12451186354E+01  0.12177745872E+02  0.51100000000E-03 0.  1.
         12    1    3    3    0    0 -0.12953834536E+01 -0.94422074966E+01  0.11122996966E+02  0.14647674293E+02  0.00000000000E+00 0. -1.
</event>
<event>
 7    1  0.4090077E-010  0.4778727E+02  0.7816164E-02  0.1312668E+00
        -11   -1    0    0    0    0  0.00000000000E+00  0.00000000000E+00  0.45593999997E+02  0.45594000000E+02  0.51100000000E-03 0. -1.
         11   -1    0    0    0    0 -0.00000000000E+00 -0.00000000000E+00 -0.45593999997E+02  0.45594000000E+02  0.51100000000E-03 0.  1.
    9900012    2    1    2    0    0 -0.18515072748E+02 -0.26970264666E+02 -0.28520521762E+02  0.47787271244E+02  0.20000000908E+02 0.  0.
         12    1    1    2    0    0  0.18515072748E+02  0.26970264666E+02  0.28520521762E+02  0.43400728756E+02  0.00000000000E+00 0. -1.
         11    1    3    3    0    0  0.30996555912E+01 -0.47992181351E+01 -0.44040978418E+01  0.72136285983E+01  0.51100000000E-03 0. -1.
        -11    1    3    3    0    0 -0.91231132435E+01 -0.88570511535E+01 -0.16403650354E+02  0.20754717430E+02  0.51100000000E-03 0.  1.
         12    1    3    3    0    0 -0.12491615096E+02 -0.13313995377E+02 -0.77127735658E+01  0.19818925215E+02  0.00000000000E+00 0. -1.
</event>
<event>
 7    1  0.1813014E-010  0.4778727E+02  0.7816164E-02  0.1312668E+00
        -11   -1    0    0    0    0  0.00000000000E+00  0.00000000000E+00  0.45593999997E+02  0.45594000000E+02  0.51100000000E-03 0.  1.
         11   -1    0    0    0    0 -0.00000000000E+00 -0.00000000000E+00 -0.45593999997E+02  0.45594000000E+02  0.51100000000E-03 0. -1.
    9900012    2    1    2    0    0  0.28808809199E+02 -0.20069346551E+02  0.25512690916E+02  0.47787267792E+02  0.19999985171E+02 0.  0.
         12    1    1    2    0    0 -0.28808809199E+02  0.20069346551E+02 -0.25512690916E+02  0.43400732208E+02  0.00000000000E+00 0. -1.
         11    1    3    3    0    0  0.40628438244E+01 -0.65995599333E+01  0.12073133542E+02  0.14346478489E+02  0.51100000000E-03 0. -1.
        -11    1    3    3    0    0  0.24560251541E+02 -0.10203870537E+02  0.14102276112E+02  0.30103141389E+02  0.51100000000E-03 0.  1.
         12    1    3    3    0    0  0.18571383330E+00 -0.32659160804E+01 -0.66271873802E+00  0.33376479140E+01  0.00000000000E+00 0. -1.
</event>
<event>
 7    1  0.1813014E-010  0.4778727E+02  0.7816164E-02  0.1312668E+00
        -11   -1    0    0    0    0  0.00000000000E+00  0.00000000000E+00  0.45593999997E+02  0.45594000000E+02  0.51100000000E-03 0. -1.
         11   -1    0    0    0    0 -0.00000000000E+00 -0.00000000000E+00 -0.45593999997E+02  0.45594000000E+02  0.51100000000E-03 0.  1.
    9900012    2    1    2    0    0  0.85985463432E+01 -0.36989596186E+02 -0.21010898320E+02  0.47787273354E+02  0.20000010530E+02 0.  0.
         12    1    1    2    0    0 -0.85985463432E+01  0.36989596186E+02  0.21010898320E+02  0.43400726646E+02  0.00000000000E+00 0. -1.
         11    1    3    3    0    0  0.14071195784E+01 -0.17321009923E+02 -0.30343338366E+01  0.17640990686E+02  0.51100000000E-03 0. -1.
        -11    1    3    3    0    0  0.10454729082E+02 -0.13286115376E+02 -0.11183345312E+02  0.20270407855E+02  0.51100000000E-03 0.  1.
         12    1    3    3    0    0 -0.32633023175E+01 -0.63824708859E+01 -0.67932191713E+01  0.98758748136E+01  0.00000000000E+00 0. -1.
</event>
<event>
 7    1  0.1813014E-010  0.4778727E+02  0.7816164E-02  0.1312668E+00
        -11   -1    0    0    0    0  0.00000000000E+00  0.00000000000E+00  0.45593999997E+02  0.45594000000E+02  0.51100000000E-03 0. -1.
         11   -1    0    0    0    0 -0.00000000000E+00 -0.00000000000E+00 -0.45593999997E+02  0.45594000000E+02  0.51100000000E-03 0.  1.
    9900012    2    1    2    0    0  0.11325068902E+02 -0.38332018898E+02 -0.16912193798E+02  0.47787272385E+02  0.20000006111E+02 0.  0.
         12    1    1    2    0    0 -0.11325068902E+02  0.38332018898E+02  0.16912193798E+02  0.43400727615E+02  0.00000000000E+00 0. -1.
         11    1    3    3    0    0 -0.23503552292E+01  0.58177185964E-01 -0.17906486155E+01  0.29553302715E+01  0.51100000000E-03 0. -1.
        -11    1    3    3    0    0  0.35749423995E+01 -0.24970125815E+02 -0.11110935512E+02  0.27563386667E+02  0.51100000000E-03 0.  1.
        -12    1    3    3    0    0  0.10100481732E+02 -0.13420070270E+02 -0.40106096704E+01  0.17268555446E+02  0.00000000000E+00 0.  1.
</event>
<event>
 7    1  0.1813014E-010  0.4778727E+02  0.7816164E-02  0.1312668E+00
        -11   -1    0    0    0    0  0.00000000000E+00  0.00000000000E+00  0.45593999997E+02  0.45594000000E+02  0.51100000000E-03 0.  1.
         11   -1    0    0    0    0 -0.00000000000E+00 -0.00000000000E+00 -0.45593999997E+02  0.45594000000E+02  0.51100000000E-03 0. -1.
    9900012    2    1    2    0    0 -0.86170456874E+01 -0.13460004838E+02  0.40350939556E+02  0.47787268097E+02  0.19999986562E+02 0.  0.
         12    1    1    2    0    0  0.86170456874E+01  0.13460004838E+02 -0.40350939556E+02  0.43400731903E+02  0.00000000000E+00 0. -1.
         11    1    3    3    0    0 -0.26168759342E+00 -0.97411557684E+00 -0.73750476968E+00  0.12495179471E+01  0.51100000000E-03 0. -1.
        -11    1    3    3    0    0 -0.77710444792E+01  0.13805903136E+01  0.16853847649E+02  0.18610409527E+02  0.51100000000E-03 0.  1.
         12    1    3    3    0    0 -0.58431361482E+00 -0.13866479575E+02  0.24234596677E+02  0.27927340623E+02  0.00000000000E+00 0. -1.
</event>
<event>
 7    1  0.1813014E-010  0.4778727E+02  0.7816164E-02  0.1312668E+00
        -11   -1    0    0    0    0  0.00000000000E+00  0.00000000000E+00  0.45593999997E+02  0.45594000000E+02  0.51100000000E-03 0.  1.
         11   -1    0    0    0    0 -0.00000000000E+00 -0.00000000000E+00 -0.45593999997E+02  0.45594000000E+02  0.51100000000E-03 0. -1.
    9900012    2    1    2    0    0 -0.39238835487E+02 -0.12223019111E+02 -0.13947586155E+02  0.47787267677E+02  0.19999984648E+02 0.  0.
         12    1    1    2    0    0  0.39238835487E+02  0.12223019111E+02  0.13947586155E+02  0.43400732323E+02  0.00000000000E+00 0. -1.
         11    1    3    3    0    0 -0.22087857100E+01 -0.71120270290E+01 -0.56958746521E+01  0.93756413694E+01  0.51100000000E-03 0. -1.
        -11    1    3    3    0    0 -0.15900837172E+02 -0.62543948138E+00 -0.36761272094E+01  0.16332229145E+02  0.51100000000E-03 0.  1.
        -12    1    3    3    0    0 -0.21129212605E+02 -0.44855526009E+01 -0.45755842932E+01  0.22079397163E+02  0.00000000000E+00 0.  1.
</event>
<event>
 7    1  0.1813014E-010  0.4778727E+02  0.7816164E-02  0.1312668E+00
        -11   -1    0    0    0    0  0.00000000000E+00  0.00000000000E+00  0.45593999997E+02  0.45594000000E+02  0.51100000000E-03 0.  1.
         11   -1    0    0    0    0 -0.00000000000E+00 -0.00000000000E+00 -0.45593999997E+02  0.45594000000E+02  0.51100000000E-03 0. -1.
    9900012    2    1    2    0    0  0.88444019933E+01 -0.22102904400E+02  0.36288591139E+02  0.47787266407E+02  0.19999978856E+02 0.  0.
         12    1    1    2    0    0 -0.88444019933E+01  0.22102904400E+02 -0.36288591139E+02  0.43400733593E+02  0.00000000000E+00 0. -1.
         11    1    3    3    0    0  0.96978720614E+01 -0.17364440021E+02  0.25710395718E+02  0.32505337223E+02  0.51100000000E-03 0. -1.
        -11    1    3    3    0    0 -0.46384315705E+00 -0.15993627309E+01  0.11780748594E+02  0.11897863224E+02  0.51100000000E-03 0.  1.
         12    1    3    3    0    0 -0.38962691103E+00 -0.31391016482E+01 -0.12025531718E+01  0.33840659595E+01  0.00000000000E+00 0. -1.
</event>
<event>
 7    1  0.1813014E-010  0.4778727E+02  0.7816164E-02  0.1312668E+00
        -11   -1    0    0    0    0  0.00000000000E+00  0.00000000000E+00  0.45593999997E+02  0.45594000000E+02  0.51100000000E-03 0.  1.
         11   -1    0    0    0    0 -0.00000000000E+00 -0.00000000000E+00 -0.45593999997E+02  0.45594000000E+02  0.51100000000E-03 0. -1.
    9900012    2    1    2    0    0 -0.11670630973E+02  0.20990574618E+02  0.36149899862E+02  0.47787272931E+02  0.20000008601E+02 0.  0.
         12    1    1    2    0    0  0.11670630973E+02 -0.20990574618E+02 -0.36149899862E+02  0.43400727069E+02  0.00000000000E+00 0. -1.
         11    1    3    3    0    0 -0.52033560786E+01  0.37130158483E+00 -0.33647726462E-01  0.52166954845E+01  0.51100000000E-03 0. -1.
        -11    1    3    3    0    0  0.47322537343E+00  0.80887546792E+01  0.13258960087E+02  0.15538723158E+02  0.51100000000E-03 0.  1.
        -12    1    3    3    0    0 -0.69405002679E+01  0.12530518354E+02  0.22924587501E+02  0.27031854289E+02  0.00000000000E+00 0.  1.
</event>
<event>
 7    1  0.1813014E-010  0.4778727E+02  0.7816164E-02  0.1312668E+00
        -11   -1    0    0    0    0  0.00000000000E+00  0.00000000000E+00  0.45593999997E+02  0.45594000000E+02  0.51100000000E-03 0. -1.
         11   -1    0    0    0    0 -0.00000000000E+00 -0.00000000000E+00 -0.45593999997E+02  0.45594000000E+02  0.51100000000E-03 0.  1.
    9900012    2    1    2    0    0 -0.16498766218E+02 -0.38354208706E+02 -0.11847749819E+02  0.47787265122E+02  0.19999972998E+02 0.  0.
         12    1    1    2    0    0  0.16498766218E+02  0.38354208706E+02  0.11847749819E+02  0.43400734878E+02  0.00000000000E+00 0. -1.
         11    1    3    3    0    0 -0.15245520585E+01 -0.10944998295E+02 -0.50823698250E+01  0.12163376585E+02  0.51100000000E-03 0. -1.
        -11    1    3    3    0    0 -0.14336431203E+02 -0.10594773056E+02 -0.58911403270E+01  0.18774664054E+02  0.51100000000E-03 0.  1.
         12    1    3    3    0    0 -0.63778295626E+00 -0.16814437355E+02 -0.87423966704E+00  0.16849224483E+02  0.00000000000E+00 0. -1.
</event>
<event>
 7    1  0.1813014E-010  0.4778727E+02  0.7816164E-02  0.1312668E+00
        -11   -1    0    0    0    0  0.00000000000E+00  0.00000000000E+00  0.45593999997E+02  0.45594000000E+02  0.51100000000E-03 0.  1.
         11   -1    0    0    0    0 -0.00000000000E+00 -0.00000000000E+00 -0.45593999997E+02  0.45594000000E+02  0.51100000000E-03 0. -1.
    9900012    2    1    2    0    0 -0.44865999061E+01  0.16592204205E+00  0.43167886635E+02  0.47787267917E+02  0.19999985739E+02 0.  0.
         12    1    1    2    0    0  0.44865999061E+01 -0.16592204205E+00 -0.43167886635E+02  0.43400732083E+02  0.00000000000E+00 0. -1.
         11    1    3    3    0    0 -0.72059757600E+01  0.59265538532E+01  0.35431196606E+02  0.36639047755E+02  0.51100000000E-03 0.  1.
        -11    1    3    3    0    0 -0.98725535069E+00 -0.35863716326E+01  0.33190510826E+01  0.49852617749E+01  0.51100000000E-03 0. -1.
        -12    1    3    3    0    0  0.37066312046E+01 -0.21742601786E+01  0.44176389464E+01  0.61629583864E+01  0.00000000000E+00 0.  1.
</event>
<event>
 7    1  0.1813014E-010  0.4778727E+02  0.7816164E-02  0.1312668E+00
        -11   -1    0    0    0    0  0.00000000000E+00  0.00000000000E+00  0.45593999997E+02  0.45594000000E+02  0.51100000000E-03 0. -1.
         11   -1    0    0    0    0 -0.00000000000E+00 -0.00000000000E+00 -0.45593999997E+02  0.45594000000E+02  0.51100000000E-03 0.  1.
    9900012    2    1    2    0    0 -0.16896835801E+01  0.42881808759E+02 -0.64744540690E+01  0.47787272949E+02  0.20000008684E+02 0.  0.
         12    1    1    2    0    0  0.16896835801E+01 -0.42881808759E+02  0.64744540690E+01  0.43400727051E+02  0.00000000000E+00 0. -1.
         11    1    3    3    0    0 -0.83693122604E+01  0.14393059976E+02 -0.48440996787E+01  0.17339863470E+02  0.51100000000E-03 0. -1.
        -11    1    3    3    0    0  0.27653032543E+01  0.12692706818E+02 -0.48350228486E+01  0.13861066144E+02  0.51100000000E-03 0.  1.
        -12    1    3    3    0    0  0.39143254259E+01  0.15796041965E+02  0.32046684583E+01  0.16586343335E+02  0.00000000000E+00 0.  1.
</event>
<event>
 7    1  0.1813014E-010  0.4778727E+02  0.7816164E-02  0.1312668E+00
        -11   -1    0    0    0    0  0.00000000000E+00  0.00000000000E+00  0.45593999997E+02  0.45594000000E+02  0.51100000000E-03 0.  1.
         11   -1    0    0    0    0 -0.00000000000E+00 -0.00000000000E+00 -0.45593999997E+02  0.45594000000E+02  0.51100000000E-03 0. -1.
    9900012    2    1    2    0    0  0.46017682826E+01  0.20982541276E+02  0.37711802806E+02  0.47787269814E+02  0.19999994392E+02 0.  0.
         12    1    1    2    0    0 -0.46017682826E+01 -0.20982541276E+02 -0.37711802806E+02  0.43400730186E+02  0.00000000000E+00 0. -1.
         11    1    3    3    0    0  0.44822842183E+01  0.12674265733E+01  0.43962664153E+01  0.64050293198E+01  0.51100000000E-03 0. -1.
        -11    1    3    3    0    0  0.71400612500E+01  0.11493610039E+02  0.21141119727E+02  0.25100408163E+02  0.51100000000E-03 0.  1.
        -12    1    3    3    0    0 -0.70205771857E+01  0.82215046643E+01  0.12174416664E+02  0.16281832331E+02  0.00000000000E+00 0.  1.
</event>
<event>
 7    1  0.1813014E-010  0.4778727E+02  0.7816164E-02  0.1312668E+00
        -11   -1    0    0    0    0  0.00000000000E+00  0.00000000000E+00  0.45593999997E+02  0.45594000000E+02  0.51100000000E-03 0.  1.
         11   -1    0    0    0    0 -0.00000000000E+00 -0.00000000000E+00 -0.45593999997E+02  0.45594000000E+02  0.51100000000E-03 0. -1.
    9900012    2    1    2    0    0 -0.13164212607E+02 -0.30983912668E+02  0.27392041680E+02  0.47787270914E+02  0.19999999405E+02 0.  0.
         12    1    1    2    0    0  0.13164212607E+02  0.30983912668E+02 -0.27392041680E+02  0.43400729086E+02  0.00000000000E+00 0. -1.
         11    1    3    3    0    0  0.10469369376E+01 -0.32007567645E+01 -0.40583186870E+00  0.33919936002E+01  0.51100000000E-03 0. -1.
        -11    1    3    3    0    0 -0.13892854862E+02 -0.22639702921E+02  0.28763441263E+02  0.39152306677E+02  0.51100000000E-03 0.  1.
        -12    1    3    3    0    0 -0.31829468340E+00 -0.51434529825E+01 -0.96556771455E+00  0.52429706370E+01  0.00000000000E+00 0.  1.
</event>
<event>
 7    1  0.1813014E-010  0.4778727E+02  0.7816164E-02  0.1312668E+00
        -11   -1    0    0    0    0  0.00000000000E+00  0.00000000000E+00  0.45593999997E+02  0.45594000000E+02  0.51100000000E-03 0. -1.
         11   -1    0    0    0    0 -0.00000000000E+00 -0.00000000000E+00 -0.45593999997E+02  0.45594000000E+02  0.51100000000E-03 0.  1.
    9900012    2    1    2    0    0  0.16341642082E+01  0.13587848880E+02 -0.41186448512E+02  0.47787266470E+02  0.19999979146E+02 0.  0.
         12    1    1    2    0    0 -0.16341642082E+01 -0.13587848880E+02  0.41186448512E+02  0.43400733530E+02  0.00000000000E+00 0. -1.
         11    1    3    3    0    0 -0.48531361501E+01  0.73526112349E+01 -0.15815714646E+02  0.18103885011E+02  0.51100000000E-03 0.  1.
        -11    1    3    3    0    0  0.31922066831E+01  0.12257262011E+01  0.19394829575E+00  0.34249386024E+01  0.51100000000E-03 0. -1.
         12    1    3    3    0    0  0.32950936752E+01  0.50095114439E+01 -0.25564682162E+02  0.26258442857E+02  0.00000000000E+00 0. -1.
</event>
<event>
 7    1  0.1813014E-010  0.4778727E+02  0.7816164E-02  0.1312668E+00
        -11   -1    0    0    0    0  0.00000000000E+00  0.00000000000E+00  0.45593999997E+02  0.45594000000E+02  0.51100000000E-03 0.  1.
         11   -1    0    0    0    0 -0.00000000000E+00 -0.00000000000E+00 -0.45593999997E+02  0.45594000000E+02  0.51100000000E-03 0. -1.
    9900012    2    1    2    0    0 -0.37840989083E+02  0.20975587327E+02 -0.34216270901E+01  0.47787271314E+02  0.20000001231E+02 0.  0.
         12    1    1    2    0    0  0.37840989083E+02 -0.20975587327E+02  0.34216270901E+01  0.43400728686E+02  0.00000000000E+00 0. -1.
         11    1    3    3    0    0 -0.16435098784E+02  0.91214019765E+01 -0.36854911994E+01  0.19154511002E+02  0.51100000000E-03 0. -1.
        -11    1    3    3    0    0 -0.26347325563E+01  0.88432097912E+01  0.23092660385E+01  0.95119338177E+01  0.51100000000E-03 0.  1.
         12    1    3    3    0    0 -0.18771157742E+02  0.30109755593E+01 -0.20454019292E+01  0.19120826495E+02  0.00000000000E+00 0. -1.
</event>
<event>
 7    1  0.1813014E-010  0.4778727E+02  0.7816164E-02  0.1312668E+00
        -11   -1    0    0    0    0  0.00000000000E+00  0.00000000000E+00  0.45593999997E+02  0.45594000000E+02  0.51100000000E-03 0. -1.
         11   -1    0    0    0    0 -0.00000000000E+00 -0.00000000000E+00 -0.45593999997E+02  0.45594000000E+02  0.51100000000E-03 0.  1.
    9900012    2    1    2    0    0 -0.39147600104E+02  0.71661257876E+01  0.17312880141E+02  0.47787265312E+02  0.19999973862E+02 0.  0.
         12    1    1    2    0    0  0.39147600104E+02 -0.71661257876E+01 -0.17312880141E+02  0.43400734688E+02  0.00000000000E+00 0. -1.
         11    1    3    3    0    0 -0.92152566585E+01 -0.66441644557E+01  0.42004875813E+01  0.12112389227E+02  0.51100000000E-03 0. -1.
        -11    1    3    3    0    0 -0.93546214564E+01  0.42493651474E+01  0.59889522805E+01  0.11892585776E+02  0.51100000000E-03 0.  1.
         12    1    3    3    0    0 -0.20577721989E+02  0.95609250959E+01  0.71234402796E+01  0.23782290309E+02  0.00000000000E+00 0. -1.
</event>
<event>
 7    1  0.1813014E-010  0.4778729E+02  0.7816164E-02  0.1312668E+00
        -11   -1    0    0    0    0  0.00000000000E+00  0.00000000000E+00  0.45593999997E+02  0.45594000000E+02  0.51100000000E-03 0.  1.
         11   -1    0    0    0    0 -0.00000000000E+00 -0.00000000000E+00 -0.45593999997E+02  0.45594000000E+02  0.51100000000E-03 0. -1.
    9900012    2    1    2    0    0  0.29508714965E+02 -0.21010942165E+02  0.23903934156E+02  0.47787285516E+02  0.20000065983E+02 0.  0.
         12    1    1    2    0    0 -0.29508714965E+02  0.21010942165E+02 -0.23903934156E+02  0.43400714484E+02  0.00000000000E+00 0. -1.
         11    1    3    3    0    0  0.24984286502E+02 -0.11220467149E+02  0.18901563934E+02  0.33277358285E+02  0.51100000000E-03 0. -1.
        -11    1    3    3    0    0  0.52258133580E+01 -0.98168069488E+01  0.64820014203E+01  0.12872263460E+02  0.51100000000E-03 0.  1.
         12    1    3    3    0    0 -0.70138489444E+00  0.26331932349E-01 -0.14796311986E+01  0.16376637703E+01  0.00000000000E+00 0. -1.
</event>
<event>
 7    1  0.1813014E-010  0.4778727E+02  0.7816164E-02  0.1312668E+00
        -11   -1    0    0    0    0  0.00000000000E+00  0.00000000000E+00  0.45593999997E+02  0.45594000000E+02  0.51100000000E-03 0. -1.
         11   -1    0    0    0    0 -0.00000000000E+00 -0.00000000000E+00 -0.45593999997E+02  0.45594000000E+02  0.51100000000E-03 0.  1.
    9900012    2    1    2    0    0 -0.18408870786E+02  0.67498848674E+01 -0.38719188048E+02  0.47787274287E+02  0.20000014782E+02 0.  0.
         12    1    1    2    0    0  0.18408870786E+02 -0.67498848674E+01  0.38719188048E+02  0.43400725713E+02  0.00000000000E+00 0. -1.
         11    1    3    3    0    0 -0.16750404861E+02 -0.15461484911E+00 -0.33991589717E+02  0.37894961941E+02  0.51100000000E-03 0. -1.
        -11    1    3    3    0    0 -0.23959661525E+01  0.47651948335E+01 -0.53406643575E+01  0.75478759692E+01  0.51100000000E-03 0.  1.
         12    1    3    3    0    0  0.73750022754E+00  0.21393048830E+01  0.61306602667E+00  0.23444363760E+01  0.00000000000E+00 0. -1.
</event>
<event>
 7    1  0.1813014E-010  0.4778726E+02  0.7816164E-02  0.1312668E+00
        -11   -1    0    0    0    0  0.00000000000E+00  0.00000000000E+00  0.45593999997E+02  0.45594000000E+02  0.51100000000E-03 0.  1.
         11   -1    0    0    0    0 -0.00000000000E+00 -0.00000000000E+00 -0.45593999997E+02  0.45594000000E+02  0.51100000000E-03 0. -1.
    9900012    2    1    2    0    0 -0.28646093640E+01 -0.38934421242E+02  0.18961243261E+02  0.47787263943E+02  0.19999967621E+02 0.  0.
         12    1    1    2    0    0  0.28646093640E+01  0.38934421242E+02 -0.18961243261E+02  0.43400736057E+02  0.00000000000E+00 0. -1.
         11    1    3    3    0    0 -0.36943409495E+01 -0.14989020774E+00 -0.57513099661E+00  0.37418442044E+01  0.51100000000E-03 0. -1.
        -11    1    3    3    0    0 -0.31886012150E+01 -0.19054750370E+02  0.88458813967E+01  0.21248536593E+02  0.51100000000E-03 0.  1.
        -12    1    3    3    0    0  0.40183328004E+01 -0.19729780665E+02  0.10690492861E+02  0.22796883146E+02  0.00000000000E+00 0.  1.
</event>
<event>
 7    1  0.1813014E-010  0.4778733E+02  0.7816164E-02  0.1312668E+00
        -11   -1    0    0    0    0  0.00000000000E+00  0.00000000000E+00  0.45593999997E+02  0.45594000000E+02  0.51100000000E-03 0.  1.
         11   -1    0    0    0    0 -0.00000000000E+00 -0.00000000000E+00 -0.45593999997E+02  0.45594000000E+02  0.51100000000E-03 0. -1.
    9900012    2    1    2    0    0 -0.90809642401E+01  0.22067735544E+02  0.36251477093E+02  0.47787326561E+02  0.20000253120E+02 0.  0.
         12    1    1    2    0    0  0.90809642401E+01 -0.22067735544E+02 -0.36251477093E+02  0.43400673439E+02  0.00000000000E+00 0. -1.
         11    1    3    3    0    0  0.28390806287E+01  0.55402711979E+01  0.79065686868E+01  0.10063240652E+02  0.51100000000E-03 0. -1.
        -11    1    3    3    0    0 -0.11153423453E+02  0.15409245096E+02  0.14773866341E+02  0.24085489741E+02  0.51100000000E-03 0.  1.
        -12    1    3    3    0    0 -0.76662141615E+00  0.11182192493E+01  0.13571042065E+02  0.13638596168E+02  0.00000000000E+00 0.  1.
</event>
<event>
 7    1  0.1813014E-010  0.4778725E+02  0.7816164E-02  0.1312668E+00
        -11   -1    0    0    0    0  0.00000000000E+00  0.00000000000E+00  0.45593999997E+02  0.45594000000E+02  0.51100000000E-03 0. -1.
         11   -1    0    0    0    0 -0.00000000000E+00 -0.00000000000E+00 -0.45593999997E+02  0.45594000000E+02  0.51100000000E-03 0.  1.
    9900012    2    1    2    0    0 -0.15992186852E+02  0.40147331787E+02  0.40083030383E+01  0.47787253656E+02  0.19999920720E+02 0.  0.
         12    1    1    2    0    0  0.15992186852E+02 -0.40147331787E+02 -0.40083030383E+01  0.43400746344E+02  0.00000000000E+00 0. -1.
         11    1    3    3    0    0 -0.12967483721E+02  0.31266365745E+02  0.88928133450E+01  0.34997476915E+02  0.51100000000E-03 0. -1.
        -11    1    3    3    0    0 -0.46046306347E+01  0.26389105097E+01 -0.14977302865E+01  0.55144961903E+01  0.51100000000E-03 0.  1.
         12    1    3    3    0    0  0.15799275038E+01  0.62420555326E+01 -0.33867800202E+01  0.72752805509E+01  0.00000000000E+00 0. -1.
</event>
<event>
 7    1  0.1813014E-010  0.4778728E+02  0.7816164E-02  0.1312668E+00
        -11   -1    0    0    0    0  0.00000000000E+00  0.00000000000E+00  0.45593999997E+02  0.45594000000E+02  0.51100000000E-03 0. -1.
         11   -1    0    0    0    0 -0.00000000000E+00 -0.00000000000E+00 -0.45593999997E+02  0.45594000000E+02  0.51100000000E-03 0.  1.
    9900012    2    1    2    0    0 -0.30134450050E+02 -0.13057777720E+02  0.28373081622E+02  0.47787281117E+02  0.20000045926E+02 0.  0.
         12    1    1    2    0    0  0.30134450050E+02  0.13057777720E+02 -0.28373081622E+02  0.43400718883E+02  0.00000000000E+00 0. -1.
         11    1    3    3    0    0 -0.52697132734E+01  0.41730231748E+01  0.99453806907E+01  0.12003940926E+02  0.51100000000E-03 0. -1.
        -11    1    3    3    0    0  0.72281463330E-01 -0.13021151389E+00 -0.21461031200E+00  0.26122307599E+00  0.51100000000E-03 0.  1.
        -12    1    3    3    0    0 -0.24937018240E+02 -0.17100589381E+02  0.18642311243E+02  0.35522117116E+02  0.00000000000E+00 0.  1.
</event>
<event>
 7    1  0.1813014E-010  0.4778727E+02  0.7816164E-02  0.1312668E+00
        -11   -1    0    0    0    0  0.00000000000E+00  0.00000000000E+00  0.45593999997E+02  0.45594000000E+02  0.51100000000E-03 0. -1.
         11   -1    0    0    0    0 -0.00000000000E+00 -0.00000000000E+00 -0.45593999997E+02  0.45594000000E+02  0.51100000000E-03 0.  1.
    9900012    2    1    2    0    0  0.17011558373E+02 -0.38175494326E+02 -0.11698794646E+02  0.47787270957E+02  0.19999999603E+02 0.  0.
         12    1    1    2    0    0 -0.17011558373E+02  0.38175494326E+02  0.11698794646E+02  0.43400729043E+02  0.00000000000E+00 0. -1.
         11    1    3    3    0    0  0.47136882799E+01 -0.61378639262E+01  0.25317773508E+01  0.81426118409E+01  0.51100000000E-03 0. -1.
        -11    1    3    3    0    0  0.36209673538E+01 -0.17571714898E+01  0.16727069931E+01  0.43585553992E+01  0.51100000000E-03 0.  1.
        -12    1    3    3    0    0  0.86769027390E+01 -0.30280458910E+02 -0.15903278990E+02  0.35286103717E+02  0.00000000000E+00 0.  1.
</event>
<event>
 7    1  0.1813014E-010  0.4778727E+02  0.7816164E-02  0.1312668E+00
        -11   -1    0    0    0    0  0.00000000000E+00  0.00000000000E+00  0.45593999997E+02  0.45594000000E+02  0.51100000000E-03 0.  1.
         11   -1    0    0    0    0 -0.00000000000E+00 -0.00000000000E+00 -0.45593999997E+02  0.45594000000E+02  0.51100000000E-03 0. -1.
    9900012    2    1    2    0    0  0.29096560051E+02  0.91260218717E+01  0.30882505284E+02  0.47787271727E+02  0.20000003111E+02 0.  0.
         12    1    1    2    0    0 -0.29096560051E+02 -0.91260218717E+01 -0.30882505284E+02  0.43400728273E+02  0.00000000000E+00 0. -1.
         11    1    3    3    0    0  0.68996028319E+01 -0.92971531990E+00  0.70723687674E+01  0.99240762823E+01  0.51100000000E-03 0. -1.
        -11    1    3    3    0    0  0.89441632262E+01  0.48381603531E+01  0.21018713298E+02  0.23349350321E+02  0.51100000000E-03 0.  1.
         12    1    3    3    0    0  0.13252793993E+02  0.52175768386E+01  0.27914232182E+01  0.14513845124E+02  0.00000000000E+00 0. -1.
</event>
<event>
 7    1  0.1813014E-010  0.4778727E+02  0.7816164E-02  0.1312668E+00
        -11   -1    0    0    0    0  0.00000000000E+00  0.00000000000E+00  0.45593999997E+02  0.45594000000E+02  0.51100000000E-03 0.  1.
         11   -1    0    0    0    0 -0.00000000000E+00 -0.00000000000E+00 -0.45593999997E+02  0.45594000000E+02  0.51100000000E-03 0. -1.
    9900012    2    1    2    0    0 -0.15619934004E+02  0.32071062532E+02  0.24720186016E+02  0.47787274350E+02  0.20000015073E+02 0.  0.
         12    1    1    2    0    0  0.15619934004E+02 -0.32071062532E+02 -0.24720186016E+02  0.43400725650E+02  0.00000000000E+00 0. -1.
         11    1    3    3    0    0 -0.57234330253E+01  0.16235029754E+02  0.34353849369E+01  0.17553795790E+02  0.51100000000E-03 0.  1.
        -11    1    3    3    0    0 -0.51695510051E+01  0.67779284523E+00  0.29943201745E+01  0.60124549315E+01  0.51100000000E-03 0. -1.
        -12    1    3    3    0    0 -0.47269499739E+01  0.15158239933E+02  0.18290480905E+02  0.24221023629E+02  0.00000000000E+00 0.  1.
</event>
<event>
 7    1  0.1813014E-010  0.4778726E+02  0.7816164E-02  0.1312668E+00
        -11   -1    0    0    0    0  0.00000000000E+00  0.00000000000E+00  0.45593999997E+02  0.45594000000E+02  0.51100000000E-03 0.  1.
         11   -1    0    0    0    0 -0.00000000000E+00 -0.00000000000E+00 -0.45593999997E+02  0.45594000000E+02  0.51100000000E-03 0. -1.
    9900012    2    1    2    0    0  0.70258218039E+01 -0.27535731483E+02  0.32803127121E+02  0.47787264647E+02  0.19999970830E+02 0.  0.
         12    1    1    2    0    0 -0.70258218039E+01  0.27535731483E+02 -0.32803127121E+02  0.43400735353E+02  0.00000000000E+00 0. -1.
         11    1    3    3    0    0  0.23093093347E+00  0.96107539915E+00 -0.37545733317E+00  0.10573379257E+01  0.51100000000E-03 0. -1.
        -11    1    3    3    0    0  0.40491189511E+01 -0.77410958503E+01  0.16617328665E+01  0.88927659154E+01  0.51100000000E-03 0.  1.
        -12    1    3    3    0    0  0.27457719193E+01 -0.20755711032E+02  0.31516851587E+02  0.37837160806E+02  0.00000000000E+00 0.  1.
</event>
<event>
 7    1  0.1813014E-010  0.4778727E+02  0.7816164E-02  0.1312668E+00
        -11   -1    0    0    0    0  0.00000000000E+00  0.00000000000E+00  0.45593999997E+02  0.45594000000E+02  0.51100000000E-03 0. -1.
         11   -1    0    0    0    0 -0.00000000000E+00 -0.00000000000E+00 -0.45593999997E+02  0.45594000000E+02  0.51100000000E-03 0.  1.
    9900012    2    1    2    0    0 -0.20580856470E+02  0.38038910265E+02 -0.36184538732E+01  0.47787267799E+02  0.19999985201E+02 0.  0.
         12    1    1    2    0    0  0.20580856470E+02 -0.38038910265E+02  0.36184538732E+01  0.43400732201E+02  0.00000000000E+00 0. -1.
         11    1    3    3    0    0 -0.39955852123E+01  0.44962057954E+01 -0.61107735202E+01  0.85745041268E+01  0.51100000000E-03 0. -1.
        -11    1    3    3    0    0 -0.13849039030E+01  0.11989806672E+02  0.42109139767E+01  0.12783005110E+02  0.51100000000E-03 0.  1.
        -12    1    3    3    0    0 -0.15200367355E+02  0.21552897797E+02 -0.17185943297E+01  0.26429758562E+02  0.00000000000E+00 0.  1.
</event>
<event>
 7    1  0.1919962E-010  0.4778727E+02  0.7816164E-02  0.1312668E+00
        -11   -1    0    0    0    0  0.00000000000E+00  0.00000000000E+00  0.45593999997E+02  0.45594000000E+02  0.51100000000E-03 0. -1.
         11   -1    0    0    0    0 -0.00000000000E+00 -0.00000000000E+00 -0.45593999997E+02  0.45594000000E+02  0.51100000000E-03 0.  1.
    9900012    2    1    2    0    0 -0.64244816825E+01  0.42130836051E+02  0.82062146117E+01  0.47787271095E+02  0.20000000229E+02 0.  0.
         12    1    1    2    0    0  0.64244816825E+01 -0.42130836051E+02 -0.82062146117E+01  0.43400728905E+02  0.00000000000E+00 0. -1.
         11    1    3    3    0    0 -0.98922166396E+00  0.39411394999E+01  0.50867044829E+01  0.65104303095E+01  0.51100000000E-03 0. -1.
        -11    1    3    3    0    0 -0.75259275073E+01  0.35507437413E+02  0.60384829427E+01  0.36795121593E+02  0.51100000000E-03 0.  1.
         12    1    3    3    0    0  0.20906674888E+01  0.26822591381E+01 -0.29189728139E+01  0.44817191925E+01  0.00000000000E+00 0. -1.
</event>
<event>
 7    1  0.1813014E-010  0.4778727E+02  0.7816164E-02  0.1312668E+00
        -11   -1    0    0    0    0  0.00000000000E+00  0.00000000000E+00  0.45593999997E+02  0.45594000000E+02  0.51100000000E-03 0. -1.
         11   -1    0    0    0    0 -0.00000000000E+00 -0.00000000000E+00 -0.45593999997E+02  0.45594000000E+02  0.51100000000E-03 0.  1.
    9900012    2    1    2    0    0 -0.40081481667E+02  0.12783207338E+02  0.10662454893E+02  0.47787268361E+02  0.19999987763E+02 0.  0.
         12    1    1    2    0    0  0.40081481667E+02 -0.12783207338E+02 -0.10662454893E+02  0.43400731639E+02  0.00000000000E+00 0. -1.
         11    1    3    3    0    0  0.13444646767E+01  0.87349846336E+00  0.10809849348E+01  0.19336787538E+01  0.51100000000E-03 0. -1.
        -11    1    3    3    0    0 -0.16854277839E+02  0.19775922931E+01 -0.16887744623E+01  0.17053724291E+02  0.51100000000E-03 0.  1.
         12    1    3    3    0    0 -0.24571668505E+02  0.99321165811E+01  0.11270244420E+02  0.28799865316E+02  0.00000000000E+00 0. -1.
</event>
<event>
 7    1  0.1813014E-010  0.4778727E+02  0.7816164E-02  0.1312668E+00
        -11   -1    0    0    0    0  0.00000000000E+00  0.00000000000E+00  0.45593999997E+02  0.45594000000E+02  0.51100000000E-03 0. -1.
         11   -1    0    0    0    0 -0.00000000000E+00 -0.00000000000E+00 -0.45593999997E+02  0.45594000000E+02  0.51100000000E-03 0.  1.
    9900012    2    1    2    0    0  0.27420525118E+02 -0.33607059967E+02  0.15177771263E+01  0.47787270458E+02  0.19999997325E+02 0.  0.
         12    1    1    2    0    0 -0.27420525118E+02  0.33607059967E+02 -0.15177771263E+01  0.43400729542E+02  0.00000000000E+00 0. -1.
         11    1    3    3    0    0  0.56136394396E+01 -0.71558353903E+01  0.71972560616E+01  0.11598250858E+02  0.51100000000E-03 0. -1.
        -11    1    3    3    0    0  0.17440175516E+02 -0.19843288037E+02  0.42173355029E-01  0.26418129778E+02  0.51100000000E-03 0.  1.
         12    1    3    3    0    0  0.43667101625E+01 -0.66079365402E+01 -0.57216522903E+01  0.97708898210E+01  0.00000000000E+00 0. -1.
</event>
<event>
 7    1  0.1813014E-010  0.4778727E+02  0.7816164E-02  0.1312668E+00
        -11   -1    0    0    0    0  0.00000000000E+00  0.00000000000E+00  0.45593999997E+02  0.45594000000E+02  0.51100000000E-03 0. -1.
         11   -1    0    0    0    0 -0.00000000000E+00 -0.00000000000E+00 -0.45593999997E+02  0.45594000000E+02  0.51100000000E-03 0.  1.
    9900012    2    1    2    0    0  0.34737663884E+02  0.25237955801E+02  0.63216665009E+01  0.47787272213E+02  0.20000005326E+02 0.  0.
         12    1    1    2    0    0 -0.34737663884E+02 -0.25237955801E+02 -0.63216665009E+01  0.43400727787E+02  0.00000000000E+00 0. -1.
         11    1    3    3    0    0  0.61247108032E+01  0.12119903144E+01  0.32585473272E+01  0.70426652547E+01  0.51100000000E-03 0. -1.
        -11    1    3    3    0    0  0.98617265289E+01  0.18273637287E+02 -0.68418558568E+00  0.20776130053E+02  0.51100000000E-03 0.  1.
         12    1    3    3    0    0  0.18751226552E+02  0.57523281999E+01  0.37473047593E+01  0.19968476904E+02  0.00000000000E+00 0. -1.
</event>
<event>
 7    1  0.1813014E-010  0.4778727E+02  0.7816164E-02  0.1312668E+00
        -11   -1    0    0    0    0  0.00000000000E+00  0.00000000000E+00  0.45593999997E+02  0.45594000000E+02  0.51100000000E-03 0.  1.
         11   -1    0    0    0    0 -0.00000000000E+00 -0.00000000000E+00 -0.45593999997E+02  0.45594000000E+02  0.51100000000E-03 0. -1.
    9900012    2    1    2    0    0 -0.31475355782E+02 -0.29848859785E+02  0.14038943656E+01  0.47787269920E+02  0.19999994873E+02 0.  0.
         12    1    1    2    0    0  0.31475355782E+02  0.29848859785E+02 -0.14038943656E+01  0.43400730080E+02  0.00000000000E+00 0. -1.
         11    1    3    3    0    0 -0.14745007107E+02 -0.30774520412E+01  0.38967281974E+00  0.15067773254E+02  0.51100000000E-03 0. -1.
        -11    1    3    3    0    0 -0.20385182943E+01 -0.10848246513E+02  0.37802049461E+00  0.11044587317E+02  0.51100000000E-03 0.  1.
        -12    1    3    3    0    0 -0.14691830381E+02 -0.15923161231E+02  0.63620105128E+00  0.21674909350E+02  0.00000000000E+00 0.  1.
</event>
<event>
 7    1  0.1813014E-010  0.4778727E+02  0.7816164E-02  0.1312668E+00
        -11   -1    0    0    0    0  0.00000000000E+00  0.00000000000E+00  0.45593999997E+02  0.45594000000E+02  0.51100000000E-03 0.  1.
         11   -1    0    0    0    0 -0.00000000000E+00 -0.00000000000E+00 -0.45593999997E+02  0.45594000000E+02  0.51100000000E-03 0. -1.
    9900012    2    1    2    0    0 -0.11658265695E+02  0.40397888496E+02  0.10757274472E+02  0.47787268347E+02  0.19999987700E+02 0.  0.
         12    1    1    2    0    0  0.11658265695E+02 -0.40397888496E+02 -0.10757274472E+02  0.43400731653E+02  0.00000000000E+00 0. -1.
         11    1    3    3    0    0 -0.34090149484E+00 -0.81924117621E+00  0.18166577370E+01  0.20217852330E+01  0.51100000000E-03 0. -1.
        -11    1    3    3    0    0 -0.10030991788E+02  0.28088683050E+02  0.12123062199E+02  0.32195706997E+02  0.51100000000E-03 0.  1.
         12    1    3    3    0    0 -0.12863724127E+01  0.13128446623E+02 -0.31824454642E+01  0.13569776116E+02  0.00000000000E+00 0. -1.
</event>
<event>
 7    1  0.1921610E-010  0.4778727E+02  0.7816164E-02  0.1312668E+00
        -11   -1    0    0    0    0  0.00000000000E+00  0.00000000000E+00  0.45593999997E+02  0.45594000000E+02  0.51100000000E-03 0. -1.
         11   -1    0    0    0    0 -0.00000000000E+00 -0.00000000000E+00 -0.45593999997E+02  0.45594000000E+02  0.51100000000E-03 0.  1.
    9900012    2    1    2    0    0  0.17807875928E+02  0.39539317671E+02 -0.17734956749E+01  0.47787269893E+02  0.19999994749E+02 0.  0.
         12    1    1    2    0    0 -0.17807875928E+02 -0.39539317671E+02  0.17734956749E+01  0.43400730107E+02  0.00000000000E+00 0. -1.
         11    1    3    3    0    0  0.12518138498E+02  0.11873829188E+02  0.55758034863E+01  0.18132324612E+02  0.51100000000E-03 0. -1.
        -11    1    3    3    0    0  0.56325182321E+01  0.14700826738E+02 -0.35108808769E+01  0.16129657566E+02  0.51100000000E-03 0.  1.
         12    1    3    3    0    0 -0.34278080240E+00  0.12964661745E+02 -0.38384182843E+01  0.13525287715E+02  0.00000000000E+00 0. -1.
</event>
<event>
 7    1  0.1813014E-010  0.4778727E+02  0.7816164E-02  0.1312668E+00
        -11   -1    0    0    0    0  0.00000000000E+00  0.00000000000E+00  0.45593999997E+02  0.45594000000E+02  0.51100000000E-03 0.  1.
         11   -1    0    0    0    0 -0.00000000000E+00 -0.00000000000E+00 -0.45593999997E+02  0.45594000000E+02  0.51100000000E-03 0. -1.
    9900012    2    1    2    0    0 -0.42181728964E+02  0.10212548006E+02  0.16911560885E+00  0.47787274254E+02  0.20000014634E+02 0.  0.
         12    1    1    2    0    0  0.42181728964E+02 -0.10212548006E+02 -0.16911560885E+00  0.43400725746E+02  0.00000000000E+00 0. -1.
         11    1    3    3    0    0 -0.31372386121E+02  0.47921369710E+01 -0.34810211417E+01  0.31926614229E+02  0.51100000000E-03 0. -1.
        -11    1    3    3    0    0 -0.12293615693E+02  0.60723626808E+01  0.38116567265E+01  0.14231489824E+02  0.51100000000E-03 0.  1.
        -12    1    3    3    0    0  0.14842728499E+01 -0.65195164626E+00 -0.16151997595E+00  0.16291702013E+01  0.00000000000E+00 0.  1.
</event>
<event>
 7    1  0.1813014E-010  0.4778727E+02  0.7816164E-02  0.1312668E+00
        -11   -1    0    0    0    0  0.00000000000E+00  0.00000000000E+00  0.45593999997E+02  0.45594000000E+02  0.51100000000E-03 0.  1.
         11   -1    0    0    0    0 -0.00000000000E+00 -0.00000000000E+00 -0.45593999997E+02  0.45594000000E+02  0.51100000000E-03 0. -1.
    9900012    2    1    2    0    0 -0.32674309451E+02 -0.20151845395E+02  0.20246377705E+02  0.47787272114E+02  0.20000004875E+02 0.  0.
         12    1    1    2    0    0  0.32674309451E+02  0.20151845395E+02 -0.20246377705E+02  0.43400727886E+02  0.00000000000E+00 0. -1.
         11    1    3    3    0    0 -0.20295573029E+02 -0.19369692451E+02  0.15776694968E+02  0.32186944163E+02  0.51100000000E-03 0. -1.
        -11    1    3    3    0    0 -0.13570176081E+02 -0.12190266384E+01  0.44433224923E+01  0.14331043920E+02  0.51100000000E-03 0.  1.
        -12    1    3    3    0    0  0.11914396593E+01  0.43687369424E+00  0.26360245262E-01  0.12692840301E+01  0.00000000000E+00 0.  1.
</event>
<event>
 7    1  0.1813014E-010  0.4778729E+02  0.7816164E-02  0.1312668E+00
        -11   -1    0    0    0    0  0.00000000000E+00  0.00000000000E+00  0.45593999997E+02  0.45594000000E+02  0.51100000000E-03 0.  1.
         11   -1    0    0    0    0 -0.00000000000E+00 -0.00000000000E+00 -0.45593999997E+02  0.45594000000E+02  0.51100000000E-03 0. -1.
    9900012    2    1    2    0    0  0.15793346963E+02 -0.64686385872E+01  0.39904240631E+02  0.47787291321E+02  0.20000092450E+02 0.  0.
         12    1    1    2    0    0 -0.15793346963E+02  0.64686385872E+01 -0.39904240631E+02  0.43400708679E+02  0.00000000000E+00 0. -1.
         11    1    3    3    0    0 -0.37182834572E+01  0.99498719891E+00  0.25791681941E+01  0.46333292813E+01  0.51100000000E-03 0. -1.
        -11    1    3    3    0    0  0.66012090660E+01 -0.43349448422E+01  0.97597013037E+01  0.12554659602E+02  0.51100000000E-03 0.  1.
        -12    1    3    3    0    0  0.12910421355E+02 -0.31286809440E+01  0.27565371133E+02  0.30599302438E+02  0.00000000000E+00 0.  1.
</event>
<event>
 7    1  0.1813014E-010  0.4778727E+02  0.7816164E-02  0.1312668E+00
        -11   -1    0    0    0    0  0.00000000000E+00  0.00000000000E+00  0.45593999997E+02  0.45594000000E+02  0.51100000000E-03 0.  1.
         11   -1    0    0    0    0 -0.00000000000E+00 -0.00000000000E+00 -0.45593999997E+02  0.45594000000E+02  0.51100000000E-03 0. -1.
    9900012    2    1    2    0    0  0.27766948640E+02  0.17739232697E+02  0.28247818652E+02  0.47787273370E+02  0.20000010601E+02 0.  0.
         12    1    1    2    0    0 -0.27766948640E+02 -0.17739232697E+02 -0.28247818652E+02  0.43400726630E+02  0.00000000000E+00 0. -1.
         11    1    3    3    0    0  0.17169946560E+01  0.19562095074E+01  0.77125870735E+01  0.81399524515E+01  0.51100000000E-03 0. -1.
        -11    1    3    3    0    0  0.25451852052E+02  0.10917799831E+02  0.20952789127E+02  0.34727719455E+02  0.51100000000E-03 0.  1.
         12    1    3    3    0    0  0.59810193170E+00  0.48652233589E+01 -0.41755754894E+00  0.49196014635E+01  0.00000000000E+00 0. -1.
</event>
<event>
 7    1  0.1813014E-010  0.4778727E+02  0.7816164E-02  0.1312668E+00
        -11   -1    0    0    0    0  0.00000000000E+00  0.00000000000E+00  0.45593999997E+02  0.45594000000E+02  0.51100000000E-03 0.  1.
         11   -1    0    0    0    0 -0.00000000000E+00 -0.00000000000E+00 -0.45593999997E+02  0.45594000000E+02  0.51100000000E-03 0. -1.
    9900012    2    1    2    0    0  0.22847974787E+02 -0.12694772664E+02  0.34647309961E+02  0.47787270831E+02  0.19999999028E+02 0.  0.
         12    1    1    2    0    0 -0.22847974787E+02  0.12694772664E+02 -0.34647309961E+02  0.43400729169E+02  0.00000000000E+00 0. -1.
         11    1    3    3    0    0  0.10461655578E+02 -0.30940337049E+01  0.28417905494E+02  0.30440049851E+02  0.51100000000E-03 0. -1.
        -11    1    3    3    0    0  0.72713851882E+01 -0.36701207847E+01  0.45774929929E+01  0.93432473740E+01  0.51100000000E-03 0.  1.
         12    1    3    3    0    0  0.51149340203E+01 -0.59306181749E+01  0.16519114737E+01  0.80039736060E+01  0.00000000000E+00 0. -1.
</event>
<event>
 7    1  0.1813014E-010  0.4778727E+02  0.7816164E-02  0.1312668E+00
        -11   -1    0    0    0    0  0.00000000000E+00  0.00000000000E+00  0.45593999997E+02  0.45594000000E+02  0.51100000000E-03 0.  1.
         11   -1    0    0    0    0 -0.00000000000E+00 -0.00000000000E+00 -0.45593999997E+02  0.45594000000E+02  0.51100000000E-03 0. -1.
    9900012    2    1    2    0    0  0.26669168879E+01 -0.20521505932E+02  0.38149422461E+02  0.47787273214E+02  0.20000009893E+02 0.  0.
         12    1    1    2    0    0 -0.26669168879E+01  0.20521505932E+02 -0.38149422461E+02  0.43400726786E+02  0.00000000000E+00 0. -1.
         11    1    3    3    0    0  0.47937303870E+01 -0.11122002543E+01  0.51371286294E+01  0.71138548794E+01  0.51100000000E-03 0. -1.
        -11    1    3    3    0    0  0.39878760661E+01 -0.68708690129E+01  0.20303554927E+02  0.21802438841E+02  0.51100000000E-03 0.  1.
         12    1    3    3    0    0 -0.61146895652E+01 -0.12538436665E+02  0.12708738905E+02  0.18870979493E+02  0.00000000000E+00 0. -1.
</event>
<event>
 7    1  0.1813014E-010  0.4778727E+02  0.7816164E-02  0.1312668E+00
        -11   -1    0    0    0    0  0.00000000000E+00  0.00000000000E+00  0.45593999997E+02  0.45594000000E+02  0.51100000000E-03 0. -1.
         11   -1    0    0    0    0 -0.00000000000E+00 -0.00000000000E+00 -0.45593999997E+02  0.45594000000E+02  0.51100000000E-03 0.  1.
    9900012    2    1    2    0    0 -0.30821944389E+02  0.29724212274E+02  0.70782757737E+01  0.47787273749E+02  0.20000012332E+02 0.  0.
         12    1    1    2    0    0  0.30821944389E+02 -0.29724212274E+02 -0.70782757737E+01  0.43400726251E+02  0.00000000000E+00 0. -1.
         11    1    3    3    0    0 -0.10570594910E+02  0.21387494265E+01  0.29219899815E+01  0.11173618553E+02  0.51100000000E-03 0. -1.
        -11    1    3    3    0    0 -0.31983352805E+00  0.71873392979E+01  0.37013796888E+01  0.80907571667E+01  0.51100000000E-03 0.  1.
        -12    1    3    3    0    0 -0.19931515950E+02  0.20398123549E+02  0.45490610346E+00  0.28522898029E+02  0.00000000000E+00 0.  1.
</event>
<event>
 7    1  0.1813014E-010  0.4778727E+02  0.7816164E-02  0.1312668E+00
        -11   -1    0    0    0    0  0.00000000000E+00  0.00000000000E+00  0.45593999997E+02  0.45594000000E+02  0.51100000000E-03 0.  1.
         11   -1    0    0    0    0 -0.00000000000E+00 -0.00000000000E+00 -0.45593999997E+02  0.45594000000E+02  0.51100000000E-03 0. -1.
    9900012    2    1    2    0    0  0.17848343987E+01  0.14258001637E+02  0.40952987677E+02  0.47787269083E+02  0.19999991057E+02 0.  0.
         12    1    1    2    0    0 -0.17848343987E+01 -0.14258001637E+02 -0.40952987677E+02  0.43400730917E+02  0.00000000000E+00 0. -1.
         11    1    3    3    0    0 -0.47188116535E+01 -0.75068013106E+00  0.22815139246E+01  0.52949041662E+01  0.51100000000E-03 0. -1.
        -11    1    3    3    0    0  0.18474900385E+01  0.85139032384E+01  0.13362218130E+02  0.15951446373E+02  0.51100000000E-03 0.  1.
        -12    1    3    3    0    0  0.46561560137E+01  0.64947785292E+01  0.25309255622E+02  0.26540918543E+02  0.00000000000E+00 0.  1.
</event>
<event>
 7    1  0.1813014E-010  0.4778727E+02  0.7816164E-02  0.1312668E+00
        -11   -1    0    0    0    0  0.00000000000E+00  0.00000000000E+00  0.45593999997E+02  0.45594000000E+02  0.51100000000E-03 0.  1.
         11   -1    0    0    0    0 -0.00000000000E+00 -0.00000000000E+00 -0.45593999997E+02  0.45594000000E+02  0.51100000000E-03 0. -1.
    9900012    2    1    2    0    0  0.40943089998E+02 -0.16167122826E+01  0.14306402787E+02  0.47787268003E+02  0.19999986132E+02 0.  0.
         12    1    1    2    0    0 -0.40943089998E+02  0.16167122826E+01 -0.14306402787E+02  0.43400731997E+02  0.00000000000E+00 0. -1.
         11    1    3    3    0    0  0.12958745046E+02 -0.66404197200E+01  0.11845611446E+02  0.18770795348E+02  0.51100000000E-03 0. -1.
        -11    1    3    3    0    0  0.45398144166E+01  0.71367722434E+00  0.23879343604E+01  0.51789459245E+01  0.51100000000E-03 0.  1.
        -12    1    3    3    0    0  0.23444530535E+02  0.43100302130E+01  0.72856980808E-01  0.23837526730E+02  0.00000000000E+00 0.  1.
</event>
<event>
 7    1  0.1813014E-010  0.4778727E+02  0.7816164E-02  0.1312668E+00
        -11   -1    0    0    0    0  0.00000000000E+00  0.00000000000E+00  0.45593999997E+02  0.45594000000E+02  0.51100000000E-03 0.  1.
         11   -1    0    0    0    0 -0.00000000000E+00 -0.00000000000E+00 -0.45593999997E+02  0.45594000000E+02  0.51100000000E-03 0. -1.
    9900012    2    1    2    0    0  0.41718267717E+02 -0.11815366226E+02  0.18990837424E+01  0.47787271211E+02  0.20000000759E+02 0.  0.
         12    1    1    2    0    0 -0.41718267717E+02  0.11815366226E+02 -0.18990837424E+01  0.43400728789E+02  0.00000000000E+00 0. -1.
         11    1    3    3    0    0  0.21475575162E+02 -0.89267441023E+01 -0.19978883275E+01  0.23342635816E+02  0.51100000000E-03 0. -1.
        -11    1    3    3    0    0  0.17091708912E+02  0.60323521533E+00  0.73448841742E+01  0.18612837776E+02  0.51100000000E-03 0.  1.
         12    1    3    3    0    0  0.31509836427E+01 -0.34918573392E+01 -0.34479121043E+01  0.58317976193E+01  0.00000000000E+00 0. -1.
</event>
<event>
 7    1  0.1813014E-010  0.4778727E+02  0.7816164E-02  0.1312668E+00
        -11   -1    0    0    0    0  0.00000000000E+00  0.00000000000E+00  0.45593999997E+02  0.45594000000E+02  0.51100000000E-03 0. -1.
         11   -1    0    0    0    0 -0.00000000000E+00 -0.00000000000E+00 -0.45593999997E+02  0.45594000000E+02  0.51100000000E-03 0.  1.
    9900012    2    1    2    0    0  0.15556860359E+02  0.40240344349E+02 -0.47246208887E+01  0.47787271203E+02  0.20000000723E+02 0.  0.
         12    1    1    2    0    0 -0.15556860359E+02 -0.40240344349E+02  0.47246208887E+01  0.43400728797E+02  0.00000000000E+00 0. -1.
         11    1    3    3    0    0 -0.31599009344E+01  0.52455047799E+01 -0.63396609566E+00  0.61564768807E+01  0.51100000000E-03 0. -1.
        -11    1    3    3    0    0  0.77746239174E+01  0.44947358399E+01 -0.86274746359E-01  0.89808056944E+01  0.51100000000E-03 0.  1.
        -12    1    3    3    0    0  0.10942137376E+02  0.30500103729E+02 -0.40043800467E+01  0.32649988628E+02  0.00000000000E+00 0.  1.
</event>
<event>
 7    1  0.1813014E-010  0.4778727E+02  0.7816164E-02  0.1312668E+00
        -11   -1    0    0    0    0  0.00000000000E+00  0.00000000000E+00  0.45593999997E+02  0.45594000000E+02  0.51100000000E-03 0.  1.
         11   -1    0    0    0    0 -0.00000000000E+00 -0.00000000000E+00 -0.45593999997E+02  0.45594000000E+02  0.51100000000E-03 0. -1.
    9900012    2    1    2    0    0  0.10806090433E+02  0.31266626181E+02  0.28093584426E+02  0.47787274325E+02  0.20000014957E+02 0.  0.
         12    1    1    2    0    0 -0.10806090433E+02 -0.31266626181E+02 -0.28093584426E+02  0.43400725675E+02  0.00000000000E+00 0. -1.
         11    1    3    3    0    0  0.32918486113E+00 -0.69348698338E+00  0.10884044795E+01  0.13318826679E+01  0.51100000000E-03 0. -1.
        -11    1    3    3    0    0 -0.32453133225E+01  0.99747658841E+01  0.24894009899E+01  0.10780775972E+02  0.51100000000E-03 0.  1.
         12    1    3    3    0    0  0.13722218895E+02  0.21985347281E+02  0.24515778957E+02  0.35674615685E+02  0.00000000000E+00 0. -1.
</event>
<event>
 7    1  0.1813014E-010  0.4778727E+02  0.7816164E-02  0.1312668E+00
        -11   -1    0    0    0    0  0.00000000000E+00  0.00000000000E+00  0.45593999997E+02  0.45594000000E+02  0.51100000000E-03 0.  1.
         11   -1    0    0    0    0 -0.00000000000E+00 -0.00000000000E+00 -0.45593999997E+02  0.45594000000E+02  0.51100000000E-03 0. -1.
    9900012    2    1    2    0    0  0.41552230100E+02 -0.35080519358E+01  0.12030341844E+02  0.47787269827E+02  0.19999994449E+02 0.  0.
         12    1    1    2    0    0 -0.41552230100E+02  0.35080519358E+01 -0.12030341844E+02  0.43400730173E+02  0.00000000000E+00 0. -1.
         11    1    3    3    0    0  0.81905953633E+01 -0.95373590265E+00 -0.16965171489E+01  0.84186480669E+01  0.51100000000E-03 0. -1.
        -11    1    3    3    0    0  0.92772716075E+01  0.39161364813E+01  0.99307356905E+01  0.14142963092E+02  0.51100000000E-03 0.  1.
         12    1    3    3    0    0  0.24084363129E+02 -0.64704525145E+01  0.37961233025E+01  0.25225658668E+02  0.00000000000E+00 0. -1.
</event>
<event>
 7    1  0.2138749E-010  0.4778727E+02  0.7816164E-02  0.1312668E+00
        -11   -1    0    0    0    0  0.00000000000E+00  0.00000000000E+00  0.45593999997E+02  0.45594000000E+02  0.51100000000E-03 0.  1.
         11   -1    0    0    0    0 -0.00000000000E+00 -0.00000000000E+00 -0.45593999997E+02  0.45594000000E+02  0.51100000000E-03 0. -1.
    9900012    2    1    2    0    0 -0.41447160500E+02 -0.12871580820E+02 -0.28057185915E+00  0.47787269282E+02  0.19999991965E+02 0.  0.
         12    1    1    2    0    0  0.41447160500E+02  0.12871580820E+02  0.28057185915E+00  0.43400730718E+02  0.00000000000E+00 0. -1.
         11    1    3    3    0    0 -0.26393149728E+01 -0.13952573517E+01  0.38315364989E+01  0.48573036561E+01  0.51100000000E-03 0. -1.
        -11    1    3    3    0    0 -0.23310806681E+02 -0.13745112031E+02 -0.21824704136E+01  0.27149309204E+02  0.51100000000E-03 0.  1.
         12    1    3    3    0    0 -0.15497038846E+02  0.22687885628E+01 -0.19296379445E+01  0.15780656423E+02  0.00000000000E+00 0. -1.
</event>
<event>
 7    1  0.1813014E-010  0.4778727E+02  0.7816164E-02  0.1312668E+00
        -11   -1    0    0    0    0  0.00000000000E+00  0.00000000000E+00  0.45593999997E+02  0.45594000000E+02  0.51100000000E-03 0. -1.
         11   -1    0    0    0    0 -0.00000000000E+00 -0.00000000000E+00 -0.45593999997E+02  0.45594000000E+02  0.51100000000E-03 0.  1.
    9900012    2    1    2    0    0  0.36092954543E+02  0.18068317998E+02 -0.15951747423E+02  0.47787265804E+02  0.19999976107E+02 0.  0.
         12    1    1    2    0    0 -0.36092954543E+02 -0.18068317998E+02  0.15951747423E+02  0.43400734196E+02  0.00000000000E+00 0. -1.
         11    1    3    3    0    0  0.28408522159E+01 -0.30171328108E+01  0.13023763400E+01  0.43439286485E+01  0.51100000000E-03 0. -1.
        -11    1    3    3    0    0  0.15595531025E+02  0.63187412793E+01 -0.80548507366E+01  0.18655500528E+02  0.51100000000E-03 0.  1.
         12    1    3    3    0    0  0.17656571301E+02  0.14766709529E+02 -0.91992730265E+01  0.24787836627E+02  0.00000000000E+00 0. -1.
</event>
<event>
 7    1  0.1813014E-010  0.4778727E+02  0.7816164E-02  0.1312668E+00
        -11   -1    0    0    0    0  0.00000000000E+00  0.00000000000E+00  0.45593999997E+02  0.45594000000E+02  0.51100000000E-03 0.  1.
         11   -1    0    0    0    0 -0.00000000000E+00 -0.00000000000E+00 -0.45593999997E+02  0.45594000000E+02  0.51100000000E-03 0. -1.
    9900012    2    1    2    0    0  0.37557237248E+02 -0.18847306344E+02 -0.10856161209E+02  0.47787271177E+02  0.20000000604E+02 0.  0.
         12    1    1    2    0    0 -0.37557237248E+02  0.18847306344E+02  0.10856161209E+02  0.43400728823E+02  0.00000000000E+00 0. -1.
         11    1    3    3    0    0  0.99026697461E+00 -0.14108872855E+01 -0.51502561574E+01  0.54310561000E+01  0.51100000000E-03 0. -1.
        -11    1    3    3    0    0  0.10171625996E+02 -0.39063657866E+01  0.32539546162E+01  0.11371450653E+02  0.51100000000E-03 0.  1.
         12    1    3    3    0    0  0.26395344278E+02 -0.13530053272E+02 -0.89598596682E+01  0.30984764424E+02  0.00000000000E+00 0. -1.
</event>
<event>
 7    1  0.1813014E-010  0.4778727E+02  0.7816164E-02  0.1312668E+00
        -11   -1    0    0    0    0  0.00000000000E+00  0.00000000000E+00  0.45593999997E+02  0.45594000000E+02  0.51100000000E-03 0.  1.
         11   -1    0    0    0    0 -0.00000000000E+00 -0.00000000000E+00 -0.45593999997E+02  0.45594000000E+02  0.51100000000E-03 0. -1.
    9900012    2    1    2    0    0  0.37385793631E+02  0.19450230185E+02  0.10373731025E+02  0.47787270570E+02  0.19999997838E+02 0.  0.
         12    1    1    2    0    0 -0.37385793631E+02 -0.19450230185E+02 -0.10373731025E+02  0.43400729430E+02  0.00000000000E+00 0. -1.
         11    1    3    3    0    0  0.10149489119E+02  0.24585826635E+01 -0.10336903189E+01  0.10494058988E+02  0.51100000000E-03 0. -1.
        -11    1    3    3    0    0  0.18820582819E+01  0.85280984105E+01  0.20269705347E+01  0.89654456490E+01  0.51100000000E-03 0.  1.
        -12    1    3    3    0    0  0.25354246229E+02  0.84635491114E+01  0.93804508087E+01  0.28327765934E+02  0.00000000000E+00 0.  1.
</event>
<event>
 7    1  0.1813014E-010  0.4778727E+02  0.7816164E-02  0.1312668E+00
        -11   -1    0    0    0    0  0.00000000000E+00  0.00000000000E+00  0.45593999997E+02  0.45594000000E+02  0.51100000000E-03 0. -1.
         11   -1    0    0    0    0 -0.00000000000E+00 -0.00000000000E+00 -0.45593999997E+02  0.45594000000E+02  0.51100000000E-03 0.  1.
    9900012    2    1    2    0    0 -0.33702948945E+02 -0.27253082472E+02 -0.22370506737E+01  0.47787266509E+02  0.19999979322E+02 0.  0.
         12    1    1    2    0    0  0.33702948945E+02  0.27253082472E+02  0.22370506737E+01  0.43400733491E+02  0.00000000000E+00 0. -1.
         11    1    3    3    0    0  0.17305574699E+00 -0.97442357221E+00  0.31627743318E+01  0.33139992946E+01  0.51100000000E-03 0. -1.
        -11    1    3    3    0    0 -0.16013833069E+02 -0.19017439801E+02 -0.31770419124E+01  0.25063907551E+02  0.51100000000E-03 0.  1.
        -12    1    3    3    0    0 -0.17862171623E+02 -0.72612190993E+01 -0.22227830930E+01  0.19409359664E+02  0.00000000000E+00 0.  1.
</event>
<event>
 7    1  0.1813014E-010  0.4778728E+02  0.7816164E-02  0.1312668E+00
        -11   -1    0    0    0    0  0.00000000000E+00  0.00000000000E+00  0.45593999997E+02  0.45594000000E+02  0.51100000000E-03 0. -1.
         11   -1    0    0    0    0 -0.00000000000E+00 -0.00000000000E+00 -0.45593999997E+02  0.45594000000E+02  0.51100000000E-03 0.  1.
    9900012    2    1    2    0    0 -0.28898342415E+02 -0.13847970251E+02 -0.29270158931E+02  0.47787277906E+02  0.20000031285E+02 0.  0.
         12    1    1    2    0    0  0.28898342415E+02  0.13847970251E+02  0.29270158931E+02  0.43400722094E+02  0.00000000000E+00 0. -1.
         11    1    3    3    0    0  0.21485871693E+00 -0.96816045341E+00 -0.15339111574E+01  0.18265767522E+01  0.51100000000E-03 0. -1.
        -11    1    3    3    0    0 -0.97953375005E+01 -0.14020046876E+02 -0.15377042247E+02  0.22999212589E+02  0.51100000000E-03 0.  1.
         12    1    3    3    0    0 -0.19317863632E+02  0.11402370784E+01 -0.12359205526E+02  0.22961488565E+02  0.00000000000E+00 0. -1.
</event>
<event>
 7    1  0.1813014E-010  0.4778727E+02  0.7816164E-02  0.1312668E+00
        -11   -1    0    0    0    0  0.00000000000E+00  0.00000000000E+00  0.45593999997E+02  0.45594000000E+02  0.51100000000E-03 0. -1.
         11   -1    0    0    0    0 -0.00000000000E+00 -0.00000000000E+00 -0.45593999997E+02  0.45594000000E+02  0.51100000000E-03 0.  1.
    9900012    2    1    2    0    0 -0.16126325905E+02  0.40293442536E+02  0.58169246002E-01  0.47787270948E+02  0.19999999560E+02 0.  0.
         12    1    1    2    0    0  0.16126325905E+02 -0.40293442536E+02 -0.58169246002E-01  0.43400729052E+02  0.00000000000E+00 0. -1.
         11    1    3    3    0    0 -0.35952587399E+01  0.13476636074E+01 -0.67022781117E+00  0.38976003112E+01  0.51100000000E-03 0. -1.
        -11    1    3    3    0    0 -0.90098084369E+01  0.38907475424E+02 -0.10368899504E+01  0.39950512299E+02  0.51100000000E-03 0.  1.
        -12    1    3    3    0    0 -0.35212587278E+01  0.38303504488E-01  0.17652870076E+01  0.39391583372E+01  0.00000000000E+00 0.  1.
</event>
<event>
 7    1  0.1813014E-010  0.4778727E+02  0.7816164E-02  0.1312668E+00
        -11   -1    0    0    0    0  0.00000000000E+00  0.00000000000E+00  0.45593999997E+02  0.45594000000E+02  0.51100000000E-03 0.  1.
         11   -1    0    0    0    0 -0.00000000000E+00 -0.00000000000E+00 -0.45593999997E+02  0.45594000000E+02  0.51100000000E-03 0. -1.
    9900012    2    1    2    0    0 -0.19418005184E+02 -0.38714819139E+02  0.27797727721E+01  0.47787270940E+02  0.19999999524E+02 0.  0.
         12    1    1    2    0    0  0.19418005184E+02  0.38714819139E+02 -0.27797727721E+01  0.43400729060E+02  0.00000000000E+00 0. -1.
         11    1    3    3    0    0 -0.11206073094E+02 -0.13433805742E+02  0.61111066458E+01  0.18530753779E+02  0.51100000000E-03 0. -1.
        -11    1    3    3    0    0  0.26482930904E+01 -0.74458554164E+01  0.88948911797E+00  0.79526983048E+01  0.51100000000E-03 0.  1.
         12    1    3    3    0    0 -0.10860225180E+02 -0.17835157981E+02 -0.42208229917E+01  0.21303818857E+02  0.00000000000E+00 0. -1.
</event>
<event>
 7    1  0.1813014E-010  0.4778727E+02  0.7816164E-02  0.1312668E+00
        -11   -1    0    0    0    0  0.00000000000E+00  0.00000000000E+00  0.45593999997E+02  0.45594000000E+02  0.51100000000E-03 0.  1.
         11   -1    0    0    0    0 -0.00000000000E+00 -0.00000000000E+00 -0.45593999997E+02  0.45594000000E+02  0.51100000000E-03 0. -1.
    9900012    2    1    2    0    0 -0.30526472684E+02  0.19087914331E+01  0.30791469443E+02  0.47787267175E+02  0.19999982357E+02 0.  0.
         12    1    1    2    0    0  0.30526472684E+02 -0.19087914331E+01 -0.30791469443E+02  0.43400732825E+02  0.00000000000E+00 0. -1.
         11    1    3    3    0    0  0.60470138822E+00 -0.11793547912E+01  0.59321813328E+00  0.14520501049E+01  0.51100000000E-03 0. -1.
        -11    1    3    3    0    0 -0.28554906982E+02 -0.17659102599E+01  0.28946880056E+02  0.40699177105E+02  0.51100000000E-03 0.  1.
        -12    1    3    3    0    0 -0.25762670908E+01  0.48540564843E+01  0.12513712544E+01  0.56360399654E+01  0.00000000000E+00 0.  1.
</event>
<event>
 7    1  0.1813014E-010  0.4778728E+02  0.7816164E-02  0.1312668E+00
        -11   -1    0    0    0    0  0.00000000000E+00  0.00000000000E+00  0.45593999997E+02  0.45594000000E+02  0.51100000000E-03 0. -1.
         11   -1    0    0    0    0 -0.00000000000E+00 -0.00000000000E+00 -0.45593999997E+02  0.45594000000E+02  0.51100000000E-03 0.  1.
    9900012    2    1    2    0    0  0.14329855444E+02 -0.38694871219E+02 -0.13453070365E+02  0.47787275145E+02  0.20000018696E+02 0.  0.
         12    1    1    2    0    0 -0.14329855444E+02  0.38694871219E+02  0.13453070365E+02  0.43400724855E+02  0.00000000000E+00 0. -1.
         11    1    3    3    0    0  0.71234179986E+01 -0.25237870201E+02 -0.12983895289E+02  0.29262172055E+02  0.51100000000E-03 0. -1.
        -11    1    3    3    0    0  0.73192675212E+01 -0.12740128662E+02 -0.37508477920E+01  0.15164148996E+02  0.51100000000E-03 0.  1.
        -12    1    3    3    0    0 -0.11283007543E+00 -0.71687235585E+00  0.32816727159E+01  0.33609540930E+01  0.00000000000E+00 0.  1.
</event>
<event>
 7    1  0.1813014E-010  0.4778727E+02  0.7816164E-02  0.1312668E+00
        -11   -1    0    0    0    0  0.00000000000E+00  0.00000000000E+00  0.45593999997E+02  0.45594000000E+02  0.51100000000E-03 0.  1.
         11   -1    0    0    0    0 -0.00000000000E+00 -0.00000000000E+00 -0.45593999997E+02  0.45594000000E+02  0.51100000000E-03 0. -1.
    9900012    2    1    2    0    0 -0.36199550478E+02  0.18405715627E+01  0.23871075627E+02  0.47787269475E+02  0.19999992846E+02 0.  0.
         12    1    1    2    0    0  0.36199550478E+02 -0.18405715627E+01 -0.23871075627E+02  0.43400730525E+02  0.00000000000E+00 0. -1.
         11    1    3    3    0    0 -0.46394409676E+01 -0.26820781214E+01  0.58684865718E+01  0.79471435400E+01  0.51100000000E-03 0. -1.
        -11    1    3    3    0    0 -0.26326451682E+02  0.41993731119E+01  0.68635983774E+01  0.27528635558E+02  0.51100000000E-03 0.  1.
        -12    1    3    3    0    0 -0.52336578279E+01  0.32327657216E+00  0.11138990678E+02  0.12311490378E+02  0.00000000000E+00 0.  1.
</event>
<event>
 7    1  0.1813014E-010  0.4778727E+02  0.7816164E-02  0.1312668E+00
        -11   -1    0    0    0    0  0.00000000000E+00  0.00000000000E+00  0.45593999997E+02  0.45594000000E+02  0.51100000000E-03 0. -1.
         11   -1    0    0    0    0 -0.00000000000E+00 -0.00000000000E+00 -0.45593999997E+02  0.45594000000E+02  0.51100000000E-03 0.  1.
    9900012    2    1    2    0    0 -0.35493509890E+02  0.21506210958E+02 -0.12701059354E+02  0.47787271172E+02  0.20000000582E+02 0.  0.
         12    1    1    2    0    0  0.35493509890E+02 -0.21506210958E+02  0.12701059354E+02  0.43400728828E+02  0.00000000000E+00 0. -1.
         11    1    3    3    0    0 -0.24140509342E+01  0.22573722188E+01  0.22696019678E+01  0.40092972702E+01  0.51100000000E-03 0. -1.
        -11    1    3    3    0    0 -0.33490505336E+02  0.15392761167E+02 -0.11602475056E+02  0.38641538164E+02  0.51100000000E-03 0.  1.
        -12    1    3    3    0    0  0.41104637976E+00  0.38560775720E+01 -0.33681862663E+01  0.51364357382E+01  0.00000000000E+00 0.  1.
</event>
<event>
 7    1  0.1813014E-010  0.4778727E+02  0.7816164E-02  0.1312668E+00
        -11   -1    0    0    0    0  0.00000000000E+00  0.00000000000E+00  0.45593999997E+02  0.45594000000E+02  0.51100000000E-03 0. -1.
         11   -1    0    0    0    0 -0.00000000000E+00 -0.00000000000E+00 -0.45593999997E+02  0.45594000000E+02  0.51100000000E-03 0.  1.
    9900012    2    1    2    0    0  0.34751423946E+02 -0.12945470915E+02 -0.22547205585E+02  0.47787272320E+02  0.20000005817E+02 0.  0.
         12    1    1    2    0    0 -0.34751423946E+02  0.12945470915E+02  0.22547205585E+02  0.43400727680E+02  0.00000000000E+00 0. -1.
         11    1    3    3    0    0  0.60524876630E+00  0.15452571049E+01  0.99524600650E-01  0.16625435323E+01  0.51100000000E-03 0. -1.
        -11    1    3    3    0    0  0.38507704570E+01  0.32095077531E+01 -0.38435409754E+01  0.63168172857E+01  0.51100000000E-03 0.  1.
        -12    1    3    3    0    0  0.30295404722E+02 -0.17700235773E+02 -0.18803189210E+02  0.39807911502E+02  0.00000000000E+00 0.  1.
</event>
<event>
 7    1  0.1813014E-010  0.4778727E+02  0.7816164E-02  0.1312668E+00
        -11   -1    0    0    0    0  0.00000000000E+00  0.00000000000E+00  0.45593999997E+02  0.45594000000E+02  0.51100000000E-03 0.  1.
         11   -1    0    0    0    0 -0.00000000000E+00 -0.00000000000E+00 -0.45593999997E+02  0.45594000000E+02  0.51100000000E-03 0. -1.
    9900012    2    1    2    0    0 -0.67596346075E+01  0.17792946815E+02  0.39004377759E+02  0.47787273039E+02  0.20000009093E+02 0.  0.
         12    1    1    2    0    0  0.67596346075E+01 -0.17792946815E+02 -0.39004377759E+02  0.43400726961E+02  0.00000000000E+00 0. -1.
         11    1    3    3    0    0 -0.47169191420E+01 -0.10579411941E+00  0.40867494207E+01  0.62419580002E+01  0.51100000000E-03 0. -1.
        -11    1    3    3    0    0 -0.48599937323E+01  0.14395366647E+02  0.33576130131E+02  0.36853800820E+02  0.51100000000E-03 0.  1.
         12    1    3    3    0    0  0.28172782668E+01  0.35033742867E+01  0.13414982074E+01  0.46915142189E+01  0.00000000000E+00 0. -1.
</event>
<event>
 7    1  0.1813014E-010  0.4778726E+02  0.7816164E-02  0.1312668E+00
        -11   -1    0    0    0    0  0.00000000000E+00  0.00000000000E+00  0.45593999997E+02  0.45594000000E+02  0.51100000000E-03 0.  1.
         11   -1    0    0    0    0 -0.00000000000E+00 -0.00000000000E+00 -0.45593999997E+02  0.45594000000E+02  0.51100000000E-03 0. -1.
    9900012    2    1    2    0    0 -0.16047354870E+02 -0.82750900360E+00  0.40316525308E+02  0.47787255969E+02  0.19999931266E+02 0.  0.
         12    1    1    2    0    0  0.16047354870E+02  0.82750900360E+00 -0.40316525308E+02  0.43400744031E+02  0.00000000000E+00 0. -1.
         11    1    3    3    0    0 -0.84813301425E+01 -0.83821291518E+01  0.27899798452E+02  0.30341255808E+02  0.51100000000E-03 0. -1.
        -11    1    3    3    0    0 -0.36012422354E+01  0.28508655693E+01  0.13550911570E+01  0.47888049070E+01  0.51100000000E-03 0.  1.
        -12    1    3    3    0    0 -0.39647824923E+01  0.47037545790E+01  0.11061635699E+02  0.12657195254E+02  0.00000000000E+00 0.  1.
</event>
<event>
 7    1  0.1813014E-010  0.4778726E+02  0.7816164E-02  0.1312668E+00
        -11   -1    0    0    0    0  0.00000000000E+00  0.00000000000E+00  0.45593999997E+02  0.45594000000E+02  0.51100000000E-03 0.  1.
         11   -1    0    0    0    0 -0.00000000000E+00 -0.00000000000E+00 -0.45593999997E+02  0.45594000000E+02  0.51100000000E-03 0. -1.
    9900012    2    1    2    0    0  0.36940233900E+02  0.96623710816E+01  0.20632051527E+02  0.47787264457E+02  0.19999969965E+02 0.  0.
         12    1    1    2    0    0 -0.36940233900E+02 -0.96623710816E+01 -0.20632051527E+02  0.43400735543E+02  0.00000000000E+00 0. -1.
         11    1    3    3    0    0  0.18864545270E+02  0.38348764082E+01  0.94672834927E+01  0.21452431151E+02  0.51100000000E-03 0.  1.
        -11    1    3    3    0    0  0.25533694693E+01  0.70531380658E+01  0.68969136640E+01  0.10189890606E+02  0.51100000000E-03 0. -1.
         12    1    3    3    0    0  0.15522319161E+02 -0.12256433924E+01  0.42678543699E+01  0.16144942700E+02  0.00000000000E+00 0. -1.
</event>
<event>
 7    1  0.1813014E-010  0.4778727E+02  0.7816164E-02  0.1312668E+00
        -11   -1    0    0    0    0  0.00000000000E+00  0.00000000000E+00  0.45593999997E+02  0.45594000000E+02  0.51100000000E-03 0.  1.
         11   -1    0    0    0    0 -0.00000000000E+00 -0.00000000000E+00 -0.45593999997E+02  0.45594000000E+02  0.51100000000E-03 0. -1.
    9900012    2    1    2    0    0  0.21582276547E+02  0.25888181610E+02  0.27342836395E+02  0.47787270626E+02  0.19999998093E+02 0.  0.
         12    1    1    2    0    0 -0.21582276547E+02 -0.25888181610E+02 -0.27342836395E+02  0.43400729374E+02  0.00000000000E+00 0. -1.
         11    1    3    3    0    0  0.50409157607E+01 -0.33507063233E+00  0.41609548944E-01  0.50522109666E+01  0.51100000000E-03 0. -1.
        -11    1    3    3    0    0  0.14029225674E+02  0.23144535517E+02  0.17685254017E+02  0.32330433143E+02  0.51100000000E-03 0.  1.
         12    1    3    3    0    0  0.25121351128E+01  0.30787167256E+01  0.96159728290E+01  0.10404626517E+02  0.00000000000E+00 0. -1.
</event>
<event>
 7    1  0.1813014E-010  0.4778731E+02  0.7816164E-02  0.1312668E+00
        -11   -1    0    0    0    0  0.00000000000E+00  0.00000000000E+00  0.45593999997E+02  0.45594000000E+02  0.51100000000E-03 0. -1.
         11   -1    0    0    0    0 -0.00000000000E+00 -0.00000000000E+00 -0.45593999997E+02  0.45594000000E+02  0.51100000000E-03 0.  1.
    9900012    2    1    2    0    0  0.87447143044E+01  0.42244082777E+02  0.47525982516E+01  0.47787311664E+02  0.20000185199E+02 0.  0.
         12    1    1    2    0    0 -0.87447143044E+01 -0.42244082777E+02 -0.47525982516E+01  0.43400688336E+02  0.00000000000E+00 0. -1.
         11    1    3    3    0    0 -0.14096213500E+00  0.17287773712E+02  0.19095699103E+01  0.17393488660E+02  0.51100000000E-03 0.  1.
        -11    1    3    3    0    0 -0.96759757850E-01 -0.12709233388E+01  0.23421736632E+01  0.26665307637E+01  0.51100000000E-03 0. -1.
         12    1    3    3    0    0  0.89824361972E+01  0.26227232403E+02  0.50085467807E+00  0.27727292241E+02  0.00000000000E+00 0. -1.
</event>
<event>
 7    1  0.1813014E-010  0.4778728E+02  0.7816164E-02  0.1312668E+00
        -11   -1    0    0    0    0  0.00000000000E+00  0.00000000000E+00  0.45593999997E+02  0.45594000000E+02  0.51100000000E-03 0.  1.
         11   -1    0    0    0    0 -0.00000000000E+00 -0.00000000000E+00 -0.45593999997E+02  0.45594000000E+02  0.51100000000E-03 0. -1.
    9900012    2    1    2    0    0 -0.13693770045E+02 -0.28144331122E+02  0.30066590785E+02  0.47787278880E+02  0.20000035723E+02 0.  0.
         12    1    1    2    0    0  0.13693770045E+02  0.28144331122E+02 -0.30066590785E+02  0.43400721120E+02  0.00000000000E+00 0. -1.
         11    1    3    3    0    0 -0.15100448594E+02 -0.96945902288E+01  0.17998667450E+02  0.25415756091E+02  0.51100000000E-03 0. -1.
        -11    1    3    3    0    0 -0.58434701963E+00 -0.91079181738E+01  0.73497205122E+01  0.11718106791E+02  0.51100000000E-03 0.  1.
         12    1    3    3    0    0  0.19910255686E+01 -0.93418227192E+01  0.47182028228E+01  0.10653415997E+02  0.00000000000E+00 0. -1.
</event>
<event>
 7    1  0.1813014E-010  0.4778723E+02  0.7816164E-02  0.1312668E+00
        -11   -1    0    0    0    0  0.00000000000E+00  0.00000000000E+00  0.45593999997E+02  0.45594000000E+02  0.51100000000E-03 0.  1.
         11   -1    0    0    0    0 -0.00000000000E+00 -0.00000000000E+00 -0.45593999997E+02  0.45594000000E+02  0.51100000000E-03 0. -1.
    9900012    2    1    2    0    0  0.22823250862E+02  0.36334906994E+02 -0.65192615274E+01  0.47787227922E+02  0.19999803385E+02 0.  0.
         12    1    1    2    0    0 -0.22823250862E+02 -0.36334906994E+02  0.65192615274E+01  0.43400772078E+02  0.00000000000E+00 0. -1.
         11    1    3    3    0    0  0.19369505712E+01  0.70454022217E+01  0.19879237385E+01  0.75724045740E+01  0.51100000000E-03 0. -1.
        -11    1    3    3    0    0  0.22944315377E+02  0.29073509762E+02 -0.89409292195E+01  0.38100535345E+02  0.51100000000E-03 0.  1.
         12    1    3    3    0    0 -0.20580150864E+01  0.21599500959E+00  0.43374395358E+00  0.21142880024E+01  0.00000000000E+00 0. -1.
</event>
<event>
 7    1  0.1813014E-010  0.4778727E+02  0.7816164E-02  0.1312668E+00
        -11   -1    0    0    0    0  0.00000000000E+00  0.00000000000E+00  0.45593999997E+02  0.45594000000E+02  0.51100000000E-03 0.  1.
         11   -1    0    0    0    0 -0.00000000000E+00 -0.00000000000E+00 -0.45593999997E+02  0.45594000000E+02  0.51100000000E-03 0. -1.
    9900012    2    1    2    0    0 -0.34295707846E+02  0.46704705867E+01  0.26184243565E+02  0.47787268633E+02  0.19999989006E+02 0.  0.
         12    1    1    2    0    0  0.34295707846E+02 -0.46704705867E+01 -0.26184243565E+02  0.43400731367E+02  0.00000000000E+00 0. -1.
         11    1    3    3    0    0 -0.10225707574E+01  0.17247178117E+01 -0.49433657883E+00  0.20651080839E+01  0.51100000000E-03 0. -1.
        -11    1    3    3    0    0 -0.13728462497E+02 -0.38062062249E+01  0.35187714045E+01  0.14674455384E+02  0.51100000000E-03 0.  1.
         12    1    3    3    0    0 -0.19544674591E+02  0.67519589999E+01  0.23159808739E+02  0.31047705165E+02  0.00000000000E+00 0. -1.
</event>
<event>
 7    1  0.1813014E-010  0.4778727E+02  0.7816164E-02  0.1312668E+00
        -11   -1    0    0    0    0  0.00000000000E+00  0.00000000000E+00  0.45593999997E+02  0.45594000000E+02  0.51100000000E-03 0.  1.
         11   -1    0    0    0    0 -0.00000000000E+00 -0.00000000000E+00 -0.45593999997E+02  0.45594000000E+02  0.51100000000E-03 0. -1.
    9900012    2    1    2    0    0  0.64533900718E+01  0.20116721561E+02  0.37911670154E+02  0.47787268858E+02  0.19999990033E+02 0.  0.
         12    1    1    2    0    0 -0.64533900718E+01 -0.20116721561E+02 -0.37911670154E+02  0.43400731142E+02  0.00000000000E+00 0. -1.
         11    1    3    3    0    0 -0.12458663073E+01  0.25936824319E+01  0.34277494964E+01  0.44753590118E+01  0.51100000000E-03 0. -1.
        -11    1    3    3    0    0  0.36128408131E+00  0.18757687065E+02  0.24337988282E+02  0.30729774228E+02  0.51100000000E-03 0.  1.
         12    1    3    3    0    0  0.73379722979E+01 -0.12346479357E+01  0.10145932375E+02  0.12582135619E+02  0.00000000000E+00 0. -1.
</event>
<event>
 7    1  0.1813014E-010  0.4778726E+02  0.7816164E-02  0.1312668E+00
        -11   -1    0    0    0    0  0.00000000000E+00  0.00000000000E+00  0.45593999997E+02  0.45594000000E+02  0.51100000000E-03 0. -1.
         11   -1    0    0    0    0 -0.00000000000E+00 -0.00000000000E+00 -0.45593999997E+02  0.45594000000E+02  0.51100000000E-03 0.  1.
    9900012    2    1    2    0    0 -0.10887686130E+02  0.26632860866E+02 -0.32492666663E+02  0.47787258370E+02  0.19999942211E+02 0.  0.
         12    1    1    2    0    0  0.10887686130E+02 -0.26632860866E+02  0.32492666663E+02  0.43400741630E+02  0.00000000000E+00 0. -1.
         11    1    3    3    0    0 -0.39144251257E+01 -0.16446729680E+01 -0.83636454608E+00  0.43274910920E+01  0.51100000000E-03 0. -1.
        -11    1    3    3    0    0 -0.24832558696E+01  0.85741249243E+01 -0.14111323074E+02  0.16697653041E+02  0.51100000000E-03 0.  1.
        -12    1    3    3    0    0 -0.44900051349E+01  0.19703408910E+02 -0.17544979043E+02  0.26762114236E+02  0.00000000000E+00 0.  1.
</event>
<event>
 7    1  0.1813014E-010  0.4778728E+02  0.7816164E-02  0.1312668E+00
        -11   -1    0    0    0    0  0.00000000000E+00  0.00000000000E+00  0.45593999997E+02  0.45594000000E+02  0.51100000000E-03 0. -1.
         11   -1    0    0    0    0 -0.00000000000E+00 -0.00000000000E+00 -0.45593999997E+02  0.45594000000E+02  0.51100000000E-03 0.  1.
    9900012    2    1    2    0    0 -0.26291260599E+02  0.33887989077E+02 -0.66330012215E+01  0.47787275434E+02  0.20000020016E+02 0.  0.
         12    1    1    2    0    0  0.26291260599E+02 -0.33887989077E+02  0.66330012215E+01  0.43400724566E+02  0.00000000000E+00 0. -1.
         11    1    3    3    0    0 -0.85166455794E+01  0.27001187861E+01  0.79845413899E+00  0.89700291336E+01  0.51100000000E-03 0. -1.
        -11    1    3    3    0    0 -0.96417619135E+00  0.10607960351E+02  0.15577360053E+01  0.10764989562E+02  0.51100000000E-03 0.  1.
        -12    1    3    3    0    0 -0.16810438829E+02  0.20579909940E+02 -0.89891913658E+01  0.28052256739E+02  0.00000000000E+00 0.  1.
</event>
<event>
 7    1  0.1813014E-010  0.4778727E+02  0.7816164E-02  0.1312668E+00
        -11   -1    0    0    0    0  0.00000000000E+00  0.00000000000E+00  0.45593999997E+02  0.45594000000E+02  0.51100000000E-03 0. -1.
         11   -1    0    0    0    0 -0.00000000000E+00 -0.00000000000E+00 -0.45593999997E+02  0.45594000000E+02  0.51100000000E-03 0.  1.
    9900012    2    1    2    0    0  0.15014809744E+02 -0.34975383184E+02 -0.20854288969E+02  0.47787270641E+02  0.19999998158E+02 0.  0.
         12    1    1    2    0    0 -0.15014809744E+02  0.34975383184E+02  0.20854288969E+02  0.43400729359E+02  0.00000000000E+00 0. -1.
         11    1    3    3    0    0  0.12130597840E+02 -0.21796100142E+02 -0.11820904579E+02  0.27603535474E+02  0.51100000000E-03 0. -1.
        -11    1    3    3    0    0  0.31693942433E+01 -0.14811229769E+02 -0.10107507500E+02  0.18209318913E+02  0.51100000000E-03 0.  1.
         12    1    3    3    0    0 -0.28518233949E+00  0.16319467270E+01  0.10741231097E+01  0.19744162533E+01  0.00000000000E+00 0. -1.
</event>
<event>
 7    1  0.1813014E-010  0.4778728E+02  0.7816164E-02  0.1312668E+00
        -11   -1    0    0    0    0  0.00000000000E+00  0.00000000000E+00  0.45593999997E+02  0.45594000000E+02  0.51100000000E-03 0.  1.
         11   -1    0    0    0    0 -0.00000000000E+00 -0.00000000000E+00 -0.45593999997E+02  0.45594000000E+02  0.51100000000E-03 0. -1.
    9900012    2    1    2    0    0  0.82834117456E+01  0.86429776050E+01  0.41716984462E+02  0.47787276912E+02  0.20000026751E+02 0.  0.
         12    1    1    2    0    0 -0.82834117456E+01 -0.86429776050E+01 -0.41716984462E+02  0.43400723088E+02  0.00000000000E+00 0. -1.
         11    1    3    3    0    0  0.36727106002E+01 -0.18343208053E+01  0.53166609151E+01  0.67171734768E+01  0.51100000000E-03 0. -1.
        -11    1    3    3    0    0  0.83076581729E+00 -0.39719161216E+01  0.69102383924E+01  0.80135937270E+01  0.51100000000E-03 0.  1.
         12    1    3    3    0    0  0.37799353281E+01  0.14449214532E+02  0.29490085154E+02  0.33056509708E+02  0.00000000000E+00 0. -1.
</event>
<event>
 7    1  0.1813014E-010  0.4778732E+02  0.7816164E-02  0.1312668E+00
        -11   -1    0    0    0    0  0.00000000000E+00  0.00000000000E+00  0.45593999997E+02  0.45594000000E+02  0.51100000000E-03 0.  1.
         11   -1    0    0    0    0 -0.00000000000E+00 -0.00000000000E+00 -0.45593999997E+02  0.45594000000E+02  0.51100000000E-03 0. -1.
    9900012    2    1    2    0    0 -0.10739073450E+02  0.40622319265E+02 -0.10868224618E+02  0.47787322271E+02  0.20000233559E+02 0.  0.
         12    1    1    2    0    0  0.10739073450E+02 -0.40622319265E+02  0.10868224618E+02  0.43400677729E+02  0.00000000000E+00 0. -1.
         11    1    3    3    0    0 -0.28522754587E+01  0.93307285184E+01  0.11527339742E+01  0.98248036038E+01  0.51100000000E-03 0.  1.
        -11    1    3    3    0    0 -0.61539257012E+01  0.30352260190E+02 -0.14983628276E+02  0.34404063957E+02  0.51100000000E-03 0. -1.
         12    1    3    3    0    0 -0.17328722898E+01  0.93933055697E+00  0.29626696838E+01  0.35584547101E+01  0.00000000000E+00 0. -1.
</event>
<event>
 7    1  0.3209418E-010  0.4778727E+02  0.7816164E-02  0.1312668E+00
        -11   -1    0    0    0    0  0.00000000000E+00  0.00000000000E+00  0.45593999997E+02  0.45594000000E+02  0.51100000000E-03 0. -1.
         11   -1    0    0    0    0 -0.00000000000E+00 -0.00000000000E+00 -0.45593999997E+02  0.45594000000E+02  0.51100000000E-03 0.  1.
    9900012    2    1    2    0    0  0.11383005810E+02  0.34518211379E+02 -0.23718004403E+02  0.47787268774E+02  0.19999989648E+02 0.  0.
         12    1    1    2    0    0 -0.11383005810E+02 -0.34518211379E+02  0.23718004403E+02  0.43400731226E+02  0.00000000000E+00 0. -1.
         11    1    3    3    0    0  0.39361789322E+01  0.20896619263E+01  0.51323412080E+00  0.44859336906E+01  0.51100000000E-03 0. -1.
        -11    1    3    3    0    0  0.35190182875E+01  0.12900695413E+02 -0.18013894075E+02  0.22434611917E+02  0.51100000000E-03 0.  1.
         12    1    3    3    0    0  0.39278085899E+01  0.19527854040E+02 -0.62173444492E+01  0.20866723167E+02  0.00000000000E+00 0. -1.
</event>
<event>
 7    1  0.1813014E-010  0.4778727E+02  0.7816164E-02  0.1312668E+00
        -11   -1    0    0    0    0  0.00000000000E+00  0.00000000000E+00  0.45593999997E+02  0.45594000000E+02  0.51100000000E-03 0.  1.
         11   -1    0    0    0    0 -0.00000000000E+00 -0.00000000000E+00 -0.45593999997E+02  0.45594000000E+02  0.51100000000E-03 0. -1.
    9900012    2    1    2    0    0 -0.32605782180E+02  0.85686350758E+01  0.27332483322E+02  0.47787272089E+02  0.20000004764E+02 0.  0.
         12    1    1    2    0    0  0.32605782180E+02 -0.85686350758E+01 -0.27332483322E+02  0.43400727911E+02  0.00000000000E+00 0. -1.
         11    1    3    3    0    0 -0.18357312933E+02  0.66438713348E+01  0.13353010402E+02  0.23652375176E+02  0.51100000000E-03 0.  1.
        -11    1    3    3    0    0 -0.89876943265E+01 -0.52818658538E+01  0.53309668781E+01  0.11708798586E+02  0.51100000000E-03 0. -1.
         12    1    3    3    0    0 -0.52607749208E+01  0.72066295948E+01  0.86485060419E+01  0.12426098327E+02  0.00000000000E+00 0. -1.
</event>
<event>
 7    1  0.1813014E-010  0.4778727E+02  0.7816164E-02  0.1312668E+00
        -11   -1    0    0    0    0  0.00000000000E+00  0.00000000000E+00  0.45593999997E+02  0.45594000000E+02  0.51100000000E-03 0. -1.
         11   -1    0    0    0    0 -0.00000000000E+00 -0.00000000000E+00 -0.45593999997E+02  0.45594000000E+02  0.51100000000E-03 0.  1.
    9900012    2    1    2    0    0 -0.33436550217E+02 -0.32501862441E+01 -0.27478295657E+02  0.47787270361E+02  0.19999996883E+02 0.  0.
         12    1    1    2    0    0  0.33436550217E+02  0.32501862441E+01  0.27478295657E+02  0.43400729639E+02  0.00000000000E+00 0. -1.
         11    1    3    3    0    0 -0.79023202829E+01  0.58506556982E+01 -0.66729766436E+01  0.11882990175E+02  0.51100000000E-03 0. -1.
        -11    1    3    3    0    0 -0.84901037031E+01 -0.41097294436E+01 -0.12945803664E+01  0.95209072874E+01  0.51100000000E-03 0.  1.
         12    1    3    3    0    0 -0.17044126231E+02 -0.49911124988E+01 -0.19510738647E+02  0.26383372898E+02  0.00000000000E+00 0. -1.
</event>
<event>
 7    1  0.1813014E-010  0.4778727E+02  0.7816164E-02  0.1312668E+00
        -11   -1    0    0    0    0  0.00000000000E+00  0.00000000000E+00  0.45593999997E+02  0.45594000000E+02  0.51100000000E-03 0.  1.
         11   -1    0    0    0    0 -0.00000000000E+00 -0.00000000000E+00 -0.45593999997E+02  0.45594000000E+02  0.51100000000E-03 0. -1.
    9900012    2    1    2    0    0 -0.10348236553E+02  0.32710715011E+02  0.26580935184E+02  0.47787274297E+02  0.20000014831E+02 0.  0.
         12    1    1    2    0    0  0.10348236553E+02 -0.32710715011E+02 -0.26580935184E+02  0.43400725703E+02  0.00000000000E+00 0. -1.
         11    1    3    3    0    0 -0.55780281619E+01  0.19263972170E+02  0.23006729906E+02  0.30520888637E+02  0.51100000000E-03 0. -1.
        -11    1    3    3    0    0 -0.51279501843E+01  0.22816195312E+01  0.21271319526E+01  0.60021955469E+01  0.51100000000E-03 0.  1.
         12    1    3    3    0    0  0.35774179292E+00  0.11165123309E+02  0.14470733250E+01  0.11264190113E+02  0.00000000000E+00 0. -1.
</event>
<event>
 7    1  0.2241856E-010  0.4778727E+02  0.7816164E-02  0.1312668E+00
        -11   -1    0    0    0    0  0.00000000000E+00  0.00000000000E+00  0.45593999997E+02  0.45594000000E+02  0.51100000000E-03 0. -1.
         11   -1    0    0    0    0 -0.00000000000E+00 -0.00000000000E+00 -0.45593999997E+02  0.45594000000E+02  0.51100000000E-03 0.  1.
    9900012    2    1    2    0    0  0.37713303595E+02 -0.55606126554E+01 -0.20746315045E+02  0.47787271099E+02  0.20000000250E+02 0.  0.
         12    1    1    2    0    0 -0.37713303595E+02  0.55606126554E+01  0.20746315045E+02  0.43400728901E+02  0.00000000000E+00 0. -1.
         11    1    3    3    0    0  0.50574828467E+01  0.10881742748E+01  0.25285364800E+01  0.57581032458E+01  0.51100000000E-03 0. -1.
        -11    1    3    3    0    0  0.62770220185E+01 -0.54974470108E+01 -0.78145956054E+01  0.11432009176E+02  0.51100000000E-03 0.  1.
         12    1    3    3    0    0  0.26378798730E+02 -0.11513399195E+01 -0.15460255919E+02  0.30597158678E+02  0.00000000000E+00 0. -1.
</event>
<event>
 7    1  0.1813014E-010  0.4778727E+02  0.7816164E-02  0.1312668E+00
        -11   -1    0    0    0    0  0.00000000000E+00  0.00000000000E+00  0.45593999997E+02  0.45594000000E+02  0.51100000000E-03 0.  1.
         11   -1    0    0    0    0 -0.00000000000E+00 -0.00000000000E+00 -0.45593999997E+02  0.45594000000E+02  0.51100000000E-03 0. -1.
    9900012    2    1    2    0    0  0.78740144466E+01  0.10753515074E+02  0.41303570832E+02  0.47787272432E+02  0.20000006327E+02 0.  0.
         12    1    1    2    0    0 -0.78740144466E+01 -0.10753515074E+02 -0.41303570832E+02  0.43400727568E+02  0.00000000000E+00 0. -1.
         11    1    3    3    0    0  0.60510781117E+01  0.10843806871E+01  0.83647858866E+01  0.10380803003E+02  0.51100000000E-03 0. -1.
        -11    1    3    3    0    0 -0.55999532441E+01  0.64311732280E+01  0.10353830064E+02  0.13413473178E+02  0.51100000000E-03 0.  1.
        -12    1    3    3    0    0  0.74228895790E+01  0.32379611588E+01  0.22584954881E+02  0.23992996252E+02  0.00000000000E+00 0.  1.
</event>
<event>
 7    1  0.1813014E-010  0.4778726E+02  0.7816164E-02  0.1312668E+00
        -11   -1    0    0    0    0  0.00000000000E+00  0.00000000000E+00  0.45593999997E+02  0.45594000000E+02  0.51100000000E-03 0.  1.
         11   -1    0    0    0    0 -0.00000000000E+00 -0.00000000000E+00 -0.45593999997E+02  0.45594000000E+02  0.51100000000E-03 0. -1.
    9900012    2    1    2    0    0  0.33341408127E+02  0.15805690980E+02  0.22850716182E+02  0.47787255844E+02  0.19999930696E+02 0.  0.
         12    1    1    2    0    0 -0.33341408127E+02 -0.15805690980E+02 -0.22850716182E+02  0.43400744156E+02  0.00000000000E+00 0. -1.
         11    1    3    3    0    0  0.96144237408E+01  0.47512719712E+01 -0.95088665186E+00  0.10766425354E+02  0.51100000000E-03 0. -1.
        -11    1    3    3    0    0 -0.85670345622E+00 -0.11393085856E+00  0.24478841288E+01  0.25959695725E+01  0.51100000000E-03 0.  1.
        -12    1    3    3    0    0  0.24583687843E+02  0.11168349867E+02  0.21353718705E+02  0.34424860918E+02  0.00000000000E+00 0.  1.
</event>
<event>
 7    1  0.1813014E-010  0.4778727E+02  0.7816164E-02  0.1312668E+00
        -11   -1    0    0    0    0  0.00000000000E+00  0.00000000000E+00  0.45593999997E+02  0.45594000000E+02  0.51100000000E-03 0.  1.
         11   -1    0    0    0    0 -0.00000000000E+00 -0.00000000000E+00 -0.45593999997E+02  0.45594000000E+02  0.51100000000E-03 0. -1.
    9900012    2    1    2    0    0  0.29666769860E+02 -0.99429782949E+01  0.30077285193E+02  0.47787272634E+02  0.20000007248E+02 0.  0.
         12    1    1    2    0    0 -0.29666769860E+02  0.99429782949E+01 -0.30077285193E+02  0.43400727366E+02  0.00000000000E+00 0. -1.
         11    1    3    3    0    0  0.22210116348E+01 -0.35304182928E+01 -0.63173120181E+00  0.42185104690E+01  0.51100000000E-03 0. -1.
        -11    1    3    3    0    0  0.19772229007E+02  0.70305491515E+00  0.15627918512E+02  0.25212440647E+02  0.51100000000E-03 0.  1.
         12    1    3    3    0    0  0.76735292187E+01 -0.71156149172E+01  0.15081097883E+02  0.18356321518E+02  0.00000000000E+00 0. -1.
</event>
<event>
 7    1  0.1813014E-010  0.4778727E+02  0.7816164E-02  0.1312668E+00
        -11   -1    0    0    0    0  0.00000000000E+00  0.00000000000E+00  0.45593999997E+02  0.45594000000E+02  0.51100000000E-03 0.  1.
         11   -1    0    0    0    0 -0.00000000000E+00 -0.00000000000E+00 -0.45593999997E+02  0.45594000000E+02  0.51100000000E-03 0. -1.
    9900012    2    1    2    0    0 -0.27146806564E+02 -0.22806094506E+02  0.25031111347E+02  0.47787267420E+02  0.19999983475E+02 0.  0.
         12    1    1    2    0    0  0.27146806564E+02  0.22806094506E+02 -0.25031111347E+02  0.43400732580E+02  0.00000000000E+00 0. -1.
         11    1    3    3    0    0 -0.68574129824E+01 -0.13783037942E+02  0.13752576413E+02  0.20642906917E+02  0.51100000000E-03 0. -1.
        -11    1    3    3    0    0 -0.69319955814E+01 -0.63474611385E+01 -0.92468408026E-01  0.93995412820E+01  0.51100000000E-03 0.  1.
         12    1    3    3    0    0 -0.13357398000E+02 -0.26755954263E+01  0.11371003341E+02  0.17744819221E+02  0.00000000000E+00 0. -1.
</event>
<event>
 7    1  0.1813014E-010  0.4778727E+02  0.7816164E-02  0.1312668E+00
        -11   -1    0    0    0    0  0.00000000000E+00  0.00000000000E+00  0.45593999997E+02  0.45594000000E+02  0.51100000000E-03 0.  1.
         11   -1    0    0    0    0 -0.00000000000E+00 -0.00000000000E+00 -0.45593999997E+02  0.45594000000E+02  0.51100000000E-03 0. -1.
    9900012    2    1    2    0    0 -0.28820831956E+02 -0.27047479161E+02  0.17928101451E+02  0.47787270683E+02  0.19999998351E+02 0.  0.
         12    1    1    2    0    0  0.28820831956E+02  0.27047479161E+02 -0.17928101451E+02  0.43400729317E+02  0.00000000000E+00 0. -1.
         11    1    3    3    0    0  0.17080108584E+01  0.59330921320E+00  0.33597710474E+01  0.38154133022E+01  0.51100000000E-03 0. -1.
        -11    1    3    3    0    0 -0.95251694684E+01 -0.11179381446E+02  0.67535522699E+01  0.16165329920E+02  0.51100000000E-03 0.  1.
         12    1    3    3    0    0 -0.21003673346E+02 -0.16461406929E+02  0.78147781339E+01  0.27806527460E+02  0.00000000000E+00 0. -1.
</event>
<event>
 7    1  0.1813014E-010  0.4778727E+02  0.7816164E-02  0.1312668E+00
        -11   -1    0    0    0    0  0.00000000000E+00  0.00000000000E+00  0.45593999997E+02  0.45594000000E+02  0.51100000000E-03 0. -1.
         11   -1    0    0    0    0 -0.00000000000E+00 -0.00000000000E+00 -0.45593999997E+02  0.45594000000E+02  0.51100000000E-03 0.  1.
    9900012    2    1    2    0    0 -0.29574099226E+02  0.14048143878E+01 -0.31733622760E+02  0.47787266573E+02  0.19999979613E+02 0.  0.
         12    1    1    2    0    0  0.29574099226E+02 -0.14048143878E+01  0.31733622760E+02  0.43400733427E+02  0.00000000000E+00 0. -1.
         11    1    3    3    0    0 -0.90786828443E+01 -0.42431035116E+01 -0.16675295497E+02  0.19454868022E+02  0.51100000000E-03 0. -1.
        -11    1    3    3    0    0 -0.11759558147E+02 -0.19013161619E+01 -0.46501152923E+01  0.12787720026E+02  0.51100000000E-03 0.  1.
        -12    1    3    3    0    0 -0.87358582348E+01  0.75492340613E+01 -0.10408211971E+02  0.15544678525E+02  0.00000000000E+00 0.  1.
</event>
<event>
 7    1  0.1813014E-010  0.4778728E+02  0.7816164E-02  0.1312668E+00
        -11   -1    0    0    0    0  0.00000000000E+00  0.00000000000E+00  0.45593999997E+02  0.45594000000E+02  0.51100000000E-03 0. -1.
         11   -1    0    0    0    0 -0.00000000000E+00 -0.00000000000E+00 -0.45593999997E+02  0.45594000000E+02  0.51100000000E-03 0.  1.
    9900012    2    1    2    0    0  0.10213569425E+02 -0.42087846924E+02  0.28140489491E+01  0.47787277304E+02  0.20000028538E+02 0.  0.
         12    1    1    2    0    0 -0.10213569425E+02  0.42087846924E+02 -0.28140489491E+01  0.43400722696E+02  0.00000000000E+00 0. -1.
         11    1    3    3    0    0  0.38781941511E+01 -0.10743930438E+02  0.66629919070E+01  0.13223762420E+02  0.51100000000E-03 0. -1.
        -11    1    3    3    0    0  0.76730215842E+01 -0.98188729751E+01  0.85235235443E+00  0.12490477634E+02  0.51100000000E-03 0.  1.
         12    1    3    3    0    0 -0.13376463103E+01 -0.21525043511E+02 -0.47012953124E+01  0.22073037249E+02  0.00000000000E+00 0. -1.
</event>
<event>
 7    1  0.1813014E-010  0.4778727E+02  0.7816164E-02  0.1312668E+00
        -11   -1    0    0    0    0  0.00000000000E+00  0.00000000000E+00  0.45593999997E+02  0.45594000000E+02  0.51100000000E-03 0. -1.
         11   -1    0    0    0    0 -0.00000000000E+00 -0.00000000000E+00 -0.45593999997E+02  0.45594000000E+02  0.51100000000E-03 0.  1.
    9900012    2    1    2    0    0  0.17459526800E+02 -0.18550179707E+02 -0.35137997269E+02  0.47787273102E+02  0.20000009381E+02 0.  0.
         12    1    1    2    0    0 -0.17459526800E+02  0.18550179707E+02  0.35137997269E+02  0.43400726898E+02  0.00000000000E+00 0. -1.
         11    1    3    3    0    0  0.11468451453E+02 -0.10572420129E+01 -0.97743068140E+01  0.15105635153E+02  0.51100000000E-03 0. -1.
        -11    1    3    3    0    0  0.56370446846E+00 -0.34939564454E+01 -0.12236210589E+02  0.12737752715E+02  0.51100000000E-03 0.  1.
        -12    1    3    3    0    0  0.54273708785E+01 -0.13998981248E+02 -0.13127479865E+02  0.19943885235E+02  0.00000000000E+00 0.  1.
</event>
<event>
 7    1  0.1813014E-010  0.4778727E+02  0.7816164E-02  0.1312668E+00
        -11   -1    0    0    0    0  0.00000000000E+00  0.00000000000E+00  0.45593999997E+02  0.45594000000E+02  0.51100000000E-03 0. -1.
         11   -1    0    0    0    0 -0.00000000000E+00 -0.00000000000E+00 -0.45593999997E+02  0.45594000000E+02  0.51100000000E-03 0.  1.
    9900012    2    1    2    0    0  0.13343553546E+02  0.37664450817E+02 -0.16939951811E+02  0.47787271390E+02  0.20000001575E+02 0.  0.
         12    1    1    2    0    0 -0.13343553546E+02 -0.37664450817E+02  0.16939951811E+02  0.43400728610E+02  0.00000000000E+00 0. -1.
         11    1    3    3    0    0 -0.12311225571E+01  0.25313013897E+01  0.31204951784E+01  0.42024564121E+01  0.51100000000E-03 0. -1.
        -11    1    3    3    0    0  0.90172818057E+01  0.14106827541E+02 -0.10949633957E+02  0.20005210284E+02  0.51100000000E-03 0.  1.
        -12    1    3    3    0    0  0.55573942972E+01  0.21026321886E+02 -0.91108130322E+01  0.23579604694E+02  0.00000000000E+00 0.  1.
</event>
<event>
 7    1  0.1813014E-010  0.4778727E+02  0.7816164E-02  0.1312668E+00
        -11   -1    0    0    0    0  0.00000000000E+00  0.00000000000E+00  0.45593999997E+02  0.45594000000E+02  0.51100000000E-03 0. -1.
         11   -1    0    0    0    0 -0.00000000000E+00 -0.00000000000E+00 -0.45593999997E+02  0.45594000000E+02  0.51100000000E-03 0.  1.
    9900012    2    1    2    0    0  0.19167765861E+02 -0.24694849842E+02 -0.30106223811E+02  0.47787267645E+02  0.19999984499E+02 0.  0.
         12    1    1    2    0    0 -0.19167765861E+02  0.24694849842E+02  0.30106223811E+02  0.43400732355E+02  0.00000000000E+00 0. -1.
         11    1    3    3    0    0  0.10428096506E+02 -0.13567302087E+02 -0.17460024752E+02  0.24447276889E+02  0.51100000000E-03 0. -1.
        -11    1    3    3    0    0  0.64271093654E+01 -0.82012067700E+01 -0.15477014163E+02  0.18657585453E+02  0.51100000000E-03 0.  1.
         12    1    3    3    0    0  0.23125599891E+01 -0.29263409846E+01  0.28308151044E+01  0.46824053025E+01  0.00000000000E+00 0. -1.
</event>
<event>
 7    1  0.1813014E-010  0.4778727E+02  0.7816164E-02  0.1312668E+00
        -11   -1    0    0    0    0  0.00000000000E+00  0.00000000000E+00  0.45593999997E+02  0.45594000000E+02  0.51100000000E-03 0.  1.
         11   -1    0    0    0    0 -0.00000000000E+00 -0.00000000000E+00 -0.45593999997E+02  0.45594000000E+02  0.51100000000E-03 0. -1.
    9900012    2    1    2    0    0  0.42477194609E+02  0.87263767642E+01 -0.17781385605E+01  0.47787268555E+02  0.19999988648E+02 0.  0.
         12    1    1    2    0    0 -0.42477194609E+02 -0.87263767642E+01  0.17781385605E+01  0.43400731445E+02  0.00000000000E+00 0. -1.
         11    1    3    3    0    0  0.37741915702E+02  0.42943350732E+01 -0.52801773897E+01  0.38350668678E+02  0.51100000000E-03 0.  1.
        -11    1    3    3    0    0  0.20041930542E+00  0.16195126139E+01 -0.14303384269E+01  0.21699901570E+01  0.51100000000E-03 0. -1.
        -12    1    3    3    0    0  0.45348596016E+01  0.28125290770E+01  0.49323772561E+01  0.72666097193E+01  0.00000000000E+00 0.  1.
</event>
<event>
 7    1  0.1813014E-010  0.4778726E+02  0.7816164E-02  0.1312668E+00
        -11   -1    0    0    0    0  0.00000000000E+00  0.00000000000E+00  0.45593999997E+02  0.45594000000E+02  0.51100000000E-03 0.  1.
         11   -1    0    0    0    0 -0.00000000000E+00 -0.00000000000E+00 -0.45593999997E+02  0.45594000000E+02  0.51100000000E-03 0. -1.
    9900012    2    1    2    0    0 -0.13654935640E+02  0.91507755274E+00  0.41186521561E+02  0.47787260461E+02  0.19999951745E+02 0.  0.
         12    1    1    2    0    0  0.13654935640E+02 -0.91507755274E+00 -0.41186521561E+02  0.43400739539E+02  0.00000000000E+00 0. -1.
         11    1    3    3    0    0 -0.19079038933E+01  0.87165578463E+01  0.16737410103E+02  0.18967323880E+02  0.51100000000E-03 0. -1.
        -11    1    3    3    0    0 -0.57834713600E+01 -0.19499721168E+01  0.59597200627E+01  0.85304862532E+01  0.51100000000E-03 0.  1.
         12    1    3    3    0    0 -0.59635603871E+01 -0.58515081768E+01  0.18489391396E+02  0.20289450328E+02  0.00000000000E+00 0. -1.
</event>
<event>
 7    1  0.1813014E-010  0.4778727E+02  0.7816164E-02  0.1312668E+00
        -11   -1    0    0    0    0  0.00000000000E+00  0.00000000000E+00  0.45593999997E+02  0.45594000000E+02  0.51100000000E-03 0.  1.
         11   -1    0    0    0    0 -0.00000000000E+00 -0.00000000000E+00 -0.45593999997E+02  0.45594000000E+02  0.51100000000E-03 0. -1.
    9900012    2    1    2    0    0  0.10549995799E+02  0.15180294391E+02  0.39266774461E+02  0.47787270447E+02  0.19999997276E+02 0.  0.
         12    1    1    2    0    0 -0.10549995799E+02 -0.15180294391E+02 -0.39266774461E+02  0.43400729553E+02  0.00000000000E+00 0. -1.
         11    1    3    3    0    0  0.77200849514E+01  0.46479755941E+00  0.13841843924E+02  0.15855989149E+02  0.51100000000E-03 0. -1.
        -11    1    3    3    0    0  0.66505780882E+01  0.11801793593E+02  0.13730928711E+02  0.19288621632E+02  0.51100000000E-03 0.  1.
         12    1    3    3    0    0 -0.38206672405E+01  0.29137032391E+01  0.11694001826E+02  0.12642659666E+02  0.00000000000E+00 0. -1.
</event>
<event>
 7    1  0.1813014E-010  0.4778727E+02  0.7816164E-02  0.1312668E+00
        -11   -1    0    0    0    0  0.00000000000E+00  0.00000000000E+00  0.45593999997E+02  0.45594000000E+02  0.51100000000E-03 0. -1.
         11   -1    0    0    0    0 -0.00000000000E+00 -0.00000000000E+00 -0.45593999997E+02  0.45594000000E+02  0.51100000000E-03 0.  1.
    9900012    2    1    2    0    0  0.42523766583E+02  0.50949520519E+01  0.70280785204E+01  0.47787272489E+02  0.20000006587E+02 0.  0.
         12    1    1    2    0    0 -0.42523766583E+02 -0.50949520519E+01 -0.70280785204E+01  0.43400727511E+02  0.00000000000E+00 0. -1.
         11    1    3    3    0    0 -0.11378930753E+00 -0.14958294923E+01  0.68642810120E+00  0.16497386690E+01  0.51100000000E-03 0. -1.
        -11    1    3    3    0    0  0.34708720466E+02  0.19424552190E+01 -0.35643533014E+00  0.34764859486E+02  0.51100000000E-03 0.  1.
        -12    1    3    3    0    0  0.79288354245E+01  0.46483263253E+01  0.66980857493E+01  0.11372674335E+02  0.00000000000E+00 0.  1.
</event>
<event>
 7    1  0.1813014E-010  0.4778727E+02  0.7816164E-02  0.1312668E+00
        -11   -1    0    0    0    0  0.00000000000E+00  0.00000000000E+00  0.45593999997E+02  0.45594000000E+02  0.51100000000E-03 0. -1.
         11   -1    0    0    0    0 -0.00000000000E+00 -0.00000000000E+00 -0.45593999997E+02  0.45594000000E+02  0.51100000000E-03 0.  1.
    9900012    2    1    2    0    0 -0.17716913349E+02 -0.35715323350E+02 -0.17150799350E+02  0.47787271217E+02  0.20000000785E+02 0.  0.
         12    1    1    2    0    0  0.17716913349E+02  0.35715323350E+02  0.17150799350E+02  0.43400728783E+02  0.00000000000E+00 0. -1.
         11    1    3    3    0    0 -0.86903586489E+01 -0.22867554160E+02 -0.13479210308E+02  0.27930923320E+02  0.51100000000E-03 0. -1.
        -11    1    3    3    0    0 -0.50387091928E+01 -0.12097221917E+02  0.16020713023E+01  0.13202196830E+02  0.51100000000E-03 0.  1.
         12    1    3    3    0    0 -0.39878455072E+01 -0.75054727352E+00 -0.52736603436E+01  0.66541510667E+01  0.00000000000E+00 0. -1.
</event>
<event>
 7    1  0.1813014E-010  0.4778727E+02  0.7816164E-02  0.1312668E+00
        -11   -1    0    0    0    0  0.00000000000E+00  0.00000000000E+00  0.45593999997E+02  0.45594000000E+02  0.51100000000E-03 0.  1.
         11   -1    0    0    0    0 -0.00000000000E+00 -0.00000000000E+00 -0.45593999997E+02  0.45594000000E+02  0.51100000000E-03 0. -1.
    9900012    2    1    2    0    0 -0.14147378280E+02  0.29636159041E+02  0.28375575023E+02  0.47787268523E+02  0.19999988502E+02 0.  0.
         12    1    1    2    0    0  0.14147378280E+02 -0.29636159041E+02 -0.28375575023E+02  0.43400731477E+02  0.00000000000E+00 0. -1.
         11    1    3    3    0    0 -0.65358363658E+01  0.79453045617E+01  0.13288158054E+02  0.16805361237E+02  0.51100000000E-03 0. -1.
        -11    1    3    3    0    0 -0.22310628301E+01  0.76765760328E+01  0.13757437133E+02  0.15911459319E+02  0.51100000000E-03 0.  1.
         12    1    3    3    0    0 -0.53804790840E+01  0.14014278447E+02  0.13299798360E+01  0.15070447967E+02  0.00000000000E+00 0. -1.
</event>
<event>
 7    1  0.1813014E-010  0.4778727E+02  0.7816164E-02  0.1312668E+00
        -11   -1    0    0    0    0  0.00000000000E+00  0.00000000000E+00  0.45593999997E+02  0.45594000000E+02  0.51100000000E-03 0. -1.
         11   -1    0    0    0    0 -0.00000000000E+00 -0.00000000000E+00 -0.45593999997E+02  0.45594000000E+02  0.51100000000E-03 0.  1.
    9900012    2    1    2    0    0 -0.17224435881E+02 -0.39107448407E+02  0.75861290646E+01  0.47787273433E+02  0.20000010892E+02 0.  0.
         12    1    1    2    0    0  0.17224435881E+02  0.39107448407E+02 -0.75861290646E+01  0.43400726567E+02  0.00000000000E+00 0. -1.
         11    1    3    3    0    0 -0.20148321165E+01 -0.12296563920E+02  0.10813825148E+01  0.12507374669E+02  0.51100000000E-03 0. -1.
        -11    1    3    3    0    0 -0.87842276355E-01 -0.95653520364E+01 -0.35941631920E+01  0.10218692928E+02  0.51100000000E-03 0.  1.
         12    1    3    3    0    0 -0.15121761488E+02 -0.17245532450E+02  0.10098909742E+02  0.25061205836E+02  0.00000000000E+00 0. -1.
</event>
<event>
 7    1  0.1813014E-010  0.4778727E+02  0.7816164E-02  0.1312668E+00
        -11   -1    0    0    0    0  0.00000000000E+00  0.00000000000E+00  0.45593999997E+02  0.45594000000E+02  0.51100000000E-03 0.  1.
         11   -1    0    0    0    0 -0.00000000000E+00 -0.00000000000E+00 -0.45593999997E+02  0.45594000000E+02  0.51100000000E-03 0. -1.
    9900012    2    1    2    0    0 -0.23896672951E+02 -0.26554595283E+02  0.24646014229E+02  0.47787268138E+02  0.19999986749E+02 0.  0.
         12    1    1    2    0    0  0.23896672951E+02  0.26554595283E+02 -0.24646014229E+02  0.43400731862E+02  0.00000000000E+00 0. -1.
         11    1    3    3    0    0 -0.14927208051E+02 -0.15337287873E+02  0.10287786367E+02  0.23746420532E+02  0.51100000000E-03 0. -1.
        -11    1    3    3    0    0 -0.29746467692E+00 -0.22979197689E+01 -0.22902246587E+01  0.32579210775E+01  0.51100000000E-03 0.  1.
        -12    1    3    3    0    0 -0.86720002232E+01 -0.89193876413E+01  0.16648452521E+02  0.20782926529E+02  0.00000000000E+00 0.  1.
</event>
<event>
 7    1  0.1813014E-010  0.4778728E+02  0.7816164E-02  0.1312668E+00
        -11   -1    0    0    0    0  0.00000000000E+00  0.00000000000E+00  0.45593999997E+02  0.45594000000E+02  0.51100000000E-03 0.  1.
         11   -1    0    0    0    0 -0.00000000000E+00 -0.00000000000E+00 -0.45593999997E+02  0.45594000000E+02  0.51100000000E-03 0. -1.
    9900012    2    1    2    0    0 -0.41699249228E+02  0.67223848085E+01 -0.99802252422E+01  0.47787277199E+02  0.20000028063E+02 0.  0.
         12    1    1    2    0    0  0.41699249228E+02 -0.67223848085E+01  0.99802252422E+01  0.43400722801E+02  0.00000000000E+00 0. -1.
         11    1    3    3    0    0 -0.90486956003E+01 -0.39168647497E+01 -0.66886336626E+01  0.11914635625E+02  0.51100000000E-03 0. -1.
        -11    1    3    3    0    0 -0.10541426104E+02  0.83021909834E+01 -0.23343671975E+01  0.13619739715E+02  0.51100000000E-03 0.  1.
        -12    1    3    3    0    0 -0.22109127524E+02  0.23370585748E+01 -0.95722438222E+00  0.22252901860E+02  0.00000000000E+00 0.  1.
</event>
<event>
 7    1  0.1813014E-010  0.4778728E+02  0.7816164E-02  0.1312668E+00
        -11   -1    0    0    0    0  0.00000000000E+00  0.00000000000E+00  0.45593999997E+02  0.45594000000E+02  0.51100000000E-03 0.  1.
         11   -1    0    0    0    0 -0.00000000000E+00 -0.00000000000E+00 -0.45593999997E+02  0.45594000000E+02  0.51100000000E-03 0. -1.
    9900012    2    1    2    0    0 -0.42705325416E+02  0.56521494205E+01  0.52850066940E+01  0.47787275263E+02  0.20000019232E+02 0.  0.
         12    1    1    2    0    0  0.42705325416E+02 -0.56521494205E+01 -0.52850066940E+01  0.43400724737E+02  0.00000000000E+00 0. -1.
         11    1    3    3    0    0 -0.27498329468E+02  0.32540696856E+01  0.73600582436E+00  0.27699978301E+02  0.51100000000E-03 0. -1.
        -11    1    3    3    0    0 -0.11061197457E+02 -0.27575259001E+00  0.83481844665E+01  0.13860675049E+02  0.51100000000E-03 0.  1.
        -12    1    3    3    0    0 -0.41457984908E+01  0.26738323249E+01 -0.37991835969E+01  0.62266219116E+01  0.00000000000E+00 0.  1.
</event>
<event>
 7    1  0.1813014E-010  0.4778728E+02  0.7816164E-02  0.1312668E+00
        -11   -1    0    0    0    0  0.00000000000E+00  0.00000000000E+00  0.45593999997E+02  0.45594000000E+02  0.51100000000E-03 0.  1.
         11   -1    0    0    0    0 -0.00000000000E+00 -0.00000000000E+00 -0.45593999997E+02  0.45594000000E+02  0.51100000000E-03 0. -1.
    9900012    2    1    2    0    0 -0.19018199914E+02 -0.28442712279E+02  0.26700991360E+02  0.47787277087E+02  0.20000027549E+02 0.  0.
         12    1    1    2    0    0  0.19018199914E+02  0.28442712279E+02 -0.26700991360E+02  0.43400722913E+02  0.00000000000E+00 0. -1.
         11    1    3    3    0    0 -0.13375607613E+02 -0.12812646555E+02  0.11455618498E+02  0.21778475295E+02  0.51100000000E-03 0.  1.
        -11    1    3    3    0    0  0.14912880864E+00  0.22581546480E+01  0.14393396073E+01  0.26820142770E+01  0.51100000000E-03 0. -1.
         12    1    3    3    0    0 -0.57917211098E+01 -0.17888220372E+02  0.13806033255E+02  0.23326787514E+02  0.00000000000E+00 0. -1.
</event>
<event>
 7    1  0.1813014E-010  0.4778727E+02  0.7816164E-02  0.1312668E+00
        -11   -1    0    0    0    0  0.00000000000E+00  0.00000000000E+00  0.45593999997E+02  0.45594000000E+02  0.51100000000E-03 0.  1.
         11   -1    0    0    0    0 -0.00000000000E+00 -0.00000000000E+00 -0.45593999997E+02  0.45594000000E+02  0.51100000000E-03 0. -1.
    9900012    2    1    2    0    0 -0.23740223666E+02  0.29581101186E+02  0.21094634829E+02  0.47787269757E+02  0.19999994130E+02 0.  0.
         12    1    1    2    0    0  0.23740223666E+02 -0.29581101186E+02 -0.21094634829E+02  0.43400730243E+02  0.00000000000E+00 0. -1.
         11    1    3    3    0    0 -0.12163652132E+02  0.36679388327E+01  0.54791889990E+01  0.13835812980E+02  0.51100000000E-03 0. -1.
        -11    1    3    3    0    0  0.14156437004E+01  0.34479720128E+01  0.41556577315E+01  0.55822978718E+01  0.51100000000E-03 0.  1.
        -12    1    3    3    0    0 -0.12992215234E+02  0.22465190340E+02  0.11459788098E+02  0.28369158905E+02  0.00000000000E+00 0.  1.
</event>
<event>
 7    1  0.1813014E-010  0.4778727E+02  0.7816164E-02  0.1312668E+00
        -11   -1    0    0    0    0  0.00000000000E+00  0.00000000000E+00  0.45593999997E+02  0.45594000000E+02  0.51100000000E-03 0.  1.
         11   -1    0    0    0    0 -0.00000000000E+00 -0.00000000000E+00 -0.45593999997E+02  0.45594000000E+02  0.51100000000E-03 0. -1.
    9900012    2    1    2    0    0 -0.26349283131E+02  0.15114094587E+02  0.30998429997E+02  0.47787271447E+02  0.20000001835E+02 0.  0.
         12    1    1    2    0    0  0.26349283131E+02 -0.15114094587E+02 -0.30998429997E+02  0.43400728553E+02  0.00000000000E+00 0. -1.
         11    1    3    3    0    0 -0.99353138539E+00  0.29659719408E+01 -0.52742126276E+00  0.31721077562E+01  0.51100000000E-03 0. -1.
        -11    1    3    3    0    0 -0.15929030949E+02  0.42042965959E+01  0.26706505202E+02  0.31379094270E+02  0.51100000000E-03 0.  1.
        -12    1    3    3    0    0 -0.94267207965E+01  0.79438260499E+01  0.48193460575E+01  0.13236069421E+02  0.00000000000E+00 0.  1.
</event>
<event>
 7    1  0.1813014E-010  0.4778727E+02  0.7816164E-02  0.1312668E+00
        -11   -1    0    0    0    0  0.00000000000E+00  0.00000000000E+00  0.45593999997E+02  0.45594000000E+02  0.51100000000E-03 0. -1.
         11   -1    0    0    0    0 -0.00000000000E+00 -0.00000000000E+00 -0.45593999997E+02  0.45594000000E+02  0.51100000000E-03 0.  1.
    9900012    2    1    2    0    0  0.40001041067E+02  0.10581632710E+02 -0.13098435975E+02  0.47787271178E+02  0.20000000609E+02 0.  0.
         12    1    1    2    0    0 -0.40001041067E+02 -0.10581632710E+02  0.13098435975E+02  0.43400728822E+02  0.00000000000E+00 0. -1.
         11    1    3    3    0    0 -0.57016898579E+00  0.89365408135E+00 -0.23656047330E+01  0.25922569902E+01  0.51100000000E-03 0. -1.
        -11    1    3    3    0    0  0.96989413031E+01  0.72952349485E+01 -0.69884668259E+01  0.14004591540E+02  0.51100000000E-03 0.  1.
        -12    1    3    3    0    0  0.30872268750E+02  0.23927436799E+01 -0.37443644163E+01  0.31190422648E+02  0.00000000000E+00 0.  1.
</event>
<event>
 7    1  0.1813014E-010  0.4778727E+02  0.7816164E-02  0.1312668E+00
        -11   -1    0    0    0    0  0.00000000000E+00  0.00000000000E+00  0.45593999997E+02  0.45594000000E+02  0.51100000000E-03 0. -1.
         11   -1    0    0    0    0 -0.00000000000E+00 -0.00000000000E+00 -0.45593999997E+02  0.45594000000E+02  0.51100000000E-03 0.  1.
    9900012    2    1    2    0    0 -0.56696113507E+01  0.40194500321E+02 -0.15358425267E+02  0.47787267569E+02  0.19999984153E+02 0.  0.
         12    1    1    2    0    0  0.56696113507E+01 -0.40194500321E+02  0.15358425267E+02  0.43400732431E+02  0.00000000000E+00 0. -1.
         11    1    3    3    0    0 -0.30016798783E+01  0.55143499516E+01  0.92798276696E+00  0.63465967067E+01  0.51100000000E-03 0. -1.
        -11    1    3    3    0    0 -0.19122800707E+01  0.33531005455E+02 -0.18862922574E+02  0.38520059582E+02  0.51100000000E-03 0.  1.
        -12    1    3    3    0    0 -0.75565140174E+00  0.11491449143E+01  0.25765145404E+01  0.29206112805E+01  0.00000000000E+00 0.  1.
</event>
<event>
 7    1  0.1813014E-010  0.4778726E+02  0.7816164E-02  0.1312668E+00
        -11   -1    0    0    0    0  0.00000000000E+00  0.00000000000E+00  0.45593999997E+02  0.45594000000E+02  0.51100000000E-03 0.  1.
         11   -1    0    0    0    0 -0.00000000000E+00 -0.00000000000E+00 -0.45593999997E+02  0.45594000000E+02  0.51100000000E-03 0. -1.
    9900012    2    1    2    0    0  0.29722313016E+02  0.24000997717E+02  0.20595149725E+02  0.47787262971E+02  0.19999963191E+02 0.  0.
         12    1    1    2    0    0 -0.29722313016E+02 -0.24000997717E+02 -0.20595149725E+02  0.43400737029E+02  0.00000000000E+00 0. -1.
         11    1    3    3    0    0  0.17426304888E+00 -0.13756142334E-01  0.94159538997E+00  0.95768417612E+00  0.51100000000E-03 0. -1.
        -11    1    3    3    0    0  0.51273118200E+01  0.15297592607E+02  0.10862612890E+02  0.19449987793E+02  0.51100000000E-03 0.  1.
         12    1    3    3    0    0  0.24420738147E+02  0.87171612516E+01  0.87909414457E+01  0.27379591002E+02  0.00000000000E+00 0. -1.
</event>
<event>
 7    1  0.1813014E-010  0.4778727E+02  0.7816164E-02  0.1312668E+00
        -11   -1    0    0    0    0  0.00000000000E+00  0.00000000000E+00  0.45593999997E+02  0.45594000000E+02  0.51100000000E-03 0.  1.
         11   -1    0    0    0    0 -0.00000000000E+00 -0.00000000000E+00 -0.45593999997E+02  0.45594000000E+02  0.51100000000E-03 0. -1.
    9900012    2    1    2    0    0  0.18225344805E+02  0.79124061318E+01  0.38585671249E+02  0.47787269709E+02  0.19999993912E+02 0.  0.
         12    1    1    2    0    0 -0.18225344805E+02 -0.79124061318E+01 -0.38585671249E+02  0.43400730291E+02  0.00000000000E+00 0. -1.
         11    1    3    3    0    0  0.64470356170E+00  0.29557223686E+01 -0.67868600829E-01  0.30259781577E+01  0.51100000000E-03 0. -1.
        -11    1    3    3    0    0  0.46050027027E+01  0.91942829841E+00  0.25218389574E+02  0.25651872666E+02  0.51100000000E-03 0.  1.
         12    1    3    3    0    0  0.12975638541E+02  0.40372554648E+01  0.13435150275E+02  0.19109418886E+02  0.00000000000E+00 0. -1.
</event>
<event>
 7    1  0.1813014E-010  0.4778727E+02  0.7816164E-02  0.1312668E+00
        -11   -1    0    0    0    0  0.00000000000E+00  0.00000000000E+00  0.45593999997E+02  0.45594000000E+02  0.51100000000E-03 0. -1.
         11   -1    0    0    0    0 -0.00000000000E+00 -0.00000000000E+00 -0.45593999997E+02  0.45594000000E+02  0.51100000000E-03 0.  1.
    9900012    2    1    2    0    0 -0.25686772210E+02 -0.31747109942E+02  0.14694683094E+02  0.47787274575E+02  0.20000016096E+02 0.  0.
         12    1    1    2    0    0  0.25686772210E+02  0.31747109942E+02 -0.14694683094E+02  0.43400725425E+02  0.00000000000E+00 0. -1.
         11    1    3    3    0    0 -0.26032000470E+01  0.24288258620E+00  0.48676505527E+01  0.55253655626E+01  0.51100000000E-03 0. -1.
        -11    1    3    3    0    0 -0.45713693519E+01 -0.36193717116E+01 -0.23178433421E+01  0.62745252695E+01  0.51100000000E-03 0.  1.
        -12    1    3    3    0    0 -0.18512202811E+02 -0.28370620816E+02  0.12144875884E+02  0.35987383743E+02  0.00000000000E+00 0.  1.
</event>
<event>
 7    1  0.1813014E-010  0.4778727E+02  0.7816164E-02  0.1312668E+00
        -11   -1    0    0    0    0  0.00000000000E+00  0.00000000000E+00  0.45593999997E+02  0.45594000000E+02  0.51100000000E-03 0. -1.
         11   -1    0    0    0    0 -0.00000000000E+00 -0.00000000000E+00 -0.45593999997E+02  0.45594000000E+02  0.51100000000E-03 0.  1.
    9900012    2    1    2    0    0  0.33638279511E+02 -0.25323148023E+02  0.10527467232E+02  0.47787271428E+02  0.20000001751E+02 0.  0.
         12    1    1    2    0    0 -0.33638279511E+02  0.25323148023E+02 -0.10527467232E+02  0.43400728572E+02  0.00000000000E+00 0. -1.
         11    1    3    3    0    0  0.86774471113E+01 -0.10006426678E+02  0.33774292077E+01  0.13668712139E+02  0.51100000000E-03 0. -1.
        -11    1    3    3    0    0  0.23990646227E+02 -0.16543440236E+02  0.25419808928E+01  0.29252319367E+02  0.51100000000E-03 0.  1.
         12    1    3    3    0    0  0.97018617223E+00  0.12267188915E+01  0.46080571320E+01  0.48662399220E+01  0.00000000000E+00 0. -1.
</event>
<event>
 7    1  0.1813014E-010  0.4778727E+02  0.7816164E-02  0.1312668E+00
        -11   -1    0    0    0    0  0.00000000000E+00  0.00000000000E+00  0.45593999997E+02  0.45594000000E+02  0.51100000000E-03 0. -1.
         11   -1    0    0    0    0 -0.00000000000E+00 -0.00000000000E+00 -0.45593999997E+02  0.45594000000E+02  0.51100000000E-03 0.  1.
    9900012    2    1    2    0    0  0.12013057581E+02 -0.17092966114E+02 -0.38041297790E+02  0.47787269815E+02  0.19999994396E+02 0.  0.
         12    1    1    2    0    0 -0.12013057581E+02  0.17092966114E+02  0.38041297790E+02  0.43400730185E+02  0.00000000000E+00 0. -1.
         11    1    3    3    0    0  0.23090479603E+01 -0.89525524950E+01 -0.93537897702E+01  0.13151930732E+02  0.51100000000E-03 0. -1.
        -11    1    3    3    0    0  0.23547803658E+01 -0.31013136395E+01 -0.24468019726E+02  0.24775938457E+02  0.51100000000E-03 0.  1.
        -12    1    3    3    0    0  0.73492292551E+01 -0.50390999792E+01 -0.42194882942E+01  0.98594006263E+01  0.00000000000E+00 0.  1.
</event>
<event>
 7    1  0.1813014E-010  0.4778727E+02  0.7816164E-02  0.1312668E+00
        -11   -1    0    0    0    0  0.00000000000E+00  0.00000000000E+00  0.45593999997E+02  0.45594000000E+02  0.51100000000E-03 0. -1.
         11   -1    0    0    0    0 -0.00000000000E+00 -0.00000000000E+00 -0.45593999997E+02  0.45594000000E+02  0.51100000000E-03 0.  1.
    9900012    2    1    2    0    0  0.32349994722E+02  0.16119902791E+02 -0.24026021467E+02  0.47787272679E+02  0.20000007451E+02 0.  0.
         12    1    1    2    0    0 -0.32349994722E+02 -0.16119902791E+02  0.24026021467E+02  0.43400727321E+02  0.00000000000E+00 0. -1.
         11    1    3    3    0    0  0.51143699364E+01  0.72732205454E+01 -0.54160487964E-01  0.88915381441E+01  0.51100000000E-03 0. -1.
        -11    1    3    3    0    0  0.17124304231E+02  0.23203387644E+01 -0.83965789611E+01  0.19212712091E+02  0.51100000000E-03 0.  1.
         12    1    3    3    0    0  0.10111320555E+02  0.65263434812E+01 -0.15575282018E+02  0.19683022444E+02  0.00000000000E+00 0. -1.
</event>
<event>
 7    1  0.2152612E-010  0.4778728E+02  0.7816164E-02  0.1312668E+00
        -11   -1    0    0    0    0  0.00000000000E+00  0.00000000000E+00  0.45593999997E+02  0.45594000000E+02  0.51100000000E-03 0. -1.
         11   -1    0    0    0    0 -0.00000000000E+00 -0.00000000000E+00 -0.45593999997E+02  0.45594000000E+02  0.51100000000E-03 0.  1.
    9900012    2    1    2    0    0  0.31720044827E+02  0.23681521763E+02 -0.17794577936E+02  0.47787277417E+02  0.20000029054E+02 0.  0.
         12    1    1    2    0    0 -0.31720044827E+02 -0.23681521763E+02  0.17794577936E+02  0.43400722583E+02  0.00000000000E+00 0. -1.
         11    1    3    3    0    0  0.68883141312E+01  0.75461821483E+01  0.14527754372E+01  0.10320091730E+02  0.51100000000E-03 0. -1.
        -11    1    3    3    0    0  0.26251205908E+02  0.15557817454E+02 -0.17642198457E+02  0.35247959688E+02  0.51100000000E-03 0.  1.
         12    1    3    3    0    0 -0.14194752125E+01  0.57752216072E+00 -0.16051549167E+01  0.22192259984E+01  0.00000000000E+00 0. -1.
</event>
<event>
 7    1  0.1813014E-010  0.4778727E+02  0.7816164E-02  0.1312668E+00
        -11   -1    0    0    0    0  0.00000000000E+00  0.00000000000E+00  0.45593999997E+02  0.45594000000E+02  0.51100000000E-03 0. -1.
         11   -1    0    0    0    0 -0.00000000000E+00 -0.00000000000E+00 -0.45593999997E+02  0.45594000000E+02  0.51100000000E-03 0.  1.
    9900012    2    1    2    0    0  0.25026859170E+02 -0.95121342813E+01 -0.34158434348E+02  0.47787274020E+02  0.20000013566E+02 0.  0.
         12    1    1    2    0    0 -0.25026859170E+02  0.95121342813E+01  0.34158434348E+02  0.43400725980E+02  0.00000000000E+00 0. -1.
         11    1    3    3    0    0  0.74260553301E+00  0.42143670097E+01 -0.94778463261E+01  0.10399130902E+02  0.51100000000E-03 0. -1.
        -11    1    3    3    0    0  0.79487068714E+01 -0.30420538774E+01 -0.85804582581E+01  0.12085540820E+02  0.51100000000E-03 0.  1.
         12    1    3    3    0    0  0.16335546765E+02 -0.10684447414E+02 -0.16100129764E+02  0.25302602299E+02  0.00000000000E+00 0. -1.
</event>
<event>
 7    1  0.1813014E-010  0.4778728E+02  0.7816164E-02  0.1312668E+00
        -11   -1    0    0    0    0  0.00000000000E+00  0.00000000000E+00  0.45593999997E+02  0.45594000000E+02  0.51100000000E-03 0. -1.
         11   -1    0    0    0    0 -0.00000000000E+00 -0.00000000000E+00 -0.45593999997E+02  0.45594000000E+02  0.51100000000E-03 0.  1.
    9900012    2    1    2    0    0  0.27308802975E+02  0.40759647921E+00 -0.33729599516E+02  0.47787277214E+02  0.20000028129E+02 0.  0.
         12    1    1    2    0    0 -0.27308802975E+02 -0.40759647921E+00  0.33729599516E+02  0.43400722786E+02  0.00000000000E+00 0. -1.
         11    1    3    3    0    0  0.47368862166E+01 -0.81760593511E+01 -0.12219768658E+02  0.15446966817E+02  0.51100000000E-03 0. -1.
        -11    1    3    3    0    0  0.87095785398E+01  0.33472211450E+01 -0.84535611444E+01  0.12590605387E+02  0.51100000000E-03 0.  1.
         12    1    3    3    0    0  0.13862338219E+02  0.52364346853E+01 -0.13056269714E+02  0.19749705009E+02  0.00000000000E+00 0. -1.
</event>
<event>
 7    1  0.1813014E-010  0.4778727E+02  0.7816164E-02  0.1312668E+00
        -11   -1    0    0    0    0  0.00000000000E+00  0.00000000000E+00  0.45593999997E+02  0.45594000000E+02  0.51100000000E-03 0.  1.
         11   -1    0    0    0    0 -0.00000000000E+00 -0.00000000000E+00 -0.45593999997E+02  0.45594000000E+02  0.51100000000E-03 0. -1.
    9900012    2    1    2    0    0  0.31369204563E+02  0.24195570652E+02  0.17724862258E+02  0.47787269866E+02  0.19999994626E+02 0.  0.
         12    1    1    2    0    0 -0.31369204563E+02 -0.24195570652E+02 -0.17724862258E+02  0.43400730134E+02  0.00000000000E+00 0. -1.
         11    1    3    3    0    0 -0.11383220704E+00  0.58956389123E+01  0.68719336537E+01  0.90551084122E+01  0.51100000000E-03 0. -1.
        -11    1    3    3    0    0  0.98148889904E+01  0.20296942819E+01  0.19508579038E+01  0.10210658725E+02  0.51100000000E-03 0.  1.
        -12    1    3    3    0    0  0.21668147780E+02  0.16270237458E+02  0.89020707004E+01  0.28521502729E+02  0.00000000000E+00 0.  1.
</event>
<event>
 7    1  0.1813014E-010  0.4778727E+02  0.7816164E-02  0.1312668E+00
        -11   -1    0    0    0    0  0.00000000000E+00  0.00000000000E+00  0.45593999997E+02  0.45594000000E+02  0.51100000000E-03 0.  1.
         11   -1    0    0    0    0 -0.00000000000E+00 -0.00000000000E+00 -0.45593999997E+02  0.45594000000E+02  0.51100000000E-03 0. -1.
    9900012    2    1    2    0    0  0.39694733964E+02  0.10058930585E+02 -0.14379476192E+02  0.47787270461E+02  0.19999997339E+02 0.  0.
         12    1    1    2    0    0 -0.39694733964E+02 -0.10058930585E+02  0.14379476192E+02  0.43400729539E+02  0.00000000000E+00 0. -1.
         11    1    3    3    0    0  0.18455323995E+02 -0.49382749303E+00 -0.12549330624E+02  0.22323273701E+02  0.51100000000E-03 0. -1.
        -11    1    3    3    0    0  0.13114116265E+02  0.95194059256E+01 -0.45532663619E+01  0.16832449893E+02  0.51100000000E-03 0.  1.
        -12    1    3    3    0    0  0.81252937046E+01  0.10333521528E+01  0.27231207942E+01  0.86315468670E+01  0.00000000000E+00 0.  1.
</event>
<event>
 7    1  0.1813014E-010  0.4778729E+02  0.7816164E-02  0.1312668E+00
        -11   -1    0    0    0    0  0.00000000000E+00  0.00000000000E+00  0.45593999997E+02  0.45594000000E+02  0.51100000000E-03 0.  1.
         11   -1    0    0    0    0 -0.00000000000E+00 -0.00000000000E+00 -0.45593999997E+02  0.45594000000E+02  0.51100000000E-03 0. -1.
    9900012    2    1    2    0    0 -0.14666580316E+02 -0.60624593404E+01  0.40395043231E+02  0.47787291376E+02  0.20000092701E+02 0.  0.
         12    1    1    2    0    0  0.14666580316E+02  0.60624593404E+01 -0.40395043231E+02  0.43400708624E+02  0.00000000000E+00 0. -1.
         11    1    3    3    0    0 -0.95706290360E+01 -0.17348594067E+01  0.25860660578E+02  0.27629340258E+02  0.51100000000E-03 0.  1.
        -11    1    3    3    0    0 -0.80845424506E+01 -0.62295207157E+01  0.91176031383E+01  0.13685665575E+02  0.51100000000E-03 0. -1.
         12    1    3    3    0    0  0.29885911703E+01  0.19019207820E+01  0.54167795140E+01  0.64722855429E+01  0.00000000000E+00 0. -1.
</event>
<event>
 7    1  0.1813014E-010  0.4778727E+02  0.7816164E-02  0.1312668E+00
        -11   -1    0    0    0    0  0.00000000000E+00  0.00000000000E+00  0.45593999997E+02  0.45594000000E+02  0.51100000000E-03 0. -1.
         11   -1    0    0    0    0 -0.00000000000E+00 -0.00000000000E+00 -0.45593999997E+02  0.45594000000E+02  0.51100000000E-03 0.  1.
    9900012    2    1    2    0    0  0.33777274885E+02  0.10914100607E+02 -0.24972005363E+02  0.47787274861E+02  0.20000017401E+02 0.  0.
         12    1    1    2    0    0 -0.33777274885E+02 -0.10914100607E+02  0.24972005363E+02  0.43400725139E+02  0.00000000000E+00 0. -1.
         11    1    3    3    0    0  0.85694136974E+01 -0.15415272511E+00 -0.10124023261E+02  0.13264782751E+02  0.51100000000E-03 0.  1.
        -11    1    3    3    0    0  0.75341811151E+01  0.65134793934E+01  0.14366146940E+01  0.10062462965E+02  0.51100000000E-03 0. -1.
         12    1    3    3    0    0  0.17673680073E+02  0.45547739388E+01 -0.16284596797E+02  0.24460029145E+02  0.00000000000E+00 0. -1.
</event>
<event>
 7    1  0.1813014E-010  0.4778727E+02  0.7816164E-02  0.1312668E+00
        -11   -1    0    0    0    0  0.00000000000E+00  0.00000000000E+00  0.45593999997E+02  0.45594000000E+02  0.51100000000E-03 0.  1.
         11   -1    0    0    0    0 -0.00000000000E+00 -0.00000000000E+00 -0.45593999997E+02  0.45594000000E+02  0.51100000000E-03 0. -1.
    9900012    2    1    2    0    0 -0.10977603805E+02  0.22965753935E+02  0.35152376025E+02  0.47787272134E+02  0.20000004966E+02 0.  0.
         12    1    1    2    0    0  0.10977603805E+02 -0.22965753935E+02 -0.35152376025E+02  0.43400727866E+02  0.00000000000E+00 0. -1.
         11    1    3    3    0    0  0.19504429197E+01  0.40780547488E+01  0.12877273581E+01  0.47003191516E+01  0.51100000000E-03 0. -1.
        -11    1    3    3    0    0 -0.10344544102E+02  0.41550529532E+01  0.10310216535E+02  0.15184683829E+02  0.51100000000E-03 0.  1.
        -12    1    3    3    0    0 -0.25835026228E+01  0.14732646233E+02  0.23554432132E+02  0.27902269153E+02  0.00000000000E+00 0.  1.
</event>
<event>
 7    1  0.1813014E-010  0.4778726E+02  0.7816164E-02  0.1312668E+00
        -11   -1    0    0    0    0  0.00000000000E+00  0.00000000000E+00  0.45593999997E+02  0.45594000000E+02  0.51100000000E-03 0.  1.
         11   -1    0    0    0    0 -0.00000000000E+00 -0.00000000000E+00 -0.45593999997E+02  0.45594000000E+02  0.51100000000E-03 0. -1.
    9900012    2    1    2    0    0 -0.18901040871E+02  0.34413060656E+02  0.18496372118E+02  0.47787264162E+02  0.19999968621E+02 0.  0.
         12    1    1    2    0    0  0.18901040871E+02 -0.34413060656E+02 -0.18496372118E+02  0.43400735838E+02  0.00000000000E+00 0. -1.
         11    1    3    3    0    0 -0.11152784814E+02  0.36494684284E+01  0.23315439945E+01  0.11964084861E+02  0.51100000000E-03 0. -1.
        -11    1    3    3    0    0 -0.68184591514E+00  0.80278690405E+01  0.28603997110E+01  0.85494726125E+01  0.51100000000E-03 0.  1.
         12    1    3    3    0    0 -0.70664101421E+01  0.22735723187E+02  0.13304428412E+02  0.27273706689E+02  0.00000000000E+00 0. -1.
</event>
<event>
 7    1  0.1813014E-010  0.4778727E+02  0.7816164E-02  0.1312668E+00
        -11   -1    0    0    0    0  0.00000000000E+00  0.00000000000E+00  0.45593999997E+02  0.45594000000E+02  0.51100000000E-03 0.  1.
         11   -1    0    0    0    0 -0.00000000000E+00 -0.00000000000E+00 -0.45593999997E+02  0.45594000000E+02  0.51100000000E-03 0. -1.
    9900012    2    1    2    0    0  0.27137673908E+02  0.51785835787E+01  0.33471664525E+02  0.47787269602E+02  0.19999993423E+02 0.  0.
         12    1    1    2    0    0 -0.27137673908E+02 -0.51785835787E+01 -0.33471664525E+02  0.43400730398E+02  0.00000000000E+00 0. -1.
         11    1    3    3    0    0  0.13619143309E+01  0.72432475801E+00 -0.60545528305E+00  0.16571159768E+01  0.51100000000E-03 0. -1.
        -11    1    3    3    0    0  0.46069052206E+01  0.58822889011E+01  0.21118885651E+01  0.77643397659E+01  0.51100000000E-03 0.  1.
        -12    1    3    3    0    0  0.21168854356E+02 -0.14280300804E+01  0.31965231243E+02  0.38365813859E+02  0.00000000000E+00 0.  1.
</event>
<event>
 7    1  0.1813014E-010  0.4778728E+02  0.7816164E-02  0.1312668E+00
        -11   -1    0    0    0    0  0.00000000000E+00  0.00000000000E+00  0.45593999997E+02  0.45594000000E+02  0.51100000000E-03 0. -1.
         11   -1    0    0    0    0 -0.00000000000E+00 -0.00000000000E+00 -0.45593999997E+02  0.45594000000E+02  0.51100000000E-03 0.  1.
    9900012    2    1    2    0    0  0.25782502208E+02  0.13539302152E+02 -0.32180312683E+02  0.47787278264E+02  0.20000032915E+02 0.  0.
         12    1    1    2    0    0 -0.25782502208E+02 -0.13539302152E+02  0.32180312683E+02  0.43400721736E+02  0.00000000000E+00 0. -1.
         11    1    3    3    0    0 -0.39118177349E+00 -0.12780734601E+01 -0.10860876661E+01  0.17222315840E+01  0.51100000000E-03 0. -1.
        -11    1    3    3    0    0  0.22197823935E+02  0.18136909639E+02 -0.24721175425E+02  0.37852706552E+02  0.51100000000E-03 0.  1.
        -12    1    3    3    0    0  0.39758600459E+01 -0.33195340264E+01 -0.63730495924E+01  0.82123401271E+01  0.00000000000E+00 0.  1.
</event>
<event>
 7    1  0.1813014E-010  0.4778727E+02  0.7816164E-02  0.1312668E+00
        -11   -1    0    0    0    0  0.00000000000E+00  0.00000000000E+00  0.45593999997E+02  0.45594000000E+02  0.51100000000E-03 0.  1.
         11   -1    0    0    0    0 -0.00000000000E+00 -0.00000000000E+00 -0.45593999997E+02  0.45594000000E+02  0.51100000000E-03 0. -1.
    9900012    2    1    2    0    0  0.30069897016E+02 -0.29618290322E+02  0.10108507670E+02  0.47787265496E+02  0.19999974702E+02 0.  0.
         12    1    1    2    0    0 -0.30069897016E+02  0.29618290322E+02 -0.10108507670E+02  0.43400734504E+02  0.00000000000E+00 0. -1.
         11    1    3    3    0    0  0.80855410646E+01 -0.77975451529E+00  0.32643244447E+01  0.87544163571E+01  0.51100000000E-03 0. -1.
        -11    1    3    3    0    0  0.15210114181E+02 -0.10955619726E+02  0.67089468710E+01  0.19909373304E+02  0.51100000000E-03 0.  1.
        -12    1    3    3    0    0  0.67742417708E+01 -0.17882916081E+02  0.13523635443E+00  0.19123475835E+02  0.00000000000E+00 0.  1.
</event>
<event>
 7    1  0.1813014E-010  0.4778727E+02  0.7816164E-02  0.1312668E+00
        -11   -1    0    0    0    0  0.00000000000E+00  0.00000000000E+00  0.45593999997E+02  0.45594000000E+02  0.51100000000E-03 0. -1.
         11   -1    0    0    0    0 -0.00000000000E+00 -0.00000000000E+00 -0.45593999997E+02  0.45594000000E+02  0.51100000000E-03 0.  1.
    9900012    2    1    2    0    0  0.30607869945E+02 -0.29419749937E+02 -0.90144200149E+01  0.47787272390E+02  0.20000006134E+02 0.  0.
         12    1    1    2    0    0 -0.30607869945E+02  0.29419749937E+02  0.90144200149E+01  0.43400727610E+02  0.00000000000E+00 0. -1.
         11    1    3    3    0    0  0.23008988222E+02 -0.17653248497E+02 -0.76345435110E+01  0.29988947571E+02  0.51100000000E-03 0. -1.
        -11    1    3    3    0    0  0.67310092079E+01 -0.54934489976E+01  0.39283916880E+01  0.95350263955E+01  0.51100000000E-03 0.  1.
         12    1    3    3    0    0  0.86787251450E+00 -0.62730524420E+01 -0.53082681918E+01  0.82632984236E+01  0.00000000000E+00 0. -1.
</event>
<event>
 7    1  0.1813014E-010  0.4778727E+02  0.7816164E-02  0.1312668E+00
        -11   -1    0    0    0    0  0.00000000000E+00  0.00000000000E+00  0.45593999997E+02  0.45594000000E+02  0.51100000000E-03 0.  1.
         11   -1    0    0    0    0 -0.00000000000E+00 -0.00000000000E+00 -0.45593999997E+02  0.45594000000E+02  0.51100000000E-03 0. -1.
    9900012    2    1    2    0    0  0.13691962144E+02 -0.16456438552E+02  0.37753660170E+02  0.47787273584E+02  0.20000011581E+02 0.  0.
         12    1    1    2    0    0 -0.13691962144E+02  0.16456438552E+02 -0.37753660170E+02  0.43400726416E+02  0.00000000000E+00 0. -1.
         11    1    3    3    0    0 -0.29550292016E+01 -0.10145802633E+01  0.36860726101E+01  0.48320494866E+01  0.51100000000E-03 0. -1.
        -11    1    3    3    0    0  0.90136706589E+01 -0.54244651166E+01  0.58093207885E+01  0.12017457669E+02  0.51100000000E-03 0.  1.
         12    1    3    3    0    0  0.76333206864E+01 -0.10017393172E+02  0.28258266771E+02  0.30937766429E+02  0.00000000000E+00 0. -1.
</event>
<event>
 7    1  0.1813014E-010  0.4778729E+02  0.7816164E-02  0.1312668E+00
        -11   -1    0    0    0    0  0.00000000000E+00  0.00000000000E+00  0.45593999997E+02  0.45594000000E+02  0.51100000000E-03 0.  1.
         11   -1    0    0    0    0 -0.00000000000E+00 -0.00000000000E+00 -0.45593999997E+02  0.45594000000E+02  0.51100000000E-03 0. -1.
    9900012    2    1    2    0    0 -0.24821883140E+02  0.17464272538E+02  0.31024107618E+02  0.47787286280E+02  0.20000069463E+02 0.  0.
         12    1    1    2    0    0  0.24821883140E+02 -0.17464272538E+02 -0.31024107618E+02  0.43400713720E+02  0.00000000000E+00 0. -1.
         11    1    3    3    0    0 -0.47412990092E+00 -0.15848148053E+01  0.98082696441E+00  0.19231377812E+01  0.51100000000E-03 0. -1.
        -11    1    3    3    0    0 -0.14421641096E+02  0.16346997682E+02  0.11471181542E+02  0.24633231037E+02  0.51100000000E-03 0.  1.
        -12    1    3    3    0    0 -0.99261121439E+01  0.27020896620E+01  0.18572099112E+02  0.21230917461E+02  0.00000000000E+00 0.  1.
</event>
<event>
 7    1  0.1813014E-010  0.4778727E+02  0.7816164E-02  0.1312668E+00
        -11   -1    0    0    0    0  0.00000000000E+00  0.00000000000E+00  0.45593999997E+02  0.45594000000E+02  0.51100000000E-03 0. -1.
         11   -1    0    0    0    0 -0.00000000000E+00 -0.00000000000E+00 -0.45593999997E+02  0.45594000000E+02  0.51100000000E-03 0.  1.
    9900012    2    1    2    0    0  0.13707135208E+02  0.39090005422E+02 -0.12950266761E+02  0.47787268569E+02  0.19999988716E+02 0.  0.
         12    1    1    2    0    0 -0.13707135208E+02 -0.39090005422E+02  0.12950266761E+02  0.43400731431E+02  0.00000000000E+00 0. -1.
         11    1    3    3    0    0 -0.26154955775E+01  0.38958347426E+01  0.70783221263E-01  0.46929048556E+01  0.51100000000E-03 0. -1.
        -11    1    3    3    0    0  0.36533506146E+01  0.22345172781E+02 -0.42749660803E+01  0.23041897764E+02  0.51100000000E-03 0.  1.
        -12    1    3    3    0    0  0.12669280171E+02  0.12848997899E+02 -0.87460839019E+01  0.20052465950E+02  0.00000000000E+00 0.  1.
</event>
<event>
 7    1  0.1813014E-010  0.4778728E+02  0.7816164E-02  0.1312668E+00
        -11   -1    0    0    0    0  0.00000000000E+00  0.00000000000E+00  0.45593999997E+02  0.45594000000E+02  0.51100000000E-03 0. -1.
         11   -1    0    0    0    0 -0.00000000000E+00 -0.00000000000E+00 -0.45593999997E+02  0.45594000000E+02  0.51100000000E-03 0.  1.
    9900012    2    1    2    0    0 -0.31409774486E+01  0.43199455219E+02  0.27503110206E+01  0.47787275568E+02  0.20000020624E+02 0.  0.
         12    1    1    2    0    0  0.31409774486E+01 -0.43199455219E+02 -0.27503110206E+01  0.43400724432E+02  0.00000000000E+00 0. -1.
         11    1    3    3    0    0 -0.45646221606E+01  0.16430154175E+02  0.52182365024E+01  0.17832995658E+02  0.51100000000E-03 0. -1.
        -11    1    3    3    0    0 -0.28521821871E+01  0.22077431335E+02 -0.54837158813E+01  0.22926383442E+02  0.51100000000E-03 0.  1.
        -12    1    3    3    0    0  0.42758268991E+01  0.46918697086E+01  0.30157903994E+01  0.70278964681E+01  0.00000000000E+00 0.  1.
</event>
<event>
 7    1  0.1813014E-010  0.4778727E+02  0.7816164E-02  0.1312668E+00
        -11   -1    0    0    0    0  0.00000000000E+00  0.00000000000E+00  0.45593999997E+02  0.45594000000E+02  0.51100000000E-03 0.  1.
         11   -1    0    0    0    0 -0.00000000000E+00 -0.00000000000E+00 -0.45593999997E+02  0.45594000000E+02  0.51100000000E-03 0. -1.
    9900012    2    1    2    0    0 -0.34860866310E+02 -0.24025638070E+02 -0.95452813852E+01  0.47787266351E+02  0.19999978602E+02 0.  0.
         12    1    1    2    0    0  0.34860866310E+02  0.24025638070E+02  0.95452813852E+01  0.43400733649E+02  0.00000000000E+00 0. -1.
         11    1    3    3    0    0 -0.18701804470E+02 -0.60753605808E+01 -0.42008371970E+00  0.19668349377E+02  0.51100000000E-03 0. -1.
        -11    1    3    3    0    0 -0.43753976720E+01  0.79475951267E+00 -0.18000253116E+01  0.47974825539E+01  0.51100000000E-03 0.  1.
         12    1    3    3    0    0 -0.11783664168E+02 -0.18745037002E+02 -0.73251723539E+01  0.23321434421E+02  0.00000000000E+00 0. -1.
</event>
<event>
 7    1  0.1813014E-010  0.4778727E+02  0.7816164E-02  0.1312668E+00
        -11   -1    0    0    0    0  0.00000000000E+00  0.00000000000E+00  0.45593999997E+02  0.45594000000E+02  0.51100000000E-03 0.  1.
         11   -1    0    0    0    0 -0.00000000000E+00 -0.00000000000E+00 -0.45593999997E+02  0.45594000000E+02  0.51100000000E-03 0. -1.
    9900012    2    1    2    0    0  0.25260684935E+02  0.31694370742E+02  0.15523783885E+02  0.47787271824E+02  0.20000003556E+02 0.  0.
         12    1    1    2    0    0 -0.25260684935E+02 -0.31694370742E+02 -0.15523783885E+02  0.43400728176E+02  0.00000000000E+00 0. -1.
         11    1    3    3    0    0  0.56919603886E+01  0.11647802367E+02  0.57981010165E+01  0.14201679081E+02  0.51100000000E-03 0. -1.
        -11    1    3    3    0    0  0.17863062821E+02  0.14020386591E+02  0.13357865155E+02  0.26345641295E+02  0.51100000000E-03 0.  1.
        -12    1    3    3    0    0  0.17056617254E+01  0.60261817832E+01 -0.36321822868E+01  0.72399514481E+01  0.00000000000E+00 0.  1.
</event>
<event>
 7    1  0.1813014E-010  0.4778727E+02  0.7816164E-02  0.1312668E+00
        -11   -1    0    0    0    0  0.00000000000E+00  0.00000000000E+00  0.45593999997E+02  0.45594000000E+02  0.51100000000E-03 0.  1.
         11   -1    0    0    0    0 -0.00000000000E+00 -0.00000000000E+00 -0.45593999997E+02  0.45594000000E+02  0.51100000000E-03 0. -1.
    9900012    2    1    2    0    0 -0.35411084877E+02  0.24689761857E+02  0.44826318026E+01  0.47787271197E+02  0.20000000697E+02 0.  0.
         12    1    1    2    0    0  0.35411084877E+02 -0.24689761857E+02 -0.44826318026E+01  0.43400728803E+02  0.00000000000E+00 0. -1.
         11    1    3    3    0    0 -0.69980959321E+01  0.33386212836E+01  0.42483869396E+01  0.88412968845E+01  0.51100000000E-03 0. -1.
        -11    1    3    3    0    0 -0.34787888447E+01  0.10716474904E+02 -0.29646498027E+01  0.11650491617E+02  0.51100000000E-03 0.  1.
        -12    1    3    3    0    0 -0.24934200100E+02  0.10634665669E+02  0.31988946656E+01  0.27295482696E+02  0.00000000000E+00 0.  1.
</event>
<event>
 7    1  0.1850517E-010  0.4778728E+02  0.7816164E-02  0.1312668E+00
        -11   -1    0    0    0    0  0.00000000000E+00  0.00000000000E+00  0.45593999997E+02  0.45594000000E+02  0.51100000000E-03 0. -1.
         11   -1    0    0    0    0 -0.00000000000E+00 -0.00000000000E+00 -0.45593999997E+02  0.45594000000E+02  0.51100000000E-03 0.  1.
    9900012    2    1    2    0    0 -0.86246470333E+01 -0.35447801051E+02 -0.23509394643E+02  0.47787276823E+02  0.20000026345E+02 0.  0.
         12    1    1    2    0    0  0.86246470333E+01  0.35447801051E+02  0.23509394643E+02  0.43400723177E+02  0.00000000000E+00 0. -1.
         11    1    3    3    0    0 -0.19722652982E+01  0.11740748848E+01 -0.10554689086E+01  0.25263208664E+01  0.51100000000E-03 0. -1.
        -11    1    3    3    0    0  0.24710618790E+01 -0.15017959448E+02 -0.49749574216E+01  0.16012353182E+02  0.51100000000E-03 0.  1.
         12    1    3    3    0    0 -0.91234436141E+01 -0.21603916488E+02 -0.17478968313E+02  0.29248602775E+02  0.00000000000E+00 0. -1.
</event>
<event>
 7    1  0.1813014E-010  0.4778727E+02  0.7816164E-02  0.1312668E+00
        -11   -1    0    0    0    0  0.00000000000E+00  0.00000000000E+00  0.45593999997E+02  0.45594000000E+02  0.51100000000E-03 0. -1.
         11   -1    0    0    0    0 -0.00000000000E+00 -0.00000000000E+00 -0.45593999997E+02  0.45594000000E+02  0.51100000000E-03 0.  1.
    9900012    2    1    2    0    0  0.28018941802E+02  0.28234983046E+02 -0.17359379321E+02  0.47787269387E+02  0.19999992444E+02 0.  0.
         12    1    1    2    0    0 -0.28018941802E+02 -0.28234983046E+02  0.17359379321E+02  0.43400730613E+02  0.00000000000E+00 0. -1.
         11    1    3    3    0    0  0.23199690961E+01 -0.20106474499E+01  0.23859997420E+00  0.30792677674E+01  0.51100000000E-03 0. -1.
        -11    1    3    3    0    0  0.64359501990E+00  0.44914532517E+01  0.33618246738E+00  0.45497676615E+01  0.51100000000E-03 0.  1.
        -12    1    3    3    0    0  0.25055377686E+02  0.25754177244E+02 -0.17934161763E+02  0.40158233958E+02  0.00000000000E+00 0.  1.
</event>
<event>
 7    1  0.1813014E-010  0.4778727E+02  0.7816164E-02  0.1312668E+00
        -11   -1    0    0    0    0  0.00000000000E+00  0.00000000000E+00  0.45593999997E+02  0.45594000000E+02  0.51100000000E-03 0. -1.
         11   -1    0    0    0    0 -0.00000000000E+00 -0.00000000000E+00 -0.45593999997E+02  0.45594000000E+02  0.51100000000E-03 0.  1.
    9900012    2    1    2    0    0  0.12132124604E+02 -0.40422998125E+02 -0.10120085832E+02  0.47787270028E+02  0.19999995367E+02 0.  0.
         12    1    1    2    0    0 -0.12132124604E+02  0.40422998125E+02  0.10120085832E+02  0.43400729972E+02  0.00000000000E+00 0. -1.
         11    1    3    3    0    0  0.80672716978E+01 -0.27098372163E+02 -0.28477393857E+01  0.28416760308E+02  0.51100000000E-03 0.  1.
        -11    1    3    3    0    0  0.55085474298E+01 -0.17582771185E+01 -0.30412393958E+00  0.57903475581E+01  0.51100000000E-03 0. -1.
        -12    1    3    3    0    0 -0.14436945237E+01 -0.11566348844E+02 -0.69682225063E+01  0.13580162162E+02  0.00000000000E+00 0.  1.
</event>
<event>
 7    1  0.1813014E-010  0.4778727E+02  0.7816164E-02  0.1312668E+00
        -11   -1    0    0    0    0  0.00000000000E+00  0.00000000000E+00  0.45593999997E+02  0.45594000000E+02  0.51100000000E-03 0. -1.
         11   -1    0    0    0    0 -0.00000000000E+00 -0.00000000000E+00 -0.45593999997E+02  0.45594000000E+02  0.51100000000E-03 0.  1.
    9900012    2    1    2    0    0  0.40592187794E+02  0.54414330759E+01 -0.14362737304E+02  0.47787272740E+02  0.20000007732E+02 0.  0.
         12    1    1    2    0    0 -0.40592187794E+02 -0.54414330759E+01  0.14362737304E+02  0.43400727260E+02  0.00000000000E+00 0. -1.
         11    1    3    3    0    0  0.54095937877E+01 -0.83142654083E+00  0.26194561811E+01  0.60676623165E+01  0.51100000000E-03 0. -1.
        -11    1    3    3    0    0  0.30342351857E+02  0.19569073932E+01 -0.95809287240E+01  0.31879178130E+02  0.51100000000E-03 0.  1.
         12    1    3    3    0    0  0.48402421486E+01  0.43159522236E+01 -0.74012647614E+01  0.98404322934E+01  0.00000000000E+00 0. -1.
</event>
<event>
 7    1  0.1813014E-010  0.4778727E+02  0.7816164E-02  0.1312668E+00
        -11   -1    0    0    0    0  0.00000000000E+00  0.00000000000E+00  0.45593999997E+02  0.45594000000E+02  0.51100000000E-03 0.  1.
         11   -1    0    0    0    0 -0.00000000000E+00 -0.00000000000E+00 -0.45593999997E+02  0.45594000000E+02  0.51100000000E-03 0. -1.
    9900012    2    1    2    0    0 -0.11542848910E+02  0.32567612362E+02  0.26262838610E+02  0.47787269271E+02  0.19999991916E+02 0.  0.
         12    1    1    2    0    0  0.11542848910E+02 -0.32567612362E+02 -0.26262838610E+02  0.43400730729E+02  0.00000000000E+00 0. -1.
         11    1    3    3    0    0 -0.73485041705E+01  0.17838652949E+02  0.20284992796E+02  0.27994624227E+02  0.51100000000E-03 0.  1.
        -11    1    3    3    0    0 -0.13387889194E+01  0.98038091589E+01  0.89750046540E+01  0.13358807529E+02  0.51100000000E-03 0. -1.
         12    1    3    3    0    0 -0.28555558204E+01  0.49251502538E+01 -0.29971588402E+01  0.64338375158E+01  0.00000000000E+00 0. -1.
</event>
<event>
 7    1  0.1813014E-010  0.4778727E+02  0.7816164E-02  0.1312668E+00
        -11   -1    0    0    0    0  0.00000000000E+00  0.00000000000E+00  0.45593999997E+02  0.45594000000E+02  0.51100000000E-03 0.  1.
         11   -1    0    0    0    0 -0.00000000000E+00 -0.00000000000E+00 -0.45593999997E+02  0.45594000000E+02  0.51100000000E-03 0. -1.
    9900012    2    1    2    0    0 -0.14231880128E+01  0.43347412018E+02  0.16124064181E+01  0.47787269048E+02  0.19999990895E+02 0.  0.
         12    1    1    2    0    0  0.14231880128E+01 -0.43347412018E+02 -0.16124064181E+01  0.43400730952E+02  0.00000000000E+00 0. -1.
         11    1    3    3    0    0  0.34788950954E+01  0.24400599483E+01  0.27984925775E+01  0.50880413327E+01  0.51100000000E-03 0. -1.
        -11    1    3    3    0    0  0.19642386206E+01  0.10745771237E+01  0.25408390436E+00  0.22533326974E+01  0.51100000000E-03 0.  1.
        -12    1    3    3    0    0 -0.68663217288E+01  0.39832774946E+02 -0.14401700637E+01  0.40445895017E+02  0.00000000000E+00 0.  1.
</event>
<event>
 7    1  0.1813014E-010  0.4778727E+02  0.7816164E-02  0.1312668E+00
        -11   -1    0    0    0    0  0.00000000000E+00  0.00000000000E+00  0.45593999997E+02  0.45594000000E+02  0.51100000000E-03 0.  1.
         11   -1    0    0    0    0 -0.00000000000E+00 -0.00000000000E+00 -0.45593999997E+02  0.45594000000E+02  0.51100000000E-03 0. -1.
    9900012    2    1    2    0    0 -0.22732610223E+01  0.35943566019E+02  0.24218080762E+02  0.47787273166E+02  0.20000009675E+02 0.  0.
         12    1    1    2    0    0  0.22732610223E+01 -0.35943566019E+02 -0.24218080762E+02  0.43400726834E+02  0.00000000000E+00 0. -1.
         11    1    3    3    0    0 -0.51031576036E+01  0.72497482978E+01  0.51359159420E+00  0.88805880715E+01  0.51100000000E-03 0. -1.
        -11    1    3    3    0    0 -0.18225747860E+01  0.12414813209E+02  0.15924031534E+02  0.20273730452E+02  0.51100000000E-03 0.  1.
         12    1    3    3    0    0  0.46524713673E+01  0.16279004512E+02  0.77804576336E+01  0.18632954643E+02  0.00000000000E+00 0. -1.
</event>
<event>
 7    1  0.1813014E-010  0.4778727E+02  0.7816164E-02  0.1312668E+00
        -11   -1    0    0    0    0  0.00000000000E+00  0.00000000000E+00  0.45593999997E+02  0.45594000000E+02  0.51100000000E-03 0. -1.
         11   -1    0    0    0    0 -0.00000000000E+00 -0.00000000000E+00 -0.45593999997E+02  0.45594000000E+02  0.51100000000E-03 0.  1.
    9900012    2    1    2    0    0  0.42997067665E+02 -0.47974135056E+01  0.34438939152E+01  0.47787269483E+02  0.19999992881E+02 0.  0.
         12    1    1    2    0    0 -0.42997067665E+02  0.47974135056E+01 -0.34438939152E+01  0.43400730517E+02  0.00000000000E+00 0. -1.
         11    1    3    3    0    0  0.13115375482E+02 -0.20303373827E+01 -0.43631895066E+01  0.13970424719E+02  0.51100000000E-03 0. -1.
        -11    1    3    3    0    0  0.97912750439E+01  0.10699641256E+01 -0.34914821893E+01  0.10450087959E+02  0.51100000000E-03 0.  1.
         12    1    3    3    0    0  0.20090417139E+02 -0.38370402485E+01  0.11298565611E+02  0.23366756804E+02  0.00000000000E+00 0. -1.
</event>
<event>
 7    1  0.1813014E-010  0.4778727E+02  0.7816164E-02  0.1312668E+00
        -11   -1    0    0    0    0  0.00000000000E+00  0.00000000000E+00  0.45593999997E+02  0.45594000000E+02  0.51100000000E-03 0. -1.
         11   -1    0    0    0    0 -0.00000000000E+00 -0.00000000000E+00 -0.45593999997E+02  0.45594000000E+02  0.51100000000E-03 0.  1.
    9900012    2    1    2    0    0 -0.25945579414E+02  0.14570025366E+02 -0.31593740431E+02  0.47787272302E+02  0.20000005733E+02 0.  0.
         12    1    1    2    0    0  0.25945579414E+02 -0.14570025366E+02  0.31593740431E+02  0.43400727698E+02  0.00000000000E+00 0. -1.
         11    1    3    3    0    0 -0.43589118951E+01  0.46850801273E+01 -0.11119702048E+02  0.12829569853E+02  0.51100000000E-03 0. -1.
        -11    1    3    3    0    0 -0.22162514624E+02  0.74611632134E+01 -0.12319987307E+02  0.26431573893E+02  0.51100000000E-03 0.  1.
        -12    1    3    3    0    0  0.57584710548E+00  0.24237820251E+01 -0.81540510762E+01  0.85261285556E+01  0.00000000000E+00 0.  1.
</event>
<event>
 7    1  0.1813014E-010  0.4778728E+02  0.7816164E-02  0.1312668E+00
        -11   -1    0    0    0    0  0.00000000000E+00  0.00000000000E+00  0.45593999997E+02  0.45594000000E+02  0.51100000000E-03 0.  1.
         11   -1    0    0    0    0 -0.00000000000E+00 -0.00000000000E+00 -0.45593999997E+02  0.45594000000E+02  0.51100000000E-03 0. -1.
    9900012    2    1    2    0    0  0.25063638542E+02 -0.33752633647E+02 -0.10779453320E+02  0.47787275709E+02  0.20000021269E+02 0.  0.
         12    1    1    2    0    0 -0.25063638542E+02  0.33752633647E+02  0.10779453320E+02  0.43400724291E+02  0.00000000000E+00 0. -1.
         11    1    3    3    0    0  0.35864441132E+01 -0.16662064499E+01 -0.59858923904E+01  0.71742409551E+01  0.51100000000E-03 0. -1.
        -11    1    3    3    0    0  0.74297967287E+01 -0.20206790178E+02 -0.54344727131E+01  0.22204723431E+02  0.51100000000E-03 0.  1.
        -12    1    3    3    0    0  0.14047397700E+02 -0.11879637019E+02  0.64091178332E+00  0.18408311323E+02  0.00000000000E+00 0.  1.
</event>
<event>
 7    1  0.1813014E-010  0.4778727E+02  0.7816164E-02  0.1312668E+00
        -11   -1    0    0    0    0  0.00000000000E+00  0.00000000000E+00  0.45593999997E+02  0.45594000000E+02  0.51100000000E-03 0.  1.
         11   -1    0    0    0    0 -0.00000000000E+00 -0.00000000000E+00 -0.45593999997E+02  0.45594000000E+02  0.51100000000E-03 0. -1.
    9900012    2    1    2    0    0  0.16153911730E+02  0.35918706036E+02  0.18235164310E+02  0.47787268152E+02  0.19999986813E+02 0.  0.
         12    1    1    2    0    0 -0.16153911730E+02 -0.35918706036E+02 -0.18235164310E+02  0.43400731848E+02  0.00000000000E+00 0. -1.
         11    1    3    3    0    0 -0.25413499598E+01  0.13550225281E+02  0.42783320846E+01  0.14435068080E+02  0.51100000000E-03 0. -1.
        -11    1    3    3    0    0  0.66394314020E+01  0.47217065158E+01  0.64270453335E+00  0.81724923458E+01  0.51100000000E-03 0.  1.
        -12    1    3    3    0    0  0.12055830288E+02  0.17646774240E+02  0.13314127692E+02  0.25179707727E+02  0.00000000000E+00 0.  1.
</event>
<event>
 7    1  0.2408976E-010  0.4778727E+02  0.7816164E-02  0.1312668E+00
        -11   -1    0    0    0    0  0.00000000000E+00  0.00000000000E+00  0.45593999997E+02  0.45594000000E+02  0.51100000000E-03 0.  1.
         11   -1    0    0    0    0 -0.00000000000E+00 -0.00000000000E+00 -0.45593999997E+02  0.45594000000E+02  0.51100000000E-03 0. -1.
    9900012    2    1    2    0    0  0.15544222663E+02  0.26618391757E+02  0.30552602119E+02  0.47787272654E+02  0.20000007338E+02 0.  0.
         12    1    1    2    0    0 -0.15544222663E+02 -0.26618391757E+02 -0.30552602119E+02  0.43400727346E+02  0.00000000000E+00 0. -1.
         11    1    3    3    0    0  0.10568870427E+01  0.72515185515E+01  0.19185883149E+02  0.20537761416E+02  0.51100000000E-03 0. -1.
        -11    1    3    3    0    0  0.55224965817E+01  0.10593309470E+02  0.75738695248E+01  0.14144952240E+02  0.51100000000E-03 0.  1.
         12    1    3    3    0    0  0.89648390389E+01  0.87735637360E+01  0.37928494446E+01  0.13104558998E+02  0.00000000000E+00 0. -1.
</event>
<event>
 7    1  0.1813014E-010  0.4778727E+02  0.7816164E-02  0.1312668E+00
        -11   -1    0    0    0    0  0.00000000000E+00  0.00000000000E+00  0.45593999997E+02  0.45594000000E+02  0.51100000000E-03 0.  1.
         11   -1    0    0    0    0 -0.00000000000E+00 -0.00000000000E+00 -0.45593999997E+02  0.45594000000E+02  0.51100000000E-03 0. -1.
    9900012    2    1    2    0    0  0.38548438724E+02 -0.19835770241E+02 -0.20452951880E+01  0.47787272569E+02  0.20000006953E+02 0.  0.
         12    1    1    2    0    0 -0.38548438724E+02  0.19835770241E+02  0.20452951880E+01  0.43400727431E+02  0.00000000000E+00 0. -1.
         11    1    3    3    0    0 -0.11557241586E+01 -0.34332048225E+01 -0.86945654100E+00  0.37253924118E+01  0.51100000000E-03 0. -1.
        -11    1    3    3    0    0  0.62371002240E+00 -0.22032622419E+01  0.82441220433E+00  0.24337285063E+01  0.51100000000E-03 0.  1.
        -12    1    3    3    0    0  0.39080452860E+02 -0.14199303177E+02 -0.20002508513E+01  0.41628151651E+02  0.00000000000E+00 0.  1.
</event>
<event>
 7    1  0.1813014E-010  0.4778727E+02  0.7816164E-02  0.1312668E+00
        -11   -1    0    0    0    0  0.00000000000E+00  0.00000000000E+00  0.45593999997E+02  0.45594000000E+02  0.51100000000E-03 0.  1.
         11   -1    0    0    0    0 -0.00000000000E+00 -0.00000000000E+00 -0.45593999997E+02  0.45594000000E+02  0.51100000000E-03 0. -1.
    9900012    2    1    2    0    0 -0.72620513880E+01  0.12959816575E+02  0.40779024185E+02  0.47787273630E+02  0.20000011787E+02 0.  0.
         12    1    1    2    0    0  0.72620513880E+01 -0.12959816575E+02 -0.40779024185E+02  0.43400726370E+02  0.00000000000E+00 0. -1.
         11    1    3    3    0    0 -0.26289749174E+01  0.52284819110E+01  0.15472830411E+02  0.16542581824E+02  0.51100000000E-03 0. -1.
        -11    1    3    3    0    0  0.20224742897E+01  0.94296073153E+01  0.21076220256E+02  0.23177898026E+02  0.51100000000E-03 0.  1.
         12    1    3    3    0    0 -0.66555507603E+01 -0.16982726516E+01  0.42299735181E+01  0.80667937798E+01  0.00000000000E+00 0. -1.
</event>
<event>
 7    1  0.1813014E-010  0.4778726E+02  0.7816164E-02  0.1312668E+00
        -11   -1    0    0    0    0  0.00000000000E+00  0.00000000000E+00  0.45593999997E+02  0.45594000000E+02  0.51100000000E-03 0.  1.
         11   -1    0    0    0    0 -0.00000000000E+00 -0.00000000000E+00 -0.45593999997E+02  0.45594000000E+02  0.51100000000E-03 0. -1.
    9900012    2    1    2    0    0  0.64763053602E+01  0.41579770666E+02  0.10620926912E+02  0.47787263275E+02  0.19999964578E+02 0.  0.
         12    1    1    2    0    0 -0.64763053602E+01 -0.41579770666E+02 -0.10620926912E+02  0.43400736725E+02  0.00000000000E+00 0. -1.
         11    1    3    3    0    0  0.82292032136E+01  0.98492414213E+01  0.22819568490E+01  0.13035899257E+02  0.51100000000E-03 0. -1.
        -11    1    3    3    0    0  0.55172695545E+00  0.23805825655E+02  0.10788971840E+02  0.26142372719E+02  0.51100000000E-03 0.  1.
         12    1    3    3    0    0 -0.23046248089E+01  0.79247035901E+01 -0.24500017765E+01  0.86089913002E+01  0.00000000000E+00 0. -1.
</event>
<event>
 7    1  0.1813014E-010  0.4778728E+02  0.7816164E-02  0.1312668E+00
        -11   -1    0    0    0    0  0.00000000000E+00  0.00000000000E+00  0.45593999997E+02  0.45594000000E+02  0.51100000000E-03 0.  1.
         11   -1    0    0    0    0 -0.00000000000E+00 -0.00000000000E+00 -0.45593999997E+02  0.45594000000E+02  0.51100000000E-03 0. -1.
    9900012    2    1    2    0    0 -0.31529171458E+02  0.78388019480E+01  0.28776507330E+02  0.47787276009E+02  0.20000022637E+02 0.  0.
         12    1    1    2    0    0  0.31529171458E+02 -0.78388019480E+01 -0.28776507330E+02  0.43400723991E+02  0.00000000000E+00 0. -1.
         11    1    3    3    0    0  0.17167254039E+01  0.41019581405E+00  0.70147109651E+00  0.18993337460E+01  0.51100000000E-03 0. -1.
        -11    1    3    3    0    0 -0.17344577038E+02  0.17143810103E+01  0.21689840755E+02  0.27824856641E+02  0.51100000000E-03 0.  1.
        -12    1    3    3    0    0 -0.15901319823E+02  0.57142251237E+01  0.63851954786E+01  0.18063085622E+02  0.00000000000E+00 0.  1.
</event>
<event>
 7    1  0.1813014E-010  0.4778727E+02  0.7816164E-02  0.1312668E+00
        -11   -1    0    0    0    0  0.00000000000E+00  0.00000000000E+00  0.45593999997E+02  0.45594000000E+02  0.51100000000E-03 0.  1.
         11   -1    0    0    0    0 -0.00000000000E+00 -0.00000000000E+00 -0.45593999997E+02  0.45594000000E+02  0.51100000000E-03 0. -1.
    9900012    2    1    2    0    0 -0.19358638334E+02  0.35133197036E+02  0.16568788793E+02  0.47787272193E+02  0.20000005235E+02 0.  0.
         12    1    1    2    0    0  0.19358638334E+02 -0.35133197036E+02 -0.16568788793E+02  0.43400727807E+02  0.00000000000E+00 0. -1.
         11    1    3    3    0    0 -0.39191910090E+01  0.10115785898E+02 -0.28307006911E+01  0.11211692520E+02  0.51100000000E-03 0. -1.
        -11    1    3    3    0    0 -0.10853293030E+02  0.90023576679E+01  0.66088613237E+01  0.15572843717E+02  0.51100000000E-03 0.  1.
        -12    1    3    3    0    0 -0.45861542948E+01  0.16015053471E+02  0.12790628161E+02  0.21002735956E+02  0.00000000000E+00 0.  1.
</event>
<event>
 7    1  0.1813014E-010  0.4778727E+02  0.7816164E-02  0.1312668E+00
        -11   -1    0    0    0    0  0.00000000000E+00  0.00000000000E+00  0.45593999997E+02  0.45594000000E+02  0.51100000000E-03 0. -1.
         11   -1    0    0    0    0 -0.00000000000E+00 -0.00000000000E+00 -0.45593999997E+02  0.45594000000E+02  0.51100000000E-03 0.  1.
    9900012    2    1    2    0    0 -0.23726893732E+02  0.29953866446E+02 -0.20577262993E+02  0.47787270128E+02  0.19999995820E+02 0.  0.
         12    1    1    2    0    0  0.23726893732E+02 -0.29953866446E+02  0.20577262993E+02  0.43400729872E+02  0.00000000000E+00 0. -1.
         11    1    3    3    0    0 -0.32374283375E+00 -0.24385479340E+00 -0.51916747206E+01  0.52074716752E+01  0.51100000000E-03 0. -1.
        -11    1    3    3    0    0 -0.98145505816E+00  0.26178856292E+01  0.15615294534E+01  0.32023356623E+01  0.51100000000E-03 0.  1.
        -12    1    3    3    0    0 -0.22421695840E+02  0.27579835610E+02 -0.16947117726E+02  0.39377462790E+02  0.00000000000E+00 0.  1.
</event>
<event>
 7    1  0.1813014E-010  0.4778727E+02  0.7816164E-02  0.1312668E+00
        -11   -1    0    0    0    0  0.00000000000E+00  0.00000000000E+00  0.45593999997E+02  0.45594000000E+02  0.51100000000E-03 0.  1.
         11   -1    0    0    0    0 -0.00000000000E+00 -0.00000000000E+00 -0.45593999997E+02  0.45594000000E+02  0.51100000000E-03 0. -1.
    9900012    2    1    2    0    0  0.10203085671E+00 -0.38495703307E+02  0.20042301196E+02  0.47787269354E+02  0.19999992293E+02 0.  0.
         12    1    1    2    0    0 -0.10203085671E+00  0.38495703307E+02 -0.20042301196E+02  0.43400730646E+02  0.00000000000E+00 0. -1.
         11    1    3    3    0    0 -0.50346809383E+01 -0.26488206414E+02  0.20490072452E+02  0.33864674227E+02  0.51100000000E-03 0. -1.
        -11    1    3    3    0    0  0.13238567950E+01 -0.88945693892E+01 -0.35268460740E+00  0.89994637688E+01  0.51100000000E-03 0.  1.
        -12    1    3    3    0    0  0.38128550000E+01 -0.31129275038E+01 -0.95086649125E-01  0.49231313578E+01  0.00000000000E+00 0.  1.
</event>
<event>
 7    1  0.1813014E-010  0.4778727E+02  0.7816164E-02  0.1312668E+00
        -11   -1    0    0    0    0  0.00000000000E+00  0.00000000000E+00  0.45593999997E+02  0.45594000000E+02  0.51100000000E-03 0.  1.
         11   -1    0    0    0    0 -0.00000000000E+00 -0.00000000000E+00 -0.45593999997E+02  0.45594000000E+02  0.51100000000E-03 0. -1.
    9900012    2    1    2    0    0  0.34633634750E+02  0.75883981362E+01  0.25031004831E+02  0.47787266767E+02  0.19999980500E+02 0.  0.
         12    1    1    2    0    0 -0.34633634750E+02 -0.75883981362E+01 -0.25031004831E+02  0.43400733233E+02  0.00000000000E+00 0. -1.
         11    1    3    3    0    0  0.25015415602E+01  0.46550560108E+01  0.18920989675E+01  0.56131359688E+01  0.51100000000E-03 0. -1.
        -11    1    3    3    0    0  0.28716458081E+02 -0.22536597249E+01  0.17029019626E+02  0.33461940418E+02  0.51100000000E-03 0.  1.
        -12    1    3    3    0    0  0.34156351093E+01  0.51870018503E+01  0.61098862373E+01  0.87121903805E+01  0.00000000000E+00 0.  1.
</event>
<event>
 7    1  0.1813014E-010  0.4778728E+02  0.7816164E-02  0.1312668E+00
        -11   -1    0    0    0    0  0.00000000000E+00  0.00000000000E+00  0.45593999997E+02  0.45594000000E+02  0.51100000000E-03 0. -1.
         11   -1    0    0    0    0 -0.00000000000E+00 -0.00000000000E+00 -0.45593999997E+02  0.45594000000E+02  0.51100000000E-03 0.  1.
    9900012    2    1    2    0    0 -0.39317161712E+02 -0.18248190498E+02 -0.21879747852E+01  0.47787275407E+02  0.20000019892E+02 0.  0.
         12    1    1    2    0    0  0.39317161712E+02  0.18248190498E+02  0.21879747852E+01  0.43400724593E+02  0.00000000000E+00 0. -1.
         11    1    3    3    0    0 -0.18689600345E+02 -0.11565258327E+02  0.10664702267E+01  0.22004402292E+02  0.51100000000E-03 0. -1.
        -11    1    3    3    0    0 -0.21785389451E+02 -0.71100447698E+01 -0.67822025338E+00  0.22926314862E+02  0.51100000000E-03 0.  1.
         12    1    3    3    0    0  0.11578280849E+01  0.42711259911E+00 -0.25762247586E+01  0.28565582531E+01  0.00000000000E+00 0. -1.
</event>
<event>
 7    1  0.1813014E-010  0.4778727E+02  0.7816164E-02  0.1312668E+00
        -11   -1    0    0    0    0  0.00000000000E+00  0.00000000000E+00  0.45593999997E+02  0.45594000000E+02  0.51100000000E-03 0. -1.
         11   -1    0    0    0    0 -0.00000000000E+00 -0.00000000000E+00 -0.45593999997E+02  0.45594000000E+02  0.51100000000E-03 0.  1.
    9900012    2    1    2    0    0  0.14489810484E+02 -0.39184585131E+02  0.11757424663E+02  0.47787270116E+02  0.19999995766E+02 0.  0.
         12    1    1    2    0    0 -0.14489810484E+02  0.39184585131E+02 -0.11757424663E+02  0.43400729884E+02  0.00000000000E+00 0. -1.
         11    1    3    3    0    0  0.10001293041E+01 -0.32381597724E+01 -0.43002766607E+01  0.54752458353E+01  0.51100000000E-03 0. -1.
        -11    1    3    3    0    0  0.19608514234E+01 -0.14664693092E+02  0.78878566086E+01  0.16766527486E+02  0.51100000000E-03 0.  1.
         12    1    3    3    0    0  0.11528829757E+02 -0.21281732267E+02  0.81698447151E+01  0.25545496795E+02  0.00000000000E+00 0. -1.
</event>
<event>
 7    1  0.1813014E-010  0.4778727E+02  0.7816164E-02  0.1312668E+00
        -11   -1    0    0    0    0  0.00000000000E+00  0.00000000000E+00  0.45593999997E+02  0.45594000000E+02  0.51100000000E-03 0.  1.
         11   -1    0    0    0    0 -0.00000000000E+00 -0.00000000000E+00 -0.45593999997E+02  0.45594000000E+02  0.51100000000E-03 0. -1.
    9900012    2    1    2    0    0  0.16006922022E+02 -0.32022511797E+02  0.24534879202E+02  0.47787272911E+02  0.20000008509E+02 0.  0.
         12    1    1    2    0    0 -0.16006922022E+02  0.32022511797E+02 -0.24534879202E+02  0.43400727089E+02  0.00000000000E+00 0. -1.
         11    1    3    3    0    0  0.37352936632E+00 -0.39854154523E+01 -0.29298420935E+01  0.49605479001E+01  0.51100000000E-03 0. -1.
        -11    1    3    3    0    0  0.83160236650E+01 -0.13876804211E+02  0.93004437941E+01  0.18660659145E+02  0.51100000000E-03 0.  1.
         12    1    3    3    0    0  0.73173689911E+01 -0.14160292133E+02  0.18164277501E+02  0.24166065865E+02  0.00000000000E+00 0. -1.
</event>
<event>
 7    1  0.1813014E-010  0.4778728E+02  0.7816164E-02  0.1312668E+00
        -11   -1    0    0    0    0  0.00000000000E+00  0.00000000000E+00  0.45593999997E+02  0.45594000000E+02  0.51100000000E-03 0.  1.
         11   -1    0    0    0    0 -0.00000000000E+00 -0.00000000000E+00 -0.45593999997E+02  0.45594000000E+02  0.51100000000E-03 0. -1.
    9900012    2    1    2    0    0  0.90748627960E+01  0.15309127490E+02  0.39584090803E+02  0.47787276919E+02  0.20000026786E+02 0.  0.
         12    1    1    2    0    0 -0.90748627960E+01 -0.15309127490E+02 -0.39584090803E+02  0.43400723081E+02  0.00000000000E+00 0. -1.
         11    1    3    3    0    0 -0.11818088341E+01  0.11480878502E+02  0.13099387599E+02  0.17458556613E+02  0.51100000000E-03 0. -1.
        -11    1    3    3    0    0  0.52442583857E+01  0.43457808475E+01  0.23511005312E+02  0.24477651608E+02  0.51100000000E-03 0.  1.
         12    1    3    3    0    0  0.50124132444E+01 -0.51753185949E+00  0.29736978914E+01  0.58510686979E+01  0.00000000000E+00 0. -1.
</event>
<event>
 7    1  0.2166260E-010  0.4778727E+02  0.7816164E-02  0.1312668E+00
        -11   -1    0    0    0    0  0.00000000000E+00  0.00000000000E+00  0.45593999997E+02  0.45594000000E+02  0.51100000000E-03 0.  1.
         11   -1    0    0    0    0 -0.00000000000E+00 -0.00000000000E+00 -0.45593999997E+02  0.45594000000E+02  0.51100000000E-03 0. -1.
    9900012    2    1    2    0    0  0.10050158789E+02  0.41977639563E+02 -0.45271833230E+01  0.47787270700E+02  0.19999998429E+02 0.  0.
         12    1    1    2    0    0 -0.10050158789E+02 -0.41977639563E+02  0.45271833230E+01  0.43400729300E+02  0.00000000000E+00 0. -1.
         11    1    3    3    0    0  0.24734336884E+01  0.21492142639E+01  0.33156436367E+01  0.46615972745E+01  0.51100000000E-03 0. -1.
        -11    1    3    3    0    0  0.96700704565E+01  0.33792976018E+02 -0.33350762449E+01  0.35307197915E+02  0.51100000000E-03 0.  1.
         12    1    3    3    0    0 -0.20933453556E+01  0.60354492807E+01 -0.45077507149E+01  0.78184755103E+01  0.00000000000E+00 0. -1.
</event>
<event>
 7    1  0.1813014E-010  0.4778724E+02  0.7816164E-02  0.1312668E+00
        -11   -1    0    0    0    0  0.00000000000E+00  0.00000000000E+00  0.45593999997E+02  0.45594000000E+02  0.51100000000E-03 0.  1.
         11   -1    0    0    0    0 -0.00000000000E+00 -0.00000000000E+00 -0.45593999997E+02  0.45594000000E+02  0.51100000000E-03 0. -1.
    9900012    2    1    2    0    0  0.40163987956E+02 -0.12293910183E+02  0.10924259788E+02  0.47787244153E+02  0.19999877393E+02 0.  0.
         12    1    1    2    0    0 -0.40163987956E+02  0.12293910183E+02 -0.10924259788E+02  0.43400755847E+02  0.00000000000E+00 0. -1.
         11    1    3    3    0    0  0.43062045704E+01  0.16552630646E+01 -0.10361103507E+01  0.47282997510E+01  0.51100000000E-03 0. -1.
        -11    1    3    3    0    0  0.33921468466E+02 -0.10895586575E+02  0.14680393041E+02  0.38534319377E+02  0.51100000000E-03 0.  1.
        -12    1    3    3    0    0  0.19363149197E+01 -0.30535866725E+01 -0.27200229025E+01  0.45246250259E+01  0.00000000000E+00 0.  1.
</event>
<event>
 7    1  0.1813014E-010  0.4778727E+02  0.7816164E-02  0.1312668E+00
        -11   -1    0    0    0    0  0.00000000000E+00  0.00000000000E+00  0.45593999997E+02  0.45594000000E+02  0.51100000000E-03 0.  1.
         11   -1    0    0    0    0 -0.00000000000E+00 -0.00000000000E+00 -0.45593999997E+02  0.45594000000E+02  0.51100000000E-03 0. -1.
    9900012    2    1    2    0    0  0.42903037377E+00  0.24882899223E+02  0.35556722419E+02  0.47787271320E+02  0.20000001254E+02 0.  0.
         12    1    1    2    0    0 -0.42903037377E+00 -0.24882899223E+02 -0.35556722419E+02  0.43400728680E+02  0.00000000000E+00 0. -1.
         11    1    3    3    0    0 -0.53091327544E+01  0.29403594739E+01  0.42596198485E+01  0.74146453694E+01  0.51100000000E-03 0. -1.
        -11    1    3    3    0    0  0.60957051265E+01  0.36143668722E+01  0.10253226464E+02  0.12463944883E+02  0.51100000000E-03 0.  1.
        -12    1    3    3    0    0 -0.35754199831E+00  0.18328172877E+02  0.21043876107E+02  0.27908681067E+02  0.00000000000E+00 0.  1.
</event>
<event>
 7    1  0.1813014E-010  0.4778728E+02  0.7816164E-02  0.1312668E+00
        -11   -1    0    0    0    0  0.00000000000E+00  0.00000000000E+00  0.45593999997E+02  0.45594000000E+02  0.51100000000E-03 0.  1.
         11   -1    0    0    0    0 -0.00000000000E+00 -0.00000000000E+00 -0.45593999997E+02  0.45594000000E+02  0.51100000000E-03 0. -1.
    9900012    2    1    2    0    0  0.18254973300E+02 -0.29774041332E+02  0.25765962778E+02  0.47787280820E+02  0.20000044571E+02 0.  0.
         12    1    1    2    0    0 -0.18254973300E+02  0.29774041332E+02 -0.25765962778E+02  0.43400719180E+02  0.00000000000E+00 0. -1.
         11    1    3    3    0    0  0.63617709880E+01 -0.11775675651E+01  0.16461938670E+01  0.66759830724E+01  0.51100000000E-03 0. -1.
        -11    1    3    3    0    0  0.59898523563E+01 -0.30890289804E+01  0.75802479031E+01  0.10143006942E+02  0.51100000000E-03 0.  1.
        -12    1    3    3    0    0  0.59033499554E+01 -0.25507444787E+02  0.16539521008E+02  0.30968290806E+02  0.00000000000E+00 0.  1.
</event>
<event>
 7    1  0.1813014E-010  0.4778727E+02  0.7816164E-02  0.1312668E+00
        -11   -1    0    0    0    0  0.00000000000E+00  0.00000000000E+00  0.45593999997E+02  0.45594000000E+02  0.51100000000E-03 0.  1.
         11   -1    0    0    0    0 -0.00000000000E+00 -0.00000000000E+00 -0.45593999997E+02  0.45594000000E+02  0.51100000000E-03 0. -1.
    9900012    2    1    2    0    0 -0.22351855329E+02  0.17880071792E+02  0.32623927453E+02  0.47787273665E+02  0.20000011948E+02 0.  0.
         12    1    1    2    0    0  0.22351855329E+02 -0.17880071792E+02 -0.32623927453E+02  0.43400726335E+02  0.00000000000E+00 0. -1.
         11    1    3    3    0    0 -0.31682954224E+01  0.29755683632E+01  0.40601920794E+01  0.59478788614E+01  0.51100000000E-03 0.  1.
        -11    1    3    3    0    0 -0.51377936354E+01 -0.23159428039E+01 -0.17414066751E-01  0.56356736973E+01  0.51100000000E-03 0. -1.
         12    1    3    3    0    0 -0.14045766271E+02  0.17220446233E+02  0.28581149441E+02  0.36203721106E+02  0.00000000000E+00 0. -1.
</event>
<event>
 7    1  0.1813014E-010  0.4778727E+02  0.7816164E-02  0.1312668E+00
        -11   -1    0    0    0    0  0.00000000000E+00  0.00000000000E+00  0.45593999997E+02  0.45594000000E+02  0.51100000000E-03 0. -1.
         11   -1    0    0    0    0 -0.00000000000E+00 -0.00000000000E+00 -0.45593999997E+02  0.45594000000E+02  0.51100000000E-03 0.  1.
    9900012    2    1    2    0    0  0.30655041252E+02 -0.10287163495E+02 -0.28949374413E+02  0.47787267681E+02  0.19999984663E+02 0.  0.
         12    1    1    2    0    0 -0.30655041252E+02  0.10287163495E+02  0.28949374413E+02  0.43400732319E+02  0.00000000000E+00 0. -1.
         11    1    3    3    0    0  0.11160712135E+02 -0.12121207567E+02 -0.78312309152E+01  0.18243172590E+02  0.51100000000E-03 0. -1.
        -11    1    3    3    0    0  0.43999700392E+01 -0.16227486948E-02 -0.92916406720E+01  0.10280774563E+02  0.51100000000E-03 0.  1.
         12    1    3    3    0    0  0.15094359078E+02  0.18356668210E+01 -0.11826502826E+02  0.19263320527E+02  0.00000000000E+00 0. -1.
</event>
<event>
 7    1  0.1813014E-010  0.4778727E+02  0.7816164E-02  0.1312668E+00
        -11   -1    0    0    0    0  0.00000000000E+00  0.00000000000E+00  0.45593999997E+02  0.45594000000E+02  0.51100000000E-03 0.  1.
         11   -1    0    0    0    0 -0.00000000000E+00 -0.00000000000E+00 -0.45593999997E+02  0.45594000000E+02  0.51100000000E-03 0. -1.
    9900012    2    1    2    0    0 -0.38749740946E+01  0.20703838059E+02  0.37946790503E+02  0.47787271388E+02  0.20000001567E+02 0.  0.
         12    1    1    2    0    0  0.38749740946E+01 -0.20703838059E+02 -0.37946790503E+02  0.43400728612E+02  0.00000000000E+00 0. -1.
         11    1    3    3    0    0  0.22976058198E+01  0.11826300031E+01 -0.53416394996E-01  0.25846585461E+01  0.51100000000E-03 0. -1.
        -11    1    3    3    0    0 -0.76889630277E+01  0.14297852012E+02  0.16987201789E+02  0.23497100874E+02  0.51100000000E-03 0.  1.
        -12    1    3    3    0    0  0.15163831133E+01  0.52233560434E+01  0.21013005109E+02  0.21705511968E+02  0.00000000000E+00 0.  1.
</event>
<event>
 7    1  0.1813014E-010  0.4778728E+02  0.7816164E-02  0.1312668E+00
        -11   -1    0    0    0    0  0.00000000000E+00  0.00000000000E+00  0.45593999997E+02  0.45594000000E+02  0.51100000000E-03 0. -1.
         11   -1    0    0    0    0 -0.00000000000E+00 -0.00000000000E+00 -0.45593999997E+02  0.45594000000E+02  0.51100000000E-03 0.  1.
    9900012    2    1    2    0    0 -0.34895054578E+02  0.12853100013E+01 -0.25774126450E+02  0.47787280535E+02  0.20000043270E+02 0.  0.
         12    1    1    2    0    0  0.34895054578E+02 -0.12853100013E+01  0.25774126450E+02  0.43400719465E+02  0.00000000000E+00 0. -1.
         11    1    3    3    0    0 -0.86639207508E+01 -0.35709169573E+01 -0.27158663636E+01  0.97565824476E+01  0.51100000000E-03 0. -1.
        -11    1    3    3    0    0 -0.15107318096E+02 -0.82682243885E+00 -0.20162563357E+02  0.25208007790E+02  0.51100000000E-03 0.  1.
        -12    1    3    3    0    0 -0.11123815732E+02  0.56830493975E+01 -0.28956967303E+01  0.12822690297E+02  0.00000000000E+00 0.  1.
</event>
<event>
 7    1  0.1813014E-010  0.4778727E+02  0.7816164E-02  0.1312668E+00
        -11   -1    0    0    0    0  0.00000000000E+00  0.00000000000E+00  0.45593999997E+02  0.45594000000E+02  0.51100000000E-03 0.  1.
         11   -1    0    0    0    0 -0.00000000000E+00 -0.00000000000E+00 -0.45593999997E+02  0.45594000000E+02  0.51100000000E-03 0. -1.
    9900012    2    1    2    0    0 -0.11671756879E+02 -0.41218011296E+02  0.69619689263E+01  0.47787269877E+02  0.19999994678E+02 0.  0.
         12    1    1    2    0    0  0.11671756879E+02  0.41218011296E+02 -0.69619689263E+01  0.43400730123E+02  0.00000000000E+00 0. -1.
         11    1    3    3    0    0 -0.32419916709E+01 -0.53234879003E+01 -0.25610536966E+01  0.67386222417E+01  0.51100000000E-03 0. -1.
        -11    1    3    3    0    0 -0.60614358038E+01 -0.26671946141E+02 -0.31979845598E+00  0.27353902578E+02  0.51100000000E-03 0.  1.
         12    1    3    3    0    0 -0.23683294044E+01 -0.92225772549E+01  0.98428210789E+01  0.13694745057E+02  0.00000000000E+00 0. -1.
</event>
<event>
 7    1  0.1813014E-010  0.4778725E+02  0.7816164E-02  0.1312668E+00
        -11   -1    0    0    0    0  0.00000000000E+00  0.00000000000E+00  0.45593999997E+02  0.45594000000E+02  0.51100000000E-03 0.  1.
         11   -1    0    0    0    0 -0.00000000000E+00 -0.00000000000E+00 -0.45593999997E+02  0.45594000000E+02  0.51100000000E-03 0. -1.
    9900012    2    1    2    0    0  0.20660081545E+02  0.23701678690E+02  0.29916831311E+02  0.47787247266E+02  0.19999891585E+02 0.  0.
         12    1    1    2    0    0 -0.20660081545E+02 -0.23701678690E+02 -0.29916831311E+02  0.43400752734E+02  0.00000000000E+00 0. -1.
         11    1    3    3    0    0  0.20756388040E+01  0.43215350483E+01  0.10054037024E+02  0.11138563747E+02  0.51100000000E-03 0.  1.
        -11    1    3    3    0    0 -0.20802039414E+01 -0.11077312661E+00  0.28744692612E+01  0.35499426640E+01  0.51100000000E-03 0. -1.
        -12    1    3    3    0    0  0.20664646683E+02  0.19490916768E+02  0.16988325026E+02  0.33098740855E+02  0.00000000000E+00 0.  1.
</event>
<event>
 7    1  0.1813014E-010  0.4778727E+02  0.7816164E-02  0.1312668E+00
        -11   -1    0    0    0    0  0.00000000000E+00  0.00000000000E+00  0.45593999997E+02  0.45594000000E+02  0.51100000000E-03 0.  1.
         11   -1    0    0    0    0 -0.00000000000E+00 -0.00000000000E+00 -0.45593999997E+02  0.45594000000E+02  0.51100000000E-03 0. -1.
    9900012    2    1    2    0    0  0.50793177439E+01  0.42921312926E+02 -0.39477233281E+01  0.47787273145E+02  0.20000009579E+02 0.  0.
         12    1    1    2    0    0 -0.50793177439E+01 -0.42921312926E+02  0.39477233281E+01  0.43400726855E+02  0.00000000000E+00 0. -1.
         11    1    3    3    0    0  0.61083064190E+01  0.31827326179E+02 -0.88173143300E+01  0.33586234253E+02  0.51100000000E-03 0. -1.
        -11    1    3    3    0    0 -0.21582299120E+01  0.10862544246E+02  0.21973207670E+01  0.11290750314E+02  0.51100000000E-03 0.  1.
         12    1    3    3    0    0  0.11292412370E+01  0.23144250112E+00  0.26722702349E+01  0.29102885787E+01  0.00000000000E+00 0. -1.
</event>
<event>
 7    1  0.1813014E-010  0.4778727E+02  0.7816164E-02  0.1312668E+00
        -11   -1    0    0    0    0  0.00000000000E+00  0.00000000000E+00  0.45593999997E+02  0.45594000000E+02  0.51100000000E-03 0.  1.
         11   -1    0    0    0    0 -0.00000000000E+00 -0.00000000000E+00 -0.45593999997E+02  0.45594000000E+02  0.51100000000E-03 0. -1.
    9900012    2    1    2    0    0  0.12361425480E+02 -0.16895976151E+02  0.38017685161E+02  0.47787271493E+02  0.20000002044E+02 0.  0.
         12    1    1    2    0    0 -0.12361425480E+02  0.16895976151E+02 -0.38017685161E+02  0.43400728507E+02  0.00000000000E+00 0. -1.
         11    1    3    3    0    0  0.10092770496E+01 -0.12064303953E+02  0.70247003490E+01  0.13996874126E+02  0.51100000000E-03 0. -1.
        -11    1    3    3    0    0  0.65648288316E+01 -0.41996596400E+01  0.12965673136E+02  0.15127550985E+02  0.51100000000E-03 0.  1.
         12    1    3    3    0    0  0.47873195983E+01 -0.63201255795E+00  0.18027311675E+02  0.18662846381E+02  0.00000000000E+00 0. -1.
</event>
<event>
 7    1  0.1813014E-010  0.4778727E+02  0.7816164E-02  0.1312668E+00
        -11   -1    0    0    0    0  0.00000000000E+00  0.00000000000E+00  0.45593999997E+02  0.45594000000E+02  0.51100000000E-03 0.  1.
         11   -1    0    0    0    0 -0.00000000000E+00 -0.00000000000E+00 -0.45593999997E+02  0.45594000000E+02  0.51100000000E-03 0. -1.
    9900012    2    1    2    0    0  0.36408888302E+01  0.38509917863E+02  0.19681293350E+02  0.47787272434E+02  0.20000006336E+02 0.  0.
         12    1    1    2    0    0 -0.36408888302E+01 -0.38509917863E+02 -0.19681293350E+02  0.43400727566E+02  0.00000000000E+00 0. -1.
         11    1    3    3    0    0  0.27185745777E+01  0.57530543555E+01  0.77294540197E+01  0.10011630330E+02  0.51100000000E-03 0.  1.
        -11    1    3    3    0    0 -0.40226069687E+01  0.76910128436E+01  0.82226475397E+01  0.11955959945E+02  0.51100000000E-03 0. -1.
        -12    1    3    3    0    0  0.49449212212E+01  0.25065850664E+02  0.37291917903E+01  0.25819682160E+02  0.00000000000E+00 0.  1.
</event>
<event>
 7    1  0.1813014E-010  0.4778721E+02  0.7816164E-02  0.1312668E+00
        -11   -1    0    0    0    0  0.00000000000E+00  0.00000000000E+00  0.45593999997E+02  0.45594000000E+02  0.51100000000E-03 0. -1.
         11   -1    0    0    0    0 -0.00000000000E+00 -0.00000000000E+00 -0.45593999997E+02  0.45594000000E+02  0.51100000000E-03 0.  1.
    9900012    2    1    2    0    0  0.73324092530E+01  0.77784150265E-01 -0.42776842241E+02  0.47787210745E+02  0.19999725069E+02 0.  0.
         12    1    1    2    0    0 -0.73324092530E+01 -0.77784150265E-01  0.42776842241E+02  0.43400789255E+02  0.00000000000E+00 0. -1.
         11    1    3    3    0    0 -0.30062928220E+01  0.34039924412E+01 -0.78963694431E+01  0.91092047794E+01  0.51100000000E-03 0. -1.
        -11    1    3    3    0    0  0.76121992125E+01  0.42046850450E+01 -0.17559959344E+02  0.19595334281E+02  0.51100000000E-03 0.  1.
        -12    1    3    3    0    0  0.27265028626E+01 -0.75308933359E+01 -0.17320513454E+02  0.19082671685E+02  0.00000000000E+00 0.  1.
</event>
<event>
 7    1  0.1813014E-010  0.4778727E+02  0.7816164E-02  0.1312668E+00
        -11   -1    0    0    0    0  0.00000000000E+00  0.00000000000E+00  0.45593999997E+02  0.45594000000E+02  0.51100000000E-03 0. -1.
         11   -1    0    0    0    0 -0.00000000000E+00 -0.00000000000E+00 -0.45593999997E+02  0.45594000000E+02  0.51100000000E-03 0.  1.
    9900012    2    1    2    0    0  0.40372356713E+02  0.14624542005E+02 -0.63102338650E+01  0.47787268822E+02  0.19999989865E+02 0.  0.
         12    1    1    2    0    0 -0.40372356713E+02 -0.14624542005E+02  0.63102338650E+01  0.43400731178E+02  0.00000000000E+00 0. -1.
         11    1    3    3    0    0  0.19053883304E+02  0.12147525019E+02 -0.10755406284E+02  0.25025818621E+02  0.51100000000E-03 0. -1.
        -11    1    3    3    0    0  0.12376302225E+02  0.51713654994E+00 -0.42057546259E+00  0.12394239426E+02  0.51100000000E-03 0.  1.
        -12    1    3    3    0    0  0.89421711833E+01  0.19598804355E+01  0.48657478811E+01  0.10367210774E+02  0.00000000000E+00 0.  1.
</event>
<event>
 7    1  0.1813014E-010  0.4778728E+02  0.7816164E-02  0.1312668E+00
        -11   -1    0    0    0    0  0.00000000000E+00  0.00000000000E+00  0.45593999997E+02  0.45594000000E+02  0.51100000000E-03 0.  1.
         11   -1    0    0    0    0 -0.00000000000E+00 -0.00000000000E+00 -0.45593999997E+02  0.45594000000E+02  0.51100000000E-03 0. -1.
    9900012    2    1    2    0    0 -0.24991467555E+02  0.32230746580E+02  0.14840091463E+02  0.47787276616E+02  0.20000025401E+02 0.  0.
         12    1    1    2    0    0  0.24991467555E+02 -0.32230746580E+02 -0.14840091463E+02  0.43400723384E+02  0.00000000000E+00 0. -1.
         11    1    3    3    0    0 -0.92507803919E+01  0.21074263174E+01  0.87915436622E+00  0.95284361887E+01  0.51100000000E-03 0. -1.
        -11    1    3    3    0    0 -0.48685669540E+01  0.11782961950E+02  0.10792784367E+02  0.16704051339E+02  0.51100000000E-03 0.  1.
        -12    1    3    3    0    0 -0.10872120209E+02  0.18340358313E+02  0.31681527302E+01  0.21554789087E+02  0.00000000000E+00 0.  1.
</event>
<event>
 7    1  0.1813014E-010  0.4778726E+02  0.7816164E-02  0.1312668E+00
        -11   -1    0    0    0    0  0.00000000000E+00  0.00000000000E+00  0.45593999997E+02  0.45594000000E+02  0.51100000000E-03 0. -1.
         11   -1    0    0    0    0 -0.00000000000E+00 -0.00000000000E+00 -0.45593999997E+02  0.45594000000E+02  0.51100000000E-03 0.  1.
    9900012    2    1    2    0    0  0.42734653547E+02 -0.23639960252E+00  0.75708307366E+01  0.47787262948E+02  0.19999963086E+02 0.  0.
         12    1    1    2    0    0 -0.42734653547E+02  0.23639960252E+00 -0.75708307366E+01  0.43400737052E+02  0.00000000000E+00 0. -1.
         11    1    3    3    0    0  0.56513187712E+00 -0.23451522119E+01 -0.18796302374E+01  0.30581241025E+01  0.51100000000E-03 0. -1.
        -11    1    3    3    0    0  0.16703004917E+02 -0.19906508778E+01  0.86673629162E+01  0.18922902641E+02  0.51100000000E-03 0.  1.
         12    1    3    3    0    0  0.25466516753E+02  0.40994034872E+01  0.78309805784E+00  0.25806236205E+02  0.00000000000E+00 0. -1.
</event>
<event>
 7    1  0.1813014E-010  0.4778727E+02  0.7816164E-02  0.1312668E+00
        -11   -1    0    0    0    0  0.00000000000E+00  0.00000000000E+00  0.45593999997E+02  0.45594000000E+02  0.51100000000E-03 0.  1.
         11   -1    0    0    0    0 -0.00000000000E+00 -0.00000000000E+00 -0.45593999997E+02  0.45594000000E+02  0.51100000000E-03 0. -1.
    9900012    2    1    2    0    0 -0.30907878816E+02 -0.76777324707E+01  0.29485230879E+02  0.47787269720E+02  0.19999993962E+02 0.  0.
         12    1    1    2    0    0  0.30907878816E+02  0.76777324707E+01 -0.29485230879E+02  0.43400730280E+02  0.00000000000E+00 0. -1.
         11    1    3    3    0    0 -0.58843312298E+01 -0.52344931826E+01  0.70260142580E+01  0.10554153188E+02  0.51100000000E-03 0. -1.
        -11    1    3    3    0    0 -0.20702641820E+02  0.21782382641E+01  0.22829534729E+02  0.30895497349E+02  0.51100000000E-03 0.  1.
        -12    1    3    3    0    0 -0.43209057662E+01 -0.46214775521E+01 -0.37031810709E+00  0.63376191827E+01  0.00000000000E+00 0.  1.
</event>
<event>
 7    1  0.1813014E-010  0.4778727E+02  0.7816164E-02  0.1312668E+00
        -11   -1    0    0    0    0  0.00000000000E+00  0.00000000000E+00  0.45593999997E+02  0.45594000000E+02  0.51100000000E-03 0. -1.
         11   -1    0    0    0    0 -0.00000000000E+00 -0.00000000000E+00 -0.45593999997E+02  0.45594000000E+02  0.51100000000E-03 0.  1.
    9900012    2    1    2    0    0  0.20391571902E+02  0.20515042518E+02 -0.32356449572E+02  0.47787274164E+02  0.20000014226E+02 0.  0.
         12    1    1    2    0    0 -0.20391571902E+02 -0.20515042518E+02  0.32356449572E+02  0.43400725836E+02  0.00000000000E+00 0. -1.
         11    1    3    3    0    0  0.29998215033E+01 -0.30181124181E+01 -0.50176368550E+01  0.65791041555E+01  0.51100000000E-03 0. -1.
        -11    1    3    3    0    0  0.37619377959E+01  0.79944720179E+01 -0.31239881992E+01  0.93713959129E+01  0.51100000000E-03 0.  1.
        -12    1    3    3    0    0  0.13629812603E+02  0.15538682918E+02 -0.24214824518E+02  0.31836774096E+02  0.00000000000E+00 0.  1.
</event>
<event>
 7    1  0.1813014E-010  0.4778727E+02  0.7816164E-02  0.1312668E+00
        -11   -1    0    0    0    0  0.00000000000E+00  0.00000000000E+00  0.45593999997E+02  0.45594000000E+02  0.51100000000E-03 0. -1.
         11   -1    0    0    0    0 -0.00000000000E+00 -0.00000000000E+00 -0.45593999997E+02  0.45594000000E+02  0.51100000000E-03 0.  1.
    9900012    2    1    2    0    0 -0.37193277308E+01  0.26571990641E+02 -0.34113325548E+02  0.47787273447E+02  0.20000010953E+02 0.  0.
         12    1    1    2    0    0  0.37193277308E+01 -0.26571990641E+02  0.34113325548E+02  0.43400726553E+02  0.00000000000E+00 0. -1.
         11    1    3    3    0    0 -0.50034698486E+01  0.63065420122E+01 -0.70143014897E+00  0.80807912480E+01  0.51100000000E-03 0. -1.
        -11    1    3    3    0    0 -0.18266797403E+00 -0.52070502562E+00 -0.14537658528E+01  0.15549716166E+01  0.51100000000E-03 0.  1.
        -12    1    3    3    0    0  0.14668100919E+01  0.20786153655E+02 -0.31958129546E+02  0.38151510582E+02  0.00000000000E+00 0.  1.
</event>
<event>
 7    1  0.1813014E-010  0.4778727E+02  0.7816164E-02  0.1312668E+00
        -11   -1    0    0    0    0  0.00000000000E+00  0.00000000000E+00  0.45593999997E+02  0.45594000000E+02  0.51100000000E-03 0.  1.
         11   -1    0    0    0    0 -0.00000000000E+00 -0.00000000000E+00 -0.45593999997E+02  0.45594000000E+02  0.51100000000E-03 0. -1.
    9900012    2    1    2    0    0  0.91554820152E+01  0.29634788847E+02  0.30357530102E+02  0.47787271955E+02  0.20000004153E+02 0.  0.
         12    1    1    2    0    0 -0.91554820152E+01 -0.29634788847E+02 -0.30357530102E+02  0.43400728045E+02  0.00000000000E+00 0. -1.
         11    1    3    3    0    0 -0.12332369171E+01  0.20724060796E+01  0.98747755543E+01  0.10164985625E+02  0.51100000000E-03 0. -1.
        -11    1    3    3    0    0  0.92637251643E+00  0.76617299314E+01  0.27301045128E+00  0.77223575771E+01  0.51100000000E-03 0.  1.
        -12    1    3    3    0    0  0.94623464159E+01  0.19900652836E+02  0.20209744097E+02  0.29899928753E+02  0.00000000000E+00 0.  1.
</event>
<event>
 7    1  0.1813014E-010  0.4778727E+02  0.7816164E-02  0.1312668E+00
        -11   -1    0    0    0    0  0.00000000000E+00  0.00000000000E+00  0.45593999997E+02  0.45594000000E+02  0.51100000000E-03 0. -1.
         11   -1    0    0    0    0 -0.00000000000E+00 -0.00000000000E+00 -0.45593999997E+02  0.45594000000E+02  0.51100000000E-03 0.  1.
    9900012    2    1    2    0    0 -0.36316667607E+02 -0.23722460909E+02  0.14028673544E+01  0.47787268042E+02  0.19999986311E+02 0.  0.
         12    1    1    2    0    0  0.36316667607E+02  0.23722460909E+02 -0.14028673544E+01  0.43400731958E+02  0.00000000000E+00 0. -1.
         11    1    3    3    0    0 -0.11303622100E+02 -0.46075277644E+00  0.65485032364E+01  0.13071612777E+02  0.51100000000E-03 0.  1.
        -11    1    3    3    0    0 -0.57424439804E+01 -0.74367259693E+01 -0.15122962473E+01  0.95167009101E+01  0.51100000000E-03 0. -1.
        -12    1    3    3    0    0 -0.19270601526E+02 -0.15824982164E+02 -0.36333396347E+01  0.25198954355E+02  0.00000000000E+00 0.  1.
</event>
<event>
 7    1  0.1813014E-010  0.4778727E+02  0.7816164E-02  0.1312668E+00
        -11   -1    0    0    0    0  0.00000000000E+00  0.00000000000E+00  0.45593999997E+02  0.45594000000E+02  0.51100000000E-03 0.  1.
         11   -1    0    0    0    0 -0.00000000000E+00 -0.00000000000E+00 -0.45593999997E+02  0.45594000000E+02  0.51100000000E-03 0. -1.
    9900012    2    1    2    0    0  0.12427258426E+02 -0.22762428825E+02  0.34800264790E+02  0.47787270197E+02  0.19999996135E+02 0.  0.
         12    1    1    2    0    0 -0.12427258426E+02  0.22762428825E+02 -0.34800264790E+02  0.43400729803E+02  0.00000000000E+00 0. -1.
         11    1    3    3    0    0 -0.25150954406E+01 -0.39367127247E+01  0.18433051235E+01  0.50220699110E+01  0.51100000000E-03 0. -1.
        -11    1    3    3    0    0  0.12149586814E+02 -0.12576149330E+02  0.13356480755E+02  0.22003808083E+02  0.51100000000E-03 0.  1.
        -12    1    3    3    0    0  0.27927670528E+01 -0.62495667696E+01  0.19600478912E+02  0.20761392203E+02  0.00000000000E+00 0.  1.
</event>
<event>
 7    1  0.1813014E-010  0.4778727E+02  0.7816164E-02  0.1312668E+00
        -11   -1    0    0    0    0  0.00000000000E+00  0.00000000000E+00  0.45593999997E+02  0.45594000000E+02  0.51100000000E-03 0.  1.
         11   -1    0    0    0    0 -0.00000000000E+00 -0.00000000000E+00 -0.45593999997E+02  0.45594000000E+02  0.51100000000E-03 0. -1.
    9900012    2    1    2    0    0  0.13996361060E+02 -0.10406827652E+02  0.39741955682E+02  0.47787271594E+02  0.20000002507E+02 0.  0.
         12    1    1    2    0    0 -0.13996361060E+02  0.10406827652E+02 -0.39741955682E+02  0.43400728406E+02  0.00000000000E+00 0. -1.
         11    1    3    3    0    0 -0.18903493881E+01 -0.28342346709E+01  0.57493371131E+01  0.66829023994E+01  0.51100000000E-03 0. -1.
        -11    1    3    3    0    0  0.12303033963E+02  0.27606625233E+00  0.28041449176E+02  0.30622928165E+02  0.51100000000E-03 0.  1.
         12    1    3    3    0    0  0.35836764847E+01 -0.78486592335E+01  0.59511693935E+01  0.10481441030E+02  0.00000000000E+00 0. -1.
</event>
<event>
 7    1  0.1941747E-010  0.4778727E+02  0.7816164E-02  0.1312668E+00
        -11   -1    0    0    0    0  0.00000000000E+00  0.00000000000E+00  0.45593999997E+02  0.45594000000E+02  0.51100000000E-03 0. -1.
         11   -1    0    0    0    0 -0.00000000000E+00 -0.00000000000E+00 -0.45593999997E+02  0.45594000000E+02  0.51100000000E-03 0.  1.
    9900012    2    1    2    0    0 -0.20967347133E+02  0.71304175081E+01 -0.37324941555E+02  0.47787265424E+02  0.19999974374E+02 0.  0.
         12    1    1    2    0    0  0.20967347133E+02 -0.71304175081E+01  0.37324941555E+02  0.43400734576E+02  0.00000000000E+00 0. -1.
         11    1    3    3    0    0  0.98683897581E+00  0.26080333928E+01  0.57975336150E-01  0.27890949684E+01  0.51100000000E-03 0. -1.
        -11    1    3    3    0    0 -0.78777128450E+01 -0.35053854712E+01 -0.15918044789E+02  0.18103321163E+02  0.51100000000E-03 0.  1.
        -12    1    3    3    0    0 -0.14076473264E+02  0.80277695864E+01 -0.21464872102E+02  0.26894849292E+02  0.00000000000E+00 0.  1.
</event>
<event>
 7    1  0.1813014E-010  0.4778727E+02  0.7816164E-02  0.1312668E+00
        -11   -1    0    0    0    0  0.00000000000E+00  0.00000000000E+00  0.45593999997E+02  0.45594000000E+02  0.51100000000E-03 0. -1.
         11   -1    0    0    0    0 -0.00000000000E+00 -0.00000000000E+00 -0.45593999997E+02  0.45594000000E+02  0.51100000000E-03 0.  1.
    9900012    2    1    2    0    0 -0.17989826853E+02 -0.14837352204E+02 -0.36603861591E+02  0.47787267587E+02  0.19999984236E+02 0.  0.
         12    1    1    2    0    0  0.17989826853E+02  0.14837352204E+02  0.36603861591E+02  0.43400732413E+02  0.00000000000E+00 0. -1.
         11    1    3    3    0    0 -0.37426631407E+01  0.11080605092E+01 -0.36038012044E+01  0.53125049514E+01  0.51100000000E-03 0. -1.
        -11    1    3    3    0    0 -0.13150999845E+02 -0.15307281098E+02 -0.34826532539E+02  0.40251074774E+02  0.51100000000E-03 0.  1.
        -12    1    3    3    0    0 -0.10961638667E+01 -0.63813161548E+00  0.18264721524E+01  0.22236878614E+01  0.00000000000E+00 0.  1.
</event>
<event>
 7    1  0.1813014E-010  0.4778727E+02  0.7816164E-02  0.1312668E+00
        -11   -1    0    0    0    0  0.00000000000E+00  0.00000000000E+00  0.45593999997E+02  0.45594000000E+02  0.51100000000E-03 0.  1.
         11   -1    0    0    0    0 -0.00000000000E+00 -0.00000000000E+00 -0.45593999997E+02  0.45594000000E+02  0.51100000000E-03 0. -1.
    9900012    2    1    2    0    0  0.20006322842E+02  0.10682838107E+02  0.37003340126E+02  0.47787272308E+02  0.20000005763E+02 0.  0.
         12    1    1    2    0    0 -0.20006322842E+02 -0.10682838107E+02 -0.37003340126E+02  0.43400727692E+02  0.00000000000E+00 0. -1.
         11    1    3    3    0    0  0.14261382662E+01  0.21104626738E+01  0.12864505479E+02  0.13114245099E+02  0.51100000000E-03 0. -1.
        -11    1    3    3    0    0  0.11937628386E+02  0.12322290497E+02  0.15193468635E+02  0.22916965419E+02  0.51100000000E-03 0.  1.
         12    1    3    3    0    0  0.66425561898E+01 -0.37499150645E+01  0.89453660126E+01  0.11756061791E+02  0.00000000000E+00 0. -1.
</event>
<event>
 7    1  0.1813014E-010  0.4778728E+02  0.7816164E-02  0.1312668E+00
        -11   -1    0    0    0    0  0.00000000000E+00  0.00000000000E+00  0.45593999997E+02  0.45594000000E+02  0.51100000000E-03 0.  1.
         11   -1    0    0    0    0 -0.00000000000E+00 -0.00000000000E+00 -0.45593999997E+02  0.45594000000E+02  0.51100000000E-03 0. -1.
    9900012    2    1    2    0    0 -0.18562746237E+02  0.21217077919E+02  0.32998217900E+02  0.47787281943E+02  0.20000049691E+02 0.  0.
         12    1    1    2    0    0  0.18562746237E+02 -0.21217077919E+02 -0.32998217900E+02  0.43400718057E+02  0.00000000000E+00 0. -1.
         11    1    3    3    0    0 -0.18824821179E+02  0.97355490781E+01  0.23486672532E+02  0.31635084876E+02  0.51100000000E-03 0. -1.
        -11    1    3    3    0    0 -0.15405191852E+01  0.70367980050E+01  0.86876312420E+01  0.11285595349E+02  0.51100000000E-03 0.  1.
         12    1    3    3    0    0  0.18025941267E+01  0.44447308360E+01  0.82391412609E+00  0.48666017176E+01  0.00000000000E+00 0. -1.
</event>
<event>
 7    1  0.1813014E-010  0.4778727E+02  0.7816164E-02  0.1312668E+00
        -11   -1    0    0    0    0  0.00000000000E+00  0.00000000000E+00  0.45593999997E+02  0.45594000000E+02  0.51100000000E-03 0.  1.
         11   -1    0    0    0    0 -0.00000000000E+00 -0.00000000000E+00 -0.45593999997E+02  0.45594000000E+02  0.51100000000E-03 0. -1.
    9900012    2    1    2    0    0  0.30564608433E+02 -0.13299688819E+02  0.27794712521E+02  0.47787273561E+02  0.20000011473E+02 0.  0.
         12    1    1    2    0    0 -0.30564608433E+02  0.13299688819E+02 -0.27794712521E+02  0.43400726439E+02  0.00000000000E+00 0. -1.
         11    1    3    3    0    0  0.28096550068E+01 -0.21874326120E+00  0.10194365230E+02  0.10576724095E+02  0.51100000000E-03 0. -1.
        -11    1    3    3    0    0  0.19663443559E+02 -0.59984041974E+01  0.16576475402E+02  0.26408547907E+02  0.51100000000E-03 0.  1.
         12    1    3    3    0    0  0.80915098671E+01 -0.70825413601E+01  0.10238718886E+01  0.10802001559E+02  0.00000000000E+00 0. -1.
</event>
<event>
 7    1  0.1813014E-010  0.4778727E+02  0.7816164E-02  0.1312668E+00
        -11   -1    0    0    0    0  0.00000000000E+00  0.00000000000E+00  0.45593999997E+02  0.45594000000E+02  0.51100000000E-03 0.  1.
         11   -1    0    0    0    0 -0.00000000000E+00 -0.00000000000E+00 -0.45593999997E+02  0.45594000000E+02  0.51100000000E-03 0. -1.
    9900012    2    1    2    0    0  0.14436525600E+02 -0.33284562642E+02  0.23819063317E+02  0.47787272368E+02  0.20000006034E+02 0.  0.
         12    1    1    2    0    0 -0.14436525600E+02  0.33284562642E+02 -0.23819063317E+02  0.43400727632E+02  0.00000000000E+00 0. -1.
         11    1    3    3    0    0  0.21696383092E+01 -0.29344181575E+01  0.88491214187E+01  0.95720995848E+01  0.51100000000E-03 0. -1.
        -11    1    3    3    0    0 -0.10319700252E+01 -0.23163221802E+01  0.50309846381E+01  0.56339255644E+01  0.51100000000E-03 0.  1.
        -12    1    3    3    0    0  0.13298857316E+02 -0.28033822305E+02  0.99389572605E+01  0.32581247219E+02  0.00000000000E+00 0.  1.
</event>
<event>
 7    1  0.1813014E-010  0.4778727E+02  0.7816164E-02  0.1312668E+00
        -11   -1    0    0    0    0  0.00000000000E+00  0.00000000000E+00  0.45593999997E+02  0.45594000000E+02  0.51100000000E-03 0.  1.
         11   -1    0    0    0    0 -0.00000000000E+00 -0.00000000000E+00 -0.45593999997E+02  0.45594000000E+02  0.51100000000E-03 0. -1.
    9900012    2    1    2    0    0  0.29503177789E+02  0.20629675857E+02  0.24240509799E+02  0.47787270272E+02  0.19999996477E+02 0.  0.
         12    1    1    2    0    0 -0.29503177789E+02 -0.20629675857E+02 -0.24240509799E+02  0.43400729728E+02  0.00000000000E+00 0. -1.
         11    1    3    3    0    0  0.17276758441E+01 -0.16684044592E+01 -0.15661570235E+01  0.28672783864E+01  0.51100000000E-03 0. -1.
        -11    1    3    3    0    0  0.13950759912E+02  0.58885636752E+01  0.12808207854E+02  0.19833029848E+02  0.51100000000E-03 0.  1.
         12    1    3    3    0    0  0.13824742034E+02  0.16409516641E+02  0.12998458968E+02  0.25086962037E+02  0.00000000000E+00 0. -1.
</event>
<event>
 7    1  0.1813014E-010  0.4778727E+02  0.7816164E-02  0.1312668E+00
        -11   -1    0    0    0    0  0.00000000000E+00  0.00000000000E+00  0.45593999997E+02  0.45594000000E+02  0.51100000000E-03 0.  1.
         11   -1    0    0    0    0 -0.00000000000E+00 -0.00000000000E+00 -0.45593999997E+02  0.45594000000E+02  0.51100000000E-03 0. -1.
    9900012    2    1    2    0    0  0.26088609937E+02  0.22013025022E+02  0.26803629652E+02  0.47787269573E+02  0.19999993291E+02 0.  0.
         12    1    1    2    0    0 -0.26088609937E+02 -0.22013025022E+02 -0.26803629652E+02  0.43400730427E+02  0.00000000000E+00 0. -1.
         11    1    3    3    0    0  0.16808524273E+02  0.20755473612E+02  0.10055480844E+02  0.28538200160E+02  0.51100000000E-03 0. -1.
        -11    1    3    3    0    0  0.29356296415E+01  0.95484477332E-01  0.40055231564E+01  0.49670166796E+01  0.51100000000E-03 0.  1.
         12    1    3    3    0    0  0.63444560224E+01  0.11620669327E+01  0.12742625652E+02  0.14282052734E+02  0.00000000000E+00 0. -1.
</event>
<event>
 7    1  0.1813014E-010  0.4778727E+02  0.7816164E-02  0.1312668E+00
        -11   -1    0    0    0    0  0.00000000000E+00  0.00000000000E+00  0.45593999997E+02  0.45594000000E+02  0.51100000000E-03 0. -1.
         11   -1    0    0    0    0 -0.00000000000E+00 -0.00000000000E+00 -0.45593999997E+02  0.45594000000E+02  0.51100000000E-03 0.  1.
    9900012    2    1    2    0    0  0.30147334703E+02 -0.23365614484E+02 -0.20707726286E+02  0.47787266621E+02  0.19999979830E+02 0.  0.
         12    1    1    2    0    0 -0.30147334703E+02  0.23365614484E+02  0.20707726286E+02  0.43400733379E+02  0.00000000000E+00 0. -1.
         11    1    3    3    0    0  0.93684054295E+01 -0.69415800822E+01 -0.73328962801E+01  0.13774030726E+02  0.51100000000E-03 0. -1.
        -11    1    3    3    0    0  0.30444773747E+01 -0.99205379805E+01 -0.10751582989E+02  0.14942638768E+02  0.51100000000E-03 0.  1.
         12    1    3    3    0    0  0.17734451899E+02 -0.65034964218E+01 -0.26232470169E+01  0.19070597127E+02  0.00000000000E+00 0. -1.
</event>
<event>
 7    1  0.1813014E-010  0.4778726E+02  0.7816164E-02  0.1312668E+00
        -11   -1    0    0    0    0  0.00000000000E+00  0.00000000000E+00  0.45593999997E+02  0.45594000000E+02  0.51100000000E-03 0.  1.
         11   -1    0    0    0    0 -0.00000000000E+00 -0.00000000000E+00 -0.45593999997E+02  0.45594000000E+02  0.51100000000E-03 0. -1.
    9900012    2    1    2    0    0 -0.21289715984E+02 -0.74115189002E+01  0.37086942513E+02  0.47787263554E+02  0.19999965849E+02 0.  0.
         12    1    1    2    0    0  0.21289715984E+02  0.74115189002E+01 -0.37086942513E+02  0.43400736446E+02  0.00000000000E+00 0. -1.
         11    1    3    3    0    0 -0.27539956948E+01  0.16777094236E+00  0.21245441582E+02  0.21423851840E+02  0.51100000000E-03 0. -1.
        -11    1    3    3    0    0 -0.79539593898E+01 -0.66807138836E+01  0.88752851289E+01  0.13662653269E+02  0.51100000000E-03 0.  1.
        -12    1    3    3    0    0 -0.10581760900E+02 -0.89857595897E+00  0.69662158019E+01  0.12700758446E+02  0.00000000000E+00 0.  1.
</event>
<event>
 7    1  0.1813014E-010  0.4778727E+02  0.7816164E-02  0.1312668E+00
        -11   -1    0    0    0    0  0.00000000000E+00  0.00000000000E+00  0.45593999997E+02  0.45594000000E+02  0.51100000000E-03 0. -1.
         11   -1    0    0    0    0 -0.00000000000E+00 -0.00000000000E+00 -0.45593999997E+02  0.45594000000E+02  0.51100000000E-03 0.  1.
    9900012    2    1    2    0    0  0.32467927465E+01 -0.37235828442E+02 -0.22058431346E+02  0.47787274472E+02  0.20000015627E+02 0.  0.
         12    1    1    2    0    0 -0.32467927465E+01  0.37235828442E+02  0.22058431346E+02  0.43400725528E+02  0.00000000000E+00 0. -1.
         11    1    3    3    0    0  0.14528689520E+01 -0.91755978392E+01 -0.99186441308E+01  0.13589772829E+02  0.51100000000E-03 0. -1.
        -11    1    3    3    0    0  0.34051179541E+01 -0.29862671853E+01  0.24436166893E+01  0.51462493885E+01  0.51100000000E-03 0.  1.
        -12    1    3    3    0    0 -0.16111941596E+01 -0.25073963418E+02 -0.14583403904E+02  0.29051252254E+02  0.00000000000E+00 0.  1.
</event>
<event>
 7    1  0.1813014E-010  0.4778723E+02  0.7816164E-02  0.1312668E+00
        -11   -1    0    0    0    0  0.00000000000E+00  0.00000000000E+00  0.45593999997E+02  0.45594000000E+02  0.51100000000E-03 0.  1.
         11   -1    0    0    0    0 -0.00000000000E+00 -0.00000000000E+00 -0.45593999997E+02  0.45594000000E+02  0.51100000000E-03 0. -1.
    9900012    2    1    2    0    0 -0.20996964086E+02 -0.20326864228E+02  0.32086954416E+02  0.47787233257E+02  0.19999827712E+02 0.  0.
         12    1    1    2    0    0  0.20996964086E+02  0.20326864228E+02 -0.32086954416E+02  0.43400766743E+02  0.00000000000E+00 0. -1.
         11    1    3    3    0    0 -0.41127720825E+01 -0.81473693052E+01 -0.40853150011E+00  0.91357221414E+01  0.51100000000E-03 0. -1.
        -11    1    3    3    0    0 -0.70074726449E+01 -0.56685855916E+01  0.12344188248E+02  0.15284518940E+02  0.51100000000E-03 0.  1.
         12    1    3    3    0    0 -0.98767193591E+01 -0.65109093311E+01  0.20151297668E+02  0.23366992175E+02  0.00000000000E+00 0. -1.
</event>
<event>
 7    1  0.1813014E-010  0.4778726E+02  0.7816164E-02  0.1312668E+00
        -11   -1    0    0    0    0  0.00000000000E+00  0.00000000000E+00  0.45593999997E+02  0.45594000000E+02  0.51100000000E-03 0. -1.
         11   -1    0    0    0    0 -0.00000000000E+00 -0.00000000000E+00 -0.45593999997E+02  0.45594000000E+02  0.51100000000E-03 0.  1.
    9900012    2    1    2    0    0  0.36300630767E+02  0.11733429869E+02 -0.20693354218E+02  0.47787261765E+02  0.19999957690E+02 0.  0.
         12    1    1    2    0    0 -0.36300630767E+02 -0.11733429869E+02  0.20693354218E+02  0.43400738235E+02  0.00000000000E+00 0. -1.
         11    1    3    3    0    0 -0.90853957963E+00 -0.33966829833E+00  0.15596263564E+01  0.18366418686E+01  0.51100000000E-03 0. -1.
        -11    1    3    3    0    0  0.19399427564E+00 -0.51220099272E+00 -0.16900095643E+01  0.17765461504E+01  0.51100000000E-03 0.  1.
        -12    1    3    3    0    0  0.37015176071E+02  0.12585299160E+02 -0.20562971010E+02  0.44174073746E+02  0.00000000000E+00 0.  1.
</event>
<event>
 7    1  0.1813014E-010  0.4778727E+02  0.7816164E-02  0.1312668E+00
        -11   -1    0    0    0    0  0.00000000000E+00  0.00000000000E+00  0.45593999997E+02  0.45594000000E+02  0.51100000000E-03 0.  1.
         11   -1    0    0    0    0 -0.00000000000E+00 -0.00000000000E+00 -0.45593999997E+02  0.45594000000E+02  0.51100000000E-03 0. -1.
    9900012    2    1    2    0    0 -0.25934962923E+01  0.37736567074E+02  0.21280240059E+02  0.47787270346E+02  0.19999996814E+02 0.  0.
         12    1    1    2    0    0  0.25934962923E+01 -0.37736567074E+02 -0.21280240059E+02  0.43400729654E+02  0.00000000000E+00 0. -1.
         11    1    3    3    0    0 -0.85271258495E+01  0.21680711906E+02  0.86155882912E+01  0.24839353975E+02  0.51100000000E-03 0. -1.
        -11    1    3    3    0    0  0.22182245113E+01  0.14955872114E+02  0.88949467018E+01  0.17541912888E+02  0.51100000000E-03 0.  1.
        -12    1    3    3    0    0  0.37154050459E+01  0.10999830533E+01  0.37697050657E+01  0.54060034827E+01  0.00000000000E+00 0.  1.
</event>
<event>
 7    1  0.1813014E-010  0.4778727E+02  0.7816164E-02  0.1312668E+00
        -11   -1    0    0    0    0  0.00000000000E+00  0.00000000000E+00  0.45593999997E+02  0.45594000000E+02  0.51100000000E-03 0.  1.
         11   -1    0    0    0    0 -0.00000000000E+00 -0.00000000000E+00 -0.45593999997E+02  0.45594000000E+02  0.51100000000E-03 0. -1.
    9900012    2    1    2    0    0 -0.32334393471E+02 -0.28058041939E+02  0.71313804134E+01  0.47787270684E+02  0.19999998355E+02 0.  0.
         12    1    1    2    0    0  0.32334393471E+02  0.28058041939E+02 -0.71313804134E+01  0.43400729316E+02  0.00000000000E+00 0. -1.
         11    1    3    3    0    0  0.96650415642E+00 -0.15428065428E+01  0.11591471015E+01  0.21582410841E+01  0.51100000000E-03 0. -1.
        -11    1    3    3    0    0 -0.33111345865E+02 -0.27871354185E+02  0.70955031279E+01  0.43857949952E+02  0.51100000000E-03 0.  1.
        -12    1    3    3    0    0 -0.18955176243E+00  0.13561187883E+01 -0.11232698160E+01  0.17710796476E+01  0.00000000000E+00 0.  1.
</event>
<event>
 7    1  0.1813014E-010  0.4778728E+02  0.7816164E-02  0.1312668E+00
        -11   -1    0    0    0    0  0.00000000000E+00  0.00000000000E+00  0.45593999997E+02  0.45594000000E+02  0.51100000000E-03 0.  1.
         11   -1    0    0    0    0 -0.00000000000E+00 -0.00000000000E+00 -0.45593999997E+02  0.45594000000E+02  0.51100000000E-03 0. -1.
    9900012    2    1    2    0    0  0.17972756693E+02  0.38200071744E+02  0.10067632940E+02  0.47787277685E+02  0.20000030279E+02 0.  0.
         12    1    1    2    0    0 -0.17972756693E+02 -0.38200071744E+02 -0.10067632940E+02  0.43400722315E+02  0.00000000000E+00 0. -1.
         11    1    3    3    0    0  0.10044246660E+02  0.17403038835E+02  0.35999287445E+01  0.20413528330E+02  0.51100000000E-03 0. -1.
        -11    1    3    3    0    0 -0.15822558270E+01 -0.10113678040E+01 -0.13694312797E+01  0.23241645011E+01  0.51100000000E-03 0.  1.
        -12    1    3    3    0    0  0.95107658608E+01  0.21808400713E+02  0.78371354758E+01  0.25049584855E+02  0.00000000000E+00 0.  1.
</event>
<event>
 7    1  0.1813014E-010  0.4778726E+02  0.7816164E-02  0.1312668E+00
        -11   -1    0    0    0    0  0.00000000000E+00  0.00000000000E+00  0.45593999997E+02  0.45594000000E+02  0.51100000000E-03 0.  1.
         11   -1    0    0    0    0 -0.00000000000E+00 -0.00000000000E+00 -0.45593999997E+02  0.45594000000E+02  0.51100000000E-03 0. -1.
    9900012    2    1    2    0    0 -0.16112302874E+02  0.13184652447E+02  0.38081269589E+02  0.47787257407E+02  0.19999937823E+02 0.  0.
         12    1    1    2    0    0  0.16112302874E+02 -0.13184652447E+02 -0.38081269589E+02  0.43400742593E+02  0.00000000000E+00 0. -1.
         11    1    3    3    0    0 -0.14846603644E+01 -0.11377415262E+01  0.50923108825E+00  0.19385532597E+01  0.51100000000E-03 0.  1.
        -11    1    3    3    0    0 -0.45412415025E+01  0.15150704721E+02  0.26390817527E+02  0.30767547480E+02  0.51100000000E-03 0. -1.
         12    1    3    3    0    0 -0.10086401007E+02 -0.82831074749E+00  0.11181220974E+02  0.15081156668E+02  0.00000000000E+00 0. -1.
</event>
<event>
 7    1  0.2205028E-010  0.4778727E+02  0.7816164E-02  0.1312668E+00
        -11   -1    0    0    0    0  0.00000000000E+00  0.00000000000E+00  0.45593999997E+02  0.45594000000E+02  0.51100000000E-03 0. -1.
         11   -1    0    0    0    0 -0.00000000000E+00 -0.00000000000E+00 -0.45593999997E+02  0.45594000000E+02  0.51100000000E-03 0.  1.
    9900012    2    1    2    0    0  0.48492839314E+01 -0.17988976538E+00 -0.43128591754E+02  0.47787270263E+02  0.19999996438E+02 0.  0.
         12    1    1    2    0    0 -0.48492839314E+01  0.17988976538E+00  0.43128591754E+02  0.43400729737E+02  0.00000000000E+00 0. -1.
         11    1    3    3    0    0 -0.84323264418E+00  0.35410749384E+01 -0.37116708639E+01  0.51987261780E+01  0.51100000000E-03 0. -1.
        -11    1    3    3    0    0  0.46624498883E+01  0.23303198452E+00 -0.37967042901E+02  0.38252961843E+02  0.51100000000E-03 0.  1.
         12    1    3    3    0    0  0.10300666873E+01 -0.39539966883E+01 -0.14498779894E+01  0.43355822417E+01  0.00000000000E+00 0. -1.
</event>
<event>
 7    1  0.1813014E-010  0.4778727E+02  0.7816164E-02  0.1312668E+00
        -11   -1    0    0    0    0  0.00000000000E+00  0.00000000000E+00  0.45593999997E+02  0.45594000000E+02  0.51100000000E-03 0.  1.
         11   -1    0    0    0    0 -0.00000000000E+00 -0.00000000000E+00 -0.45593999997E+02  0.45594000000E+02  0.51100000000E-03 0. -1.
    9900012    2    1    2    0    0  0.61690413492E-01  0.24793791085E+02  0.35621451498E+02  0.47787266263E+02  0.19999978200E+02 0.  0.
         12    1    1    2    0    0 -0.61690413492E-01 -0.24793791085E+02 -0.35621451498E+02  0.43400733737E+02  0.00000000000E+00 0. -1.
         11    1    3    3    0    0  0.74858810166E+00  0.76425926250E+00 -0.16391436038E+01  0.19573626085E+01  0.51100000000E-03 0. -1.
        -11    1    3    3    0    0 -0.52289520142E+01  0.18049934216E+02  0.22890516759E+02  0.29616175008E+02  0.51100000000E-03 0.  1.
         12    1    3    3    0    0  0.45420543261E+01  0.59795976072E+01  0.14370078343E+02  0.16213728647E+02  0.00000000000E+00 0. -1.
</event>
<event>
 7    1  0.1813014E-010  0.4778727E+02  0.7816164E-02  0.1312668E+00
        -11   -1    0    0    0    0  0.00000000000E+00  0.00000000000E+00  0.45593999997E+02  0.45594000000E+02  0.51100000000E-03 0.  1.
         11   -1    0    0    0    0 -0.00000000000E+00 -0.00000000000E+00 -0.45593999997E+02  0.45594000000E+02  0.51100000000E-03 0. -1.
    9900012    2    1    2    0    0  0.30760773087E+02  0.30372615937E+02 -0.38603135029E+01  0.47787274428E+02  0.20000015429E+02 0.  0.
         12    1    1    2    0    0 -0.30760773087E+02 -0.30372615937E+02  0.38603135029E+01  0.43400725572E+02  0.00000000000E+00 0. -1.
         11    1    3    3    0    0  0.11040210568E+02  0.13509909538E+02 -0.56264688454E+01  0.18331968172E+02  0.51100000000E-03 0. -1.
        -11    1    3    3    0    0  0.10498663541E+02  0.11046712576E+01 -0.21709013885E+01  0.10777525125E+02  0.51100000000E-03 0.  1.
         12    1    3    3    0    0  0.92218989783E+01  0.15758035142E+02  0.39370567310E+01  0.18677781132E+02  0.00000000000E+00 0. -1.
</event>
<event>
 7    1  0.1813014E-010  0.4778727E+02  0.7816164E-02  0.1312668E+00
        -11   -1    0    0    0    0  0.00000000000E+00  0.00000000000E+00  0.45593999997E+02  0.45594000000E+02  0.51100000000E-03 0.  1.
         11   -1    0    0    0    0 -0.00000000000E+00 -0.00000000000E+00 -0.45593999997E+02  0.45594000000E+02  0.51100000000E-03 0. -1.
    9900012    2    1    2    0    0 -0.80632991222E+00  0.35621961851E+02  0.24780012790E+02  0.47787269961E+02  0.19999995059E+02 0.  0.
         12    1    1    2    0    0  0.80632991222E+00 -0.35621961851E+02 -0.24780012790E+02  0.43400730039E+02  0.00000000000E+00 0. -1.
         11    1    3    3    0    0 -0.48362526516E+01  0.92034191925E+01  0.83537835219E+01  0.13337089785E+02  0.51100000000E-03 0. -1.
        -11    1    3    3    0    0  0.38733994615E+01  0.27474328549E+02  0.12591083755E+02  0.30469285240E+02  0.51100000000E-03 0.  1.
        -12    1    3    3    0    0  0.15652327794E+00 -0.10557858906E+01  0.38351455134E+01  0.39808949361E+01  0.00000000000E+00 0.  1.
</event>
<event>
 7    1  0.1813014E-010  0.4778731E+02  0.7816164E-02  0.1312668E+00
        -11   -1    0    0    0    0  0.00000000000E+00  0.00000000000E+00  0.45593999997E+02  0.45594000000E+02  0.51100000000E-03 0. -1.
         11   -1    0    0    0    0 -0.00000000000E+00 -0.00000000000E+00 -0.45593999997E+02  0.45594000000E+02  0.51100000000E-03 0.  1.
    9900012    2    1    2    0    0  0.36818248796E+02 -0.18214312747E+02  0.14009813167E+02  0.47787314543E+02  0.20000198324E+02 0.  0.
         12    1    1    2    0    0 -0.36818248796E+02  0.18214312747E+02 -0.14009813167E+02  0.43400685457E+02  0.00000000000E+00 0. -1.
         11    1    3    3    0    0  0.91259600579E+00  0.20812449333E+01  0.15654117832E+01  0.27595155833E+01  0.51100000000E-03 0. -1.
        -11    1    3    3    0    0  0.28858190121E+02 -0.10183305841E+02  0.62534531195E+01  0.31234604705E+02  0.51100000000E-03 0.  1.
         12    1    3    3    0    0  0.70474626692E+01 -0.10112251839E+02  0.61909482641E+01  0.13793194255E+02  0.00000000000E+00 0. -1.
</event>
<event>
 7    1  0.1813014E-010  0.4778727E+02  0.7816164E-02  0.1312668E+00
        -11   -1    0    0    0    0  0.00000000000E+00  0.00000000000E+00  0.45593999997E+02  0.45594000000E+02  0.51100000000E-03 0.  1.
         11   -1    0    0    0    0 -0.00000000000E+00 -0.00000000000E+00 -0.45593999997E+02  0.45594000000E+02  0.51100000000E-03 0. -1.
    9900012    2    1    2    0    0  0.28784898926E+02 -0.39329446318E+01  0.32242594166E+02  0.47787270303E+02  0.19999996621E+02 0.  0.
         12    1    1    2    0    0 -0.28784898926E+02  0.39329446318E+01 -0.32242594166E+02  0.43400729697E+02  0.00000000000E+00 0. -1.
         11    1    3    3    0    0  0.12508061581E+02  0.41246818205E+01  0.61386038045E+01  0.14530900232E+02  0.51100000000E-03 0.  1.
        -11    1    3    3    0    0 -0.11300932942E+01 -0.13471657745E+01  0.37407586397E+01  0.41334298033E+01  0.51100000000E-03 0. -1.
        -12    1    3    3    0    0  0.17406930639E+02 -0.67104606778E+01  0.22363231722E+02  0.29122940268E+02  0.00000000000E+00 0.  1.
</event>
<event>
 7    1  0.1813014E-010  0.4778725E+02  0.7816164E-02  0.1312668E+00
        -11   -1    0    0    0    0  0.00000000000E+00  0.00000000000E+00  0.45593999997E+02  0.45594000000E+02  0.51100000000E-03 0.  1.
         11   -1    0    0    0    0 -0.00000000000E+00 -0.00000000000E+00 -0.45593999997E+02  0.45594000000E+02  0.51100000000E-03 0. -1.
    9900012    2    1    2    0    0  0.30792188478E+02  0.14030487738E+01  0.30553198229E+02  0.47787247251E+02  0.19999891518E+02 0.  0.
         12    1    1    2    0    0 -0.30792188478E+02 -0.14030487738E+01 -0.30553198229E+02  0.43400752749E+02  0.00000000000E+00 0. -1.
         11    1    3    3    0    0  0.43056358868E+01  0.51779721768E+01  0.20077474745E+01  0.70271577779E+01  0.51100000000E-03 0. -1.
        -11    1    3    3    0    0  0.22184858725E+02  0.11049008844E+01  0.19121971641E+02  0.29309359637E+02  0.51100000000E-03 0.  1.
        -12    1    3    3    0    0  0.43016938659E+01 -0.48798242874E+01  0.94234791135E+01  0.11450729837E+02  0.00000000000E+00 0.  1.
</event>
<event>
 7    1  0.1813014E-010  0.4778727E+02  0.7816164E-02  0.1312668E+00
        -11   -1    0    0    0    0  0.00000000000E+00  0.00000000000E+00  0.45593999997E+02  0.45594000000E+02  0.51100000000E-03 0.  1.
         11   -1    0    0    0    0 -0.00000000000E+00 -0.00000000000E+00 -0.45593999997E+02  0.45594000000E+02  0.51100000000E-03 0. -1.
    9900012    2    1    2    0    0  0.38752159234E+02  0.18483554355E+02  0.63444338682E+01  0.47787268808E+02  0.19999989804E+02 0.  0.
         12    1    1    2    0    0 -0.38752159234E+02 -0.18483554355E+02 -0.63444338682E+01  0.43400731192E+02  0.00000000000E+00 0. -1.
         11    1    3    3    0    0  0.10873162165E+02  0.87688964517E+01  0.48701183530E+01  0.14793148870E+02  0.51100000000E-03 0. -1.
        -11    1    3    3    0    0  0.27691110642E+02  0.71146353853E+01 -0.19887645197E+01  0.28659567859E+02  0.51100000000E-03 0.  1.
         12    1    3    3    0    0  0.18788642594E+00  0.26000225177E+01  0.34630800349E+01  0.43345520795E+01  0.00000000000E+00 0. -1.
</event>
<event>
 7    1  0.1813014E-010  0.4778727E+02  0.7816164E-02  0.1312668E+00
        -11   -1    0    0    0    0  0.00000000000E+00  0.00000000000E+00  0.45593999997E+02  0.45594000000E+02  0.51100000000E-03 0.  1.
         11   -1    0    0    0    0 -0.00000000000E+00 -0.00000000000E+00 -0.45593999997E+02  0.45594000000E+02  0.51100000000E-03 0. -1.
    9900012    2    1    2    0    0  0.28796034990E+02  0.79714947625E+01  0.31478043769E+02  0.47787267294E+02  0.19999982899E+02 0.  0.
         12    1    1    2    0    0 -0.28796034990E+02 -0.79714947625E+01 -0.31478043769E+02  0.43400732706E+02  0.00000000000E+00 0. -1.
         11    1    3    3    0    0 -0.23822744047E-01  0.21279527538E+01 -0.30169225886E+00  0.21493647726E+01  0.51100000000E-03 0. -1.
        -11    1    3    3    0    0  0.12593261003E+02  0.82351638289E+01  0.88851788388E+01  0.17474396964E+02  0.51100000000E-03 0.  1.
        -12    1    3    3    0    0  0.16226596731E+02 -0.23916218203E+01  0.22894557189E+02  0.28163505557E+02  0.00000000000E+00 0.  1.
</event>
<event>
 7    1  0.1813014E-010  0.4778727E+02  0.7816164E-02  0.1312668E+00
        -11   -1    0    0    0    0  0.00000000000E+00  0.00000000000E+00  0.45593999997E+02  0.45594000000E+02  0.51100000000E-03 0.  1.
         11   -1    0    0    0    0 -0.00000000000E+00 -0.00000000000E+00 -0.45593999997E+02  0.45594000000E+02  0.51100000000E-03 0. -1.
    9900012    2    1    2    0    0  0.77637688234E+00  0.39579069248E+02  0.17790949887E+02  0.47787269805E+02  0.19999994348E+02 0.  0.
         12    1    1    2    0    0 -0.77637688234E+00 -0.39579069248E+02 -0.17790949887E+02  0.43400730195E+02  0.00000000000E+00 0. -1.
         11    1    3    3    0    0  0.15166676999E+01 -0.98198634660E+00  0.78440956265E+00  0.19697402671E+01  0.51100000000E-03 0. -1.
        -11    1    3    3    0    0  0.22369190738E+01  0.30682212495E+02  0.72261384477E+01  0.31600934284E+02  0.51100000000E-03 0.  1.
         12    1    3    3    0    0 -0.29772098914E+01  0.98788430997E+01  0.97804018769E+01  0.14216595253E+02  0.00000000000E+00 0. -1.
</event>
<event>
 7    1  0.1813014E-010  0.4778730E+02  0.7816164E-02  0.1312668E+00
        -11   -1    0    0    0    0  0.00000000000E+00  0.00000000000E+00  0.45593999997E+02  0.45594000000E+02  0.51100000000E-03 0.  1.
         11   -1    0    0    0    0 -0.00000000000E+00 -0.00000000000E+00 -0.45593999997E+02  0.45594000000E+02  0.51100000000E-03 0. -1.
    9900012    2    1    2    0    0  0.84385507665E+01 -0.42536935569E+02  0.17381059707E+01  0.47787296791E+02  0.20000117388E+02 0.  0.
         12    1    1    2    0    0 -0.84385507665E+01  0.42536935569E+02 -0.17381059707E+01  0.43400703209E+02  0.00000000000E+00 0. -1.
         11    1    3    3    0    0  0.23863640276E+01 -0.16274487389E+02 -0.53027216821E+01  0.17282144848E+02  0.51100000000E-03 0. -1.
        -11    1    3    3    0    0  0.41448465817E+01 -0.59399231685E+01 -0.28990881924E+01  0.78017403855E+01  0.51100000000E-03 0.  1.
        -12    1    3    3    0    0  0.19073401573E+01 -0.20322525012E+02  0.99399158452E+01  0.22703411557E+02  0.00000000000E+00 0.  1.
</event>
<event>
 7    1  0.1813014E-010  0.4778724E+02  0.7816164E-02  0.1312668E+00
        -11   -1    0    0    0    0  0.00000000000E+00  0.00000000000E+00  0.45593999997E+02  0.45594000000E+02  0.51100000000E-03 0.  1.
         11   -1    0    0    0    0 -0.00000000000E+00 -0.00000000000E+00 -0.45593999997E+02  0.45594000000E+02  0.51100000000E-03 0. -1.
    9900012    2    1    2    0    0  0.37038170768E+02  0.27378888791E+01 -0.22456710980E+02  0.47787239668E+02  0.19999856941E+02 0.  0.
         12    1    1    2    0    0 -0.37038170768E+02 -0.27378888791E+01  0.22456710980E+02  0.43400760332E+02  0.00000000000E+00 0. -1.
         11    1    3    3    0    0  0.64604687752E+01 -0.50588739773E+01 -0.40637267889E+01  0.91566226519E+01  0.51100000000E-03 0. -1.
        -11    1    3    3    0    0  0.49287648986E+01  0.52530181981E+01 -0.43417708511E+00  0.72163310358E+01  0.51100000000E-03 0.  1.
        -12    1    3    3    0    0  0.25648937094E+02  0.25437446584E+01 -0.17958807106E+02  0.31414285980E+02  0.00000000000E+00 0.  1.
</event>
<event>
 7    1  0.1813014E-010  0.4778727E+02  0.7816164E-02  0.1312668E+00
        -11   -1    0    0    0    0  0.00000000000E+00  0.00000000000E+00  0.45593999997E+02  0.45594000000E+02  0.51100000000E-03 0. -1.
         11   -1    0    0    0    0 -0.00000000000E+00 -0.00000000000E+00 -0.45593999997E+02  0.45594000000E+02  0.51100000000E-03 0.  1.
    9900012    2    1    2    0    0  0.40975338711E+02  0.15682203927E+01  0.14219191907E+02  0.47787272861E+02  0.20000008283E+02 0.  0.
         12    1    1    2    0    0 -0.40975338711E+02 -0.15682203927E+01 -0.14219191907E+02  0.43400727139E+02  0.00000000000E+00 0. -1.
         11    1    3    3    0    0  0.14064064652E+02  0.67027044975E+01  0.11817821472E+02  0.19554668668E+02  0.51100000000E-03 0. -1.
        -11    1    3    3    0    0  0.26069725927E+00  0.10025635768E+00 -0.83515457273E+00  0.88062354030E+00  0.51100000000E-03 0.  1.
         12    1    3    3    0    0  0.26650576800E+02 -0.52347404624E+01  0.32365250075E+01  0.27351980652E+02  0.00000000000E+00 0. -1.
</event>
<event>
 7    1  0.1813014E-010  0.4778727E+02  0.7816164E-02  0.1312668E+00
        -11   -1    0    0    0    0  0.00000000000E+00  0.00000000000E+00  0.45593999997E+02  0.45594000000E+02  0.51100000000E-03 0.  1.
         11   -1    0    0    0    0 -0.00000000000E+00 -0.00000000000E+00 -0.45593999997E+02  0.45594000000E+02  0.51100000000E-03 0. -1.
    9900012    2    1    2    0    0 -0.26873345186E+02 -0.18069099795E+02  0.28895572346E+02  0.47787272471E+02  0.20000006505E+02 0.  0.
         12    1    1    2    0    0  0.26873345186E+02  0.18069099795E+02 -0.28895572346E+02  0.43400727529E+02  0.00000000000E+00 0. -1.
         11    1    3    3    0    0 -0.12594646080E+02 -0.55340368826E+01  0.61204339102E+01  0.15056904915E+02  0.51100000000E-03 0. -1.
        -11    1    3    3    0    0 -0.16739538271E+02 -0.88432638454E+01  0.19762996254E+02  0.27367708676E+02  0.51100000000E-03 0.  1.
        -12    1    3    3    0    0  0.24608391654E+01 -0.36917990668E+01  0.30121421814E+01  0.53626588805E+01  0.00000000000E+00 0.  1.
</event>
<event>
 7    1  0.1813014E-010  0.4778721E+02  0.7816164E-02  0.1312668E+00
        -11   -1    0    0    0    0  0.00000000000E+00  0.00000000000E+00  0.45593999997E+02  0.45594000000E+02  0.51100000000E-03 0.  1.
         11   -1    0    0    0    0 -0.00000000000E+00 -0.00000000000E+00 -0.45593999997E+02  0.45594000000E+02  0.51100000000E-03 0. -1.
    9900012    2    1    2    0    0  0.12067744473E+01  0.38844333336E+02  0.19320704498E+02  0.47787214763E+02  0.19999743388E+02 0.  0.
         12    1    1    2    0    0 -0.12067744473E+01 -0.38844333336E+02 -0.19320704498E+02  0.43400785237E+02  0.00000000000E+00 0. -1.
         11    1    3    3    0    0 -0.29952694164E+00 -0.89444729372E+00  0.12443485696E+01  0.15614595652E+01  0.51100000000E-03 0. -1.
        -11    1    3    3    0    0  0.37166031520E+01  0.30341998650E+02  0.19798378044E+02  0.36420128975E+02  0.51100000000E-03 0.  1.
        -12    1    3    3    0    0 -0.22103017631E+01  0.93967819795E+01 -0.17220221157E+01  0.98056262228E+01  0.00000000000E+00 0.  1.
</event>
<event>
 7    1  0.1813014E-010  0.4778727E+02  0.7816164E-02  0.1312668E+00
        -11   -1    0    0    0    0  0.00000000000E+00  0.00000000000E+00  0.45593999997E+02  0.45594000000E+02  0.51100000000E-03 0.  1.
         11   -1    0    0    0    0 -0.00000000000E+00 -0.00000000000E+00 -0.45593999997E+02  0.45594000000E+02  0.51100000000E-03 0. -1.
    9900012    2    1    2    0    0  0.23885618672E+02 -0.33148540784E+02  0.14638134548E+02  0.47787268226E+02  0.19999987152E+02 0.  0.
         12    1    1    2    0    0 -0.23885618672E+02  0.33148540784E+02 -0.14638134548E+02  0.43400731774E+02  0.00000000000E+00 0. -1.
         11    1    3    3    0    0  0.14981288388E+02 -0.20697791220E+02  0.21783642527E+01  0.25643377980E+02  0.51100000000E-03 0.  1.
        -11    1    3    3    0    0  0.72127292463E+00 -0.95833236433E+01  0.59765002956E+01  0.11317194119E+02  0.51100000000E-03 0. -1.
         12    1    3    3    0    0  0.81830573585E+01 -0.28674259211E+01  0.64832699995E+01  0.10826696127E+02  0.00000000000E+00 0. -1.
</event>
<event>
 7    1  0.1813014E-010  0.4778727E+02  0.7816164E-02  0.1312668E+00
        -11   -1    0    0    0    0  0.00000000000E+00  0.00000000000E+00  0.45593999997E+02  0.45594000000E+02  0.51100000000E-03 0.  1.
         11   -1    0    0    0    0 -0.00000000000E+00 -0.00000000000E+00 -0.45593999997E+02  0.45594000000E+02  0.51100000000E-03 0. -1.
    9900012    2    1    2    0    0 -0.54620700674E+01 -0.57470085877E+01  0.42670375972E+02  0.47787270712E+02  0.19999998485E+02 0.  0.
         12    1    1    2    0    0  0.54620700674E+01  0.57470085877E+01 -0.42670375972E+02  0.43400729288E+02  0.00000000000E+00 0. -1.
         11    1    3    3    0    0 -0.22580077620E+01 -0.66287620035E+01  0.19104184632E+02  0.20347210016E+02  0.51100000000E-03 0.  1.
        -11    1    3    3    0    0 -0.53213359508E+01  0.62263065801E+01  0.15556996748E+02  0.17581344033E+02  0.51100000000E-03 0. -1.
         12    1    3    3    0    0  0.21172736453E+01 -0.53445531643E+01  0.80091945928E+01  0.98587166629E+01  0.00000000000E+00 0. -1.
</event>
<event>
 7    1  0.1813014E-010  0.4778726E+02  0.7816164E-02  0.1312668E+00
        -11   -1    0    0    0    0  0.00000000000E+00  0.00000000000E+00  0.45593999997E+02  0.45594000000E+02  0.51100000000E-03 0.  1.
         11   -1    0    0    0    0 -0.00000000000E+00 -0.00000000000E+00 -0.45593999997E+02  0.45594000000E+02  0.51100000000E-03 0. -1.
    9900012    2    1    2    0    0 -0.59671009990E+01  0.26758447181E+02  0.33645254771E+02  0.47787263157E+02  0.19999964040E+02 0.  0.
         12    1    1    2    0    0  0.59671009990E+01 -0.26758447181E+02 -0.33645254771E+02  0.43400736843E+02  0.00000000000E+00 0. -1.
         11    1    3    3    0    0 -0.27432019837E+01  0.22467976785E-01 -0.32938537151E+00  0.27629978135E+01  0.51100000000E-03 0. -1.
        -11    1    3    3    0    0 -0.92409003012E+00  0.17890756741E+02  0.30246667515E+02  0.35153862024E+02  0.51100000000E-03 0.  1.
         12    1    3    3    0    0 -0.22998089852E+01  0.88452224633E+01  0.37279726270E+01  0.98704033201E+01  0.00000000000E+00 0. -1.
</event>
<event>
 7    1  0.1813014E-010  0.4778726E+02  0.7816164E-02  0.1312668E+00
        -11   -1    0    0    0    0  0.00000000000E+00  0.00000000000E+00  0.45593999997E+02  0.45594000000E+02  0.51100000000E-03 0.  1.
         11   -1    0    0    0    0 -0.00000000000E+00 -0.00000000000E+00 -0.45593999997E+02  0.45594000000E+02  0.51100000000E-03 0. -1.
    9900012    2    1    2    0    0  0.41462145780E+02 -0.11161892089E+02  0.63187448990E+01  0.47787263776E+02  0.19999966860E+02 0.  0.
         12    1    1    2    0    0 -0.41462145780E+02  0.11161892089E+02 -0.63187448990E+01  0.43400736224E+02  0.00000000000E+00 0. -1.
         11    1    3    3    0    0  0.27105203536E+02 -0.44842079584E+01  0.11127155723E+01  0.27496150929E+02  0.51100000000E-03 0. -1.
        -11    1    3    3    0    0  0.13129689489E+02 -0.50354524275E+01  0.84851637329E+01  0.16423840326E+02  0.51100000000E-03 0.  1.
         12    1    3    3    0    0  0.12272527554E+01 -0.16422317032E+01 -0.32791344062E+01  0.38672725203E+01  0.00000000000E+00 0. -1.
</event>
<event>
 7    1  0.1813014E-010  0.4778729E+02  0.7816164E-02  0.1312668E+00
        -11   -1    0    0    0    0  0.00000000000E+00  0.00000000000E+00  0.45593999997E+02  0.45594000000E+02  0.51100000000E-03 0.  1.
         11   -1    0    0    0    0 -0.00000000000E+00 -0.00000000000E+00 -0.45593999997E+02  0.45594000000E+02  0.51100000000E-03 0. -1.
    9900012    2    1    2    0    0  0.17881076597E+02 -0.87933240548E+01  0.38556015098E+02  0.47787288619E+02  0.20000080128E+02 0.  0.
         12    1    1    2    0    0 -0.17881076597E+02  0.87933240548E+01 -0.38556015098E+02  0.43400711381E+02  0.00000000000E+00 0. -1.
         11    1    3    3    0    0  0.88508860491E+01  0.17733607604E+01  0.18730661245E+02  0.20792322217E+02  0.51100000000E-03 0.  1.
        -11    1    3    3    0    0  0.74907700842E+01 -0.25043454619E+01  0.33325339274E+01  0.85725821831E+01  0.51100000000E-03 0. -1.
         12    1    3    3    0    0  0.15394204640E+01 -0.80623393533E+01  0.16492819925E+02  0.18422384219E+02  0.00000000000E+00 0. -1.
</event>
<event>
 7    1  0.1813014E-010  0.4778727E+02  0.7816164E-02  0.1312668E+00
        -11   -1    0    0    0    0  0.00000000000E+00  0.00000000000E+00  0.45593999997E+02  0.45594000000E+02  0.51100000000E-03 0.  1.
         11   -1    0    0    0    0 -0.00000000000E+00 -0.00000000000E+00 -0.45593999997E+02  0.45594000000E+02  0.51100000000E-03 0. -1.
    9900012    2    1    2    0    0 -0.42352436336E+02  0.78118337261E+01 -0.53730469924E+01  0.47787271392E+02  0.20000001584E+02 0.  0.
         12    1    1    2    0    0  0.42352436336E+02 -0.78118337261E+01  0.53730469924E+01  0.43400728608E+02  0.00000000000E+00 0. -1.
         11    1    3    3    0    0 -0.23478317554E+02  0.25954117316E+01 -0.66424549048E+01  0.24537517491E+02  0.51100000000E-03 0. -1.
        -11    1    3    3    0    0 -0.15277350321E+02  0.39547905816E+01  0.62538653196E+01  0.16974941328E+02  0.51100000000E-03 0.  1.
         12    1    3    3    0    0 -0.35967684605E+01  0.12616314129E+01 -0.49844574072E+01  0.62748125728E+01  0.00000000000E+00 0. -1.
</event>
<event>
 7    1  0.1813014E-010  0.4778727E+02  0.7816164E-02  0.1312668E+00
        -11   -1    0    0    0    0  0.00000000000E+00  0.00000000000E+00  0.45593999997E+02  0.45594000000E+02  0.51100000000E-03 0. -1.
         11   -1    0    0    0    0 -0.00000000000E+00 -0.00000000000E+00 -0.45593999997E+02  0.45594000000E+02  0.51100000000E-03 0.  1.
    9900012    2    1    2    0    0  0.16530225795E+02 -0.32414786531E+02 -0.23657056389E+02  0.47787273420E+02  0.20000010832E+02 0.  0.
         12    1    1    2    0    0 -0.16530225795E+02  0.32414786531E+02  0.23657056389E+02  0.43400726580E+02  0.00000000000E+00 0. -1.
         11    1    3    3    0    0  0.80387817422E+01 -0.21207787828E+01 -0.29602442515E+01  0.88251210095E+01  0.51100000000E-03 0. -1.
        -11    1    3    3    0    0  0.10307192752E+02 -0.19906582732E+02 -0.13076516464E+02  0.25951985311E+02  0.51100000000E-03 0.  1.
        -12    1    3    3    0    0 -0.18157486998E+01 -0.10387425016E+02 -0.76202956738E+01  0.13010167099E+02  0.00000000000E+00 0.  1.
</event>
<event>
 7    1  0.1813014E-010  0.4778727E+02  0.7816164E-02  0.1312668E+00
        -11   -1    0    0    0    0  0.00000000000E+00  0.00000000000E+00  0.45593999997E+02  0.45594000000E+02  0.51100000000E-03 0. -1.
         11   -1    0    0    0    0 -0.00000000000E+00 -0.00000000000E+00 -0.45593999997E+02  0.45594000000E+02  0.51100000000E-03 0.  1.
    9900012    2    1    2    0    0 -0.97511413516E+01  0.10017656169E+02 -0.41087531988E+02  0.47787268697E+02  0.19999989299E+02 0.  0.
         12    1    1    2    0    0  0.97511413516E+01 -0.10017656169E+02  0.41087531988E+02  0.43400731303E+02  0.00000000000E+00 0. -1.
         11    1    3    3    0    0  0.34234094358E+01  0.22394099160E+01 -0.49209441921E+01  0.63992484668E+01  0.51100000000E-03 0. -1.
        -11    1    3    3    0    0  0.25017395417E+01  0.22898695393E+01 -0.79968498870E+01  0.86863002261E+01  0.51100000000E-03 0.  1.
         12    1    3    3    0    0 -0.15676290329E+02  0.54883767133E+01 -0.28169737908E+02  0.32701720005E+02  0.00000000000E+00 0. -1.
</event>
<event>
 7    1  0.1813014E-010  0.4778727E+02  0.7816164E-02  0.1312668E+00
        -11   -1    0    0    0    0  0.00000000000E+00  0.00000000000E+00  0.45593999997E+02  0.45594000000E+02  0.51100000000E-03 0.  1.
         11   -1    0    0    0    0 -0.00000000000E+00 -0.00000000000E+00 -0.45593999997E+02  0.45594000000E+02  0.51100000000E-03 0. -1.
    9900012    2    1    2    0    0 -0.26868856356E+02 -0.15983173163E+02  0.30103588151E+02  0.47787270907E+02  0.19999999374E+02 0.  0.
         12    1    1    2    0    0  0.26868856356E+02  0.15983173163E+02 -0.30103588151E+02  0.43400729093E+02  0.00000000000E+00 0. -1.
         11    1    3    3    0    0 -0.55328791971E+01 -0.85030641990E+01  0.82609161419E+01  0.13082720999E+02  0.51100000000E-03 0. -1.
        -11    1    3    3    0    0 -0.22432084207E+01  0.24305530908E+01  0.91452275663E+01  0.97249555190E+01  0.51100000000E-03 0.  1.
        -12    1    3    3    0    0 -0.19092768738E+02 -0.99106620547E+01  0.12697444443E+02  0.24979594389E+02  0.00000000000E+00 0.  1.
</event>
<event>
 7    1  0.1813014E-010  0.4778727E+02  0.7816164E-02  0.1312668E+00
        -11   -1    0    0    0    0  0.00000000000E+00  0.00000000000E+00  0.45593999997E+02  0.45594000000E+02  0.51100000000E-03 0.  1.
         11   -1    0    0    0    0 -0.00000000000E+00 -0.00000000000E+00 -0.45593999997E+02  0.45594000000E+02  0.51100000000E-03 0. -1.
    9900012    2    1    2    0    0 -0.34319223552E+02 -0.18370099125E+01  0.26503573775E+02  0.47787272662E+02  0.20000007376E+02 0.  0.
         12    1    1    2    0    0  0.34319223552E+02  0.18370099125E+01 -0.26503573775E+02  0.43400727338E+02  0.00000000000E+00 0. -1.
         11    1    3    3    0    0 -0.24514872057E+01  0.70970739112E+00 -0.13662132705E+01  0.28948252214E+01  0.51100000000E-03 0.  1.
        -11    1    3    3    0    0 -0.25251431400E+02 -0.75976422945E+01  0.17740736032E+02  0.31781955123E+02  0.51100000000E-03 0. -1.
        -12    1    3    3    0    0 -0.66163049458E+01  0.50509249909E+01  0.10129051013E+02  0.13110492318E+02  0.00000000000E+00 0.  1.
</event>
<event>
 7    1  0.1813014E-010  0.4778727E+02  0.7816164E-02  0.1312668E+00
        -11   -1    0    0    0    0  0.00000000000E+00  0.00000000000E+00  0.45593999997E+02  0.45594000000E+02  0.51100000000E-03 0.  1.
         11   -1    0    0    0    0 -0.00000000000E+00 -0.00000000000E+00 -0.45593999997E+02  0.45594000000E+02  0.51100000000E-03 0. -1.
    9900012    2    1    2    0    0 -0.17719419959E+02 -0.39471099453E+02 -0.34172378001E+01  0.47787273625E+02  0.20000011765E+02 0.  0.
         12    1    1    2    0    0  0.17719419959E+02  0.39471099453E+02  0.34172378001E+01  0.43400726375E+02  0.00000000000E+00 0. -1.
         11    1    3    3    0    0 -0.37203847449E+01 -0.21867187001E+01 -0.33793622251E+01  0.54811577821E+01  0.51100000000E-03 0. -1.
        -11    1    3    3    0    0 -0.15872410071E+02 -0.31868180463E+02  0.31619487509E+01  0.35742303334E+02  0.51100000000E-03 0.  1.
        -12    1    3    3    0    0  0.18733748562E+01 -0.54162002900E+01 -0.31998243259E+01  0.65638125087E+01  0.00000000000E+00 0.  1.
</event>
<event>
 7    1  0.1813014E-010  0.4778725E+02  0.7816164E-02  0.1312668E+00
        -11   -1    0    0    0    0  0.00000000000E+00  0.00000000000E+00  0.45593999997E+02  0.45594000000E+02  0.51100000000E-03 0. -1.
         11   -1    0    0    0    0 -0.00000000000E+00 -0.00000000000E+00 -0.45593999997E+02  0.45594000000E+02  0.51100000000E-03 0.  1.
    9900012    2    1    2    0    0 -0.28864039795E+02 -0.49006694776E+01 -0.32038653866E+02  0.47787254659E+02  0.19999925291E+02 0.  0.
         12    1    1    2    0    0  0.28864039795E+02  0.49006694776E+01  0.32038653866E+02  0.43400745341E+02  0.00000000000E+00 0. -1.
         11    1    3    3    0    0 -0.15489548175E+01 -0.33184494997E+01 -0.20145419353E+01  0.41796827127E+01  0.51100000000E-03 0. -1.
        -11    1    3    3    0    0 -0.28977114668E+02 -0.23075791964E+01 -0.25262128807E+02  0.38511988372E+02  0.51100000000E-03 0.  1.
        -12    1    3    3    0    0  0.16620296906E+01  0.72535921857E+00 -0.47619831239E+01  0.50955835741E+01  0.00000000000E+00 0.  1.
</event>
<event>
 7    1  0.1813014E-010  0.4778727E+02  0.7816164E-02  0.1312668E+00
        -11   -1    0    0    0    0  0.00000000000E+00  0.00000000000E+00  0.45593999997E+02  0.45594000000E+02  0.51100000000E-03 0.  1.
         11   -1    0    0    0    0 -0.00000000000E+00 -0.00000000000E+00 -0.45593999997E+02  0.45594000000E+02  0.51100000000E-03 0. -1.
    9900012    2    1    2    0    0  0.16648598687E+02 -0.12666745554E+02  0.38026317829E+02  0.47787272716E+02  0.20000007621E+02 0.  0.
         12    1    1    2    0    0 -0.16648598687E+02  0.12666745554E+02 -0.38026317829E+02  0.43400727284E+02  0.00000000000E+00 0. -1.
         11    1    3    3    0    0 -0.10790733226E+01  0.76425179853E+00 -0.34107363984E+00  0.13655810250E+01  0.51100000000E-03 0. -1.
        -11    1    3    3    0    0  0.15726497551E+02 -0.57476743240E+01  0.18112162865E+02  0.24665946754E+02  0.51100000000E-03 0.  1.
         12    1    3    3    0    0  0.20011744581E+01 -0.76833230280E+01  0.20255228604E+02  0.21755744937E+02  0.00000000000E+00 0. -1.
</event>
<event>
 7    1  0.1813014E-010  0.4778727E+02  0.7816164E-02  0.1312668E+00
        -11   -1    0    0    0    0  0.00000000000E+00  0.00000000000E+00  0.45593999997E+02  0.45594000000E+02  0.51100000000E-03 0.  1.
         11   -1    0    0    0    0 -0.00000000000E+00 -0.00000000000E+00 -0.45593999997E+02  0.45594000000E+02  0.51100000000E-03 0. -1.
    9900012    2    1    2    0    0  0.79718359922E+01 -0.38582016761E+02  0.18207167456E+02  0.47787272665E+02  0.20000007387E+02 0.  0.
         12    1    1    2    0    0 -0.79718359922E+01  0.38582016761E+02 -0.18207167456E+02  0.43400727335E+02  0.00000000000E+00 0. -1.
         11    1    3    3    0    0 -0.26737457760E+00 -0.12495715987E+02  0.14999158538E+02  0.19524066285E+02  0.51100000000E-03 0. -1.
        -11    1    3    3    0    0  0.23563110727E+01 -0.15435712554E+02  0.38390337399E+01  0.16079539926E+02  0.51100000000E-03 0.  1.
        -12    1    3    3    0    0  0.58828994971E+01 -0.10650588221E+02 -0.63102482141E+00  0.12183666454E+02  0.00000000000E+00 0.  1.
</event>
<event>
 7    1  0.1813014E-010  0.4778727E+02  0.7816164E-02  0.1312668E+00
        -11   -1    0    0    0    0  0.00000000000E+00  0.00000000000E+00  0.45593999997E+02  0.45594000000E+02  0.51100000000E-03 0. -1.
         11   -1    0    0    0    0 -0.00000000000E+00 -0.00000000000E+00 -0.45593999997E+02  0.45594000000E+02  0.51100000000E-03 0.  1.
    9900012    2    1    2    0    0  0.37624606537E+02 -0.11671077008E+02 -0.18215326879E+02  0.47787272023E+02  0.20000004463E+02 0.  0.
         12    1    1    2    0    0 -0.37624606537E+02  0.11671077008E+02  0.18215326879E+02  0.43400727977E+02  0.00000000000E+00 0. -1.
         11    1    3    3    0    0  0.12339719824E+02  0.20986658264E+01 -0.87536156308E+01  0.15274124213E+02  0.51100000000E-03 0. -1.
        -11    1    3    3    0    0  0.20295231450E+02 -0.96699813393E+01 -0.12107541759E+02  0.25534242233E+02  0.51100000000E-03 0.  1.
        -12    1    3    3    0    0  0.49896552636E+01 -0.40997614949E+01  0.26458305118E+01  0.69789055776E+01  0.00000000000E+00 0.  1.
</event>
<event>
 7    1  0.1813014E-010  0.4778727E+02  0.7816164E-02  0.1312668E+00
        -11   -1    0    0    0    0  0.00000000000E+00  0.00000000000E+00  0.45593999997E+02  0.45594000000E+02  0.51100000000E-03 0.  1.
         11   -1    0    0    0    0 -0.00000000000E+00 -0.00000000000E+00 -0.45593999997E+02  0.45594000000E+02  0.51100000000E-03 0. -1.
    9900012    2    1    2    0    0  0.15629787181E+02  0.98090668105E+01  0.39282507204E+02  0.47787269462E+02  0.19999992787E+02 0.  0.
         12    1    1    2    0    0 -0.15629787181E+02 -0.98090668105E+01 -0.39282507204E+02  0.43400730538E+02  0.00000000000E+00 0. -1.
         11    1    3    3    0    0  0.84476803458E+00  0.82554530394E+01  0.69594996815E+01  0.10830548185E+02  0.51100000000E-03 0. -1.
        -11    1    3    3    0    0  0.51547138130E+01  0.28719171843E+01  0.22000346993E+02  0.22777933420E+02  0.51100000000E-03 0.  1.
         12    1    3    3    0    0  0.96303053329E+01 -0.13183034133E+01  0.10322660529E+02  0.14178787857E+02  0.00000000000E+00 0. -1.
</event>
<event>
 7    1  0.1813014E-010  0.4778728E+02  0.7816164E-02  0.1312668E+00
        -11   -1    0    0    0    0  0.00000000000E+00  0.00000000000E+00  0.45593999997E+02  0.45594000000E+02  0.51100000000E-03 0.  1.
         11   -1    0    0    0    0 -0.00000000000E+00 -0.00000000000E+00 -0.45593999997E+02  0.45594000000E+02  0.51100000000E-03 0. -1.
    9900012    2    1    2    0    0 -0.34268187779E+02  0.20024244981E+02  0.17559718249E+02  0.47787276669E+02  0.20000025644E+02 0.  0.
         12    1    1    2    0    0  0.34268187779E+02 -0.20024244981E+02 -0.17559718249E+02  0.43400723331E+02  0.00000000000E+00 0. -1.
         11    1    3    3    0    0 -0.61621590107E+01 -0.20865470944E+01  0.13945032893E+01  0.66536097072E+01  0.51100000000E-03 0. -1.
        -11    1    3    3    0    0 -0.58076937847E+01  0.77990136356E+01  0.99621667207E+01  0.13921159679E+02  0.51100000000E-03 0.  1.
        -12    1    3    3    0    0 -0.22298334983E+02  0.14311778440E+02  0.62030482385E+01  0.27212507282E+02  0.00000000000E+00 0.  1.
</event>
<event>
 7    1  0.1813014E-010  0.4778727E+02  0.7816164E-02  0.1312668E+00
        -11   -1    0    0    0    0  0.00000000000E+00  0.00000000000E+00  0.45593999997E+02  0.45594000000E+02  0.51100000000E-03 0. -1.
         11   -1    0    0    0    0 -0.00000000000E+00 -0.00000000000E+00 -0.45593999997E+02  0.45594000000E+02  0.51100000000E-03 0.  1.
    9900012    2    1    2    0    0  0.41583456507E+02 -0.77676614148E+01  0.97006668286E+01  0.47787270100E+02  0.19999995693E+02 0.  0.
         12    1    1    2    0    0 -0.41583456507E+02  0.77676614148E+01 -0.97006668286E+01  0.43400729900E+02  0.00000000000E+00 0. -1.
         11    1    3    3    0    0  0.26109716577E+02 -0.84535861891E+01 -0.16769382512E+01  0.27495318535E+02  0.51100000000E-03 0. -1.
        -11    1    3    3    0    0  0.14462969483E+02 -0.10915753584E+01  0.86661160912E+01  0.16895874982E+02  0.51100000000E-03 0.  1.
         12    1    3    3    0    0  0.10107704469E+01  0.17775001328E+01  0.27114889886E+01  0.33960765824E+01  0.00000000000E+00 0. -1.
</event>
<event>
 7    1  0.1813014E-010  0.4778728E+02  0.7816164E-02  0.1312668E+00
        -11   -1    0    0    0    0  0.00000000000E+00  0.00000000000E+00  0.45593999997E+02  0.45594000000E+02  0.51100000000E-03 0. -1.
         11   -1    0    0    0    0 -0.00000000000E+00 -0.00000000000E+00 -0.45593999997E+02  0.45594000000E+02  0.51100000000E-03 0.  1.
    9900012    2    1    2    0    0 -0.30793516467E+02 -0.25806870814E+02 -0.16413029501E+02  0.47787276791E+02  0.20000026203E+02 0.  0.
         12    1    1    2    0    0  0.30793516467E+02  0.25806870814E+02  0.16413029501E+02  0.43400723209E+02  0.00000000000E+00 0. -1.
         11    1    3    3    0    0 -0.19376310906E+02 -0.65136219989E+01 -0.79710306219E+01  0.21940966827E+02  0.51100000000E-03 0. -1.
        -11    1    3    3    0    0 -0.26313434704E+01  0.55562651728E+00 -0.13607580611E+01  0.30140258871E+01  0.51100000000E-03 0.  1.
        -12    1    3    3    0    0 -0.87858620901E+01 -0.19848875333E+02 -0.70812408181E+01  0.22832284077E+02  0.00000000000E+00 0.  1.
</event>
<event>
 7    1  0.1813014E-010  0.4778727E+02  0.7816164E-02  0.1312668E+00
        -11   -1    0    0    0    0  0.00000000000E+00  0.00000000000E+00  0.45593999997E+02  0.45594000000E+02  0.51100000000E-03 0.  1.
         11   -1    0    0    0    0 -0.00000000000E+00 -0.00000000000E+00 -0.45593999997E+02  0.45594000000E+02  0.51100000000E-03 0. -1.
    9900012    2    1    2    0    0 -0.13138323997E+02  0.17351871428E+01  0.41327917520E+02  0.47787271914E+02  0.20000003965E+02 0.  0.
         12    1    1    2    0    0  0.13138323997E+02 -0.17351871428E+01 -0.41327917520E+02  0.43400728086E+02  0.00000000000E+00 0. -1.
         11    1    3    3    0    0 -0.60476064859E+01  0.20157503144E+01  0.59972298348E+01  0.87523459421E+01  0.51100000000E-03 0. -1.
        -11    1    3    3    0    0 -0.58313885295E+01 -0.66094027074E+01  0.27555070101E+02  0.28930454280E+02  0.51100000000E-03 0.  1.
        -12    1    3    3    0    0 -0.12593289812E+01  0.63288395357E+01  0.77756175843E+01  0.10104471692E+02  0.00000000000E+00 0.  1.
</event>
<event>
 7    1  0.1813014E-010  0.4778727E+02  0.7816164E-02  0.1312668E+00
        -11   -1    0    0    0    0  0.00000000000E+00  0.00000000000E+00  0.45593999997E+02  0.45594000000E+02  0.51100000000E-03 0. -1.
         11   -1    0    0    0    0 -0.00000000000E+00 -0.00000000000E+00 -0.45593999997E+02  0.45594000000E+02  0.51100000000E-03 0.  1.
    9900012    2    1    2    0    0  0.38781021695E+02  0.88212913739E+01 -0.17373551349E+02  0.47787272913E+02  0.20000008521E+02 0.  0.
         12    1    1    2    0    0 -0.38781021695E+02 -0.88212913739E+01  0.17373551349E+02  0.43400727087E+02  0.00000000000E+00 0. -1.
         11    1    3    3    0    0  0.20290010358E+02 -0.42372320284E+01 -0.83792526206E+01  0.22357337282E+02  0.51100000000E-03 0.  1.
        -11    1    3    3    0    0  0.11694354085E+02  0.64880751709E+01 -0.16827779066E+01  0.13479049619E+02  0.51100000000E-03 0. -1.
        -12    1    3    3    0    0  0.67966572519E+01  0.65704482314E+01 -0.73115208215E+01  0.11950886013E+02  0.00000000000E+00 0.  1.
</event>
<event>
 7    1  0.1813014E-010  0.4778722E+02  0.7816164E-02  0.1312668E+00
        -11   -1    0    0    0    0  0.00000000000E+00  0.00000000000E+00  0.45593999997E+02  0.45594000000E+02  0.51100000000E-03 0. -1.
         11   -1    0    0    0    0 -0.00000000000E+00 -0.00000000000E+00 -0.45593999997E+02  0.45594000000E+02  0.51100000000E-03 0.  1.
    9900012    2    1    2    0    0 -0.32546062513E+02  0.19693738905E+02  0.20893497769E+02  0.47787219061E+02  0.19999762983E+02 0.  0.
         12    1    1    2    0    0  0.32546062513E+02 -0.19693738905E+02 -0.20893497769E+02  0.43400780939E+02  0.00000000000E+00 0. -1.
         11    1    3    3    0    0 -0.81626290884E+00  0.59785299530E+01  0.40457055428E+01  0.72647669705E+01  0.51100000000E-03 0. -1.
        -11    1    3    3    0    0 -0.12586968385E+02 -0.88167193576E+00  0.76267460283E+01  0.14743689286E+02  0.51100000000E-03 0.  1.
         12    1    3    3    0    0 -0.19142831219E+02  0.14596880887E+02  0.92210461982E+01  0.25778762804E+02  0.00000000000E+00 0. -1.
</event>
<event>
 7    1  0.1813014E-010  0.4778727E+02  0.7816164E-02  0.1312668E+00
        -11   -1    0    0    0    0  0.00000000000E+00  0.00000000000E+00  0.45593999997E+02  0.45594000000E+02  0.51100000000E-03 0. -1.
         11   -1    0    0    0    0 -0.00000000000E+00 -0.00000000000E+00 -0.45593999997E+02  0.45594000000E+02  0.51100000000E-03 0.  1.
    9900012    2    1    2    0    0 -0.28838611292E+02 -0.22403599829E+02 -0.23452854591E+02  0.47787272183E+02  0.20000005193E+02 0.  0.
         12    1    1    2    0    0  0.28838611292E+02  0.22403599829E+02  0.23452854591E+02  0.43400727817E+02  0.00000000000E+00 0. -1.
         11    1    3    3    0    0  0.16602802179E+00  0.91526739887E+00 -0.19151566571E+01  0.21291089680E+01  0.51100000000E-03 0. -1.
        -11    1    3    3    0    0 -0.14357557999E+02 -0.21830493276E+01 -0.84941436829E+01  0.16824257881E+02  0.51100000000E-03 0.  1.
        -12    1    3    3    0    0 -0.14647081315E+02 -0.21135817900E+02 -0.13043554251E+02  0.28833905335E+02  0.00000000000E+00 0.  1.
</event>
<event>
 7    1  0.1813014E-010  0.4778727E+02  0.7816164E-02  0.1312668E+00
        -11   -1    0    0    0    0  0.00000000000E+00  0.00000000000E+00  0.45593999997E+02  0.45594000000E+02  0.51100000000E-03 0. -1.
         11   -1    0    0    0    0 -0.00000000000E+00 -0.00000000000E+00 -0.45593999997E+02  0.45594000000E+02  0.51100000000E-03 0.  1.
    9900012    2    1    2    0    0 -0.42693934088E+02 -0.75365465959E+01  0.20128899892E+01  0.47787271105E+02  0.20000000277E+02 0.  0.
         12    1    1    2    0    0  0.42693934088E+02  0.75365465959E+01 -0.20128899892E+01  0.43400728895E+02  0.00000000000E+00 0. -1.
         11    1    3    3    0    0 -0.13923199586E+01  0.32258049337E+01  0.20776783500E+01  0.40818035137E+01  0.51100000000E-03 0. -1.
        -11    1    3    3    0    0 -0.15024273514E+02 -0.29041489611E+01 -0.44354426325E+01  0.15932232343E+02  0.51100000000E-03 0.  1.
         12    1    3    3    0    0 -0.26277340615E+02 -0.78582025685E+01  0.43706542718E+01  0.27773235249E+02  0.00000000000E+00 0. -1.
</event>
<event>
 7    1  0.1813014E-010  0.4778727E+02  0.7816164E-02  0.1312668E+00
        -11   -1    0    0    0    0  0.00000000000E+00  0.00000000000E+00  0.45593999997E+02  0.45594000000E+02  0.51100000000E-03 0. -1.
         11   -1    0    0    0    0 -0.00000000000E+00 -0.00000000000E+00 -0.45593999997E+02  0.45594000000E+02  0.51100000000E-03 0.  1.
    9900012    2    1    2    0    0  0.39655372595E+02 -0.61436896869E+01 -0.16532686641E+02  0.47787271594E+02  0.20000002505E+02 0.  0.
         12    1    1    2    0    0 -0.39655372595E+02  0.61436896869E+01  0.16532686641E+02  0.43400728406E+02  0.00000000000E+00 0. -1.
         11    1    3    3    0    0  0.77930776065E+01 -0.55582998090E+01 -0.78536590971E+01  0.12381708962E+02  0.51100000000E-03 0. -1.
        -11    1    3    3    0    0  0.12762403378E+02  0.25035505109E+00 -0.10038318703E+02  0.16239133606E+02  0.51100000000E-03 0.  1.
         12    1    3    3    0    0  0.19099891611E+02 -0.83574492906E+00  0.13592911596E+01  0.19166429026E+02  0.00000000000E+00 0. -1.
</event>
<event>
 7    1  0.1813014E-010  0.4778728E+02  0.7816164E-02  0.1312668E+00
        -11   -1    0    0    0    0  0.00000000000E+00  0.00000000000E+00  0.45593999997E+02  0.45594000000E+02  0.51100000000E-03 0.  1.
         11   -1    0    0    0    0 -0.00000000000E+00 -0.00000000000E+00 -0.45593999997E+02  0.45594000000E+02  0.51100000000E-03 0. -1.
    9900012    2    1    2    0    0  0.15392703495E+02 -0.26490830675E+02  0.30739606303E+02  0.47787276200E+02  0.20000023507E+02 0.  0.
         12    1    1    2    0    0 -0.15392703495E+02  0.26490830675E+02 -0.30739606303E+02  0.43400723800E+02  0.00000000000E+00 0. -1.
         11    1    3    3    0    0  0.49488429849E+01 -0.41646766674E+01  0.18417024386E+01  0.67251354460E+01  0.51100000000E-03 0. -1.
        -11    1    3    3    0    0  0.26196391052E+01 -0.11946055971E+02  0.24424419039E+02  0.27315252295E+02  0.51100000000E-03 0.  1.
        -12    1    3    3    0    0  0.78242214046E+01 -0.10380098036E+02  0.44734848255E+01  0.13746888459E+02  0.00000000000E+00 0.  1.
</event>
<event>
 7    1  0.2304669E-010  0.4778727E+02  0.7816164E-02  0.1312668E+00
        -11   -1    0    0    0    0  0.00000000000E+00  0.00000000000E+00  0.45593999997E+02  0.45594000000E+02  0.51100000000E-03 0. -1.
         11   -1    0    0    0    0 -0.00000000000E+00 -0.00000000000E+00 -0.45593999997E+02  0.45594000000E+02  0.51100000000E-03 0.  1.
    9900012    2    1    2    0    0 -0.34175931858E+02  0.19803802119E+02 -0.17984399819E+02  0.47787268053E+02  0.19999986360E+02 0.  0.
         12    1    1    2    0    0  0.34175931858E+02 -0.19803802119E+02  0.17984399819E+02  0.43400731947E+02  0.00000000000E+00 0. -1.
         11    1    3    3    0    0 -0.10224939295E+02  0.12898296934E+02 -0.85118264829E+01  0.18530154822E+02  0.51100000000E-03 0. -1.
        -11    1    3    3    0    0 -0.12659899603E+02  0.17951626483E+01 -0.10873091065E+02  0.16784510015E+02  0.51100000000E-03 0.  1.
         12    1    3    3    0    0 -0.11291092960E+02  0.51103425365E+01  0.14005177289E+01  0.12472603215E+02  0.00000000000E+00 0. -1.
</event>
<event>
 7    1  0.1813014E-010  0.4778727E+02  0.7816164E-02  0.1312668E+00
        -11   -1    0    0    0    0  0.00000000000E+00  0.00000000000E+00  0.45593999997E+02  0.45594000000E+02  0.51100000000E-03 0.  1.
         11   -1    0    0    0    0 -0.00000000000E+00 -0.00000000000E+00 -0.45593999997E+02  0.45594000000E+02  0.51100000000E-03 0. -1.
    9900012    2    1    2    0    0 -0.19471050490E+02 -0.22762966812E+02  0.31406188416E+02  0.47787272632E+02  0.20000007236E+02 0.  0.
         12    1    1    2    0    0  0.19471050490E+02  0.22762966812E+02 -0.31406188416E+02  0.43400727368E+02  0.00000000000E+00 0. -1.
         11    1    3    3    0    0 -0.12497736011E+02 -0.14673816263E+02  0.16427896127E+02  0.25325679863E+02  0.51100000000E-03 0. -1.
        -11    1    3    3    0    0 -0.55032064807E+01  0.69258305851E+00  0.11744886859E+02  0.12988738216E+02  0.51100000000E-03 0.  1.
         12    1    3    3    0    0 -0.14701079988E+01 -0.87817336079E+01  0.32334054302E+01  0.94728545520E+01  0.00000000000E+00 0. -1.
</event>
<event>
 7    1  0.1813014E-010  0.4778727E+02  0.7816164E-02  0.1312668E+00
        -11   -1    0    0    0    0  0.00000000000E+00  0.00000000000E+00  0.45593999997E+02  0.45594000000E+02  0.51100000000E-03 0.  1.
         11   -1    0    0    0    0 -0.00000000000E+00 -0.00000000000E+00 -0.45593999997E+02  0.45594000000E+02  0.51100000000E-03 0. -1.
    9900012    2    1    2    0    0  0.29846260403E+02  0.25705904756E+02  0.18221707739E+02  0.47787269219E+02  0.19999991678E+02 0.  0.
         12    1    1    2    0    0 -0.29846260403E+02 -0.25705904756E+02 -0.18221707739E+02  0.43400730781E+02  0.00000000000E+00 0. -1.
         11    1    3    3    0    0  0.55544439802E+01  0.11833274662E+02  0.24349514779E+01  0.13296887836E+02  0.51100000000E-03 0. -1.
        -11    1    3    3    0    0  0.23439558596E+02  0.15301902018E+02  0.12197725816E+02  0.30534335229E+02  0.51100000000E-03 0.  1.
         12    1    3    3    0    0  0.85225782714E+00 -0.14292719238E+01  0.35890304456E+01  0.39560461544E+01  0.00000000000E+00 0. -1.
</event>
<event>
 7    1  0.1813014E-010  0.4778728E+02  0.7816164E-02  0.1312668E+00
        -11   -1    0    0    0    0  0.00000000000E+00  0.00000000000E+00  0.45593999997E+02  0.45594000000E+02  0.51100000000E-03 0. -1.
         11   -1    0    0    0    0 -0.00000000000E+00 -0.00000000000E+00 -0.45593999997E+02  0.45594000000E+02  0.51100000000E-03 0.  1.
    9900012    2    1    2    0    0  0.38153264951E+02  0.14471093722E+02 -0.14783052686E+02  0.47787276197E+02  0.20000023493E+02 0.  0.
         12    1    1    2    0    0 -0.38153264951E+02 -0.14471093722E+02  0.14783052686E+02  0.43400723803E+02  0.00000000000E+00 0. -1.
         11    1    3    3    0    0  0.13082904087E+02  0.30312938282E+01 -0.32222158671E+01  0.13810640715E+02  0.51100000000E-03 0. -1.
        -11    1    3    3    0    0  0.42751191107E+01  0.70777770418E+01 -0.95524578524E+01  0.12634121360E+02  0.51100000000E-03 0.  1.
        -12    1    3    3    0    0  0.20795241753E+02  0.43620228518E+01 -0.20083789663E+01  0.21342514121E+02  0.00000000000E+00 0.  1.
</event>
<event>
 7    1  0.1813014E-010  0.4778727E+02  0.7816164E-02  0.1312668E+00
        -11   -1    0    0    0    0  0.00000000000E+00  0.00000000000E+00  0.45593999997E+02  0.45594000000E+02  0.51100000000E-03 0. -1.
         11   -1    0    0    0    0 -0.00000000000E+00 -0.00000000000E+00 -0.45593999997E+02  0.45594000000E+02  0.51100000000E-03 0.  1.
    9900012    2    1    2    0    0 -0.53842229557E+01  0.64115223922E+01 -0.42585517703E+02  0.47787265050E+02  0.19999972667E+02 0.  0.
         12    1    1    2    0    0  0.53842229557E+01 -0.64115223922E+01  0.42585517703E+02  0.43400734950E+02  0.00000000000E+00 0. -1.
         11    1    3    3    0    0  0.26421048469E+01  0.14760029735E+01 -0.84366410803E+00  0.31418262505E+01  0.51100000000E-03 0. -1.
        -11    1    3    3    0    0 -0.84571049196E+00  0.45426589596E+01 -0.36713409017E+01  0.59016710292E+01  0.51100000000E-03 0.  1.
        -12    1    3    3    0    0 -0.71806173107E+01  0.39286045915E+00 -0.38070512693E+02  0.38743767770E+02  0.00000000000E+00 0.  1.
</event>
<event>
 7    1  0.1813014E-010  0.4778727E+02  0.7816164E-02  0.1312668E+00
        -11   -1    0    0    0    0  0.00000000000E+00  0.00000000000E+00  0.45593999997E+02  0.45594000000E+02  0.51100000000E-03 0. -1.
         11   -1    0    0    0    0 -0.00000000000E+00 -0.00000000000E+00 -0.45593999997E+02  0.45594000000E+02  0.51100000000E-03 0.  1.
    9900012    2    1    2    0    0  0.34828520369E+02 -0.56506412413E+01 -0.25271870384E+02  0.47787274082E+02  0.20000013848E+02 0.  0.
         12    1    1    2    0    0 -0.34828520369E+02  0.56506412413E+01  0.25271870384E+02  0.43400725918E+02  0.00000000000E+00 0. -1.
         11    1    3    3    0    0  0.64518070287E+01 -0.69041691727E+01 -0.79372820644E-01  0.94498500627E+01  0.51100000000E-03 0. -1.
        -11    1    3    3    0    0  0.77801960936E+01  0.24333104622E+01 -0.87259048354E+01  0.11941267375E+02  0.51100000000E-03 0.  1.
        -12    1    3    3    0    0  0.20596517247E+02 -0.11797825308E+01 -0.16466592728E+02  0.26396156644E+02  0.00000000000E+00 0.  1.
</event>
<event>
 7    1  0.1813014E-010  0.4778728E+02  0.7816164E-02  0.1312668E+00
        -11   -1    0    0    0    0  0.00000000000E+00  0.00000000000E+00  0.45593999997E+02  0.45594000000E+02  0.51100000000E-03 0.  1.
         11   -1    0    0    0    0 -0.00000000000E+00 -0.00000000000E+00 -0.45593999997E+02  0.45594000000E+02  0.51100000000E-03 0. -1.
    9900012    2    1    2    0    0 -0.18568468735E+02  0.32366724474E+02  0.22163696717E+02  0.47787281844E+02  0.20000049239E+02 0.  0.
         12    1    1    2    0    0  0.18568468735E+02 -0.32366724474E+02 -0.22163696717E+02  0.43400718156E+02  0.00000000000E+00 0. -1.
         11    1    3    3    0    0 -0.69931299905E+01  0.12858364837E+02  0.37606229796E+01  0.15112369067E+02  0.51100000000E-03 0. -1.
        -11    1    3    3    0    0 -0.10967772169E+02  0.17624422014E+02  0.82615513396E+01  0.22342012185E+02  0.51100000000E-03 0.  1.
         12    1    3    3    0    0 -0.60756657545E+00  0.18839376226E+01  0.10141522398E+02  0.10332900592E+02  0.00000000000E+00 0. -1.
</event>
<event>
 7    1  0.1813014E-010  0.4778727E+02  0.7816164E-02  0.1312668E+00
        -11   -1    0    0    0    0  0.00000000000E+00  0.00000000000E+00  0.45593999997E+02  0.45594000000E+02  0.51100000000E-03 0. -1.
         11   -1    0    0    0    0 -0.00000000000E+00 -0.00000000000E+00 -0.45593999997E+02  0.45594000000E+02  0.51100000000E-03 0.  1.
    9900012    2    1    2    0    0  0.13573733013E+02  0.24306946705E+02  0.33294882581E+02  0.47787273139E+02  0.20000009548E+02 0.  0.
         12    1    1    2    0    0 -0.13573733013E+02 -0.24306946705E+02 -0.33294882581E+02  0.43400726861E+02  0.00000000000E+00 0. -1.
         11    1    3    3    0    0  0.22122632979E+01  0.81972509854E+01  0.19276375173E+01  0.87065963083E+01  0.51100000000E-03 0. -1.
        -11    1    3    3    0    0  0.99654891698E+01  0.17004338065E+02  0.21873820902E+02  0.29443548165E+02  0.51100000000E-03 0.  1.
         12    1    3    3    0    0  0.13959805452E+01 -0.89464234519E+00  0.94934241610E+01  0.96371286651E+01  0.00000000000E+00 0. -1.
</event>
<event>
 7    1  0.1813014E-010  0.4778727E+02  0.7816164E-02  0.1312668E+00
        -11   -1    0    0    0    0  0.00000000000E+00  0.00000000000E+00  0.45593999997E+02  0.45594000000E+02  0.51100000000E-03 0. -1.
         11   -1    0    0    0    0 -0.00000000000E+00 -0.00000000000E+00 -0.45593999997E+02  0.45594000000E+02  0.51100000000E-03 0.  1.
    9900012    2    1    2    0    0  0.13459646180E+01 -0.24113303406E+02 -0.36060507802E+02  0.47787271379E+02  0.20000001523E+02 0.  0.
         12    1    1    2    0    0 -0.13459646180E+01  0.24113303406E+02  0.36060507802E+02  0.43400728621E+02  0.00000000000E+00 0. -1.
         11    1    3    3    0    0  0.38165334121E+01 -0.10367531164E+01 -0.10646602961E+02  0.11357417805E+02  0.51100000000E-03 0. -1.
        -11    1    3    3    0    0  0.32189451071E+01 -0.11587424147E+02 -0.67629184387E+01  0.13797357429E+02  0.51100000000E-03 0.  1.
        -12    1    3    3    0    0 -0.56895139012E+01 -0.11489126143E+02 -0.18650986402E+02  0.22632496145E+02  0.00000000000E+00 0.  1.
</event>
<event>
 7    1  0.1813014E-010  0.4778727E+02  0.7816164E-02  0.1312668E+00
        -11   -1    0    0    0    0  0.00000000000E+00  0.00000000000E+00  0.45593999997E+02  0.45594000000E+02  0.51100000000E-03 0.  1.
         11   -1    0    0    0    0 -0.00000000000E+00 -0.00000000000E+00 -0.45593999997E+02  0.45594000000E+02  0.51100000000E-03 0. -1.
    9900012    2    1    2    0    0  0.19503195169E+01  0.33366137085E+02  0.27686102828E+02  0.47787272587E+02  0.20000007033E+02 0.  0.
         12    1    1    2    0    0 -0.19503195169E+01 -0.33366137085E+02 -0.27686102828E+02  0.43400727413E+02  0.00000000000E+00 0. -1.
         11    1    3    3    0    0  0.49021360618E+01  0.28516250147E+01  0.13031813919E+01  0.58190192640E+01  0.51100000000E-03 0. -1.
        -11    1    3    3    0    0  0.27941005786E+01  0.20830716109E+02  0.14120819246E+02  0.25320412084E+02  0.51100000000E-03 0.  1.
         12    1    3    3    0    0 -0.57459171235E+01  0.96837959612E+01  0.12262102190E+02  0.16647841239E+02  0.00000000000E+00 0. -1.
</event>
<event>
 7    1  0.1813014E-010  0.4778727E+02  0.7816164E-02  0.1312668E+00
        -11   -1    0    0    0    0  0.00000000000E+00  0.00000000000E+00  0.45593999997E+02  0.45594000000E+02  0.51100000000E-03 0. -1.
         11   -1    0    0    0    0 -0.00000000000E+00 -0.00000000000E+00 -0.45593999997E+02  0.45594000000E+02  0.51100000000E-03 0.  1.
    9900012    2    1    2    0    0 -0.28363472750E+00  0.29773737869E+02 -0.31576369978E+02  0.47787273551E+02  0.20000011426E+02 0.  0.
         12    1    1    2    0    0  0.28363472750E+00 -0.29773737869E+02  0.31576369978E+02  0.43400726449E+02  0.00000000000E+00 0. -1.
         11    1    3    3    0    0  0.82537616840E+00  0.66974280102E+01 -0.39743059028E+01  0.78314682813E+01  0.51100000000E-03 0. -1.
        -11    1    3    3    0    0  0.18801241040E+01  0.23955937773E+02 -0.27904799802E+02  0.36825258634E+02  0.51100000000E-03 0.  1.
         12    1    3    3    0    0 -0.29891349999E+01 -0.87962791381E+00  0.30273572685E+00  0.31305466351E+01  0.00000000000E+00 0. -1.
</event>
<event>
 7    1  0.1813014E-010  0.4778727E+02  0.7816164E-02  0.1312668E+00
        -11   -1    0    0    0    0  0.00000000000E+00  0.00000000000E+00  0.45593999997E+02  0.45594000000E+02  0.51100000000E-03 0.  1.
         11   -1    0    0    0    0 -0.00000000000E+00 -0.00000000000E+00 -0.45593999997E+02  0.45594000000E+02  0.51100000000E-03 0. -1.
    9900012    2    1    2    0    0  0.18422349665E+02 -0.78948711277E+01  0.38495601135E+02  0.47787271157E+02  0.20000000515E+02 0.  0.
         12    1    1    2    0    0 -0.18422349665E+02  0.78948711277E+01 -0.38495601135E+02  0.43400728843E+02  0.00000000000E+00 0. -1.
         11    1    3    3    0    0  0.76029770693E+01  0.48223974333E+01  0.99082531277E+01  0.13387839916E+02  0.51100000000E-03 0. -1.
        -11    1    3    3    0    0  0.89236520201E+01 -0.47514354677E+01  0.20667454429E+02  0.23007637367E+02  0.51100000000E-03 0.  1.
        -12    1    3    3    0    0  0.18957205759E+01 -0.79658330933E+01  0.79198935783E+01  0.11391793874E+02  0.00000000000E+00 0.  1.
</event>
<event>
 7    1  0.1813014E-010  0.4778727E+02  0.7816164E-02  0.1312668E+00
        -11   -1    0    0    0    0  0.00000000000E+00  0.00000000000E+00  0.45593999997E+02  0.45594000000E+02  0.51100000000E-03 0.  1.
         11   -1    0    0    0    0 -0.00000000000E+00 -0.00000000000E+00 -0.45593999997E+02  0.45594000000E+02  0.51100000000E-03 0. -1.
    9900012    2    1    2    0    0  0.22870432938E+01 -0.14980941212E+02  0.40668957755E+02  0.47787270841E+02  0.19999999073E+02 0.  0.
         12    1    1    2    0    0 -0.22870432938E+01  0.14980941212E+02 -0.40668957755E+02  0.43400729159E+02  0.00000000000E+00 0. -1.
         11    1    3    3    0    0  0.66497480064E+01 -0.74722985003E+00  0.10940903430E+02  0.12825009517E+02  0.51100000000E-03 0. -1.
        -11    1    3    3    0    0 -0.10224010113E+01 -0.87025461616E+01  0.26143925623E+02  0.27573256259E+02  0.51100000000E-03 0.  1.
         12    1    3    3    0    0 -0.33403037013E+01 -0.55311651999E+01  0.35841287031E+01  0.73890050647E+01  0.00000000000E+00 0. -1.
</event>
<event>
 7    1  0.1813014E-010  0.4778727E+02  0.7816164E-02  0.1312668E+00
        -11   -1    0    0    0    0  0.00000000000E+00  0.00000000000E+00  0.45593999997E+02  0.45594000000E+02  0.51100000000E-03 0. -1.
         11   -1    0    0    0    0 -0.00000000000E+00 -0.00000000000E+00 -0.45593999997E+02  0.45594000000E+02  0.51100000000E-03 0.  1.
    9900012    2    1    2    0    0  0.79751902692E+01 -0.30406905599E+02  0.29923895665E+02  0.47787273051E+02  0.20000009148E+02 0.  0.
         12    1    1    2    0    0 -0.79751902692E+01  0.30406905599E+02 -0.29923895665E+02  0.43400726949E+02  0.00000000000E+00 0. -1.
         11    1    3    3    0    0  0.70429107860E+01 -0.10184467169E+02  0.18152531829E+02  0.21973629102E+02  0.51100000000E-03 0. -1.
        -11    1    3    3    0    0 -0.24903202322E+01 -0.13312736278E+01 -0.71341832663E+00  0.29125504804E+01  0.51100000000E-03 0.  1.
        -12    1    3    3    0    0  0.34225997155E+01 -0.18891164802E+02  0.12484782163E+02  0.22901093468E+02  0.00000000000E+00 0.  1.
</event>
<event>
 7    1  0.1813014E-010  0.4778727E+02  0.7816164E-02  0.1312668E+00
        -11   -1    0    0    0    0  0.00000000000E+00  0.00000000000E+00  0.45593999997E+02  0.45594000000E+02  0.51100000000E-03 0.  1.
         11   -1    0    0    0    0 -0.00000000000E+00 -0.00000000000E+00 -0.45593999997E+02  0.45594000000E+02  0.51100000000E-03 0. -1.
    9900012    2    1    2    0    0  0.22404959409E+02  0.14446435501E+02  0.34248233855E+02  0.47787271585E+02  0.20000002464E+02 0.  0.
         12    1    1    2    0    0 -0.22404959409E+02 -0.14446435501E+02 -0.34248233855E+02  0.43400728415E+02  0.00000000000E+00 0. -1.
         11    1    3    3    0    0  0.15155979436E+02  0.11405303131E+02  0.96981501619E+01  0.21303491944E+02  0.51100000000E-03 0. -1.
        -11    1    3    3    0    0  0.64580240546E+01 -0.24465481477E+00  0.14343205812E+02  0.15731925626E+02  0.51100000000E-03 0.  1.
        -12    1    3    3    0    0  0.79095591842E+00  0.32857871841E+01  0.10206877882E+02  0.10751854016E+02  0.00000000000E+00 0.  1.
</event>
<event>
 7    1  0.1813014E-010  0.4778727E+02  0.7816164E-02  0.1312668E+00
        -11   -1    0    0    0    0  0.00000000000E+00  0.00000000000E+00  0.45593999997E+02  0.45594000000E+02  0.51100000000E-03 0.  1.
         11   -1    0    0    0    0 -0.00000000000E+00 -0.00000000000E+00 -0.45593999997E+02  0.45594000000E+02  0.51100000000E-03 0. -1.
    9900012    2    1    2    0    0 -0.21455047162E+02  0.10892947640E+02  0.36119909769E+02  0.47787271450E+02  0.20000001848E+02 0.  0.
         12    1    1    2    0    0  0.21455047162E+02 -0.10892947640E+02 -0.36119909769E+02  0.43400728550E+02  0.00000000000E+00 0. -1.
         11    1    3    3    0    0 -0.78331507171E+01 -0.51779015323E+01  0.87882484105E+01  0.12860879629E+02  0.51100000000E-03 0. -1.
        -11    1    3    3    0    0 -0.12843437602E+01  0.48809372812E+01  0.54727147102E+01  0.74447091412E+01  0.51100000000E-03 0.  1.
        -12    1    3    3    0    0 -0.12337552684E+02  0.11189911891E+02  0.21858946648E+02  0.27481682680E+02  0.00000000000E+00 0.  1.
</event>
<event>
 7    1  0.1813014E-010  0.4778727E+02  0.7816164E-02  0.1312668E+00
        -11   -1    0    0    0    0  0.00000000000E+00  0.00000000000E+00  0.45593999997E+02  0.45594000000E+02  0.51100000000E-03 0.  1.
         11   -1    0    0    0    0 -0.00000000000E+00 -0.00000000000E+00 -0.45593999997E+02  0.45594000000E+02  0.51100000000E-03 0. -1.
    9900012    2    1    2    0    0 -0.40353630751E+02 -0.14741108493E+02 -0.61569174441E+01  0.47787269283E+02  0.19999991969E+02 0.  0.
         12    1    1    2    0    0  0.40353630751E+02  0.14741108493E+02  0.61569174441E+01  0.43400730717E+02  0.00000000000E+00 0. -1.
         11    1    3    3    0    0 -0.21107422763E+02 -0.12166108818E+02 -0.93824207981E+01  0.26106844309E+02  0.51100000000E-03 0. -1.
        -11    1    3    3    0    0 -0.58690343558E+01  0.31246743683E+01 -0.50672346803E+00  0.66682773721E+01  0.51100000000E-03 0.  1.
        -12    1    3    3    0    0 -0.13377173632E+02 -0.56996740430E+01  0.37322268221E+01  0.15012147602E+02  0.00000000000E+00 0.  1.
</event>
<event>
 7    1  0.1813014E-010  0.4778727E+02  0.7816164E-02  0.1312668E+00
        -11   -1    0    0    0    0  0.00000000000E+00  0.00000000000E+00  0.45593999997E+02  0.45594000000E+02  0.51100000000E-03 0.  1.
         11   -1    0    0    0    0 -0.00000000000E+00 -0.00000000000E+00 -0.45593999997E+02  0.45594000000E+02  0.51100000000E-03 0. -1.
    9900012    2    1    2    0    0  0.16703395334E+02 -0.28384307770E+01  0.39957014715E+02  0.47787272703E+02  0.20000007563E+02 0.  0.
         12    1    1    2    0    0 -0.16703395334E+02  0.28384307770E+01 -0.39957014715E+02  0.43400727297E+02  0.00000000000E+00 0. -1.
         11    1    3    3    0    0  0.89984302037E+01  0.17985747325E+01  0.23121346697E+02  0.24875757084E+02  0.51100000000E-03 0. -1.
        -11    1    3    3    0    0  0.53491109284E+01 -0.18131892480E+00  0.17046468421E+02  0.17866951339E+02  0.51100000000E-03 0.  1.
         12    1    3    3    0    0  0.23558542021E+01 -0.44556865847E+01 -0.21080040225E+00  0.50445642797E+01  0.00000000000E+00 0. -1.
</event>
<event>
 7    1  0.1813014E-010  0.4778728E+02  0.7816164E-02  0.1312668E+00
        -11   -1    0    0    0    0  0.00000000000E+00  0.00000000000E+00  0.45593999997E+02  0.45594000000E+02  0.51100000000E-03 0. -1.
         11   -1    0    0    0    0 -0.00000000000E+00 -0.00000000000E+00 -0.45593999997E+02  0.45594000000E+02  0.51100000000E-03 0.  1.
    9900012    2    1    2    0    0  0.38226168613E+02 -0.19922667772E+02 -0.50467612725E+01  0.47787280452E+02  0.20000042892E+02 0.  0.
         12    1    1    2    0    0 -0.38226168613E+02  0.19922667772E+02  0.50467612725E+01  0.43400719548E+02  0.00000000000E+00 0. -1.
         11    1    3    3    0    0 -0.15467237052E+00  0.16700051602E+01 -0.24918155671E+00  0.16955625870E+01  0.51100000000E-03 0. -1.
        -11    1    3    3    0    0  0.24961985355E+02 -0.68290240445E+01 -0.21998816729E+01  0.25972596364E+02  0.51100000000E-03 0.  1.
        -12    1    3    3    0    0  0.13418855629E+02 -0.14763648887E+02 -0.25976980429E+01  0.20119121501E+02  0.00000000000E+00 0.  1.
</event>
<event>
 7    1  0.1813014E-010  0.4778727E+02  0.7816164E-02  0.1312668E+00
        -11   -1    0    0    0    0  0.00000000000E+00  0.00000000000E+00  0.45593999997E+02  0.45594000000E+02  0.51100000000E-03 0. -1.
         11   -1    0    0    0    0 -0.00000000000E+00 -0.00000000000E+00 -0.45593999997E+02  0.45594000000E+02  0.51100000000E-03 0.  1.
    9900012    2    1    2    0    0  0.14060576242E+02  0.26891513969E+02 -0.31028534202E+02  0.47787271175E+02  0.20000000595E+02 0.  0.
         12    1    1    2    0    0 -0.14060576242E+02 -0.26891513969E+02  0.31028534202E+02  0.43400728825E+02  0.00000000000E+00 0. -1.
         11    1    3    3    0    0  0.11522474861E+02  0.25744467824E+02 -0.22184755507E+02  0.35884654487E+02  0.51100000000E-03 0. -1.
        -11    1    3    3    0    0  0.20931446512E+01  0.27495033167E+01 -0.95044256893E+01  0.10113116778E+02  0.51100000000E-03 0.  1.
         12    1    3    3    0    0  0.44495672963E+00 -0.16024571713E+01  0.66064699441E+00  0.17894999101E+01  0.00000000000E+00 0. -1.
</event>
<event>
 7    1  0.1813014E-010  0.4778730E+02  0.7816164E-02  0.1312668E+00
        -11   -1    0    0    0    0  0.00000000000E+00  0.00000000000E+00  0.45593999997E+02  0.45594000000E+02  0.51100000000E-03 0. -1.
         11   -1    0    0    0    0 -0.00000000000E+00 -0.00000000000E+00 -0.45593999997E+02  0.45594000000E+02  0.51100000000E-03 0.  1.
    9900012    2    1    2    0    0  0.27478856240E+02 -0.31166395812E+02  0.12537500116E+02  0.47787300958E+02  0.20000136389E+02 0.  0.
         12    1    1    2    0    0 -0.27478856240E+02  0.31166395812E+02 -0.12537500116E+02  0.43400699042E+02  0.00000000000E+00 0. -1.
         11    1    3    3    0    0  0.13028466764E+00 -0.48898026866E+01 -0.14364173911E+01  0.50980819522E+01  0.51100000000E-03 0. -1.
        -11    1    3    3    0    0  0.32030151336E+01 -0.82111239742E+01 -0.12611066679E+01  0.89034966814E+01  0.51100000000E-03 0.  1.
        -12    1    3    3    0    0  0.24145556439E+02 -0.18065469151E+02  0.15235024175E+02  0.33785722325E+02  0.00000000000E+00 0.  1.
</event>
<event>
 7    1  0.1813014E-010  0.4778727E+02  0.7816164E-02  0.1312668E+00
        -11   -1    0    0    0    0  0.00000000000E+00  0.00000000000E+00  0.45593999997E+02  0.45594000000E+02  0.51100000000E-03 0. -1.
         11   -1    0    0    0    0 -0.00000000000E+00 -0.00000000000E+00 -0.45593999997E+02  0.45594000000E+02  0.51100000000E-03 0.  1.
    9900012    2    1    2    0    0 -0.17264862563E+02  0.37048358236E+02  0.14593389307E+02  0.47787270297E+02  0.19999996591E+02 0.  0.
         12    1    1    2    0    0  0.17264862563E+02 -0.37048358236E+02 -0.14593389307E+02  0.43400729703E+02  0.00000000000E+00 0. -1.
         11    1    3    3    0    0 -0.70690137087E+01  0.20942408269E+02  0.16873548855E+02  0.27807769960E+02  0.51100000000E-03 0. -1.
        -11    1    3    3    0    0 -0.51926924483E+01  0.11428750025E+02  0.55871086801E+00  0.12565529837E+02  0.51100000000E-03 0.  1.
         12    1    3    3    0    0 -0.50031564064E+01  0.46771999417E+01 -0.28388704165E+01  0.74139704992E+01  0.00000000000E+00 0. -1.
</event>
<event>
 7    1  0.1813014E-010  0.4778727E+02  0.7816164E-02  0.1312668E+00
        -11   -1    0    0    0    0  0.00000000000E+00  0.00000000000E+00  0.45593999997E+02  0.45594000000E+02  0.51100000000E-03 0.  1.
         11   -1    0    0    0    0 -0.00000000000E+00 -0.00000000000E+00 -0.45593999997E+02  0.45594000000E+02  0.51100000000E-03 0. -1.
    9900012    2    1    2    0    0 -0.28139469167E+01  0.44566891482E+01  0.43079496428E+02  0.47787269731E+02  0.19999994011E+02 0.  0.
         12    1    1    2    0    0  0.28139469167E+01 -0.44566891482E+01 -0.43079496428E+02  0.43400730269E+02  0.00000000000E+00 0. -1.
         11    1    3    3    0    0 -0.11517223270E+01 -0.31039859471E+01  0.70346391241E+01  0.77747888039E+01  0.51100000000E-03 0. -1.
        -11    1    3    3    0    0 -0.41138613555E+01 -0.31537437107E+01  0.19288605819E+02  0.19972988493E+02  0.51100000000E-03 0.  1.
         12    1    3    3    0    0  0.24516367658E+01  0.10714418806E+02  0.16756251485E+02  0.20039492434E+02  0.00000000000E+00 0. -1.
</event>
<event>
 7    1  0.1813014E-010  0.4778726E+02  0.7816164E-02  0.1312668E+00
        -11   -1    0    0    0    0  0.00000000000E+00  0.00000000000E+00  0.45593999997E+02  0.45594000000E+02  0.51100000000E-03 0.  1.
         11   -1    0    0    0    0 -0.00000000000E+00 -0.00000000000E+00 -0.45593999997E+02  0.45594000000E+02  0.51100000000E-03 0. -1.
    9900012    2    1    2    0    0 -0.41918714394E+02 -0.10810788683E+02 -0.30939222790E+01  0.47787261257E+02  0.19999955373E+02 0.  0.
         12    1    1    2    0    0  0.41918714394E+02  0.10810788683E+02  0.30939222790E+01  0.43400738743E+02  0.00000000000E+00 0. -1.
         11    1    3    3    0    0 -0.58727026878E+01  0.31899846423E+01 -0.18156405925E+01  0.69254017861E+01  0.51100000000E-03 0. -1.
        -11    1    3    3    0    0  0.92994350322E+00 -0.14306954136E+01 -0.57737518649E+00  0.18014013025E+01  0.51100000000E-03 0.  1.
        -12    1    3    3    0    0 -0.36975955210E+02 -0.12570077911E+02 -0.70090649997E+00  0.39060458168E+02  0.00000000000E+00 0.  1.
</event>
<event>
 7    1  0.1813014E-010  0.4778727E+02  0.7816164E-02  0.1312668E+00
        -11   -1    0    0    0    0  0.00000000000E+00  0.00000000000E+00  0.45593999997E+02  0.45594000000E+02  0.51100000000E-03 0.  1.
         11   -1    0    0    0    0 -0.00000000000E+00 -0.00000000000E+00 -0.45593999997E+02  0.45594000000E+02  0.51100000000E-03 0. -1.
    9900012    2    1    2    0    0 -0.60009106945E+01  0.38144762224E+02  0.19813867079E+02  0.47787272553E+02  0.20000006880E+02 0.  0.
         12    1    1    2    0    0  0.60009106945E+01 -0.38144762224E+02 -0.19813867079E+02  0.43400727447E+02  0.00000000000E+00 0. -1.
         11    1    3    3    0    0 -0.75539560969E+01  0.11232095439E+02 -0.48464108348E+00  0.13544633546E+02  0.51100000000E-03 0. -1.
        -11    1    3    3    0    0  0.23698697278E+01  0.90684920987E+01  0.45068023299E+01  0.10400245140E+02  0.51100000000E-03 0.  1.
        -12    1    3    3    0    0 -0.81682432536E+00  0.17844174687E+02  0.15791705832E+02  0.23842393867E+02  0.00000000000E+00 0.  1.
</event>
<event>
 7    1  0.1813014E-010  0.4778727E+02  0.7816164E-02  0.1312668E+00
        -11   -1    0    0    0    0  0.00000000000E+00  0.00000000000E+00  0.45593999997E+02  0.45594000000E+02  0.51100000000E-03 0.  1.
         11   -1    0    0    0    0 -0.00000000000E+00 -0.00000000000E+00 -0.45593999997E+02  0.45594000000E+02  0.51100000000E-03 0. -1.
    9900012    2    1    2    0    0  0.22783532649E+02  0.21319294606E+02  0.30166562930E+02  0.47787271878E+02  0.20000003800E+02 0.  0.
         12    1    1    2    0    0 -0.22783532649E+02 -0.21319294606E+02 -0.30166562930E+02  0.43400728122E+02  0.00000000000E+00 0. -1.
         11    1    3    3    0    0  0.29664978172E+01 -0.15745007852E+01 -0.27747094365E+00  0.33698890794E+01  0.51100000000E-03 0. -1.
        -11    1    3    3    0    0  0.28475983335E+01  0.71059377855E+01  0.14140531969E+02  0.16079732980E+02  0.51100000000E-03 0.  1.
        -12    1    3    3    0    0  0.16969436499E+02  0.15787857606E+02  0.16303501905E+02  0.28337649818E+02  0.00000000000E+00 0.  1.
</event>
<event>
 7    1  0.1813014E-010  0.4778727E+02  0.7816164E-02  0.1312668E+00
        -11   -1    0    0    0    0  0.00000000000E+00  0.00000000000E+00  0.45593999997E+02  0.45594000000E+02  0.51100000000E-03 0.  1.
         11   -1    0    0    0    0 -0.00000000000E+00 -0.00000000000E+00 -0.45593999997E+02  0.45594000000E+02  0.51100000000E-03 0. -1.
    9900012    2    1    2    0    0 -0.93438371609E+01  0.31038178593E+02  0.28860831903E+02  0.47787269115E+02  0.19999991202E+02 0.  0.
         12    1    1    2    0    0  0.93438371609E+01 -0.31038178593E+02 -0.28860831903E+02  0.43400730885E+02  0.00000000000E+00 0. -1.
         11    1    3    3    0    0  0.19587281007E+01  0.92899070264E+01  0.83970153432E+01  0.12674732947E+02  0.51100000000E-03 0. -1.
        -11    1    3    3    0    0 -0.12361742923E+02  0.18481817149E+02  0.22063851973E+02  0.31324173052E+02  0.51100000000E-03 0.  1.
        -12    1    3    3    0    0  0.10591776613E+01  0.32664544171E+01 -0.16000354133E+01  0.37883631163E+01  0.00000000000E+00 0.  1.
</event>
<event>
 7    1  0.1813014E-010  0.4778733E+02  0.7816164E-02  0.1312668E+00
        -11   -1    0    0    0    0  0.00000000000E+00  0.00000000000E+00  0.45593999997E+02  0.45594000000E+02  0.51100000000E-03 0.  1.
         11   -1    0    0    0    0 -0.00000000000E+00 -0.00000000000E+00 -0.45593999997E+02  0.45594000000E+02  0.51100000000E-03 0. -1.
    9900012    2    1    2    0    0  0.34142029401E+02 -0.83672773000E+01  0.25454449244E+02  0.47787326188E+02  0.20000251421E+02 0.  0.
         12    1    1    2    0    0 -0.34142029401E+02  0.83672773000E+01 -0.25454449244E+02  0.43400673812E+02  0.00000000000E+00 0. -1.
         11    1    3    3    0    0  0.77690921136E+01 -0.38348697521E+01  0.14885116566E+02  0.17222999557E+02  0.51100000000E-03 0. -1.
        -11    1    3    3    0    0  0.20585943006E+02 -0.60174550949E+00  0.11366824064E+02  0.23523346630E+02  0.51100000000E-03 0.  1.
        -12    1    3    3    0    0  0.57869942810E+01 -0.39306620383E+01 -0.79749138684E+00  0.70409800014E+01  0.00000000000E+00 0.  1.
</event>
<event>
 7    1  0.1813014E-010  0.4778727E+02  0.7816164E-02  0.1312668E+00
        -11   -1    0    0    0    0  0.00000000000E+00  0.00000000000E+00  0.45593999997E+02  0.45594000000E+02  0.51100000000E-03 0. -1.
         11   -1    0    0    0    0 -0.00000000000E+00 -0.00000000000E+00 -0.45593999997E+02  0.45594000000E+02  0.51100000000E-03 0.  1.
    9900012    2    1    2    0    0  0.34860439324E+02 -0.59371703564E+01 -0.25161936365E+02  0.47787271166E+02  0.20000000555E+02 0.  0.
         12    1    1    2    0    0 -0.34860439324E+02  0.59371703564E+01  0.25161936365E+02  0.43400728834E+02  0.00000000000E+00 0. -1.
         11    1    3    3    0    0  0.58274844224E+01  0.26813771416E+01 -0.44422887761E+01  0.78027743719E+01  0.51100000000E-03 0. -1.
        -11    1    3    3    0    0  0.29923723046E+02 -0.10536308043E+02 -0.20680004941E+02  0.37869586646E+02  0.51100000000E-03 0.  1.
         12    1    3    3    0    0 -0.89076814501E+00  0.19177605449E+01 -0.39642647797E-01  0.21149101483E+01  0.00000000000E+00 0. -1.
</event>
<event>
 7    1  0.1813014E-010  0.4778727E+02  0.7816164E-02  0.1312668E+00
        -11   -1    0    0    0    0  0.00000000000E+00  0.00000000000E+00  0.45593999997E+02  0.45594000000E+02  0.51100000000E-03 0. -1.
         11   -1    0    0    0    0 -0.00000000000E+00 -0.00000000000E+00 -0.45593999997E+02  0.45594000000E+02  0.51100000000E-03 0.  1.
    9900012    2    1    2    0    0 -0.27951497206E+02 -0.14404923810E+02 -0.29913792075E+02  0.47787274404E+02  0.20000015316E+02 0.  0.
         12    1    1    2    0    0  0.27951497206E+02  0.14404923810E+02  0.29913792075E+02  0.43400725596E+02  0.00000000000E+00 0. -1.
         11    1    3    3    0    0 -0.12951800246E+02 -0.11040211295E+02 -0.15280395403E+02  0.22871945238E+02  0.51100000000E-03 0. -1.
        -11    1    3    3    0    0 -0.15462117868E+02 -0.39220645309E+01 -0.16477581361E+02  0.22934043842E+02  0.51100000000E-03 0.  1.
         12    1    3    3    0    0  0.46242090806E+00  0.55735201562E+00  0.18441846897E+01  0.19812853240E+01  0.00000000000E+00 0. -1.
</event>
<event>
 7    1  0.1813014E-010  0.4778726E+02  0.7816164E-02  0.1312668E+00
        -11   -1    0    0    0    0  0.00000000000E+00  0.00000000000E+00  0.45593999997E+02  0.45594000000E+02  0.51100000000E-03 0.  1.
         11   -1    0    0    0    0 -0.00000000000E+00 -0.00000000000E+00 -0.45593999997E+02  0.45594000000E+02  0.51100000000E-03 0. -1.
    9900012    2    1    2    0    0 -0.85882833075E+01 -0.17606576489E+02  0.38728203416E+02  0.47787263996E+02  0.19999967863E+02 0.  0.
         12    1    1    2    0    0  0.85882833075E+01  0.17606576489E+02 -0.38728203416E+02  0.43400736004E+02  0.00000000000E+00 0. -1.
         11    1    3    3    0    0  0.67703914662E+00 -0.12510146247E+00 -0.37488597372E+00  0.78394651372E+00  0.51100000000E-03 0. -1.
        -11    1    3    3    0    0 -0.89844925635E+00 -0.28487402978E+01 -0.12752984063E+01  0.32479098874E+01  0.51100000000E-03 0.  1.
        -12    1    3    3    0    0 -0.83668731977E+01 -0.14632734729E+02  0.40378387796E+02  0.43755407595E+02  0.00000000000E+00 0.  1.
</event>
<event>
 7    1  0.1813014E-010  0.4778727E+02  0.7816164E-02  0.1312668E+00
        -11   -1    0    0    0    0  0.00000000000E+00  0.00000000000E+00  0.45593999997E+02  0.45594000000E+02  0.51100000000E-03 0.  1.
         11   -1    0    0    0    0 -0.00000000000E+00 -0.00000000000E+00 -0.45593999997E+02  0.45594000000E+02  0.51100000000E-03 0. -1.
    9900012    2    1    2    0    0 -0.11737381219E+02 -0.18809488923E+02  0.37310325553E+02  0.47787269772E+02  0.19999994200E+02 0.  0.
         12    1    1    2    0    0  0.11737381219E+02  0.18809488923E+02 -0.37310325553E+02  0.43400730228E+02  0.00000000000E+00 0. -1.
         11    1    3    3    0    0 -0.10839186949E+02 -0.72867280214E+01  0.23382972459E+02  0.26783348937E+02  0.51100000000E-03 0. -1.
        -11    1    3    3    0    0 -0.13135654705E+01 -0.11542978394E+02  0.15503808898E+02  0.19373535947E+02  0.51100000000E-03 0.  1.
         12    1    3    3    0    0  0.41537120113E+00  0.20217492269E-01 -0.15764558047E+01  0.16303848889E+01  0.00000000000E+00 0. -1.
</event>
<event>
 7    1  0.1813014E-010  0.4778727E+02  0.7816164E-02  0.1312668E+00
        -11   -1    0    0    0    0  0.00000000000E+00  0.00000000000E+00  0.45593999997E+02  0.45594000000E+02  0.51100000000E-03 0.  1.
         11   -1    0    0    0    0 -0.00000000000E+00 -0.00000000000E+00 -0.45593999997E+02  0.45594000000E+02  0.51100000000E-03 0. -1.
    9900012    2    1    2    0    0  0.10557354072E+02 -0.10187451191E+01  0.42084769445E+02  0.47787269754E+02  0.19999994116E+02 0.  0.
         12    1    1    2    0    0 -0.10557354072E+02  0.10187451191E+01 -0.42084769445E+02  0.43400730246E+02  0.00000000000E+00 0. -1.
         11    1    3    3    0    0  0.11138244870E+02 -0.64779773525E+01  0.32035792003E+02  0.34529938588E+02  0.51100000000E-03 0. -1.
        -11    1    3    3    0    0 -0.22193608578E+01  0.10276466501E+01  0.75002656091E+01  0.78889546026E+01  0.51100000000E-03 0.  1.
        -12    1    3    3    0    0  0.16384700597E+01  0.44315855833E+01  0.25487118334E+01  0.53683765636E+01  0.00000000000E+00 0.  1.
</event>
<event>
 7    1  0.1813014E-010  0.4778729E+02  0.7816164E-02  0.1312668E+00
        -11   -1    0    0    0    0  0.00000000000E+00  0.00000000000E+00  0.45593999997E+02  0.45594000000E+02  0.51100000000E-03 0.  1.
         11   -1    0    0    0    0 -0.00000000000E+00 -0.00000000000E+00 -0.45593999997E+02  0.45594000000E+02  0.51100000000E-03 0. -1.
    9900012    2    1    2    0    0 -0.95041184493E+01 -0.29927380417E+02 -0.29960734760E+02  0.47787285795E+02  0.20000067255E+02 0.  0.
         12    1    1    2    0    0  0.95041184493E+01  0.29927380417E+02  0.29960734760E+02  0.43400714205E+02  0.00000000000E+00 0. -1.
         11    1    3    3    0    0 -0.44415992195E+01 -0.72394936176E+00  0.81437191843E+00  0.45733038591E+01  0.51100000000E-03 0. -1.
        -11    1    3    3    0    0  0.58675815407E+00 -0.13417293083E+02 -0.11638766227E+02  0.17771576135E+02  0.51100000000E-03 0.  1.
        -12    1    3    3    0    0 -0.56492773839E+01 -0.15786137972E+02 -0.19136340452E+02  0.25442405801E+02  0.00000000000E+00 0.  1.
</event>
<event>
 7    1  0.1813014E-010  0.4778727E+02  0.7816164E-02  0.1312668E+00
        -11   -1    0    0    0    0  0.00000000000E+00  0.00000000000E+00  0.45593999997E+02  0.45594000000E+02  0.51100000000E-03 0.  1.
         11   -1    0    0    0    0 -0.00000000000E+00 -0.00000000000E+00 -0.45593999997E+02  0.45594000000E+02  0.51100000000E-03 0. -1.
    9900012    2    1    2    0    0 -0.15107335141E+02  0.74918908758E+01  0.39990793212E+02  0.47787267913E+02  0.19999985724E+02 0.  0.
         12    1    1    2    0    0  0.15107335141E+02 -0.74918908758E+01 -0.39990793212E+02  0.43400732087E+02  0.00000000000E+00 0. -1.
         11    1    3    3    0    0  0.19654965800E+01 -0.95244188224E+00  0.23464172500E+01  0.32056195216E+01  0.51100000000E-03 0. -1.
        -11    1    3    3    0    0 -0.36504576281E+01 -0.14098014176E+01  0.58945316485E+00  0.39573774430E+01  0.51100000000E-03 0.  1.
        -12    1    3    3    0    0 -0.13422374093E+02  0.98541341757E+01  0.37054922797E+02  0.40624270949E+02  0.00000000000E+00 0.  1.
</event>
<event>
 7    1  0.1813014E-010  0.4778727E+02  0.7816164E-02  0.1312668E+00
        -11   -1    0    0    0    0  0.00000000000E+00  0.00000000000E+00  0.45593999997E+02  0.45594000000E+02  0.51100000000E-03 0. -1.
         11   -1    0    0    0    0 -0.00000000000E+00 -0.00000000000E+00 -0.45593999997E+02  0.45594000000E+02  0.51100000000E-03 0.  1.
    9900012    2    1    2    0    0  0.79171968585E+01 -0.38286596592E+01 -0.42500381715E+02  0.47787273199E+02  0.20000009824E+02 0.  0.
         12    1    1    2    0    0 -0.79171968585E+01  0.38286596592E+01  0.42500381715E+02  0.43400726801E+02  0.00000000000E+00 0. -1.
         11    1    3    3    0    0  0.74442092604E+01 -0.11086684247E+01 -0.50412698709E+01  0.90586864037E+01  0.51100000000E-03 0. -1.
        -11    1    3    3    0    0 -0.21829461828E+01 -0.49252717486E+01 -0.13720424072E+02  0.14740203282E+02  0.51100000000E-03 0.  1.
        -12    1    3    3    0    0  0.26559337809E+01  0.22052805141E+01 -0.23738687773E+02  0.23988383513E+02  0.00000000000E+00 0.  1.
</event>
<event>
 7    1  0.1813014E-010  0.4778727E+02  0.7816164E-02  0.1312668E+00
        -11   -1    0    0    0    0  0.00000000000E+00  0.00000000000E+00  0.45593999997E+02  0.45594000000E+02  0.51100000000E-03 0.  1.
         11   -1    0    0    0    0 -0.00000000000E+00 -0.00000000000E+00 -0.45593999997E+02  0.45594000000E+02  0.51100000000E-03 0. -1.
    9900012    2    1    2    0    0  0.20138914417E+02  0.37387991045E+02  0.89546329363E+01  0.47787271904E+02  0.20000003917E+02 0.  0.
         12    1    1    2    0    0 -0.20138914417E+02 -0.37387991045E+02 -0.89546329363E+01  0.43400728096E+02  0.00000000000E+00 0. -1.
         11    1    3    3    0    0  0.88527088753E+01  0.15176605249E+02 -0.32735158716E+01  0.17872204893E+02  0.51100000000E-03 0. -1.
        -11    1    3    3    0    0 -0.20733469362E+01  0.32305665976E+01  0.32447454289E+01  0.50263009479E+01  0.51100000000E-03 0.  1.
         12    1    3    3    0    0  0.13359552477E+02  0.18980819199E+02  0.89834033789E+01  0.24888766063E+02  0.00000000000E+00 0. -1.
</event>
<event>
 7    1  0.1813014E-010  0.4778729E+02  0.7816164E-02  0.1312668E+00
        -11   -1    0    0    0    0  0.00000000000E+00  0.00000000000E+00  0.45593999997E+02  0.45594000000E+02  0.51100000000E-03 0.  1.
         11   -1    0    0    0    0 -0.00000000000E+00 -0.00000000000E+00 -0.45593999997E+02  0.45594000000E+02  0.51100000000E-03 0. -1.
    9900012    2    1    2    0    0  0.21107624007E+02 -0.14333467378E+02  0.35108998949E+02  0.47787287039E+02  0.20000072928E+02 0.  0.
         12    1    1    2    0    0 -0.21107624007E+02  0.14333467378E+02 -0.35108998949E+02  0.43400712961E+02  0.00000000000E+00 0. -1.
         11    1    3    3    0    0  0.83482191429E+01  0.76527352639E+00  0.17607055344E+02  0.19500943685E+02  0.51100000000E-03 0. -1.
        -11    1    3    3    0    0  0.34039685755E+01 -0.38403265732E+01  0.11257325464E+02  0.12371842510E+02  0.51100000000E-03 0.  1.
        -12    1    3    3    0    0  0.93554362882E+01 -0.11258414331E+02  0.62446181410E+01  0.15914500844E+02  0.00000000000E+00 0.  1.
</event>
<event>
 7    1  0.2267469E-010  0.4778727E+02  0.7816164E-02  0.1312668E+00
        -11   -1    0    0    0    0  0.00000000000E+00  0.00000000000E+00  0.45593999997E+02  0.45594000000E+02  0.51100000000E-03 0. -1.
         11   -1    0    0    0    0 -0.00000000000E+00 -0.00000000000E+00 -0.45593999997E+02  0.45594000000E+02  0.51100000000E-03 0.  1.
    9900012    2    1    2    0    0 -0.12865560090E+02  0.37488012041E+02  0.17684727792E+02  0.47787270971E+02  0.19999999663E+02 0.  0.
         12    1    1    2    0    0  0.12865560090E+02 -0.37488012041E+02 -0.17684727792E+02  0.43400729029E+02  0.00000000000E+00 0. -1.
         11    1    3    3    0    0 -0.17740014033E+01  0.11737805641E+02 -0.13235907094E+01  0.11944666378E+02  0.51100000000E-03 0. -1.
        -11    1    3    3    0    0 -0.12737494762E+02  0.17508986985E+02  0.11228003553E+02  0.24390089423E+02  0.51100000000E-03 0.  1.
         12    1    3    3    0    0  0.16459360750E+01  0.82412194150E+01  0.77803149481E+01  0.11452515169E+02  0.00000000000E+00 0. -1.
</event>
<event>
 7    1  0.1813014E-010  0.4778727E+02  0.7816164E-02  0.1312668E+00
        -11   -1    0    0    0    0  0.00000000000E+00  0.00000000000E+00  0.45593999997E+02  0.45594000000E+02  0.51100000000E-03 0.  1.
         11   -1    0    0    0    0 -0.00000000000E+00 -0.00000000000E+00 -0.45593999997E+02  0.45594000000E+02  0.51100000000E-03 0. -1.
    9900012    2    1    2    0    0  0.36751055147E+02  0.16952349843E+02  0.15671671301E+02  0.47787268428E+02  0.19999988071E+02 0.  0.
         12    1    1    2    0    0 -0.36751055147E+02 -0.16952349843E+02 -0.15671671301E+02  0.43400731572E+02  0.00000000000E+00 0. -1.
         11    1    3    3    0    0  0.28934431551E+02  0.13390267787E+02  0.19112535154E+02  0.37172430656E+02  0.51100000000E-03 0.  1.
        -11    1    3    3    0    0 -0.58777603564E-01  0.19830266321E+01 -0.98935473273E+00  0.22169060599E+01  0.51100000000E-03 0. -1.
        -12    1    3    3    0    0  0.78754011994E+01  0.15790554241E+01 -0.24515091199E+01  0.83979317126E+01  0.00000000000E+00 0.  1.
</event>
<event>
 7    1  0.1813014E-010  0.4778727E+02  0.7816164E-02  0.1312668E+00
        -11   -1    0    0    0    0  0.00000000000E+00  0.00000000000E+00  0.45593999997E+02  0.45594000000E+02  0.51100000000E-03 0. -1.
         11   -1    0    0    0    0 -0.00000000000E+00 -0.00000000000E+00 -0.45593999997E+02  0.45594000000E+02  0.51100000000E-03 0.  1.
    9900012    2    1    2    0    0 -0.20269967912E+02  0.12769151561E+02 -0.36189782882E+02  0.47787271714E+02  0.20000003052E+02 0.  0.
         12    1    1    2    0    0  0.20269967912E+02 -0.12769151561E+02  0.36189782882E+02  0.43400728286E+02  0.00000000000E+00 0. -1.
         11    1    3    3    0    0  0.15231836683E+01 -0.29580904424E+00 -0.15576133893E+01  0.21985793617E+01  0.51100000000E-03 0. -1.
        -11    1    3    3    0    0 -0.18132950839E+02  0.10193855914E+02 -0.15614172168E+02  0.26010016864E+02  0.51100000000E-03 0.  1.
         12    1    3    3    0    0 -0.36602007413E+01  0.28711046909E+01 -0.19017997325E+02  0.19578675488E+02  0.00000000000E+00 0. -1.
</event>
<event>
 7    1  0.1813014E-010  0.4778724E+02  0.7816164E-02  0.1312668E+00
        -11   -1    0    0    0    0  0.00000000000E+00  0.00000000000E+00  0.45593999997E+02  0.45594000000E+02  0.51100000000E-03 0.  1.
         11   -1    0    0    0    0 -0.00000000000E+00 -0.00000000000E+00 -0.45593999997E+02  0.45594000000E+02  0.51100000000E-03 0. -1.
    9900012    2    1    2    0    0 -0.97155430467E+01  0.36185987663E+02 -0.21904539675E+02  0.47787235741E+02  0.19999839038E+02 0.  0.
         12    1    1    2    0    0  0.97155430467E+01 -0.36185987663E+02  0.21904539675E+02  0.43400764259E+02  0.00000000000E+00 0. -1.
         11    1    3    3    0    0  0.68544320627E+00  0.19147488593E+02 -0.65310090108E+01  0.20242288181E+02  0.51100000000E-03 0. -1.
        -11    1    3    3    0    0 -0.11438582896E+02  0.16833475036E+02 -0.11181173501E+02  0.23221233852E+02  0.51100000000E-03 0.  1.
         12    1    3    3    0    0  0.10375966433E+01  0.20502403325E+00 -0.41923571641E+01  0.43237137093E+01  0.00000000000E+00 0. -1.
</event>
<event>
 7    1  0.1813014E-010  0.4778727E+02  0.7816164E-02  0.1312668E+00
        -11   -1    0    0    0    0  0.00000000000E+00  0.00000000000E+00  0.45593999997E+02  0.45594000000E+02  0.51100000000E-03 0.  1.
         11   -1    0    0    0    0 -0.00000000000E+00 -0.00000000000E+00 -0.45593999997E+02  0.45594000000E+02  0.51100000000E-03 0. -1.
    9900012    2    1    2    0    0  0.29184089047E+02  0.27478558783E+02 -0.16638539813E+02  0.47787271280E+02  0.20000001076E+02 0.  0.
         12    1    1    2    0    0 -0.29184089047E+02 -0.27478558783E+02  0.16638539813E+02  0.43400728720E+02  0.00000000000E+00 0. -1.
         11    1    3    3    0    0  0.93959397038E+01  0.55281869052E+01  0.38426132552E+01  0.11558988289E+02  0.51100000000E-03 0. -1.
        -11    1    3    3    0    0  0.75987625025E+01  0.59328033994E+01 -0.81444519265E+01  0.12620279125E+02  0.51100000000E-03 0.  1.
         12    1    3    3    0    0  0.12189386841E+02  0.16017568478E+02 -0.12336701142E+02  0.23608003867E+02  0.00000000000E+00 0. -1.
</event>
<event>
 7    1  0.1813014E-010  0.4778727E+02  0.7816164E-02  0.1312668E+00
        -11   -1    0    0    0    0  0.00000000000E+00  0.00000000000E+00  0.45593999997E+02  0.45594000000E+02  0.51100000000E-03 0.  1.
         11   -1    0    0    0    0 -0.00000000000E+00 -0.00000000000E+00 -0.45593999997E+02  0.45594000000E+02  0.51100000000E-03 0. -1.
    9900012    2    1    2    0    0 -0.15956253818E+02  0.39985836503E+02  0.54912714752E+01  0.47787271675E+02  0.20000002875E+02 0.  0.
         12    1    1    2    0    0  0.15956253818E+02 -0.39985836503E+02 -0.54912714752E+01  0.43400728325E+02  0.00000000000E+00 0. -1.
         11    1    3    3    0    0 -0.20839250233E+01  0.16680305515E+02  0.78874165297E+00  0.16828471387E+02  0.51100000000E-03 0. -1.
        -11    1    3    3    0    0 -0.16637508646E+02  0.21836267338E+02  0.45225825760E+01  0.27822347468E+02  0.51100000000E-03 0.  1.
         12    1    3    3    0    0  0.27651798510E+01  0.14692636501E+01  0.17994724624E+00  0.31364528202E+01  0.00000000000E+00 0. -1.
</event>
<event>
 7    1  0.1813014E-010  0.4778722E+02  0.7816164E-02  0.1312668E+00
        -11   -1    0    0    0    0  0.00000000000E+00  0.00000000000E+00  0.45593999997E+02  0.45594000000E+02  0.51100000000E-03 0.  1.
         11   -1    0    0    0    0 -0.00000000000E+00 -0.00000000000E+00 -0.45593999997E+02  0.45594000000E+02  0.51100000000E-03 0. -1.
    9900012    2    1    2    0    0  0.33157174291E+02  0.24760758636E+02  0.13081818864E+02  0.47787223971E+02  0.19999785371E+02 0.  0.
         12    1    1    2    0    0 -0.33157174291E+02 -0.24760758636E+02 -0.13081818864E+02  0.43400776029E+02  0.00000000000E+00 0. -1.
         11    1    3    3    0    0  0.78834287354E+01  0.75562888879E+01 -0.30961398119E+01  0.11350419921E+02  0.51100000000E-03 0. -1.
        -11    1    3    3    0    0  0.11165270603E+02  0.73019159766E+01  0.84591781118E+00  0.13367753056E+02  0.51100000000E-03 0.  1.
        -12    1    3    3    0    0  0.14108474952E+02  0.99025537717E+01  0.15332040864E+02  0.23069050993E+02  0.00000000000E+00 0.  1.
</event>
<event>
 7    1  0.1813014E-010  0.4778727E+02  0.7816164E-02  0.1312668E+00
        -11   -1    0    0    0    0  0.00000000000E+00  0.00000000000E+00  0.45593999997E+02  0.45594000000E+02  0.51100000000E-03 0.  1.
         11   -1    0    0    0    0 -0.00000000000E+00 -0.00000000000E+00 -0.45593999997E+02  0.45594000000E+02  0.51100000000E-03 0. -1.
    9900012    2    1    2    0    0  0.23142435963E+02  0.34614599269E+02  0.12242568634E+02  0.47787270610E+02  0.19999998020E+02 0.  0.
         12    1    1    2    0    0 -0.23142435963E+02 -0.34614599269E+02 -0.12242568634E+02  0.43400729390E+02  0.00000000000E+00 0. -1.
         11    1    3    3    0    0  0.64756511425E+01 -0.59560227798E-01 -0.10680241424E+01  0.65634046782E+01  0.51100000000E-03 0. -1.
        -11    1    3    3    0    0  0.84821169288E+00  0.76633065605E+01  0.28591822116E+01  0.82231778344E+01  0.51100000000E-03 0.  1.
         12    1    3    3    0    0  0.15818573127E+02  0.27010852936E+02  0.10451410565E+02  0.33000688097E+02  0.00000000000E+00 0. -1.
</event>
<event>
 7    1  0.1813014E-010  0.4778727E+02  0.7816164E-02  0.1312668E+00
        -11   -1    0    0    0    0  0.00000000000E+00  0.00000000000E+00  0.45593999997E+02  0.45594000000E+02  0.51100000000E-03 0.  1.
         11   -1    0    0    0    0 -0.00000000000E+00 -0.00000000000E+00 -0.45593999997E+02  0.45594000000E+02  0.51100000000E-03 0. -1.
    9900012    2    1    2    0    0 -0.39580485071E+02  0.17703047673E+02  0.19002271470E+01  0.47787267764E+02  0.19999985045E+02 0.  0.
         12    1    1    2    0    0  0.39580485071E+02 -0.17703047673E+02 -0.19002271470E+01  0.43400732236E+02  0.00000000000E+00 0. -1.
         11    1    3    3    0    0 -0.26116535683E+02  0.57186654875E+01 -0.58552736863E+01  0.27368975159E+02  0.51100000000E-03 0. -1.
        -11    1    3    3    0    0 -0.11391945702E+02  0.67521186366E+01  0.58455069361E+01  0.14475409651E+02  0.51100000000E-03 0.  1.
        -12    1    3    3    0    0 -0.20720036854E+01  0.52322635491E+01  0.19099938971E+01  0.59428829542E+01  0.00000000000E+00 0.  1.
</event>
<event>
 7    1  0.1813014E-010  0.4778727E+02  0.7816164E-02  0.1312668E+00
        -11   -1    0    0    0    0  0.00000000000E+00  0.00000000000E+00  0.45593999997E+02  0.45594000000E+02  0.51100000000E-03 0.  1.
         11   -1    0    0    0    0 -0.00000000000E+00 -0.00000000000E+00 -0.45593999997E+02  0.45594000000E+02  0.51100000000E-03 0. -1.
    9900012    2    1    2    0    0  0.14130899213E+02  0.41024131843E+02 -0.98052857226E+00  0.47787272560E+02  0.20000006909E+02 0.  0.
         12    1    1    2    0    0 -0.14130899213E+02 -0.41024131843E+02  0.98052857226E+00  0.43400727440E+02  0.00000000000E+00 0. -1.
         11    1    3    3    0    0 -0.91983316408E+00  0.19262747192E+02 -0.48707971473E+00  0.19290846776E+02  0.51100000000E-03 0. -1.
        -11    1    3    3    0    0  0.27022192239E+01  0.12554408141E+02 -0.20898354922E+01  0.13010863351E+02  0.51100000000E-03 0.  1.
        -12    1    3    3    0    0  0.12348513154E+02  0.92069765105E+01  0.15963866347E+01  0.15485562433E+02  0.00000000000E+00 0.  1.
</event>
<event>
 7    1  0.1813014E-010  0.4778727E+02  0.7816164E-02  0.1312668E+00
        -11   -1    0    0    0    0  0.00000000000E+00  0.00000000000E+00  0.45593999997E+02  0.45594000000E+02  0.51100000000E-03 0. -1.
         11   -1    0    0    0    0 -0.00000000000E+00 -0.00000000000E+00 -0.45593999997E+02  0.45594000000E+02  0.51100000000E-03 0.  1.
    9900012    2    1    2    0    0  0.42587487047E+02 -0.39574795392E+01 -0.73666830263E+01  0.47787265949E+02  0.19999976770E+02 0.  0.
         12    1    1    2    0    0 -0.42587487047E+02  0.39574795392E+01  0.73666830263E+01  0.43400734051E+02  0.00000000000E+00 0. -1.
         11    1    3    3    0    0  0.62347072476E+01  0.36966179724E+01 -0.17533173707E+01  0.74572569327E+01  0.51100000000E-03 0. -1.
        -11    1    3    3    0    0  0.55760423685E+01 -0.68950124776E+01  0.72874387835E+00  0.88974442096E+01  0.51100000000E-03 0.  1.
         12    1    3    3    0    0  0.30776737431E+02 -0.75908503401E+00 -0.63421095340E+01  0.31432564807E+02  0.00000000000E+00 0. -1.
</event>
<event>
 7    1  0.1813014E-010  0.4778727E+02  0.7816164E-02  0.1312668E+00
        -11   -1    0    0    0    0  0.00000000000E+00  0.00000000000E+00  0.45593999997E+02  0.45594000000E+02  0.51100000000E-03 0.  1.
         11   -1    0    0    0    0 -0.00000000000E+00 -0.00000000000E+00 -0.45593999997E+02  0.45594000000E+02  0.51100000000E-03 0. -1.
    9900012    2    1    2    0    0  0.17740486744E+02  0.45877760664E-01  0.39609296614E+02  0.47787270133E+02  0.19999995846E+02 0.  0.
         12    1    1    2    0    0 -0.17740486744E+02 -0.45877760664E-01 -0.39609296614E+02  0.43400729867E+02  0.00000000000E+00 0. -1.
         11    1    3    3    0    0  0.61644156201E+00  0.15968603702E+01 -0.54461973208E+00  0.17962667271E+01  0.51100000000E-03 0. -1.
        -11    1    3    3    0    0  0.10346703548E+02 -0.74964483525E+01  0.18008033451E+02  0.22080314337E+02  0.51100000000E-03 0.  1.
         12    1    3    3    0    0  0.67773416342E+01  0.59454657430E+01  0.22145882896E+02  0.23910689069E+02  0.00000000000E+00 0. -1.
</event>
<event>
 7    1  0.1813014E-010  0.4778727E+02  0.7816164E-02  0.1312668E+00
        -11   -1    0    0    0    0  0.00000000000E+00  0.00000000000E+00  0.45593999997E+02  0.45594000000E+02  0.51100000000E-03 0. -1.
         11   -1    0    0    0    0 -0.00000000000E+00 -0.00000000000E+00 -0.45593999997E+02  0.45594000000E+02  0.51100000000E-03 0.  1.
    9900012    2    1    2    0    0 -0.10600434302E+02  0.40944662845E+02  0.97359383603E+01  0.47787272833E+02  0.20000008154E+02 0.  0.
         12    1    1    2    0    0  0.10600434302E+02 -0.40944662845E+02 -0.97359383603E+01  0.43400727167E+02  0.00000000000E+00 0. -1.
         11    1    3    3    0    0  0.36445612505E+01  0.16735727670E+01  0.21715585706E+01  0.45606292769E+01  0.51100000000E-03 0. -1.
        -11    1    3    3    0    0 -0.69943264599E+01  0.90140464470E+01  0.28268947199E+01  0.11754359617E+02  0.51100000000E-03 0.  1.
         12    1    3    3    0    0 -0.72506690927E+01  0.30257043631E+02  0.47374850698E+01  0.31472283939E+02  0.00000000000E+00 0. -1.
</event>
<event>
 7    1  0.1813014E-010  0.4778727E+02  0.7816164E-02  0.1312668E+00
        -11   -1    0    0    0    0  0.00000000000E+00  0.00000000000E+00  0.45593999997E+02  0.45594000000E+02  0.51100000000E-03 0.  1.
         11   -1    0    0    0    0 -0.00000000000E+00 -0.00000000000E+00 -0.45593999997E+02  0.45594000000E+02  0.51100000000E-03 0. -1.
    9900012    2    1    2    0    0 -0.24650273187E+02  0.30329911371E+02  0.18870181432E+02  0.47787271443E+02  0.20000001818E+02 0.  0.
         12    1    1    2    0    0  0.24650273187E+02 -0.30329911371E+02 -0.18870181432E+02  0.43400728557E+02  0.00000000000E+00 0. -1.
         11    1    3    3    0    0  0.20054589531E+00  0.46901397042E+01  0.33506091781E+01  0.57675134353E+01  0.51100000000E-03 0. -1.
        -11    1    3    3    0    0 -0.79354211622E+00  0.10600692884E+02  0.51580110974E+01  0.11815645453E+02  0.51100000000E-03 0.  1.
        -12    1    3    3    0    0 -0.24057276966E+02  0.15039078783E+02  0.10361561157E+02  0.30204112555E+02  0.00000000000E+00 0.  1.
</event>
<event>
 7    1  0.1813014E-010  0.4778728E+02  0.7816164E-02  0.1312668E+00
        -11   -1    0    0    0    0  0.00000000000E+00  0.00000000000E+00  0.45593999997E+02  0.45594000000E+02  0.51100000000E-03 0. -1.
         11   -1    0    0    0    0 -0.00000000000E+00 -0.00000000000E+00 -0.45593999997E+02  0.45594000000E+02  0.51100000000E-03 0.  1.
    9900012    2    1    2    0    0  0.41255752476E+02  0.13386194123E+02  0.15477570327E+01  0.47787275844E+02  0.20000021882E+02 0.  0.
         12    1    1    2    0    0 -0.41255752476E+02 -0.13386194123E+02 -0.15477570327E+01  0.43400724156E+02  0.00000000000E+00 0. -1.
         11    1    3    3    0    0  0.15274922501E+01  0.11829433315E+01  0.49613479723E+01  0.53242428065E+01  0.51100000000E-03 0. -1.
        -11    1    3    3    0    0  0.10811799840E+02  0.22401451074E+01 -0.43413179623E+01  0.11864244932E+02  0.51100000000E-03 0.  1.
        -12    1    3    3    0    0  0.28916460386E+02  0.99631056836E+01  0.92772702271E+00  0.30598788106E+02  0.00000000000E+00 0.  1.
</event>
<event>
 7    1  0.1813014E-010  0.4778727E+02  0.7816164E-02  0.1312668E+00
        -11   -1    0    0    0    0  0.00000000000E+00  0.00000000000E+00  0.45593999997E+02  0.45594000000E+02  0.51100000000E-03 0. -1.
         11   -1    0    0    0    0 -0.00000000000E+00 -0.00000000000E+00 -0.45593999997E+02  0.45594000000E+02  0.51100000000E-03 0.  1.
    9900012    2    1    2    0    0 -0.26959238600E+02 -0.96886559053E+01 -0.32602957193E+02  0.47787269397E+02  0.19999992487E+02 0.  0.
         12    1    1    2    0    0  0.26959238600E+02  0.96886559053E+01  0.32602957193E+02  0.43400730603E+02  0.00000000000E+00 0. -1.
         11    1    3    3    0    0 -0.74946331926E+01 -0.32392905512E+01 -0.39937977581E+01  0.90891666703E+01  0.51100000000E-03 0. -1.
        -11    1    3    3    0    0 -0.15306161028E+01 -0.26556917477E+01 -0.16375486085E+02  0.16659892829E+02  0.51100000000E-03 0.  1.
        -12    1    3    3    0    0 -0.17933989305E+02 -0.37936736064E+01 -0.12233673351E+02  0.22038209897E+02  0.00000000000E+00 0.  1.
</event>
<event>
 7    1  0.1813014E-010  0.4778728E+02  0.7816164E-02  0.1312668E+00
        -11   -1    0    0    0    0  0.00000000000E+00  0.00000000000E+00  0.45593999997E+02  0.45594000000E+02  0.51100000000E-03 0.  1.
         11   -1    0    0    0    0 -0.00000000000E+00 -0.00000000000E+00 -0.45593999997E+02  0.45594000000E+02  0.51100000000E-03 0. -1.
    9900012    2    1    2    0    0 -0.27650194296E+02  0.28490182843E+02  0.17532799409E+02  0.47787276294E+02  0.20000023936E+02 0.  0.
         12    1    1    2    0    0  0.27650194296E+02 -0.28490182843E+02 -0.17532799409E+02  0.43400723706E+02  0.00000000000E+00 0. -1.
         11    1    3    3    0    0 -0.26983438496E+01 -0.20672409920E+01  0.26701289744E+00  0.34096687520E+01  0.51100000000E-03 0. -1.
        -11    1    3    3    0    0 -0.91487455020E+01  0.16851126765E+02  0.39407045914E+01  0.19575218273E+02  0.51100000000E-03 0.  1.
         12    1    3    3    0    0 -0.15803104945E+02  0.13706297070E+02  0.13325081920E+02  0.24802389269E+02  0.00000000000E+00 0. -1.
</event>
<event>
 7    1  0.1813014E-010  0.4778727E+02  0.7816164E-02  0.1312668E+00
        -11   -1    0    0    0    0  0.00000000000E+00  0.00000000000E+00  0.45593999997E+02  0.45594000000E+02  0.51100000000E-03 0.  1.
         11   -1    0    0    0    0 -0.00000000000E+00 -0.00000000000E+00 -0.45593999997E+02  0.45594000000E+02  0.51100000000E-03 0. -1.
    9900012    2    1    2    0    0 -0.29421254682E+01 -0.41500318395E+02  0.12356807329E+02  0.47787271705E+02  0.20000003012E+02 0.  0.
         12    1    1    2    0    0  0.29421254682E+01  0.41500318395E+02 -0.12356807329E+02  0.43400728295E+02  0.00000000000E+00 0. -1.
         11    1    3    3    0    0  0.49841121336E+01 -0.12462898675E+02  0.85699947344E+00  0.13449894628E+02  0.51100000000E-03 0.  1.
        -11    1    3    3    0    0 -0.77205106976E+01 -0.12271354658E+02  0.95400637129E+00  0.14529368844E+02  0.51100000000E-03 0. -1.
        -12    1    3    3    0    0 -0.20572690413E+00 -0.16766065061E+02  0.10545801485E+02  0.19808008233E+02  0.00000000000E+00 0.  1.
</event>
<event>
 7    1  0.1813014E-010  0.4778727E+02  0.7816164E-02  0.1312668E+00
        -11   -1    0    0    0    0  0.00000000000E+00  0.00000000000E+00  0.45593999997E+02  0.45594000000E+02  0.51100000000E-03 0. -1.
         11   -1    0    0    0    0 -0.00000000000E+00 -0.00000000000E+00 -0.45593999997E+02  0.45594000000E+02  0.51100000000E-03 0.  1.
    9900012    2    1    2    0    0 -0.29437864684E+02 -0.29397417897E+02 -0.12362327888E+02  0.47787271816E+02  0.20000003516E+02 0.  0.
         12    1    1    2    0    0  0.29437864684E+02  0.29397417897E+02  0.12362327888E+02  0.43400728184E+02  0.00000000000E+00 0. -1.
         11    1    3    3    0    0  0.50193883920E+00 -0.41328767053E+01 -0.55815856438E+01  0.69632399800E+01  0.51100000000E-03 0. -1.
        -11    1    3    3    0    0 -0.97440938371E+01 -0.68157828792E+01  0.20783340904E+01  0.12071525745E+02  0.51100000000E-03 0.  1.
        -12    1    3    3    0    0 -0.20195709686E+02 -0.18448758312E+02 -0.88590763346E+01  0.28752506090E+02  0.00000000000E+00 0.  1.
</event>
<event>
 7    1  0.1813014E-010  0.4778727E+02  0.7816164E-02  0.1312668E+00
        -11   -1    0    0    0    0  0.00000000000E+00  0.00000000000E+00  0.45593999997E+02  0.45594000000E+02  0.51100000000E-03 0.  1.
         11   -1    0    0    0    0 -0.00000000000E+00 -0.00000000000E+00 -0.45593999997E+02  0.45594000000E+02  0.51100000000E-03 0. -1.
    9900012    2    1    2    0    0  0.32334497567E+02 -0.17076484907E+02  0.23377278787E+02  0.47787271513E+02  0.20000002136E+02 0.  0.
         12    1    1    2    0    0 -0.32334497567E+02  0.17076484907E+02 -0.23377278787E+02  0.43400728487E+02  0.00000000000E+00 0. -1.
         11    1    3    3    0    0  0.12119967263E+02 -0.10664500183E+02  0.87774262907E+01  0.18375755308E+02  0.51100000000E-03 0. -1.
        -11    1    3    3    0    0  0.14988195440E+02 -0.10988715583E+02  0.10596181519E+02  0.21393385327E+02  0.51100000000E-03 0.  1.
         12    1    3    3    0    0  0.52263348640E+01  0.45767308587E+01  0.40036709780E+01  0.80181308772E+01  0.00000000000E+00 0. -1.
</event>
<event>
 7    1  0.1813014E-010  0.4778727E+02  0.7816164E-02  0.1312668E+00
        -11   -1    0    0    0    0  0.00000000000E+00  0.00000000000E+00  0.45593999997E+02  0.45594000000E+02  0.51100000000E-03 0. -1.
         11   -1    0    0    0    0 -0.00000000000E+00 -0.00000000000E+00 -0.45593999997E+02  0.45594000000E+02  0.51100000000E-03 0.  1.
    9900012    2    1    2    0    0  0.22470562340E+02 -0.18886332536E+02 -0.31968792950E+02  0.47787269001E+02  0.19999990685E+02 0.  0.
         12    1    1    2    0    0 -0.22470562340E+02  0.18886332536E+02  0.31968792950E+02  0.43400730999E+02  0.00000000000E+00 0. -1.
         11    1    3    3    0    0 -0.44861434433E+00  0.35197613789E+00  0.60156766455E+00  0.82887028403E+00  0.51100000000E-03 0. -1.
        -11    1    3    3    0    0  0.69817512417E+01 -0.54037183775E+01 -0.21246686227E+02  0.23007970328E+02  0.51100000000E-03 0.  1.
         12    1    3    3    0    0  0.15937425443E+02 -0.13834590297E+02 -0.11323674387E+02  0.23950428390E+02  0.00000000000E+00 0. -1.
</event>
<event>
 7    1  0.1813014E-010  0.4778727E+02  0.7816164E-02  0.1312668E+00
        -11   -1    0    0    0    0  0.00000000000E+00  0.00000000000E+00  0.45593999997E+02  0.45594000000E+02  0.51100000000E-03 0.  1.
         11   -1    0    0    0    0 -0.00000000000E+00 -0.00000000000E+00 -0.45593999997E+02  0.45594000000E+02  0.51100000000E-03 0. -1.
    9900012    2    1    2    0    0 -0.30626753554E+02  0.76379231520E+01  0.29787367074E+02  0.47787272581E+02  0.20000007005E+02 0.  0.
         12    1    1    2    0    0  0.30626753554E+02 -0.76379231520E+01 -0.29787367074E+02  0.43400727419E+02  0.00000000000E+00 0. -1.
         11    1    3    3    0    0 -0.17594494954E+02  0.45255994109E+01  0.52319181654E+01  0.18905561898E+02  0.51100000000E-03 0. -1.
        -11    1    3    3    0    0 -0.28586262842E+01 -0.23017387758E+01  0.63892221424E+01  0.73683041109E+01  0.51100000000E-03 0.  1.
         12    1    3    3    0    0 -0.10173632316E+02  0.54140625170E+01  0.18166226766E+02  0.21513406572E+02  0.00000000000E+00 0. -1.
</event>
