<event>
 7    1  0.7819001E-012  0.5930188E+02  0.7816164E-02  0.1266605E+00
        -11   -1    0    0    0    0  0.00000000000E+00  0.00000000000E+00  0.45593999997E+02  0.45594000000E+02  0.51100000000E-03 0.  1.
         11   -1    0    0    0    0 -0.00000000000E+00 -0.00000000000E+00 -0.45593999997E+02  0.45594000000E+02  0.51100000000E-03 0. -1.
    9900012    2    1    2    0    0  0.30792620393E+01 -0.20692647243E+02  0.24063608112E+02  0.59301878568E+02  0.49999880617E+02 0.  0.
         12    1    1    2    0    0 -0.30792620393E+01  0.20692647243E+02 -0.24063608112E+02  0.31886121432E+02  0.00000000000E+00 0. -1.
         11    1    3    3    0    0  0.79212075866E+01  0.41638396764E+01 -0.87964864878E+01  0.12548357075E+02  0.51100000000E-03 0. -1.
        -11    1    3    3    0    0  0.78365328215E+01 -0.11986817309E+02  0.93467055037E+01  0.17101343219E+02  0.51100000000E-03 0.  1.
         12    1    3    3    0    0 -0.12678478369E+02 -0.12869669611E+02  0.23513389096E+02  0.29652178274E+02  0.00000000000E+00 0. -1.
</event>
<event>
 7    1  0.7819001E-012  0.5930194E+02  0.7816164E-02  0.1266605E+00
        -11   -1    0    0    0    0  0.00000000000E+00  0.00000000000E+00  0.45593999997E+02  0.45594000000E+02  0.51100000000E-03 0.  1.
         11   -1    0    0    0    0 -0.00000000000E+00 -0.00000000000E+00 -0.45593999997E+02  0.45594000000E+02  0.51100000000E-03 0. -1.
    9900012    2    1    2    0    0 -0.12126226283E+02  0.47537428127E+01  0.29104593384E+02  0.59301940497E+02  0.49999993561E+02 0.  0.
         12    1    1    2    0    0  0.12126226283E+02 -0.47537428127E+01 -0.29104593384E+02  0.31886059503E+02  0.00000000000E+00 0. -1.
         11    1    3    3    0    0 -0.21136443647E+02  0.88263635114E+01  0.10039741634E+02  0.25009005482E+02  0.51100000000E-03 0. -1.
        -11    1    3    3    0    0  0.62871363660E+01  0.97732697424E+01  0.16129436824E+02  0.19879728813E+02  0.51100000000E-03 0.  1.
         12    1    3    3    0    0  0.27230809976E+01 -0.13845890441E+02  0.29354149251E+01  0.14413206202E+02  0.00000000000E+00 0. -1.
</event>
<event>
 7    1  0.7819001E-012  0.5930193E+02  0.7816164E-02  0.1266605E+00
        -11   -1    0    0    0    0  0.00000000000E+00  0.00000000000E+00  0.45593999997E+02  0.45594000000E+02  0.51100000000E-03 0.  1.
         11   -1    0    0    0    0 -0.00000000000E+00 -0.00000000000E+00 -0.45593999997E+02  0.45594000000E+02  0.51100000000E-03 0. -1.
    9900012    2    1    2    0    0  0.71385647290E+01 -0.33621573495E+01  0.30894305627E+02  0.59301932061E+02  0.49999978175E+02 0.  0.
         12    1    1    2    0    0 -0.71385647290E+01  0.33621573495E+01 -0.30894305627E+02  0.31886067939E+02  0.00000000000E+00 0. -1.
         11    1    3    3    0    0  0.13009498785E+02  0.64298582587E+01  0.22333196570E+02  0.26633846983E+02  0.51100000000E-03 0. -1.
        -11    1    3    3    0    0  0.62154908122E+01 -0.16355420368E+02  0.26422553380E+01  0.17695016671E+02  0.51100000000E-03 0.  1.
         12    1    3    3    0    0 -0.12086424868E+02  0.65634047603E+01  0.59188537197E+01  0.14973068406E+02  0.00000000000E+00 0. -1.
</event>
<event>
 7    1  0.7819001E-012  0.5930195E+02  0.7816164E-02  0.1266605E+00
        -11   -1    0    0    0    0  0.00000000000E+00  0.00000000000E+00  0.45593999997E+02  0.45594000000E+02  0.51100000000E-03 0.  1.
         11   -1    0    0    0    0 -0.00000000000E+00 -0.00000000000E+00 -0.45593999997E+02  0.45594000000E+02  0.51100000000E-03 0. -1.
    9900012    2    1    2    0    0  0.87210135448E+01 -0.25722618947E+02  0.16703631297E+02  0.59301945035E+02  0.50000001837E+02 0.  0.
         12    1    1    2    0    0 -0.87210135448E+01  0.25722618947E+02 -0.16703631297E+02  0.31886054965E+02  0.00000000000E+00 0. -1.
         11    1    3    3    0    0 -0.10019079934E+02 -0.23193828243E+02  0.21334538929E+02  0.33068084052E+02  0.51100000000E-03 0. -1.
        -11    1    3    3    0    0  0.16330181888E+02 -0.76625769845E+01  0.12272220798E+01  0.18080265508E+02  0.51100000000E-03 0.  1.
         12    1    3    3    0    0  0.24099115899E+01  0.51337862807E+01 -0.58581297118E+01  0.81535954748E+01  0.00000000000E+00 0. -1.
</event>
<event>
 7    1  0.7819001E-012  0.5930194E+02  0.7816164E-02  0.1266605E+00
        -11   -1    0    0    0    0  0.00000000000E+00  0.00000000000E+00  0.45593999997E+02  0.45594000000E+02  0.51100000000E-03 0. -1.
         11   -1    0    0    0    0 -0.00000000000E+00 -0.00000000000E+00 -0.45593999997E+02  0.45594000000E+02  0.51100000000E-03 0.  1.
    9900012    2    1    2    0    0 -0.28510039182E+02  0.32183139306E+01 -0.13911895707E+02  0.59301941591E+02  0.49999995557E+02 0.  0.
         12    1    1    2    0    0  0.28510039182E+02 -0.32183139306E+01  0.13911895707E+02  0.31886058409E+02  0.00000000000E+00 0. -1.
         11    1    3    3    0    0 -0.26719549369E+02  0.77874872662E+01 -0.17627078456E+02  0.32943788057E+02  0.51100000000E-03 0. -1.
        -11    1    3    3    0    0  0.92066219989E+01  0.57303744704E+01  0.19017107472E-01  0.10844327647E+02  0.51100000000E-03 0.  1.
         12    1    3    3    0    0 -0.10997111812E+02 -0.10299547806E+02  0.36961656422E+01  0.15513825887E+02  0.00000000000E+00 0. -1.
</event>
<event>
 7    1  0.7819001E-012  0.5930193E+02  0.7816164E-02  0.1266605E+00
        -11   -1    0    0    0    0  0.00000000000E+00  0.00000000000E+00  0.45593999997E+02  0.45594000000E+02  0.51100000000E-03 0.  1.
         11   -1    0    0    0    0 -0.00000000000E+00 -0.00000000000E+00 -0.45593999997E+02  0.45594000000E+02  0.51100000000E-03 0. -1.
    9900012    2    1    2    0    0  0.22751519450E+02 -0.93854796832E+01  0.20273201738E+02  0.59301928199E+02  0.49999971132E+02 0.  0.
         12    1    1    2    0    0 -0.22751519450E+02  0.93854796832E+01 -0.20273201738E+02  0.31886071801E+02  0.00000000000E+00 0. -1.
         11    1    3    3    0    0  0.56074848662E+01 -0.10585508761E+01 -0.13147441663E+02  0.14332468002E+02  0.51100000000E-03 0. -1.
        -11    1    3    3    0    0  0.20672349191E+02 -0.51030608621E+01  0.15275659492E+02  0.26205591472E+02  0.51100000000E-03 0.  1.
         12    1    3    3    0    0 -0.35283146070E+01 -0.32238679449E+01  0.18144983909E+02  0.18763868725E+02  0.00000000000E+00 0. -1.
</event>
<event>
 7    1  0.7819001E-012  0.5930193E+02  0.7816164E-02  0.1266605E+00
        -11   -1    0    0    0    0  0.00000000000E+00  0.00000000000E+00  0.45593999997E+02  0.45594000000E+02  0.51100000000E-03 0.  1.
         11   -1    0    0    0    0 -0.00000000000E+00 -0.00000000000E+00 -0.45593999997E+02  0.45594000000E+02  0.51100000000E-03 0. -1.
    9900012    2    1    2    0    0  0.29447239581E+02  0.11117879689E+02  0.50964881918E+01  0.59301931575E+02  0.49999977290E+02 0.  0.
         12    1    1    2    0    0 -0.29447239581E+02 -0.11117879689E+02 -0.50964881918E+01  0.31886068425E+02  0.00000000000E+00 0. -1.
         11    1    3    3    0    0  0.23534970839E+01  0.45324823526E+01 -0.12794906407E+02  0.13776500827E+02  0.51100000000E-03 0. -1.
        -11    1    3    3    0    0  0.23836402608E+02  0.12070978699E+02  0.24563579581E+02  0.36293967242E+02  0.51100000000E-03 0.  1.
        -12    1    3    3    0    0  0.32573398885E+01 -0.54855813625E+01 -0.66721849820E+01  0.92314635063E+01  0.00000000000E+00 0.  1.
</event>
<event>
 7    1  0.7819001E-012  0.5930193E+02  0.7816164E-02  0.1266605E+00
        -11   -1    0    0    0    0  0.00000000000E+00  0.00000000000E+00  0.45593999997E+02  0.45594000000E+02  0.51100000000E-03 0. -1.
         11   -1    0    0    0    0 -0.00000000000E+00 -0.00000000000E+00 -0.45593999997E+02  0.45594000000E+02  0.51100000000E-03 0.  1.
    9900012    2    1    2    0    0 -0.14305108558E+02 -0.11171999129E+02 -0.26215871107E+02  0.59301927911E+02  0.49999970607E+02 0.  0.
         12    1    1    2    0    0  0.14305108558E+02  0.11171999129E+02  0.26215871107E+02  0.31886072089E+02  0.00000000000E+00 0. -1.
         11    1    3    3    0    0 -0.13059119801E+02 -0.92048152411E+01 -0.13205879057E+01  0.16031630806E+02  0.51100000000E-03 0. -1.
        -11    1    3    3    0    0  0.14624987742E+02  0.33072294607E+01 -0.23165831374E+01  0.15172165002E+02  0.51100000000E-03 0.  1.
        -12    1    3    3    0    0 -0.15870976498E+02 -0.52744133481E+01 -0.22578700064E+02  0.28098132104E+02  0.00000000000E+00 0.  1.
</event>
<event>
 7    1  0.7819001E-012  0.5930196E+02  0.7816164E-02  0.1266605E+00
        -11   -1    0    0    0    0  0.00000000000E+00  0.00000000000E+00  0.45593999997E+02  0.45594000000E+02  0.51100000000E-03 0.  1.
         11   -1    0    0    0    0 -0.00000000000E+00 -0.00000000000E+00 -0.45593999997E+02  0.45594000000E+02  0.51100000000E-03 0. -1.
    9900012    2    1    2    0    0 -0.16062220186E+02  0.77090132739E+01  0.26444202025E+02  0.59301958795E+02  0.50000026932E+02 0.  0.
         12    1    1    2    0    0  0.16062220186E+02 -0.77090132739E+01 -0.26444202025E+02  0.31886041205E+02  0.00000000000E+00 0. -1.
         11    1    3    3    0    0 -0.32258657333E+01  0.28580811191E+01 -0.11083130055E+02  0.11891619297E+02  0.51100000000E-03 0. -1.
        -11    1    3    3    0    0 -0.39718272435E+01  0.77117189929E+01  0.37084058805E+02  0.38085081583E+02  0.51100000000E-03 0.  1.
        -12    1    3    3    0    0 -0.88645272097E+01 -0.28607868381E+01  0.44327327574E+00  0.93252579150E+01  0.00000000000E+00 0.  1.
</event>
<event>
 7    1  0.7819001E-012  0.5930194E+02  0.7816164E-02  0.1266605E+00
        -11   -1    0    0    0    0  0.00000000000E+00  0.00000000000E+00  0.45593999997E+02  0.45594000000E+02  0.51100000000E-03 0.  1.
         11   -1    0    0    0    0 -0.00000000000E+00 -0.00000000000E+00 -0.45593999997E+02  0.45594000000E+02  0.51100000000E-03 0. -1.
    9900012    2    1    2    0    0  0.16837689133E+01  0.28325947367E+02  0.14543950641E+02  0.59301939217E+02  0.49999991227E+02 0.  0.
         12    1    1    2    0    0 -0.16837689133E+01 -0.28325947367E+02 -0.14543950641E+02  0.31886060783E+02  0.00000000000E+00 0. -1.
         11    1    3    3    0    0  0.14128797283E+02  0.24134310846E+02 -0.41923911495E+01  0.28278331218E+02  0.51100000000E-03 0. -1.
        -11    1    3    3    0    0 -0.82656239826E+01 -0.81501946949E+01  0.75223671131E+01  0.13832289060E+02  0.51100000000E-03 0.  1.
         12    1    3    3    0    0 -0.41794043876E+01  0.12341831216E+02  0.11213974678E+02  0.17191318939E+02  0.00000000000E+00 0. -1.
</event>
<event>
 7    1  0.7819001E-012  0.5930193E+02  0.7816164E-02  0.1266605E+00
        -11   -1    0    0    0    0  0.00000000000E+00  0.00000000000E+00  0.45593999997E+02  0.45594000000E+02  0.51100000000E-03 0. -1.
         11   -1    0    0    0    0 -0.00000000000E+00 -0.00000000000E+00 -0.45593999997E+02  0.45594000000E+02  0.51100000000E-03 0.  1.
    9900012    2    1    2    0    0 -0.26714189851E+02  0.15697127136E+01 -0.17338088711E+02  0.59301933176E+02  0.49999980208E+02 0.  0.
         12    1    1    2    0    0  0.26714189851E+02 -0.15697127136E+01  0.17338088711E+02  0.31886066824E+02  0.00000000000E+00 0. -1.
         11    1    3    3    0    0 -0.13799021342E+01 -0.73920241857E+01 -0.14265650505E+01  0.76538382244E+01  0.51100000000E-03 0. -1.
        -11    1    3    3    0    0 -0.84174596521E+01  0.14680371322E+02  0.10389906525E+02  0.19857418941E+02  0.51100000000E-03 0.  1.
        -12    1    3    3    0    0 -0.16916828065E+02 -0.57186344228E+01 -0.26301430185E+02  0.31790676010E+02  0.00000000000E+00 0.  1.
</event>
<event>
 7    1  0.7819001E-012  0.5930192E+02  0.7816164E-02  0.1266605E+00
        -11   -1    0    0    0    0  0.00000000000E+00  0.00000000000E+00  0.45593999997E+02  0.45594000000E+02  0.51100000000E-03 0. -1.
         11   -1    0    0    0    0 -0.00000000000E+00 -0.00000000000E+00 -0.45593999997E+02  0.45594000000E+02  0.51100000000E-03 0.  1.
    9900012    2    1    2    0    0  0.19563128846E+02 -0.10702195237E+02 -0.22791868318E+02  0.59301917542E+02  0.49999951695E+02 0.  0.
         12    1    1    2    0    0 -0.19563128846E+02  0.10702195237E+02  0.22791868318E+02  0.31886082458E+02  0.00000000000E+00 0. -1.
         11    1    3    3    0    0  0.78134408784E+01 -0.11301826729E+02  0.46805420108E+01  0.14515116932E+02  0.51100000000E-03 0. -1.
        -11    1    3    3    0    0  0.93232925510E+01  0.16368965857E+02 -0.18857227347E+02  0.26654490254E+02  0.51100000000E-03 0.  1.
        -12    1    3    3    0    0  0.24263954164E+01 -0.15769334365E+02 -0.86151829819E+01  0.18132310356E+02  0.00000000000E+00 0.  1.
</event>
<event>
 7    1  0.7819001E-012  0.5930190E+02  0.7816164E-02  0.1266605E+00
        -11   -1    0    0    0    0  0.00000000000E+00  0.00000000000E+00  0.45593999997E+02  0.45594000000E+02  0.51100000000E-03 0.  1.
         11   -1    0    0    0    0 -0.00000000000E+00 -0.00000000000E+00 -0.45593999997E+02  0.45594000000E+02  0.51100000000E-03 0. -1.
    9900012    2    1    2    0    0 -0.10482873114E+02 -0.65807687192E+01  0.29385821758E+02  0.59301895408E+02  0.49999911330E+02 0.  0.
         12    1    1    2    0    0  0.10482873114E+02  0.65807687192E+01 -0.29385821758E+02  0.31886104592E+02  0.00000000000E+00 0. -1.
         11    1    3    3    0    0  0.38464077052E+01  0.93974569684E+01 -0.58231177163E+01  0.11705372694E+02  0.51100000000E-03 0. -1.
        -11    1    3    3    0    0  0.13120654438E+01 -0.26053835143E+01  0.23973683725E+02  0.24150508288E+02  0.51100000000E-03 0.  1.
         12    1    3    3    0    0 -0.15641346263E+02 -0.13372842173E+02  0.11235255750E+02  0.23446014426E+02  0.00000000000E+00 0. -1.
</event>
<event>
 7    1  0.7819001E-012  0.5930194E+02  0.7816164E-02  0.1266605E+00
        -11   -1    0    0    0    0  0.00000000000E+00  0.00000000000E+00  0.45593999997E+02  0.45594000000E+02  0.51100000000E-03 0.  1.
         11   -1    0    0    0    0 -0.00000000000E+00 -0.00000000000E+00 -0.45593999997E+02  0.45594000000E+02  0.51100000000E-03 0. -1.
    9900012    2    1    2    0    0  0.68455536120E+01  0.19083744243E+02 -0.24610356294E+02  0.59301944497E+02  0.50000000856E+02 0.  0.
         12    1    1    2    0    0 -0.68455536120E+01 -0.19083744243E+02  0.24610356294E+02  0.31886055503E+02  0.00000000000E+00 0. -1.
         11    1    3    3    0    0 -0.10245376664E+02  0.16099208196E+02 -0.32681417962E+00  0.19085571915E+02  0.51100000000E-03 0. -1.
        -11    1    3    3    0    0  0.13894057046E+02  0.86008498253E+01 -0.13576145426E+01  0.16397028890E+02  0.51100000000E-03 0.  1.
         12    1    3    3    0    0  0.31968732308E+01 -0.56163137785E+01 -0.22925927572E+02  0.23819343693E+02  0.00000000000E+00 0. -1.
</event>
<event>
 7    1  0.7819001E-012  0.5930195E+02  0.7816164E-02  0.1266605E+00
        -11   -1    0    0    0    0  0.00000000000E+00  0.00000000000E+00  0.45593999997E+02  0.45594000000E+02  0.51100000000E-03 0.  1.
         11   -1    0    0    0    0 -0.00000000000E+00 -0.00000000000E+00 -0.45593999997E+02  0.45594000000E+02  0.51100000000E-03 0. -1.
    9900012    2    1    2    0    0  0.86690313021E+01 -0.10358045306E+02  0.28883884425E+02  0.59301953118E+02  0.50000016578E+02 0.  0.
         12    1    1    2    0    0 -0.86690313021E+01  0.10358045306E+02 -0.28883884425E+02  0.31886046882E+02  0.00000000000E+00 0. -1.
         11    1    3    3    0    0  0.55096057921E+01 -0.17390751418E+02  0.92054827695E+00  0.18265853396E+02  0.51100000000E-03 0. -1.
        -11    1    3    3    0    0  0.11847725392E+02  0.10569228051E+02  0.27364030475E+02  0.31636487520E+02  0.51100000000E-03 0.  1.
        -12    1    3    3    0    0 -0.86882998815E+01 -0.35365219387E+01  0.59930567351E+00  0.93996122018E+01  0.00000000000E+00 0.  1.
</event>
<event>
 7    1  0.7819001E-012  0.5930194E+02  0.7816164E-02  0.1266605E+00
        -11   -1    0    0    0    0  0.00000000000E+00  0.00000000000E+00  0.45593999997E+02  0.45594000000E+02  0.51100000000E-03 0.  1.
         11   -1    0    0    0    0 -0.00000000000E+00 -0.00000000000E+00 -0.45593999997E+02  0.45594000000E+02  0.51100000000E-03 0. -1.
    9900012    2    1    2    0    0  0.88817129519E+01  0.30480883281E+02  0.29583378670E+01  0.59301939825E+02  0.49999992336E+02 0.  0.
         12    1    1    2    0    0 -0.88817129519E+01 -0.30480883281E+02 -0.29583378670E+01  0.31886060175E+02  0.00000000000E+00 0. -1.
         11    1    3    3    0    0  0.25192393449E+02  0.17096140905E+02 -0.95917449893E+01  0.31920781534E+02  0.51100000000E-03 0. -1.
        -11    1    3    3    0    0 -0.92287146635E+00  0.63247529858E+01  0.14613455661E+00  0.63933987553E+01  0.51100000000E-03 0.  1.
         12    1    3    3    0    0 -0.15387809030E+02  0.70599893899E+01  0.12403948300E+02  0.20987759536E+02  0.00000000000E+00 0. -1.
</event>
<event>
 7    1  0.7819001E-012  0.5930201E+02  0.7816164E-02  0.1266605E+00
        -11   -1    0    0    0    0  0.00000000000E+00  0.00000000000E+00  0.45593999997E+02  0.45594000000E+02  0.51100000000E-03 0. -1.
         11   -1    0    0    0    0 -0.00000000000E+00 -0.00000000000E+00 -0.45593999997E+02  0.45594000000E+02  0.51100000000E-03 0.  1.
    9900012    2    1    2    0    0  0.19089880808E+02 -0.22993839083E+02  0.11116485205E+02  0.59302008901E+02  0.50000118313E+02 0.  0.
         12    1    1    2    0    0 -0.19089880808E+02  0.22993839083E+02 -0.11116485205E+02  0.31885991099E+02  0.00000000000E+00 0. -1.
         11    1    3    3    0    0  0.58118701947E+01  0.15119803526E+02  0.15089748509E+01  0.16268475626E+02  0.51100000000E-03 0. -1.
        -11    1    3    3    0    0  0.87151805857E+01 -0.11230109413E+02  0.63593110951E+01  0.15572750815E+02  0.51100000000E-03 0.  1.
         12    1    3    3    0    0  0.45628300277E+01 -0.26883533196E+02  0.32481992591E+01  0.27460782461E+02  0.00000000000E+00 0. -1.
</event>
<event>
 7    1  0.7851176E-012  0.5930197E+02  0.7816164E-02  0.1266605E+00
        -11   -1    0    0    0    0  0.00000000000E+00  0.00000000000E+00  0.45593999997E+02  0.45594000000E+02  0.51100000000E-03 0. -1.
         11   -1    0    0    0    0 -0.00000000000E+00 -0.00000000000E+00 -0.45593999997E+02  0.45594000000E+02  0.51100000000E-03 0.  1.
    9900012    2    1    2    0    0 -0.22724983757E+01  0.26113199163E+02 -0.18156420446E+02  0.59301968218E+02  0.50000044117E+02 0.  0.
         12    1    1    2    0    0  0.22724983757E+01 -0.26113199163E+02  0.18156420446E+02  0.31886031782E+02  0.00000000000E+00 0. -1.
         11    1    3    3    0    0  0.26124706128E+01 -0.10234654775E+02  0.19689570962E+01  0.10744763998E+02  0.51100000000E-03 0. -1.
        -11    1    3    3    0    0  0.57222656508E+01  0.28166209346E+02 -0.20253098682E+02  0.35160598396E+02  0.51100000000E-03 0.  1.
         12    1    3    3    0    0 -0.10607234639E+02  0.81816445916E+01  0.12772113957E+00  0.13396605824E+02  0.00000000000E+00 0. -1.
</event>
<event>
 7    1  0.7819001E-012  0.5930193E+02  0.7816164E-02  0.1266605E+00
        -11   -1    0    0    0    0  0.00000000000E+00  0.00000000000E+00  0.45593999997E+02  0.45594000000E+02  0.51100000000E-03 0.  1.
         11   -1    0    0    0    0 -0.00000000000E+00 -0.00000000000E+00 -0.45593999997E+02  0.45594000000E+02  0.51100000000E-03 0. -1.
    9900012    2    1    2    0    0  0.13704547874E+02  0.25108834042E+02  0.14087347701E+02  0.59301928674E+02  0.49999971998E+02 0.  0.
         12    1    1    2    0    0 -0.13704547874E+02 -0.25108834042E+02 -0.14087347701E+02  0.31886071326E+02  0.00000000000E+00 0. -1.
         11    1    3    3    0    0  0.17309427353E+02 -0.60229254010E+01  0.10403452062E+02  0.21074243065E+02  0.51100000000E-03 0. -1.
        -11    1    3    3    0    0 -0.12044642227E+02  0.14984436277E+02  0.52827100131E+01  0.19937747171E+02  0.51100000000E-03 0.  1.
         12    1    3    3    0    0  0.84397627474E+01  0.16147323166E+02 -0.15988143748E+01  0.18289938438E+02  0.00000000000E+00 0. -1.
</event>
<event>
 7    1  0.7819001E-012  0.5930196E+02  0.7816164E-02  0.1266605E+00
        -11   -1    0    0    0    0  0.00000000000E+00  0.00000000000E+00  0.45593999997E+02  0.45594000000E+02  0.51100000000E-03 0. -1.
         11   -1    0    0    0    0 -0.00000000000E+00 -0.00000000000E+00 -0.45593999997E+02  0.45594000000E+02  0.51100000000E-03 0.  1.
    9900012    2    1    2    0    0  0.11872115028E+02  0.20306063426E+02 -0.21527574345E+02  0.59301956278E+02  0.50000022341E+02 0.  0.
         12    1    1    2    0    0 -0.11872115028E+02 -0.20306063426E+02  0.21527574345E+02  0.31886043722E+02  0.00000000000E+00 0. -1.
         11    1    3    3    0    0 -0.93742678999E+01  0.21161392331E+02 -0.36543262915E+00  0.23147677320E+02  0.51100000000E-03 0. -1.
        -11    1    3    3    0    0  0.26842256856E+01 -0.68300817075E+01 -0.13176846393E+02  0.15082584818E+02  0.51100000000E-03 0.  1.
         12    1    3    3    0    0  0.18562157243E+02  0.59747528025E+01 -0.79852953228E+01  0.21071694140E+02  0.00000000000E+00 0. -1.
</event>
<event>
 7    1  0.7819001E-012  0.5930194E+02  0.7816164E-02  0.1266605E+00
        -11   -1    0    0    0    0  0.00000000000E+00  0.00000000000E+00  0.45593999997E+02  0.45594000000E+02  0.51100000000E-03 0. -1.
         11   -1    0    0    0    0 -0.00000000000E+00 -0.00000000000E+00 -0.45593999997E+02  0.45594000000E+02  0.51100000000E-03 0.  1.
    9900012    2    1    2    0    0  0.12549836715E+02 -0.28657003797E+02 -0.61642947142E+01  0.59301940389E+02  0.49999993364E+02 0.  0.
         12    1    1    2    0    0 -0.12549836715E+02  0.28657003797E+02  0.61642947142E+01  0.31886059611E+02  0.00000000000E+00 0. -1.
         11    1    3    3    0    0  0.41977327982E+01  0.50935176408E+01  0.12583665965E+02  0.14209628144E+02  0.51100000000E-03 0. -1.
        -11    1    3    3    0    0 -0.18209572977E+01 -0.25853574677E+02 -0.52647563473E+01  0.26446944411E+02  0.51100000000E-03 0.  1.
        -12    1    3    3    0    0  0.10173061215E+02 -0.78969467607E+01 -0.13483204332E+02  0.18645367834E+02  0.00000000000E+00 0.  1.
</event>
<event>
 7    1  0.7819001E-012  0.5930194E+02  0.7816164E-02  0.1266605E+00
        -11   -1    0    0    0    0  0.00000000000E+00  0.00000000000E+00  0.45593999997E+02  0.45594000000E+02  0.51100000000E-03 0.  1.
         11   -1    0    0    0    0 -0.00000000000E+00 -0.00000000000E+00 -0.45593999997E+02  0.45594000000E+02  0.51100000000E-03 0. -1.
    9900012    2    1    2    0    0  0.96493673786E+01 -0.28508867418E+02  0.10528759625E+02  0.59301943620E+02  0.49999999256E+02 0.  0.
         12    1    1    2    0    0 -0.96493673786E+01  0.28508867418E+02 -0.10528759625E+02  0.31886056380E+02  0.00000000000E+00 0. -1.
         11    1    3    3    0    0 -0.11321275838E+02 -0.14437125633E+02 -0.91483010113E+01  0.20501055944E+02  0.51100000000E-03 0. -1.
        -11    1    3    3    0    0  0.14521057341E+02  0.31145051260E+01  0.65387986933E+01  0.16227049550E+02  0.51100000000E-03 0.  1.
        -12    1    3    3    0    0  0.64495858756E+01 -0.17186246911E+02  0.13138261943E+02  0.22573838126E+02  0.00000000000E+00 0.  1.
</event>
<event>
 7    1  0.7819001E-012  0.5930204E+02  0.7816164E-02  0.1266604E+00
        -11   -1    0    0    0    0  0.00000000000E+00  0.00000000000E+00  0.45593999997E+02  0.45594000000E+02  0.51100000000E-03 0.  1.
         11   -1    0    0    0    0 -0.00000000000E+00 -0.00000000000E+00 -0.45593999997E+02  0.45594000000E+02  0.51100000000E-03 0. -1.
    9900012    2    1    2    0    0 -0.11839838169E+02  0.21860972576E+02  0.19965733082E+02  0.59302040906E+02  0.50000176683E+02 0.  0.
         12    1    1    2    0    0  0.11839838169E+02 -0.21860972576E+02 -0.19965733082E+02  0.31885959094E+02  0.00000000000E+00 0. -1.
         11    1    3    3    0    0 -0.14763646529E+01  0.39726862666E+00 -0.15493341830E+02  0.15568593908E+02  0.51100000000E-03 0. -1.
        -11    1    3    3    0    0 -0.25952489888E+01  0.11093348972E+02  0.99668216610E+01  0.15137213846E+02  0.51100000000E-03 0.  1.
         12    1    3    3    0    0 -0.77682245270E+01  0.10370354978E+02  0.25492253251E+02  0.28596233152E+02  0.00000000000E+00 0. -1.
</event>
<event>
 7    1  0.7819001E-012  0.5930193E+02  0.7816164E-02  0.1266605E+00
        -11   -1    0    0    0    0  0.00000000000E+00  0.00000000000E+00  0.45593999997E+02  0.45594000000E+02  0.51100000000E-03 0. -1.
         11   -1    0    0    0    0 -0.00000000000E+00 -0.00000000000E+00 -0.45593999997E+02  0.45594000000E+02  0.51100000000E-03 0.  1.
    9900012    2    1    2    0    0  0.41438348200E+01  0.20678621519E+02 -0.23915362733E+02  0.59301932046E+02  0.49999978148E+02 0.  0.
         12    1    1    2    0    0 -0.41438348200E+01 -0.20678621519E+02  0.23915362733E+02  0.31886067954E+02  0.00000000000E+00 0. -1.
         11    1    3    3    0    0  0.20747025213E+01 -0.68866333244E+01 -0.10634638108E+02  0.12838443716E+02  0.51100000000E-03 0.  1.
        -11    1    3    3    0    0  0.14683545075E+01  0.99486591823E+01  0.11992211960E+02  0.15650719869E+02  0.51100000000E-03 0. -1.
        -12    1    3    3    0    0  0.60077779119E+00  0.17616595661E+02 -0.25272936585E+02  0.30812768461E+02  0.00000000000E+00 0.  1.
</event>
<event>
 7    1  0.7819001E-012  0.5930194E+02  0.7816164E-02  0.1266605E+00
        -11   -1    0    0    0    0  0.00000000000E+00  0.00000000000E+00  0.45593999997E+02  0.45594000000E+02  0.51100000000E-03 0. -1.
         11   -1    0    0    0    0 -0.00000000000E+00 -0.00000000000E+00 -0.45593999997E+02  0.45594000000E+02  0.51100000000E-03 0.  1.
    9900012    2    1    2    0    0 -0.23580525118E+02 -0.18449276566E+02  0.10968305692E+02  0.59301941912E+02  0.49999996141E+02 0.  0.
         12    1    1    2    0    0  0.23580525118E+02  0.18449276566E+02 -0.10968305692E+02  0.31886058088E+02  0.00000000000E+00 0. -1.
         11    1    3    3    0    0 -0.29362598181E+02 -0.16567829933E+01 -0.17296908976E+01  0.29460124451E+02  0.51100000000E-03 0. -1.
        -11    1    3    3    0    0  0.11129382441E+02 -0.10058373882E+02  0.61800226418E+00  0.15013859121E+02  0.51100000000E-03 0.  1.
         12    1    3    3    0    0 -0.53473093773E+01 -0.67341196911E+01  0.12079994326E+02  0.14827958339E+02  0.00000000000E+00 0. -1.
</event>
<event>
 7    1  0.7819001E-012  0.5930194E+02  0.7816164E-02  0.1266605E+00
        -11   -1    0    0    0    0  0.00000000000E+00  0.00000000000E+00  0.45593999997E+02  0.45594000000E+02  0.51100000000E-03 0. -1.
         11   -1    0    0    0    0 -0.00000000000E+00 -0.00000000000E+00 -0.45593999997E+02  0.45594000000E+02  0.51100000000E-03 0.  1.
    9900012    2    1    2    0    0  0.90065182684E+01 -0.30552223292E+02 -0.14715288406E+01  0.59301935387E+02  0.49999984240E+02 0.  0.
         12    1    1    2    0    0 -0.90065182684E+01  0.30552223292E+02  0.14715288406E+01  0.31886064613E+02  0.00000000000E+00 0. -1.
         11    1    3    3    0    0  0.86507415834E+01 -0.30307591057E+02  0.12881960876E+02  0.34048940100E+02  0.51100000000E-03 0. -1.
        -11    1    3    3    0    0  0.85158999654E+01  0.12252714084E+01 -0.14612818917E+02  0.16957485640E+02  0.51100000000E-03 0.  1.
         12    1    3    3    0    0 -0.81601232804E+01 -0.14699036433E+01  0.25932920045E+00  0.82955096471E+01  0.00000000000E+00 0. -1.
</event>
<event>
 7    1  0.7819001E-012  0.5930201E+02  0.7816164E-02  0.1266605E+00
        -11   -1    0    0    0    0  0.00000000000E+00  0.00000000000E+00  0.45593999997E+02  0.45594000000E+02  0.51100000000E-03 0. -1.
         11   -1    0    0    0    0 -0.00000000000E+00 -0.00000000000E+00 -0.45593999997E+02  0.45594000000E+02  0.51100000000E-03 0.  1.
    9900012    2    1    2    0    0 -0.19090075408E+02 -0.15037694307E+02 -0.20643477622E+02  0.59302009385E+02  0.50000119197E+02 0.  0.
         12    1    1    2    0    0  0.19090075408E+02  0.15037694307E+02  0.20643477622E+02  0.31885990615E+02  0.00000000000E+00 0. -1.
         11    1    3    3    0    0 -0.19805181357E+02  0.26293545806E+00  0.52888300118E+01  0.20500879659E+02  0.51100000000E-03 0. -1.
        -11    1    3    3    0    0  0.45782353319E+01 -0.18458088483E+02 -0.87956318258E+01  0.20952909313E+02  0.51100000000E-03 0.  1.
        -12    1    3    3    0    0 -0.38631293827E+01  0.31574587181E+01 -0.17136675808E+02  0.17848220413E+02  0.00000000000E+00 0.  1.
</event>
<event>
 7    1  0.7819001E-012  0.5930193E+02  0.7816164E-02  0.1266605E+00
        -11   -1    0    0    0    0  0.00000000000E+00  0.00000000000E+00  0.45593999997E+02  0.45594000000E+02  0.51100000000E-03 0. -1.
         11   -1    0    0    0    0 -0.00000000000E+00 -0.00000000000E+00 -0.45593999997E+02  0.45594000000E+02  0.51100000000E-03 0.  1.
    9900012    2    1    2    0    0  0.17395471371E+02 -0.83231182609E+01 -0.25393789257E+02  0.59301933221E+02  0.49999980291E+02 0.  0.
         12    1    1    2    0    0 -0.17395471371E+02  0.83231182609E+01  0.25393789257E+02  0.31886066779E+02  0.00000000000E+00 0. -1.
         11    1    3    3    0    0  0.93203924323E+01  0.13022066870E+02  0.28550746854E+01  0.16266388424E+02  0.51100000000E-03 0. -1.
        -11    1    3    3    0    0  0.92582422667E+01 -0.25280304022E+02 -0.19109370910E+02  0.33014797867E+02  0.51100000000E-03 0.  1.
         12    1    3    3    0    0 -0.11831633276E+01  0.39351188920E+01 -0.91394930318E+01  0.10020746930E+02  0.00000000000E+00 0. -1.
</event>
<event>
 7    1  0.7819001E-012  0.5930194E+02  0.7816164E-02  0.1266605E+00
        -11   -1    0    0    0    0  0.00000000000E+00  0.00000000000E+00  0.45593999997E+02  0.45594000000E+02  0.51100000000E-03 0.  1.
         11   -1    0    0    0    0 -0.00000000000E+00 -0.00000000000E+00 -0.45593999997E+02  0.45594000000E+02  0.51100000000E-03 0. -1.
    9900012    2    1    2    0    0 -0.36845453894E+01  0.31025341398E+02  0.63696951175E+01  0.59301941926E+02  0.49999996167E+02 0.  0.
         12    1    1    2    0    0  0.36845453894E+01 -0.31025341398E+02 -0.63696951175E+01  0.31886058074E+02  0.00000000000E+00 0. -1.
         11    1    3    3    0    0  0.87512978316E+01  0.27062632429E+01 -0.13970832520E+02  0.16706083804E+02  0.51100000000E-03 0. -1.
        -11    1    3    3    0    0 -0.18004273234E+02  0.25128950629E+02  0.15663666512E+02  0.34654991896E+02  0.51100000000E-03 0.  1.
        -12    1    3    3    0    0  0.55684300132E+01  0.31901275261E+01  0.46768611257E+01  0.79408662269E+01  0.00000000000E+00 0.  1.
</event>
<event>
 7    1  0.7819001E-012  0.5930190E+02  0.7816164E-02  0.1266605E+00
        -11   -1    0    0    0    0  0.00000000000E+00  0.00000000000E+00  0.45593999997E+02  0.45594000000E+02  0.51100000000E-03 0.  1.
         11   -1    0    0    0    0 -0.00000000000E+00 -0.00000000000E+00 -0.45593999997E+02  0.45594000000E+02  0.51100000000E-03 0. -1.
    9900012    2    1    2    0    0  0.17927603049E+02 -0.40153569677E+01  0.26061487506E+02  0.59301903129E+02  0.49999925410E+02 0.  0.
         12    1    1    2    0    0 -0.17927603049E+02  0.40153569677E+01 -0.26061487506E+02  0.31886096871E+02  0.00000000000E+00 0. -1.
         11    1    3    3    0    0  0.32326196891E+02 -0.79772184356E+01  0.19430538987E+02  0.38550808876E+02  0.51100000000E-03 0. -1.
        -11    1    3    3    0    0 -0.35725330554E+01 -0.53191623740E+00  0.81661889297E+01  0.89293095597E+01  0.51100000000E-03 0.  1.
         12    1    3    3    0    0 -0.10826060786E+02  0.44937777053E+01 -0.15352404114E+01  0.11821784693E+02  0.00000000000E+00 0. -1.
</event>
<event>
 7    1  0.7819001E-012  0.5930199E+02  0.7816164E-02  0.1266605E+00
        -11   -1    0    0    0    0  0.00000000000E+00  0.00000000000E+00  0.45593999997E+02  0.45594000000E+02  0.51100000000E-03 0.  1.
         11   -1    0    0    0    0 -0.00000000000E+00 -0.00000000000E+00 -0.45593999997E+02  0.45594000000E+02  0.51100000000E-03 0. -1.
    9900012    2    1    2    0    0  0.22865527589E+02 -0.21737834431E+01  0.22116956868E+02  0.59301992607E+02  0.50000088597E+02 0.  0.
         12    1    1    2    0    0 -0.22865527589E+02  0.21737834431E+01 -0.22116956868E+02  0.31886007393E+02  0.00000000000E+00 0. -1.
         11    1    3    3    0    0  0.11845516032E+02 -0.32222254904E+01 -0.11491560046E+02  0.16815318603E+02  0.51100000000E-03 0. -1.
        -11    1    3    3    0    0 -0.13908944364E+01 -0.25908330099E+01  0.28387073409E+02  0.28538972301E+02  0.51100000000E-03 0.  1.
        -12    1    3    3    0    0  0.12410905993E+02  0.36392750572E+01  0.52214435044E+01  0.13947701702E+02  0.00000000000E+00 0.  1.
</event>
<event>
 7    1  0.7819001E-012  0.5930191E+02  0.7816164E-02  0.1266605E+00
        -11   -1    0    0    0    0  0.00000000000E+00  0.00000000000E+00  0.45593999997E+02  0.45594000000E+02  0.51100000000E-03 0.  1.
         11   -1    0    0    0    0 -0.00000000000E+00 -0.00000000000E+00 -0.45593999997E+02  0.45594000000E+02  0.51100000000E-03 0. -1.
    9900012    2    1    2    0    0  0.22400060904E+02  0.13107756173E+02  0.18524226371E+02  0.59301906432E+02  0.49999931434E+02 0.  0.
         12    1    1    2    0    0 -0.22400060904E+02 -0.13107756173E+02 -0.18524226371E+02  0.31886093568E+02  0.00000000000E+00 0. -1.
         11    1    3    3    0    0  0.28062696397E+01 -0.36287100239E+01  0.79748466906E+01  0.92000470503E+01  0.51100000000E-03 0. -1.
        -11    1    3    3    0    0  0.23272704245E+02  0.24608504463E+02  0.18265155426E+02  0.38481335187E+02  0.51100000000E-03 0.  1.
        -12    1    3    3    0    0 -0.36789129801E+01 -0.78720382665E+01 -0.77157757462E+01  0.11620524194E+02  0.00000000000E+00 0.  1.
</event>
<event>
 7    1  0.7819001E-012  0.5930194E+02  0.7816164E-02  0.1266605E+00
        -11   -1    0    0    0    0  0.00000000000E+00  0.00000000000E+00  0.45593999997E+02  0.45594000000E+02  0.51100000000E-03 0.  1.
         11   -1    0    0    0    0 -0.00000000000E+00 -0.00000000000E+00 -0.45593999997E+02  0.45594000000E+02  0.51100000000E-03 0. -1.
    9900012    2    1    2    0    0 -0.22088258238E+02  0.16752590190E+02  0.15753746267E+02  0.59301937974E+02  0.49999988960E+02 0.  0.
         12    1    1    2    0    0  0.22088258238E+02 -0.16752590190E+02 -0.15753746267E+02  0.31886062026E+02  0.00000000000E+00 0. -1.
         11    1    3    3    0    0 -0.72432872323E+01 -0.80273272718E+01 -0.84388482356E+01  0.13715587952E+02  0.51100000000E-03 0. -1.
        -11    1    3    3    0    0 -0.12307352201E+02  0.28614683039E+02  0.26070337605E+02  0.40619373539E+02  0.51100000000E-03 0.  1.
        -12    1    3    3    0    0 -0.25376188046E+01 -0.38347655768E+01 -0.18777431026E+01  0.49669764833E+01  0.00000000000E+00 0.  1.
</event>
<event>
 7    1  0.7819001E-012  0.5930197E+02  0.7816164E-02  0.1266605E+00
        -11   -1    0    0    0    0  0.00000000000E+00  0.00000000000E+00  0.45593999997E+02  0.45594000000E+02  0.51100000000E-03 0.  1.
         11   -1    0    0    0    0 -0.00000000000E+00 -0.00000000000E+00 -0.45593999997E+02  0.45594000000E+02  0.51100000000E-03 0. -1.
    9900012    2    1    2    0    0 -0.39271173937E+00 -0.21325900002E+02  0.23701698902E+02  0.59301972273E+02  0.50000051512E+02 0.  0.
         12    1    1    2    0    0  0.39271173937E+00  0.21325900002E+02 -0.23701698902E+02  0.31886027727E+02  0.00000000000E+00 0. -1.
         11    1    3    3    0    0 -0.18157978162E+01  0.34438877571E+01 -0.87606665079E+01  0.95868014748E+01  0.51100000000E-03 0. -1.
        -11    1    3    3    0    0  0.51663906088E+01 -0.23952353749E+02  0.36619749173E+02  0.44061466973E+02  0.51100000000E-03 0.  1.
        -12    1    3    3    0    0 -0.37433045320E+01 -0.81743400973E+00 -0.41573837637E+01  0.56537038248E+01  0.00000000000E+00 0.  1.
</event>
<event>
 7    1  0.7819001E-012  0.5930187E+02  0.7816164E-02  0.1266605E+00
        -11   -1    0    0    0    0  0.00000000000E+00  0.00000000000E+00  0.45593999997E+02  0.45594000000E+02  0.51100000000E-03 0.  1.
         11   -1    0    0    0    0 -0.00000000000E+00 -0.00000000000E+00 -0.45593999997E+02  0.45594000000E+02  0.51100000000E-03 0. -1.
    9900012    2    1    2    0    0 -0.73462985604E+01  0.48643565121E+01  0.30644658150E+02  0.59301872296E+02  0.49999869179E+02 0.  0.
         12    1    1    2    0    0  0.73462985604E+01 -0.48643565121E+01 -0.30644658150E+02  0.31886127704E+02  0.00000000000E+00 0. -1.
         11    1    3    3    0    0  0.46210205991E+01  0.40468966824E+01  0.39469839946E+01  0.73013619997E+01  0.51100000000E-03 0. -1.
        -11    1    3    3    0    0 -0.70861538779E+01 -0.19817003657E+02  0.49365015213E+01  0.21617036297E+02  0.51100000000E-03 0.  1.
        -12    1    3    3    0    0 -0.48811652817E+01  0.20634463487E+02  0.21761172634E+02  0.30383474000E+02  0.00000000000E+00 0.  1.
</event>
<event>
 7    1  0.7819001E-012  0.5930197E+02  0.7816164E-02  0.1266605E+00
        -11   -1    0    0    0    0  0.00000000000E+00  0.00000000000E+00  0.45593999997E+02  0.45594000000E+02  0.51100000000E-03 0. -1.
         11   -1    0    0    0    0 -0.00000000000E+00 -0.00000000000E+00 -0.45593999997E+02  0.45594000000E+02  0.51100000000E-03 0.  1.
    9900012    2    1    2    0    0  0.25799656675E+02 -0.18622651276E+02  0.20720070598E+01  0.59301974246E+02  0.50000055111E+02 0.  0.
         12    1    1    2    0    0 -0.25799656675E+02  0.18622651276E+02 -0.20720070598E+01  0.31886025754E+02  0.00000000000E+00 0. -1.
         11    1    3    3    0    0 -0.85802749624E+01  0.61512866695E+00  0.94485333229E+01  0.12777882607E+02  0.51100000000E-03 0. -1.
        -11    1    3    3    0    0  0.51371775138E+01  0.24852646593E+01 -0.83133935699E+01  0.10083632587E+02  0.51100000000E-03 0.  1.
         12    1    3    3    0    0  0.29242754124E+02 -0.21723044603E+02  0.93686730691E+00  0.36440459052E+02  0.00000000000E+00 0. -1.
</event>
<event>
 7    1  0.7819001E-012  0.5930196E+02  0.7816164E-02  0.1266605E+00
        -11   -1    0    0    0    0  0.00000000000E+00  0.00000000000E+00  0.45593999997E+02  0.45594000000E+02  0.51100000000E-03 0.  1.
         11   -1    0    0    0    0 -0.00000000000E+00 -0.00000000000E+00 -0.45593999997E+02  0.45594000000E+02  0.51100000000E-03 0. -1.
    9900012    2    1    2    0    0  0.29406268923E+02 -0.12146416510E+02 -0.21108338762E+01  0.59301957510E+02  0.50000024589E+02 0.  0.
         12    1    1    2    0    0 -0.29406268923E+02  0.12146416510E+02  0.21108338762E+01  0.31886042490E+02  0.00000000000E+00 0. -1.
         11    1    3    3    0    0  0.24995180435E+02 -0.34146204485E+01  0.18568010285E+02  0.31323947452E+02  0.51100000000E-03 0. -1.
        -11    1    3    3    0    0 -0.22218738475E+01  0.37791600647E+01 -0.29320005463E+01  0.52740308734E+01  0.51100000000E-03 0.  1.
         12    1    3    3    0    0  0.66329623351E+01 -0.12510956126E+02 -0.17746843615E+02  0.22703979185E+02  0.00000000000E+00 0. -1.
</event>
<event>
 7    1  0.7819001E-012  0.5930195E+02  0.7816164E-02  0.1266605E+00
        -11   -1    0    0    0    0  0.00000000000E+00  0.00000000000E+00  0.45593999997E+02  0.45594000000E+02  0.51100000000E-03 0. -1.
         11   -1    0    0    0    0 -0.00000000000E+00 -0.00000000000E+00 -0.45593999997E+02  0.45594000000E+02  0.51100000000E-03 0.  1.
    9900012    2    1    2    0    0 -0.17771632100E+02 -0.16871982001E+02 -0.20401610454E+02  0.59301946728E+02  0.50000004925E+02 0.  0.
         12    1    1    2    0    0  0.17771632100E+02  0.16871982001E+02  0.20401610454E+02  0.31886053272E+02  0.00000000000E+00 0. -1.
         11    1    3    3    0    0  0.43490131994E+01  0.25979102466E+00  0.35308575567E+01  0.56078839620E+01  0.51100000000E-03 0. -1.
        -11    1    3    3    0    0 -0.31044819240E+02 -0.10653976169E+02 -0.26716251499E+02  0.42320752643E+02  0.51100000000E-03 0.  1.
        -12    1    3    3    0    0  0.89241739406E+01 -0.64777968567E+01  0.27837834884E+01  0.11373310123E+02  0.00000000000E+00 0.  1.
</event>
<event>
 7    1  0.7819001E-012  0.5930196E+02  0.7816164E-02  0.1266605E+00
        -11   -1    0    0    0    0  0.00000000000E+00  0.00000000000E+00  0.45593999997E+02  0.45594000000E+02  0.51100000000E-03 0. -1.
         11   -1    0    0    0    0 -0.00000000000E+00 -0.00000000000E+00 -0.45593999997E+02  0.45594000000E+02  0.51100000000E-03 0.  1.
    9900012    2    1    2    0    0  0.28842428363E+01 -0.30828643712E+02 -0.76154843544E+01  0.59301957100E+02  0.50000023841E+02 0.  0.
         12    1    1    2    0    0 -0.28842428363E+01  0.30828643712E+02  0.76154843544E+01  0.31886042900E+02  0.00000000000E+00 0. -1.
         11    1    3    3    0    0 -0.22759959408E+01  0.12378344489E+02 -0.62799122535E+01  0.14065591633E+02  0.51100000000E-03 0. -1.
        -11    1    3    3    0    0  0.41395639717E+01 -0.24219169103E+02 -0.67213292804E+01  0.25473131128E+02  0.51100000000E-03 0.  1.
         12    1    3    3    0    0  0.10206748054E+01 -0.18987819098E+02  0.53857571795E+01  0.19763234339E+02  0.00000000000E+00 0. -1.
</event>
<event>
 7    1  0.7819001E-012  0.5930195E+02  0.7816164E-02  0.1266605E+00
        -11   -1    0    0    0    0  0.00000000000E+00  0.00000000000E+00  0.45593999997E+02  0.45594000000E+02  0.51100000000E-03 0. -1.
         11   -1    0    0    0    0 -0.00000000000E+00 -0.00000000000E+00 -0.45593999997E+02  0.45594000000E+02  0.51100000000E-03 0.  1.
    9900012    2    1    2    0    0  0.28447101540E+02  0.55098534826E+01 -0.13308794086E+02  0.59301951774E+02  0.50000014128E+02 0.  0.
         12    1    1    2    0    0 -0.28447101540E+02 -0.55098534826E+01  0.13308794086E+02  0.31886048226E+02  0.00000000000E+00 0. -1.
         11    1    3    3    0    0  0.14546502309E+02  0.13692842279E+02  0.13149970934E+02  0.23916864237E+02  0.51100000000E-03 0. -1.
        -11    1    3    3    0    0  0.82448114969E+01 -0.13327058107E+02 -0.15665169074E+02  0.22158179456E+02  0.51100000000E-03 0.  1.
         12    1    3    3    0    0  0.56557877343E+01  0.51440693099E+01 -0.10793595946E+02  0.13226908082E+02  0.00000000000E+00 0. -1.
</event>
<event>
 7    1  0.7819001E-012  0.5930194E+02  0.7816164E-02  0.1266605E+00
        -11   -1    0    0    0    0  0.00000000000E+00  0.00000000000E+00  0.45593999997E+02  0.45594000000E+02  0.51100000000E-03 0.  1.
         11   -1    0    0    0    0 -0.00000000000E+00 -0.00000000000E+00 -0.45593999997E+02  0.45594000000E+02  0.51100000000E-03 0. -1.
    9900012    2    1    2    0    0  0.18034247911E+02  0.24477177986E+02  0.96101114005E+01  0.59301943784E+02  0.49999999556E+02 0.  0.
         12    1    1    2    0    0 -0.18034247911E+02 -0.24477177986E+02 -0.96101114005E+01  0.31886056216E+02  0.00000000000E+00 0. -1.
         11    1    3    3    0    0  0.23646927533E+02  0.87273023236E+01  0.13890563733E+02  0.28780040804E+02  0.51100000000E-03 0. -1.
        -11    1    3    3    0    0 -0.12880383147E+02  0.52635537708E+01 -0.93812266876E+01  0.16781438637E+02  0.51100000000E-03 0.  1.
        -12    1    3    3    0    0  0.72677035251E+01  0.10486321891E+02  0.51007743554E+01  0.13740464343E+02  0.00000000000E+00 0.  1.
</event>
<event>
 7    1  0.7819001E-012  0.5930194E+02  0.7816164E-02  0.1266605E+00
        -11   -1    0    0    0    0  0.00000000000E+00  0.00000000000E+00  0.45593999997E+02  0.45594000000E+02  0.51100000000E-03 0. -1.
         11   -1    0    0    0    0 -0.00000000000E+00 -0.00000000000E+00 -0.45593999997E+02  0.45594000000E+02  0.51100000000E-03 0.  1.
    9900012    2    1    2    0    0 -0.74804535492E+01  0.26820217556E+02 -0.15538321380E+02  0.59301942132E+02  0.49999996543E+02 0.  0.
         12    1    1    2    0    0  0.74804535492E+01 -0.26820217556E+02  0.15538321380E+02  0.31886057868E+02  0.00000000000E+00 0. -1.
         11    1    3    3    0    0  0.22643199377E+01  0.69770397417E+01  0.75688668432E+00  0.73742190130E+01  0.51100000000E-03 0. -1.
        -11    1    3    3    0    0 -0.74248515822E+01  0.65753942090E+01 -0.30667021372E+02  0.32230892481E+02  0.51100000000E-03 0.  1.
        -12    1    3    3    0    0 -0.23199219047E+01  0.13267783605E+02  0.14371813308E+02  0.19696830638E+02  0.00000000000E+00 0.  1.
</event>
<event>
 7    1  0.7819001E-012  0.5930187E+02  0.7816164E-02  0.1266605E+00
        -11   -1    0    0    0    0  0.00000000000E+00  0.00000000000E+00  0.45593999997E+02  0.45594000000E+02  0.51100000000E-03 0.  1.
         11   -1    0    0    0    0 -0.00000000000E+00 -0.00000000000E+00 -0.45593999997E+02  0.45594000000E+02  0.51100000000E-03 0. -1.
    9900012    2    1    2    0    0  0.30117490096E+02  0.83046746257E+01 -0.63791971853E+01  0.59301874694E+02  0.49999873552E+02 0.  0.
         12    1    1    2    0    0 -0.30117490096E+02 -0.83046746257E+01  0.63791971853E+01  0.31886125306E+02  0.00000000000E+00 0. -1.
         11    1    3    3    0    0 -0.67603000649E+00  0.16210715658E+02 -0.93870388456E+01  0.18744621022E+02  0.51100000000E-03 0. -1.
        -11    1    3    3    0    0  0.19236059672E+02 -0.13673850238E+02 -0.65452442783E+01  0.24491639286E+02  0.51100000000E-03 0.  1.
         12    1    3    3    0    0  0.11557460430E+02  0.57678092054E+01  0.95530859387E+01  0.16065614385E+02  0.00000000000E+00 0. -1.
</event>
<event>
 7    1  0.7819001E-012  0.5930188E+02  0.7816164E-02  0.1266605E+00
        -11   -1    0    0    0    0  0.00000000000E+00  0.00000000000E+00  0.45593999997E+02  0.45594000000E+02  0.51100000000E-03 0. -1.
         11   -1    0    0    0    0 -0.00000000000E+00 -0.00000000000E+00 -0.45593999997E+02  0.45594000000E+02  0.51100000000E-03 0.  1.
    9900012    2    1    2    0    0  0.84140607463E+01  0.87706715536E+01 -0.29478863189E+02  0.59301882759E+02  0.49999888261E+02 0.  0.
         12    1    1    2    0    0 -0.84140607463E+01 -0.87706715536E+01  0.29478863189E+02  0.31886117241E+02  0.00000000000E+00 0. -1.
         11    1    3    3    0    0  0.23127087068E+01 -0.56533511214E+01 -0.13816925580E+02  0.15106833991E+02  0.51100000000E-03 0. -1.
        -11    1    3    3    0    0  0.85347452404E+00  0.19951798272E+02  0.63062834503E+01  0.20942107923E+02  0.51100000000E-03 0.  1.
        -12    1    3    3    0    0  0.52478775155E+01 -0.55277755968E+01 -0.21968221059E+02  0.23252940846E+02  0.00000000000E+00 0.  1.
</event>
<event>
 7    1  0.7819001E-012  0.5930189E+02  0.7816164E-02  0.1266605E+00
        -11   -1    0    0    0    0  0.00000000000E+00  0.00000000000E+00  0.45593999997E+02  0.45594000000E+02  0.51100000000E-03 0. -1.
         11   -1    0    0    0    0 -0.00000000000E+00 -0.00000000000E+00 -0.45593999997E+02  0.45594000000E+02  0.51100000000E-03 0.  1.
    9900012    2    1    2    0    0  0.27343075950E+02  0.15655853580E+02 -0.48963891750E+01  0.59301887338E+02  0.49999896612E+02 0.  0.
         12    1    1    2    0    0 -0.27343075950E+02 -0.15655853580E+02  0.48963891750E+01  0.31886112662E+02  0.00000000000E+00 0. -1.
         11    1    3    3    0    0 -0.64884610194E+01  0.77139060386E+01  0.11866163322E+02  0.15569531304E+02  0.51100000000E-03 0. -1.
        -11    1    3    3    0    0  0.20137050563E+02  0.99643515143E+01 -0.19347727163E+02  0.29650019445E+02  0.51100000000E-03 0.  1.
         12    1    3    3    0    0  0.13694486406E+02 -0.20224039732E+01  0.25851746654E+01  0.14082336589E+02  0.00000000000E+00 0. -1.
</event>
<event>
 7    1  0.7819001E-012  0.5930196E+02  0.7816164E-02  0.1266605E+00
        -11   -1    0    0    0    0  0.00000000000E+00  0.00000000000E+00  0.45593999997E+02  0.45594000000E+02  0.51100000000E-03 0.  1.
         11   -1    0    0    0    0 -0.00000000000E+00 -0.00000000000E+00 -0.45593999997E+02  0.45594000000E+02  0.51100000000E-03 0. -1.
    9900012    2    1    2    0    0 -0.72478836943E+01 -0.29285231766E+02  0.10322929067E+02  0.59301961015E+02  0.50000030981E+02 0.  0.
         12    1    1    2    0    0  0.72478836943E+01  0.29285231766E+02 -0.10322929067E+02  0.31886038985E+02  0.00000000000E+00 0. -1.
         11    1    3    3    0    0 -0.24478452220E+02 -0.29434132516E+02  0.84320553463E+01  0.39200284918E+02  0.51100000000E-03 0. -1.
        -11    1    3    3    0    0  0.11529510414E+02 -0.28444440459E+01 -0.27190121461E+01  0.12182507936E+02  0.51100000000E-03 0.  1.
         12    1    3    3    0    0  0.57010581114E+01  0.29933447954E+01  0.46098858666E+01  0.79191681607E+01  0.00000000000E+00 0. -1.
</event>
<event>
 7    1  0.7819001E-012  0.5930195E+02  0.7816164E-02  0.1266605E+00
        -11   -1    0    0    0    0  0.00000000000E+00  0.00000000000E+00  0.45593999997E+02  0.45594000000E+02  0.51100000000E-03 0.  1.
         11   -1    0    0    0    0 -0.00000000000E+00 -0.00000000000E+00 -0.45593999997E+02  0.45594000000E+02  0.51100000000E-03 0. -1.
    9900012    2    1    2    0    0 -0.12397550974E+02 -0.29373077730E+02  0.49319018874E+00  0.59301949726E+02  0.50000010392E+02 0.  0.
         12    1    1    2    0    0  0.12397550974E+02  0.29373077730E+02 -0.49319018874E+00  0.31886050274E+02  0.00000000000E+00 0. -1.
         11    1    3    3    0    0 -0.32327143604E+01  0.93356258219E+01 -0.36929013872E+01  0.10547126269E+02  0.51100000000E-03 0. -1.
        -11    1    3    3    0    0 -0.12377458847E+02 -0.40769906277E+02 -0.62693025550E+00  0.42611967652E+02  0.51100000000E-03 0.  1.
        -12    1    3    3    0    0  0.32126222334E+01  0.20612027247E+01  0.48130218315E+01  0.61428558047E+01  0.00000000000E+00 0.  1.
</event>
<event>
 7    1  0.7819001E-012  0.5930193E+02  0.7816164E-02  0.1266605E+00
        -11   -1    0    0    0    0  0.00000000000E+00  0.00000000000E+00  0.45593999997E+02  0.45594000000E+02  0.51100000000E-03 0. -1.
         11   -1    0    0    0    0 -0.00000000000E+00 -0.00000000000E+00 -0.45593999997E+02  0.45594000000E+02  0.51100000000E-03 0.  1.
    9900012    2    1    2    0    0 -0.10454702585E+02 -0.29298438990E+01 -0.29980606554E+02  0.59301928421E+02  0.49999971537E+02 0.  0.
         12    1    1    2    0    0  0.10454702585E+02  0.29298438990E+01  0.29980606554E+02  0.31886071579E+02  0.00000000000E+00 0. -1.
         11    1    3    3    0    0  0.43565429686E+01 -0.30799315323E+01  0.14354669114E+01  0.55250348774E+01  0.51100000000E-03 0. -1.
        -11    1    3    3    0    0 -0.12472766157E+02  0.87660107147E+01 -0.39119530475E+02  0.41985122416E+02  0.51100000000E-03 0.  1.
        -12    1    3    3    0    0 -0.23384793968E+01 -0.86159230814E+01  0.77034570095E+01  0.11791771128E+02  0.00000000000E+00 0.  1.
</event>
<event>
 7    1  0.7819001E-012  0.5930201E+02  0.7816164E-02  0.1266605E+00
        -11   -1    0    0    0    0  0.00000000000E+00  0.00000000000E+00  0.45593999997E+02  0.45594000000E+02  0.51100000000E-03 0.  1.
         11   -1    0    0    0    0 -0.00000000000E+00 -0.00000000000E+00 -0.45593999997E+02  0.45594000000E+02  0.51100000000E-03 0. -1.
    9900012    2    1    2    0    0 -0.20957525923E+02 -0.23900778953E+02 -0.25001878116E+01  0.59302014576E+02  0.50000128662E+02 0.  0.
         12    1    1    2    0    0  0.20957525923E+02  0.23900778953E+02  0.25001878116E+01  0.31885985424E+02  0.00000000000E+00 0. -1.
         11    1    3    3    0    0  0.79572587155E+01 -0.11320856247E+01 -0.10636623135E+02  0.13331816684E+02  0.51100000000E-03 0. -1.
        -11    1    3    3    0    0 -0.31095592773E+02 -0.25077667349E+02  0.11271478879E+02  0.41507487589E+02  0.51100000000E-03 0.  1.
        -12    1    3    3    0    0  0.21808081341E+01  0.23089740207E+01 -0.31350435557E+01  0.44627103023E+01  0.00000000000E+00 0.  1.
</event>
<event>
 7    1  0.7819001E-012  0.5930196E+02  0.7816164E-02  0.1266605E+00
        -11   -1    0    0    0    0  0.00000000000E+00  0.00000000000E+00  0.45593999997E+02  0.45594000000E+02  0.51100000000E-03 0.  1.
         11   -1    0    0    0    0 -0.00000000000E+00 -0.00000000000E+00 -0.45593999997E+02  0.45594000000E+02  0.51100000000E-03 0. -1.
    9900012    2    1    2    0    0 -0.18159411300E+02 -0.11355456916E+02  0.23622213579E+02  0.59301959247E+02  0.50000027757E+02 0.  0.
         12    1    1    2    0    0  0.18159411300E+02  0.11355456916E+02 -0.23622213579E+02  0.31886040753E+02  0.00000000000E+00 0. -1.
         11    1    3    3    0    0 -0.12901519769E+02 -0.16734077118E+02  0.59980570317E+01  0.21964863709E+02  0.51100000000E-03 0. -1.
        -11    1    3    3    0    0 -0.10566445018E+02  0.14254388677E+02  0.10168432028E+01  0.17772769262E+02  0.51100000000E-03 0.  1.
         12    1    3    3    0    0  0.53085534871E+01 -0.88757684745E+01  0.16607313344E+02  0.19564326276E+02  0.00000000000E+00 0. -1.
</event>
<event>
 7    1  0.7819001E-012  0.5930193E+02  0.7816164E-02  0.1266605E+00
        -11   -1    0    0    0    0  0.00000000000E+00  0.00000000000E+00  0.45593999997E+02  0.45594000000E+02  0.51100000000E-03 0.  1.
         11   -1    0    0    0    0 -0.00000000000E+00 -0.00000000000E+00 -0.45593999997E+02  0.45594000000E+02  0.51100000000E-03 0. -1.
    9900012    2    1    2    0    0 -0.12389408853E+02  0.18215548020E+02  0.23052499259E+02  0.59301931514E+02  0.49999977178E+02 0.  0.
         12    1    1    2    0    0  0.12389408853E+02 -0.18215548020E+02 -0.23052499259E+02  0.31886068486E+02  0.00000000000E+00 0. -1.
         11    1    3    3    0    0 -0.20624305090E+02  0.23565667697E+02  0.94416629034E+01  0.32708525694E+02  0.51100000000E-03 0. -1.
        -11    1    3    3    0    0  0.12227860495E+02 -0.54685160438E+01  0.10767972928E+01  0.13438181896E+02  0.51100000000E-03 0.  1.
         12    1    3    3    0    0 -0.39929642582E+01  0.11839636730E+00  0.12534039062E+02  0.13155223924E+02  0.00000000000E+00 0. -1.
</event>
<event>
 7    1  0.7819001E-012  0.5930195E+02  0.7816164E-02  0.1266605E+00
        -11   -1    0    0    0    0  0.00000000000E+00  0.00000000000E+00  0.45593999997E+02  0.45594000000E+02  0.51100000000E-03 0.  1.
         11   -1    0    0    0    0 -0.00000000000E+00 -0.00000000000E+00 -0.45593999997E+02  0.45594000000E+02  0.51100000000E-03 0. -1.
    9900012    2    1    2    0    0 -0.87104180413E+01  0.12989127577E+02  0.27787251565E+02  0.59301950273E+02  0.50000011390E+02 0.  0.
         12    1    1    2    0    0  0.87104180413E+01 -0.12989127577E+02 -0.27787251565E+02  0.31886049727E+02  0.00000000000E+00 0. -1.
         11    1    3    3    0    0 -0.13482505959E+02 -0.96138059991E+01  0.18291530640E+02  0.24673534934E+02  0.51100000000E-03 0. -1.
        -11    1    3    3    0    0  0.54410754983E+01  0.60917725893E+01 -0.73809313560E+01  0.11008775763E+02  0.51100000000E-03 0.  1.
         12    1    3    3    0    0 -0.66898758102E+00  0.16511160987E+02  0.16876652280E+02  0.23619639576E+02  0.00000000000E+00 0. -1.
</event>
<event>
 7    1  0.7819001E-012  0.5930195E+02  0.7816164E-02  0.1266605E+00
        -11   -1    0    0    0    0  0.00000000000E+00  0.00000000000E+00  0.45593999997E+02  0.45594000000E+02  0.51100000000E-03 0. -1.
         11   -1    0    0    0    0 -0.00000000000E+00 -0.00000000000E+00 -0.45593999997E+02  0.45594000000E+02  0.51100000000E-03 0.  1.
    9900012    2    1    2    0    0 -0.56543151589E+01  0.10908999682E+02 -0.29423506241E+02  0.59301948606E+02  0.50000008349E+02 0.  0.
         12    1    1    2    0    0  0.56543151589E+01 -0.10908999682E+02  0.29423506241E+02  0.31886051394E+02  0.00000000000E+00 0. -1.
         11    1    3    3    0    0 -0.16972273024E+02  0.33249832294E+01  0.33396997360E+01  0.17614402052E+02  0.51100000000E-03 0. -1.
        -11    1    3    3    0    0  0.15513913520E+02  0.38767947992E+01 -0.11492722392E+02  0.19692478738E+02  0.51100000000E-03 0.  1.
         12    1    3    3    0    0 -0.41959556555E+01  0.37072216537E+01 -0.21270483585E+02  0.21995067815E+02  0.00000000000E+00 0. -1.
</event>
<event>
 7    1  0.7819001E-012  0.5930194E+02  0.7816164E-02  0.1266605E+00
        -11   -1    0    0    0    0  0.00000000000E+00  0.00000000000E+00  0.45593999997E+02  0.45594000000E+02  0.51100000000E-03 0. -1.
         11   -1    0    0    0    0 -0.00000000000E+00 -0.00000000000E+00 -0.45593999997E+02  0.45594000000E+02  0.51100000000E-03 0.  1.
    9900012    2    1    2    0    0 -0.24322449758E+02  0.18814216401E+02  0.84359191329E+01  0.59301936702E+02  0.49999986640E+02 0.  0.
         12    1    1    2    0    0  0.24322449758E+02 -0.18814216401E+02 -0.84359191329E+01  0.31886063298E+02  0.00000000000E+00 0. -1.
         11    1    3    3    0    0 -0.54155549784E+01  0.14134205024E+01  0.12623104625E+02  0.13808286059E+02  0.51100000000E-03 0. -1.
        -11    1    3    3    0    0  0.62268708982E+01  0.11670110309E+02 -0.12708310283E+02  0.18343024460E+02  0.51100000000E-03 0.  1.
        -12    1    3    3    0    0 -0.25133765678E+02  0.57306855896E+01  0.85211247909E+01  0.27150626184E+02  0.00000000000E+00 0.  1.
</event>
<event>
 7    1  0.7819001E-012  0.5930195E+02  0.7816164E-02  0.1266605E+00
        -11   -1    0    0    0    0  0.00000000000E+00  0.00000000000E+00  0.45593999997E+02  0.45594000000E+02  0.51100000000E-03 0.  1.
         11   -1    0    0    0    0 -0.00000000000E+00 -0.00000000000E+00 -0.45593999997E+02  0.45594000000E+02  0.51100000000E-03 0. -1.
    9900012    2    1    2    0    0 -0.14783031524E+02  0.67938973208E+01  0.27423074516E+02  0.59301951675E+02  0.50000013947E+02 0.  0.
         12    1    1    2    0    0  0.14783031524E+02 -0.67938973208E+01 -0.27423074516E+02  0.31886048325E+02  0.00000000000E+00 0. -1.
         11    1    3    3    0    0  0.89430741660E+01 -0.14219956600E+02  0.10834835595E+02  0.19989482331E+02  0.51100000000E-03 0. -1.
        -11    1    3    3    0    0 -0.19816549195E+02  0.84806782267E+01  0.58050554193E+01  0.22322996974E+02  0.51100000000E-03 0.  1.
         12    1    3    3    0    0 -0.39095564948E+01  0.12533175694E+02  0.10783183502E+02  0.16989472370E+02  0.00000000000E+00 0. -1.
</event>
<event>
 7    1  0.7819001E-012  0.5930192E+02  0.7816164E-02  0.1266605E+00
        -11   -1    0    0    0    0  0.00000000000E+00  0.00000000000E+00  0.45593999997E+02  0.45594000000E+02  0.51100000000E-03 0.  1.
         11   -1    0    0    0    0 -0.00000000000E+00 -0.00000000000E+00 -0.45593999997E+02  0.45594000000E+02  0.51100000000E-03 0. -1.
    9900012    2    1    2    0    0  0.20887951899E+02 -0.20085334741E+02  0.13303939596E+02  0.59301921298E+02  0.49999958547E+02 0.  0.
         12    1    1    2    0    0 -0.20887951899E+02  0.20085334741E+02 -0.13303939596E+02  0.31886078702E+02  0.00000000000E+00 0. -1.
         11    1    3    3    0    0  0.21242510181E+02  0.38904344039E+01 -0.23459968767E+01  0.21722877808E+02  0.51100000000E-03 0. -1.
        -11    1    3    3    0    0  0.86040585133E+01 -0.22916085721E+02  0.14588770565E+02  0.28495772222E+02  0.51100000000E-03 0.  1.
         12    1    3    3    0    0 -0.89586167957E+01 -0.10596834238E+01  0.10611659079E+01  0.90832712683E+01  0.00000000000E+00 0. -1.
</event>
<event>
 7    1  0.7819001E-012  0.5930196E+02  0.7816164E-02  0.1266605E+00
        -11   -1    0    0    0    0  0.00000000000E+00  0.00000000000E+00  0.45593999997E+02  0.45594000000E+02  0.51100000000E-03 0.  1.
         11   -1    0    0    0    0 -0.00000000000E+00 -0.00000000000E+00 -0.45593999997E+02  0.45594000000E+02  0.51100000000E-03 0. -1.
    9900012    2    1    2    0    0 -0.46349447775E+01 -0.28168730358E+00  0.31546120167E+02  0.59301956683E+02  0.50000023080E+02 0.  0.
         12    1    1    2    0    0  0.46349447775E+01  0.28168730358E+00 -0.31546120167E+02  0.31886043317E+02  0.00000000000E+00 0. -1.
         11    1    3    3    0    0 -0.24330415947E+02 -0.26959616467E+01  0.75848865187E+01  0.25627482380E+02  0.51100000000E-03 0. -1.
        -11    1    3    3    0    0  0.18008073390E+02 -0.23808179479E+01  0.15880197689E+02  0.24127570956E+02  0.51100000000E-03 0.  1.
        -12    1    3    3    0    0  0.16873977801E+01  0.47950922910E+01  0.80810359591E+01  0.95469033471E+01  0.00000000000E+00 0.  1.
</event>
<event>
 7    1  0.7819001E-012  0.5930195E+02  0.7816164E-02  0.1266605E+00
        -11   -1    0    0    0    0  0.00000000000E+00  0.00000000000E+00  0.45593999997E+02  0.45594000000E+02  0.51100000000E-03 0. -1.
         11   -1    0    0    0    0 -0.00000000000E+00 -0.00000000000E+00 -0.45593999997E+02  0.45594000000E+02  0.51100000000E-03 0.  1.
    9900012    2    1    2    0    0 -0.88635765114E+01 -0.16049038028E+02 -0.26088034981E+02  0.59301950082E+02  0.50000011042E+02 0.  0.
         12    1    1    2    0    0  0.88635765114E+01  0.16049038028E+02  0.26088034981E+02  0.31886049918E+02  0.00000000000E+00 0. -1.
         11    1    3    3    0    0 -0.21467386465E+02 -0.15153962789E+02  0.20595193052E+01  0.26357786133E+02  0.51100000000E-03 0. -1.
        -11    1    3    3    0    0  0.10974168537E+02 -0.14767247317E+01 -0.28980416547E+02  0.31023823660E+02  0.51100000000E-03 0.  1.
         12    1    3    3    0    0  0.16296414168E+01  0.58164949196E+00  0.83286226094E+00  0.19203402887E+01  0.00000000000E+00 0. -1.
</event>
<event>
 7    1  0.7819001E-012  0.5930218E+02  0.7816164E-02  0.1266604E+00
        -11   -1    0    0    0    0  0.00000000000E+00  0.00000000000E+00  0.45593999997E+02  0.45594000000E+02  0.51100000000E-03 0. -1.
         11   -1    0    0    0    0 -0.00000000000E+00 -0.00000000000E+00 -0.45593999997E+02  0.45594000000E+02  0.51100000000E-03 0.  1.
    9900012    2    1    2    0    0 -0.49887862510E+01 -0.26098621801E+02 -0.17626100150E+02  0.59302180978E+02  0.50000432139E+02 0.  0.
         12    1    1    2    0    0  0.49887862510E+01  0.26098621801E+02  0.17626100150E+02  0.31885819022E+02  0.00000000000E+00 0. -1.
         11    1    3    3    0    0 -0.18744460618E+02  0.67765549760E+00 -0.16752272721E+02  0.25148611541E+02  0.51100000000E-03 0. -1.
        -11    1    3    3    0    0  0.85041424646E+01 -0.95906276968E+01 -0.76743045926E+01  0.14939729914E+02  0.51100000000E-03 0.  1.
         12    1    3    3    0    0  0.52515319026E+01 -0.17185649602E+02  0.68004771636E+01  0.19213839523E+02  0.00000000000E+00 0. -1.
</event>
<event>
 7    1  0.7819001E-012  0.5930193E+02  0.7816164E-02  0.1266605E+00
        -11   -1    0    0    0    0  0.00000000000E+00  0.00000000000E+00  0.45593999997E+02  0.45594000000E+02  0.51100000000E-03 0.  1.
         11   -1    0    0    0    0 -0.00000000000E+00 -0.00000000000E+00 -0.45593999997E+02  0.45594000000E+02  0.51100000000E-03 0. -1.
    9900012    2    1    2    0    0  0.13267710113E+02 -0.11177828606E+02  0.26753418116E+02  0.59301931493E+02  0.49999977139E+02 0.  0.
         12    1    1    2    0    0 -0.13267710113E+02  0.11177828606E+02 -0.26753418116E+02  0.31886068507E+02  0.00000000000E+00 0. -1.
         11    1    3    3    0    0  0.12486866489E+00  0.15237564485E+01 -0.90703131114E+01  0.91982610366E+01  0.51100000000E-03 0. -1.
        -11    1    3    3    0    0  0.10620820356E+01 -0.48263151107E+01  0.35330312693E+02  0.35674253055E+02  0.51100000000E-03 0.  1.
        -12    1    3    3    0    0  0.12080759412E+02 -0.78752699441E+01  0.49341853401E+00  0.14429417401E+02  0.00000000000E+00 0.  1.
</event>
<event>
 7    1  0.7819001E-012  0.5930197E+02  0.7816164E-02  0.1266605E+00
        -11   -1    0    0    0    0  0.00000000000E+00  0.00000000000E+00  0.45593999997E+02  0.45594000000E+02  0.51100000000E-03 0.  1.
         11   -1    0    0    0    0 -0.00000000000E+00 -0.00000000000E+00 -0.45593999997E+02  0.45594000000E+02  0.51100000000E-03 0. -1.
    9900012    2    1    2    0    0  0.19598683513E+02  0.14933287826E+02  0.20238767896E+02  0.59301965335E+02  0.50000038859E+02 0.  0.
         12    1    1    2    0    0 -0.19598683513E+02 -0.14933287826E+02 -0.20238767896E+02  0.31886034665E+02  0.00000000000E+00 0. -1.
         11    1    3    3    0    0  0.74343502845E+01  0.12155281902E+02 -0.75290753829E+01  0.16115440380E+02  0.51100000000E-03 0. -1.
        -11    1    3    3    0    0  0.21159993738E+02  0.77135425858E+01  0.21649755210E+02  0.31240294094E+02  0.51100000000E-03 0.  1.
        -12    1    3    3    0    0 -0.89956605097E+01 -0.49355366613E+01  0.61180880691E+01  0.11946230860E+02  0.00000000000E+00 0.  1.
</event>
<event>
 7    1  0.7819001E-012  0.5930195E+02  0.7816164E-02  0.1266605E+00
        -11   -1    0    0    0    0  0.00000000000E+00  0.00000000000E+00  0.45593999997E+02  0.45594000000E+02  0.51100000000E-03 0.  1.
         11   -1    0    0    0    0 -0.00000000000E+00 -0.00000000000E+00 -0.45593999997E+02  0.45594000000E+02  0.51100000000E-03 0. -1.
    9900012    2    1    2    0    0 -0.24756441642E+02 -0.75630860850E+00  0.20081500391E+02  0.59301951900E+02  0.50000014357E+02 0.  0.
         12    1    1    2    0    0  0.24756441642E+02  0.75630860850E+00 -0.20081500391E+02  0.31886048100E+02  0.00000000000E+00 0. -1.
         11    1    3    3    0    0  0.98910362490E+01  0.81005072752E+01 -0.43040847890E+01  0.13489846638E+02  0.51100000000E-03 0. -1.
        -11    1    3    3    0    0 -0.11607040386E+02 -0.10406496701E+02  0.82184569513E+01  0.17622757872E+02  0.51100000000E-03 0.  1.
         12    1    3    3    0    0 -0.23040437505E+02  0.15496808171E+01  0.16167128229E+02  0.28189347389E+02  0.00000000000E+00 0. -1.
</event>
<event>
 7    1  0.7819001E-012  0.5930196E+02  0.7816164E-02  0.1266605E+00
        -11   -1    0    0    0    0  0.00000000000E+00  0.00000000000E+00  0.45593999997E+02  0.45594000000E+02  0.51100000000E-03 0.  1.
         11   -1    0    0    0    0 -0.00000000000E+00 -0.00000000000E+00 -0.45593999997E+02  0.45594000000E+02  0.51100000000E-03 0. -1.
    9900012    2    1    2    0    0  0.31118695081E+02 -0.60660363469E+01 -0.33984998796E+01  0.59301956314E+02  0.50000022408E+02 0.  0.
         12    1    1    2    0    0 -0.31118695081E+02  0.60660363469E+01  0.33984998796E+01  0.31886043686E+02  0.00000000000E+00 0. -1.
         11    1    3    3    0    0 -0.58635206589E+01 -0.15459571449E+02 -0.26639076497E+01  0.16747406609E+02  0.51100000000E-03 0. -1.
        -11    1    3    3    0    0  0.20856533167E+02 -0.43547661326E+01  0.67332779244E+00  0.21316949463E+02  0.51100000000E-03 0.  1.
         12    1    3    3    0    0  0.16125682573E+02  0.13748301235E+02 -0.14079200224E+01  0.21237600243E+02  0.00000000000E+00 0. -1.
</event>
<event>
 7    1  0.7819001E-012  0.5930202E+02  0.7816164E-02  0.1266604E+00
        -11   -1    0    0    0    0  0.00000000000E+00  0.00000000000E+00  0.45593999997E+02  0.45594000000E+02  0.51100000000E-03 0. -1.
         11   -1    0    0    0    0 -0.00000000000E+00 -0.00000000000E+00 -0.45593999997E+02  0.45594000000E+02  0.51100000000E-03 0.  1.
    9900012    2    1    2    0    0 -0.42734847676E+01 -0.29331675139E+02 -0.11751844518E+02  0.59302020510E+02  0.50000139484E+02 0.  0.
         12    1    1    2    0    0  0.42734847676E+01  0.29331675139E+02  0.11751844518E+02  0.31885979490E+02  0.00000000000E+00 0. -1.
         11    1    3    3    0    0  0.26015007252E+01  0.52650732480E+01 -0.66391494943E+01  0.88638089216E+01  0.51100000000E-03 0. -1.
        -11    1    3    3    0    0  0.21658441534E+01 -0.36363512038E+02 -0.12622773637E+02  0.38552954533E+02  0.51100000000E-03 0.  1.
        -12    1    3    3    0    0 -0.90408296461E+01  0.17667636518E+01  0.75100786131E+01  0.11885257055E+02  0.00000000000E+00 0.  1.
</event>
<event>
 7    1  0.7819001E-012  0.5930192E+02  0.7816164E-02  0.1266605E+00
        -11   -1    0    0    0    0  0.00000000000E+00  0.00000000000E+00  0.45593999997E+02  0.45594000000E+02  0.51100000000E-03 0.  1.
         11   -1    0    0    0    0 -0.00000000000E+00 -0.00000000000E+00 -0.45593999997E+02  0.45594000000E+02  0.51100000000E-03 0. -1.
    9900012    2    1    2    0    0 -0.39409521077E+01 -0.23570549947E+02  0.21109718599E+02  0.59301919218E+02  0.49999954753E+02 0.  0.
         12    1    1    2    0    0  0.39409521077E+01  0.23570549947E+02 -0.21109718599E+02  0.31886080782E+02  0.00000000000E+00 0. -1.
         11    1    3    3    0    0  0.11858159911E+02 -0.19044270870E+02  0.74536232583E-01  0.22434477158E+02  0.51100000000E-03 0. -1.
        -11    1    3    3    0    0 -0.84632240773E+01  0.88226292939E+01  0.17300841707E+02  0.21184524386E+02  0.51100000000E-03 0.  1.
         12    1    3    3    0    0 -0.73358879415E+01 -0.13348908371E+02  0.37343406591E+01  0.15682917673E+02  0.00000000000E+00 0. -1.
</event>
<event>
 7    1  0.7819001E-012  0.5930202E+02  0.7816164E-02  0.1266604E+00
        -11   -1    0    0    0    0  0.00000000000E+00  0.00000000000E+00  0.45593999997E+02  0.45594000000E+02  0.51100000000E-03 0. -1.
         11   -1    0    0    0    0 -0.00000000000E+00 -0.00000000000E+00 -0.45593999997E+02  0.45594000000E+02  0.51100000000E-03 0.  1.
    9900012    2    1    2    0    0  0.27180594608E+02 -0.10096308064E+01  0.16640658840E+02  0.59302021824E+02  0.50000141882E+02 0.  0.
         12    1    1    2    0    0 -0.27180594608E+02  0.10096308064E+01 -0.16640658840E+02  0.31885978176E+02  0.00000000000E+00 0. -1.
         11    1    3    3    0    0 -0.55376272392E+01 -0.30048068062E+01  0.10521073785E+02  0.12263244808E+02  0.51100000000E-03 0. -1.
        -11    1    3    3    0    0  0.24880992443E+02  0.67272312118E+01  0.18438373587E+02  0.31690582915E+02  0.51100000000E-03 0.  1.
        -12    1    3    3    0    0  0.78372294046E+01 -0.47320552120E+01 -0.12318788532E+02  0.15348194101E+02  0.00000000000E+00 0.  1.
</event>
<event>
 7    1  0.7819001E-012  0.5930191E+02  0.7816164E-02  0.1266605E+00
        -11   -1    0    0    0    0  0.00000000000E+00  0.00000000000E+00  0.45593999997E+02  0.45594000000E+02  0.51100000000E-03 0.  1.
         11   -1    0    0    0    0 -0.00000000000E+00 -0.00000000000E+00 -0.45593999997E+02  0.45594000000E+02  0.51100000000E-03 0. -1.
    9900012    2    1    2    0    0  0.78103299394E+01 -0.23658522951E+02  0.19899646148E+02  0.59301907753E+02  0.49999933844E+02 0.  0.
         12    1    1    2    0    0 -0.78103299394E+01  0.23658522951E+02 -0.19899646148E+02  0.31886092247E+02  0.00000000000E+00 0. -1.
         11    1    3    3    0    0  0.20649678227E+01  0.58687666827E+01 -0.59330755001E+01  0.85969703754E+01  0.51100000000E-03 0. -1.
        -11    1    3    3    0    0  0.31111551475E+01 -0.12902267136E+02  0.30478766100E+02  0.33243089009E+02  0.51100000000E-03 0.  1.
        -12    1    3    3    0    0  0.26342069692E+01 -0.16625022498E+02 -0.46460444521E+01  0.17461848369E+02  0.00000000000E+00 0.  1.
</event>
<event>
 7    1  0.7819001E-012  0.5930197E+02  0.7816164E-02  0.1266605E+00
        -11   -1    0    0    0    0  0.00000000000E+00  0.00000000000E+00  0.45593999997E+02  0.45594000000E+02  0.51100000000E-03 0.  1.
         11   -1    0    0    0    0 -0.00000000000E+00 -0.00000000000E+00 -0.45593999997E+02  0.45594000000E+02  0.51100000000E-03 0. -1.
    9900012    2    1    2    0    0  0.56560419230E+01  0.25136341712E+02  0.18785429348E+02  0.59301971074E+02  0.50000049326E+02 0.  0.
         12    1    1    2    0    0 -0.56560419230E+01 -0.25136341712E+02 -0.18785429348E+02  0.31886028926E+02  0.00000000000E+00 0. -1.
         11    1    3    3    0    0  0.19285703438E+02  0.13596349856E+02  0.53770676707E+01  0.24201486390E+02  0.51100000000E-03 0. -1.
        -11    1    3    3    0    0 -0.14033836356E+02  0.16423625065E+02  0.84962858088E+00  0.21619571969E+02  0.51100000000E-03 0.  1.
         12    1    3    3    0    0  0.40417484067E+00 -0.48836332090E+01  0.12558733097E+02  0.13480912715E+02  0.00000000000E+00 0. -1.
</event>
<event>
 7    1  0.7819001E-012  0.5930195E+02  0.7816164E-02  0.1266605E+00
        -11   -1    0    0    0    0  0.00000000000E+00  0.00000000000E+00  0.45593999997E+02  0.45594000000E+02  0.51100000000E-03 0.  1.
         11   -1    0    0    0    0 -0.00000000000E+00 -0.00000000000E+00 -0.45593999997E+02  0.45594000000E+02  0.51100000000E-03 0. -1.
    9900012    2    1    2    0    0 -0.15729186985E+02  0.27252622416E+02  0.51582663299E+01  0.59301945630E+02  0.50000002922E+02 0.  0.
         12    1    1    2    0    0  0.15729186985E+02 -0.27252622416E+02 -0.51582663299E+01  0.31886054370E+02  0.00000000000E+00 0. -1.
         11    1    3    3    0    0  0.34625838899E+01 -0.84148430044E+01  0.13778596556E+02  0.16512080223E+02  0.51100000000E-03 0. -1.
        -11    1    3    3    0    0 -0.19155253133E+02  0.29969945686E+02 -0.99602167008E+01  0.36936801215E+02  0.51100000000E-03 0.  1.
        -12    1    3    3    0    0 -0.36517741812E-01  0.56975197339E+01  0.13398864747E+01  0.58530641914E+01  0.00000000000E+00 0.  1.
</event>
<event>
 7    1  0.7819001E-012  0.5930197E+02  0.7816164E-02  0.1266605E+00
        -11   -1    0    0    0    0  0.00000000000E+00  0.00000000000E+00  0.45593999997E+02  0.45594000000E+02  0.51100000000E-03 0.  1.
         11   -1    0    0    0    0 -0.00000000000E+00 -0.00000000000E+00 -0.45593999997E+02  0.45594000000E+02  0.51100000000E-03 0. -1.
    9900012    2    1    2    0    0 -0.25688998042E+02  0.85231414837E+01  0.16856766989E+02  0.59301966153E+02  0.50000040352E+02 0.  0.
         12    1    1    2    0    0  0.25688998042E+02 -0.85231414837E+01 -0.16856766989E+02  0.31886033847E+02  0.00000000000E+00 0. -1.
         11    1    3    3    0    0 -0.19035307068E+02 -0.42397518682E+00 -0.10278172030E+01  0.19067749699E+02  0.51100000000E-03 0. -1.
        -11    1    3    3    0    0  0.96841214549E+01 -0.24544900506E+01 -0.38896838470E+01  0.10720838141E+02  0.51100000000E-03 0.  1.
        -12    1    3    3    0    0 -0.16337812429E+02  0.11401606721E+02  0.21774268039E+02  0.29513378313E+02  0.00000000000E+00 0.  1.
</event>
<event>
 7    1  0.7819001E-012  0.5930194E+02  0.7816164E-02  0.1266605E+00
        -11   -1    0    0    0    0  0.00000000000E+00  0.00000000000E+00  0.45593999997E+02  0.45594000000E+02  0.51100000000E-03 0.  1.
         11   -1    0    0    0    0 -0.00000000000E+00 -0.00000000000E+00 -0.45593999997E+02  0.45594000000E+02  0.51100000000E-03 0. -1.
    9900012    2    1    2    0    0  0.29102822206E+02 -0.47891004480E+01  0.12116559389E+02  0.59301941058E+02  0.49999994583E+02 0.  0.
         12    1    1    2    0    0 -0.29102822206E+02  0.47891004480E+01 -0.12116559389E+02  0.31886058942E+02  0.00000000000E+00 0. -1.
         11    1    3    3    0    0  0.37920285347E+02 -0.14366550486E+02  0.13757021512E+02  0.42820572799E+02  0.51100000000E-03 0.  1.
        -11    1    3    3    0    0 -0.48150981156E+01  0.81528070149E+01 -0.53202990262E+01  0.10860893797E+02  0.51100000000E-03 0. -1.
         12    1    3    3    0    0 -0.40023650257E+01  0.14246430228E+01  0.36798369030E+01  0.56204744617E+01  0.00000000000E+00 0. -1.
</event>
<event>
 7    1  0.7819001E-012  0.5930195E+02  0.7816164E-02  0.1266605E+00
        -11   -1    0    0    0    0  0.00000000000E+00  0.00000000000E+00  0.45593999997E+02  0.45594000000E+02  0.51100000000E-03 0. -1.
         11   -1    0    0    0    0 -0.00000000000E+00 -0.00000000000E+00 -0.45593999997E+02  0.45594000000E+02  0.51100000000E-03 0.  1.
    9900012    2    1    2    0    0 -0.19177599762E+02 -0.71613216794E+01 -0.24446984828E+02  0.59301954023E+02  0.50000018230E+02 0.  0.
         12    1    1    2    0    0  0.19177599762E+02  0.71613216794E+01  0.24446984828E+02  0.31886045977E+02  0.00000000000E+00 0. -1.
         11    1    3    3    0    0  0.32812332828E+01 -0.24328678983E+02 -0.13765230523E+02  0.28144851830E+02  0.51100000000E-03 0. -1.
        -11    1    3    3    0    0 -0.14629498991E+02  0.12511730886E+02 -0.10749116814E+02  0.22047883414E+02  0.51100000000E-03 0.  1.
         12    1    3    3    0    0 -0.78293340535E+01  0.46556264173E+01  0.67362509223E-01  0.91092187791E+01  0.00000000000E+00 0. -1.
</event>
<event>
 7    1  0.7819001E-012  0.5930193E+02  0.7816164E-02  0.1266605E+00
        -11   -1    0    0    0    0  0.00000000000E+00  0.00000000000E+00  0.45593999997E+02  0.45594000000E+02  0.51100000000E-03 0.  1.
         11   -1    0    0    0    0 -0.00000000000E+00 -0.00000000000E+00 -0.45593999997E+02  0.45594000000E+02  0.51100000000E-03 0. -1.
    9900012    2    1    2    0    0  0.23246490167E+01  0.30858008447E+02  0.76876897286E+01  0.59301933266E+02  0.49999980374E+02 0.  0.
         12    1    1    2    0    0 -0.23246490167E+01 -0.30858008447E+02 -0.76876897286E+01  0.31886066734E+02  0.00000000000E+00 0. -1.
         11    1    3    3    0    0  0.23325783108E+02  0.82341805479E+01  0.57326081737E+01  0.25392059460E+02  0.51100000000E-03 0. -1.
        -11    1    3    3    0    0 -0.53976225463E+01  0.81227117960E+00  0.43573867308E+01  0.69843348291E+01  0.51100000000E-03 0.  1.
         12    1    3    3    0    0 -0.15603511545E+02  0.21811556720E+02 -0.24023051760E+01  0.26925538977E+02  0.00000000000E+00 0. -1.
</event>
<event>
 7    1  0.7819001E-012  0.5930191E+02  0.7816164E-02  0.1266605E+00
        -11   -1    0    0    0    0  0.00000000000E+00  0.00000000000E+00  0.45593999997E+02  0.45594000000E+02  0.51100000000E-03 0. -1.
         11   -1    0    0    0    0 -0.00000000000E+00 -0.00000000000E+00 -0.45593999997E+02  0.45594000000E+02  0.51100000000E-03 0.  1.
    9900012    2    1    2    0    0 -0.14044666779E+02 -0.13465559264E+02 -0.25261601679E+02  0.59301914154E+02  0.49999945517E+02 0.  0.
         12    1    1    2    0    0  0.14044666779E+02  0.13465559264E+02  0.25261601679E+02  0.31886085846E+02  0.00000000000E+00 0. -1.
         11    1    3    3    0    0 -0.14723279187E+02 -0.42033614809E+01 -0.24820794899E+02  0.29163591298E+02  0.51100000000E-03 0. -1.
        -11    1    3    3    0    0  0.35354604964E+01  0.96134550882E+01  0.31428240421E+01  0.10714258858E+02  0.51100000000E-03 0.  1.
         12    1    3    3    0    0 -0.28568480887E+01 -0.18875652871E+02 -0.35836308221E+01  0.19424063998E+02  0.00000000000E+00 0. -1.
</event>
<event>
 7    1  0.7819001E-012  0.5930190E+02  0.7816164E-02  0.1266605E+00
        -11   -1    0    0    0    0  0.00000000000E+00  0.00000000000E+00  0.45593999997E+02  0.45594000000E+02  0.51100000000E-03 0. -1.
         11   -1    0    0    0    0 -0.00000000000E+00 -0.00000000000E+00 -0.45593999997E+02  0.45594000000E+02  0.51100000000E-03 0.  1.
    9900012    2    1    2    0    0 -0.79855927637E+01  0.30229930831E+02  0.62533840410E+01  0.59301902374E+02  0.49999924033E+02 0.  0.
         12    1    1    2    0    0  0.79855927637E+01 -0.30229930831E+02 -0.62533840410E+01  0.31886097626E+02  0.00000000000E+00 0. -1.
         11    1    3    3    0    0 -0.14217901963E+02  0.30138210934E+02  0.11280030718E+02  0.35180954901E+02  0.51100000000E-03 0. -1.
        -11    1    3    3    0    0  0.11539077516E+02 -0.70245936949E+01 -0.67129500643E+01  0.15085056358E+02  0.51100000000E-03 0.  1.
         12    1    3    3    0    0 -0.53067683169E+01  0.71163135927E+01  0.16863033871E+01  0.90358911145E+01  0.00000000000E+00 0. -1.
</event>
<event>
 7    1  0.7819001E-012  0.5930198E+02  0.7816164E-02  0.1266605E+00
        -11   -1    0    0    0    0  0.00000000000E+00  0.00000000000E+00  0.45593999997E+02  0.45594000000E+02  0.51100000000E-03 0. -1.
         11   -1    0    0    0    0 -0.00000000000E+00 -0.00000000000E+00 -0.45593999997E+02  0.45594000000E+02  0.51100000000E-03 0.  1.
    9900012    2    1    2    0    0 -0.64707439456E+01 -0.72796559500E+01 -0.30362054620E+02  0.59301979886E+02  0.50000065398E+02 0.  0.
         12    1    1    2    0    0  0.64707439456E+01  0.72796559500E+01  0.30362054620E+02  0.31886020114E+02  0.00000000000E+00 0. -1.
         11    1    3    3    0    0  0.31614416522E+01 -0.21307439284E+02 -0.13829308637E+01  0.21585045291E+02  0.51100000000E-03 0. -1.
        -11    1    3    3    0    0 -0.87243287017E+01  0.12327154262E+02 -0.88672377051E+01  0.17512868077E+02  0.51100000000E-03 0.  1.
         12    1    3    3    0    0 -0.90785689619E+00  0.17006290727E+01 -0.20111886051E+02  0.20204066519E+02  0.00000000000E+00 0. -1.
</event>
<event>
 7    1  0.7819001E-012  0.5930191E+02  0.7816164E-02  0.1266605E+00
        -11   -1    0    0    0    0  0.00000000000E+00  0.00000000000E+00  0.45593999997E+02  0.45594000000E+02  0.51100000000E-03 0.  1.
         11   -1    0    0    0    0 -0.00000000000E+00 -0.00000000000E+00 -0.45593999997E+02  0.45594000000E+02  0.51100000000E-03 0. -1.
    9900012    2    1    2    0    0 -0.14302661296E+02 -0.20557242081E+02  0.19737179690E+02  0.59301912371E+02  0.49999942266E+02 0.  0.
         12    1    1    2    0    0  0.14302661296E+02  0.20557242081E+02 -0.19737179690E+02  0.31886087629E+02  0.00000000000E+00 0. -1.
         11    1    3    3    0    0  0.15773279816E+01  0.38654459982E+01  0.94343205959E+00  0.42801519411E+01  0.51100000000E-03 0. -1.
        -11    1    3    3    0    0  0.48040511774E+01 -0.27372738932E+02  0.13839299045E+01  0.27825545935E+02  0.51100000000E-03 0.  1.
        -12    1    3    3    0    0 -0.20684040455E+02  0.29500508529E+01  0.17409817726E+02  0.27196214495E+02  0.00000000000E+00 0.  1.
</event>
<event>
 7    1  0.7819001E-012  0.5930190E+02  0.7816164E-02  0.1266605E+00
        -11   -1    0    0    0    0  0.00000000000E+00  0.00000000000E+00  0.45593999997E+02  0.45594000000E+02  0.51100000000E-03 0. -1.
         11   -1    0    0    0    0 -0.00000000000E+00 -0.00000000000E+00 -0.45593999997E+02  0.45594000000E+02  0.51100000000E-03 0.  1.
    9900012    2    1    2    0    0  0.63849267656E+01  0.29716423189E+02 -0.96379606859E+01  0.59301899845E+02  0.49999919420E+02 0.  0.
         12    1    1    2    0    0 -0.63849267656E+01 -0.29716423189E+02  0.96379606859E+01  0.31886100155E+02  0.00000000000E+00 0. -1.
         11    1    3    3    0    0  0.15434067184E+02  0.17499201061E+02 -0.21479223476E+01  0.23431731440E+02  0.51100000000E-03 0. -1.
        -11    1    3    3    0    0 -0.17538601128E+02  0.17731426318E+02 -0.58215913841E+01  0.25610484870E+02  0.51100000000E-03 0.  1.
        -12    1    3    3    0    0  0.84894607096E+01 -0.55142041893E+01 -0.16684469542E+01  0.10259683534E+02  0.00000000000E+00 0.  1.
</event>
<event>
 7    1  0.7819001E-012  0.5930194E+02  0.7816164E-02  0.1266605E+00
        -11   -1    0    0    0    0  0.00000000000E+00  0.00000000000E+00  0.45593999997E+02  0.45594000000E+02  0.51100000000E-03 0. -1.
         11   -1    0    0    0    0 -0.00000000000E+00 -0.00000000000E+00 -0.45593999997E+02  0.45594000000E+02  0.51100000000E-03 0.  1.
    9900012    2    1    2    0    0  0.17966075519E+02 -0.25618015870E+02 -0.61366511698E+01  0.59301935737E+02  0.49999984879E+02 0.  0.
         12    1    1    2    0    0 -0.17966075519E+02  0.25618015870E+02  0.61366511698E+01  0.31886064263E+02  0.00000000000E+00 0. -1.
         11    1    3    3    0    0  0.50917737402E+01  0.51732175691E+01  0.23090894602E+01  0.76171014326E+01  0.51100000000E-03 0. -1.
        -11    1    3    3    0    0  0.83287802750E+01 -0.21670957362E+02 -0.23805553105E+02  0.33252117718E+02  0.51100000000E-03 0.  1.
        -12    1    3    3    0    0  0.45455215033E+01 -0.91202760772E+01  0.15359812475E+02  0.18432716586E+02  0.00000000000E+00 0.  1.
</event>
<event>
 7    1  0.7819001E-012  0.5930194E+02  0.7816164E-02  0.1266605E+00
        -11   -1    0    0    0    0  0.00000000000E+00  0.00000000000E+00  0.45593999997E+02  0.45594000000E+02  0.51100000000E-03 0. -1.
         11   -1    0    0    0    0 -0.00000000000E+00 -0.00000000000E+00 -0.45593999997E+02  0.45594000000E+02  0.51100000000E-03 0.  1.
    9900012    2    1    2    0    0 -0.70310243385E+01 -0.40045355221E+01 -0.30842330294E+02  0.59301938061E+02  0.49999989118E+02 0.  0.
         12    1    1    2    0    0  0.70310243385E+01  0.40045355221E+01  0.30842330294E+02  0.31886061939E+02  0.00000000000E+00 0. -1.
         11    1    3    3    0    0 -0.21907037315E+02  0.78549101670E+00 -0.16888289156E+02  0.27672180813E+02  0.51100000000E-03 0. -1.
        -11    1    3    3    0    0  0.88919765931E+01  0.91972749313E+01 -0.89558715444E+01  0.15616169482E+02  0.51100000000E-03 0.  1.
         12    1    3    3    0    0  0.59840363837E+01 -0.13987301470E+02 -0.49981695938E+01  0.16013587766E+02  0.00000000000E+00 0. -1.
</event>
<event>
 7    1  0.7819001E-012  0.5930199E+02  0.7816164E-02  0.1266605E+00
        -11   -1    0    0    0    0  0.00000000000E+00  0.00000000000E+00  0.45593999997E+02  0.45594000000E+02  0.51100000000E-03 0. -1.
         11   -1    0    0    0    0 -0.00000000000E+00 -0.00000000000E+00 -0.45593999997E+02  0.45594000000E+02  0.51100000000E-03 0.  1.
    9900012    2    1    2    0    0 -0.14815882008E+02 -0.15895154436E+01 -0.28190082585E+02  0.59301989350E+02  0.50000082657E+02 0.  0.
         12    1    1    2    0    0  0.14815882008E+02  0.15895154436E+01  0.28190082585E+02  0.31886010650E+02  0.00000000000E+00 0. -1.
         11    1    3    3    0    0  0.10444245551E+02 -0.40529319666E+01  0.39492297668E+00  0.11210017265E+02  0.51100000000E-03 0.  1.
        -11    1    3    3    0    0 -0.22668596634E+02  0.12683313153E+02 -0.26936230005E+02  0.37420478258E+02  0.51100000000E-03 0. -1.
         12    1    3    3    0    0 -0.25915309252E+01 -0.10219896630E+02 -0.16487755569E+01  0.10671493827E+02  0.00000000000E+00 0. -1.
</event>
<event>
 7    1  0.7819001E-012  0.5930194E+02  0.7816164E-02  0.1266605E+00
        -11   -1    0    0    0    0  0.00000000000E+00  0.00000000000E+00  0.45593999997E+02  0.45594000000E+02  0.51100000000E-03 0.  1.
         11   -1    0    0    0    0 -0.00000000000E+00 -0.00000000000E+00 -0.45593999997E+02  0.45594000000E+02  0.51100000000E-03 0. -1.
    9900012    2    1    2    0    0 -0.86347728292E+01  0.20787916993E+02  0.22583713098E+02  0.59301938907E+02  0.49999990661E+02 0.  0.
         12    1    1    2    0    0  0.86347728292E+01 -0.20787916993E+02 -0.22583713098E+02  0.31886061093E+02  0.00000000000E+00 0. -1.
         11    1    3    3    0    0 -0.10293141605E+02 -0.73963243396E+01  0.14525591003E+02  0.19278152715E+02  0.51100000000E-03 0. -1.
        -11    1    3    3    0    0 -0.56961186452E+01  0.26884060167E+02 -0.19341250585E+01  0.27548852947E+02  0.51100000000E-03 0.  1.
        -12    1    3    3    0    0  0.73544874214E+01  0.13001811659E+01  0.99922471533E+01  0.12474933245E+02  0.00000000000E+00 0.  1.
</event>
<event>
 7    1  0.7819001E-012  0.5930214E+02  0.7816164E-02  0.1266604E+00
        -11   -1    0    0    0    0  0.00000000000E+00  0.00000000000E+00  0.45593999997E+02  0.45594000000E+02  0.51100000000E-03 0. -1.
         11   -1    0    0    0    0 -0.00000000000E+00 -0.00000000000E+00 -0.45593999997E+02  0.45594000000E+02  0.51100000000E-03 0.  1.
    9900012    2    1    2    0    0  0.16826361463E+02  0.19864221040E+02  0.18411807397E+02  0.59302135276E+02  0.50000348790E+02 0.  0.
         12    1    1    2    0    0 -0.16826361463E+02 -0.19864221040E+02 -0.18411807397E+02  0.31885864724E+02  0.00000000000E+00 0. -1.
         11    1    3    3    0    0 -0.45772060143E+01 -0.11557824175E+01  0.14106288071E+02  0.14875281890E+02  0.51100000000E-03 0. -1.
        -11    1    3    3    0    0  0.20834110131E+01  0.13704222266E+02 -0.11822044581E+02  0.18218316270E+02  0.51100000000E-03 0.  1.
        -12    1    3    3    0    0  0.19320156464E+02  0.73157811911E+01  0.16127563907E+02  0.26208537116E+02  0.00000000000E+00 0.  1.
</event>
<event>
 7    1  0.7819001E-012  0.5930195E+02  0.7816164E-02  0.1266605E+00
        -11   -1    0    0    0    0  0.00000000000E+00  0.00000000000E+00  0.45593999997E+02  0.45594000000E+02  0.51100000000E-03 0.  1.
         11   -1    0    0    0    0 -0.00000000000E+00 -0.00000000000E+00 -0.45593999997E+02  0.45594000000E+02  0.51100000000E-03 0. -1.
    9900012    2    1    2    0    0 -0.13189438087E+02  0.18778647760E+02  0.22138677730E+02  0.59301953829E+02  0.50000017876E+02 0.  0.
         12    1    1    2    0    0  0.13189438087E+02 -0.18778647760E+02 -0.22138677730E+02  0.31886046171E+02  0.00000000000E+00 0. -1.
         11    1    3    3    0    0 -0.10991153642E+01 -0.14977434811E+02 -0.15213766117E+00  0.15018480424E+02  0.51100000000E-03 0. -1.
        -11    1    3    3    0    0 -0.14579964265E+02  0.23506928111E+02  0.15056011446E+02  0.31493404200E+02  0.51100000000E-03 0.  1.
         12    1    3    3    0    0  0.24896415419E+01  0.10249154461E+02  0.72348039451E+01  0.12790069206E+02  0.00000000000E+00 0. -1.
</event>
<event>
 7    1  0.7819001E-012  0.5930197E+02  0.7816164E-02  0.1266605E+00
        -11   -1    0    0    0    0  0.00000000000E+00  0.00000000000E+00  0.45593999997E+02  0.45594000000E+02  0.51100000000E-03 0. -1.
         11   -1    0    0    0    0 -0.00000000000E+00 -0.00000000000E+00 -0.45593999997E+02  0.45594000000E+02  0.51100000000E-03 0.  1.
    9900012    2    1    2    0    0  0.18921468777E+02 -0.14748521663E+02 -0.21004243649E+02  0.59301966644E+02  0.50000041246E+02 0.  0.
         12    1    1    2    0    0 -0.18921468777E+02  0.14748521663E+02  0.21004243649E+02  0.31886033356E+02  0.00000000000E+00 0. -1.
         11    1    3    3    0    0 -0.11445732141E+02  0.80413468354E+01 -0.11368929330E+02  0.18025554015E+02  0.51100000000E-03 0.  1.
        -11    1    3    3    0    0  0.16189239126E+02 -0.13651861001E+02  0.12291953667E+01  0.21212630525E+02  0.51100000000E-03 0. -1.
        -12    1    3    3    0    0  0.14177961792E+02 -0.91380074975E+01 -0.10864509685E+02  0.20063782103E+02  0.00000000000E+00 0.  1.
</event>
<event>
 7    1  0.7819001E-012  0.5930205E+02  0.7816164E-02  0.1266604E+00
        -11   -1    0    0    0    0  0.00000000000E+00  0.00000000000E+00  0.45593999997E+02  0.45594000000E+02  0.51100000000E-03 0. -1.
         11   -1    0    0    0    0 -0.00000000000E+00 -0.00000000000E+00 -0.45593999997E+02  0.45594000000E+02  0.51100000000E-03 0.  1.
    9900012    2    1    2    0    0  0.79241225452E+01  0.26914202368E+02  0.15150836086E+02  0.59302049468E+02  0.50000192298E+02 0.  0.
         12    1    1    2    0    0 -0.79241225452E+01 -0.26914202368E+02 -0.15150836086E+02  0.31885950532E+02  0.00000000000E+00 0. -1.
         11    1    3    3    0    0  0.11123196745E+02  0.26762063677E+02  0.16702435943E+02  0.33450036245E+02  0.51100000000E-03 0. -1.
        -11    1    3    3    0    0 -0.31820655423E+01 -0.97707637779E+01 -0.88279298436E+01  0.13547166180E+02  0.51100000000E-03 0.  1.
        -12    1    3    3    0    0 -0.17008657517E-01  0.99229024687E+01  0.72763299859E+01  0.12304847043E+02  0.00000000000E+00 0.  1.
</event>
<event>
 7    1  0.7819001E-012  0.5930182E+02  0.7816164E-02  0.1266605E+00
        -11   -1    0    0    0    0  0.00000000000E+00  0.00000000000E+00  0.45593999997E+02  0.45594000000E+02  0.51100000000E-03 0.  1.
         11   -1    0    0    0    0 -0.00000000000E+00 -0.00000000000E+00 -0.45593999997E+02  0.45594000000E+02  0.51100000000E-03 0. -1.
    9900012    2    1    2    0    0 -0.25837327737E+01 -0.31105321722E+02  0.65201229893E+01  0.59301816185E+02  0.49999766846E+02 0.  0.
         12    1    1    2    0    0  0.25837327737E+01  0.31105321722E+02 -0.65201229893E+01  0.31886183815E+02  0.00000000000E+00 0. -1.
         11    1    3    3    0    0 -0.96261518395E+01 -0.45298355642E+01 -0.47719195176E+01  0.11659906759E+02  0.51100000000E-03 0. -1.
        -11    1    3    3    0    0  0.14395916710E+02 -0.42285790620E+01  0.17753928874E+02  0.23244898139E+02  0.51100000000E-03 0.  1.
        -12    1    3    3    0    0 -0.73534976440E+01 -0.22346907096E+02 -0.64618863666E+01  0.24397011287E+02  0.00000000000E+00 0.  1.
</event>
<event>
 7    1  0.7819001E-012  0.5930193E+02  0.7816164E-02  0.1266605E+00
        -11   -1    0    0    0    0  0.00000000000E+00  0.00000000000E+00  0.45593999997E+02  0.45594000000E+02  0.51100000000E-03 0.  1.
         11   -1    0    0    0    0 -0.00000000000E+00 -0.00000000000E+00 -0.45593999997E+02  0.45594000000E+02  0.51100000000E-03 0. -1.
    9900012    2    1    2    0    0 -0.19360294458E+02 -0.25296150440E+02  0.14160787982E+01  0.59301929252E+02  0.49999973053E+02 0.  0.
         12    1    1    2    0    0  0.19360294458E+02  0.25296150440E+02 -0.14160787982E+01  0.31886070748E+02  0.00000000000E+00 0. -1.
         11    1    3    3    0    0  0.69217263668E+01 -0.90882669974E+01 -0.11512084934E+02  0.16218353576E+02  0.51100000000E-03 0. -1.
        -11    1    3    3    0    0 -0.15697100647E+02 -0.21214548583E+02  0.16149003984E+02  0.30939398350E+02  0.51100000000E-03 0.  1.
        -12    1    3    3    0    0 -0.10584920178E+02  0.50066651412E+01 -0.32208402515E+01  0.12144177326E+02  0.00000000000E+00 0.  1.
</event>
<event>
 7    1  0.7819001E-012  0.5930197E+02  0.7816164E-02  0.1266605E+00
        -11   -1    0    0    0    0  0.00000000000E+00  0.00000000000E+00  0.45593999997E+02  0.45594000000E+02  0.51100000000E-03 0.  1.
         11   -1    0    0    0    0 -0.00000000000E+00 -0.00000000000E+00 -0.45593999997E+02  0.45594000000E+02  0.51100000000E-03 0. -1.
    9900012    2    1    2    0    0  0.28438327715E+02 -0.84962580117E+01 -0.11653067655E+02  0.59301970627E+02  0.50000048510E+02 0.  0.
         12    1    1    2    0    0 -0.28438327715E+02  0.84962580117E+01  0.11653067655E+02  0.31886029373E+02  0.00000000000E+00 0. -1.
         11    1    3    3    0    0 -0.67309785261E+01 -0.41114076620E+01  0.82363346013E+01  0.11403813082E+02  0.51100000000E-03 0.  1.
        -11    1    3    3    0    0  0.27868955567E+02 -0.14249787850E+02 -0.14369010514E+02  0.34441306619E+02  0.51100000000E-03 0. -1.
         12    1    3    3    0    0  0.73003506739E+01  0.98649375007E+01 -0.55203917426E+01  0.13456850926E+02  0.00000000000E+00 0. -1.
</event>
<event>
 7    1  0.7819001E-012  0.5930191E+02  0.7816164E-02  0.1266605E+00
        -11   -1    0    0    0    0  0.00000000000E+00  0.00000000000E+00  0.45593999997E+02  0.45594000000E+02  0.51100000000E-03 0. -1.
         11   -1    0    0    0    0 -0.00000000000E+00 -0.00000000000E+00 -0.45593999997E+02  0.45594000000E+02  0.51100000000E-03 0.  1.
    9900012    2    1    2    0    0  0.24575081639E+02  0.12222437411E+00 -0.20316812106E+02  0.59301914782E+02  0.49999946663E+02 0.  0.
         12    1    1    2    0    0 -0.24575081639E+02 -0.12222437411E+00  0.20316812106E+02  0.31886085218E+02  0.00000000000E+00 0. -1.
         11    1    3    3    0    0  0.16181444142E+02  0.70393526406E+01  0.57343747356E+01  0.18554640228E+02  0.51100000000E-03 0. -1.
        -11    1    3    3    0    0  0.78298625142E+01  0.75201854797E+01 -0.23754260031E+02  0.26117519150E+02  0.51100000000E-03 0.  1.
        -12    1    3    3    0    0  0.56377498350E+00 -0.14437313746E+02 -0.22969268101E+01  0.14629755405E+02  0.00000000000E+00 0.  1.
</event>
<event>
 7    1  0.7819001E-012  0.5930195E+02  0.7816164E-02  0.1266605E+00
        -11   -1    0    0    0    0  0.00000000000E+00  0.00000000000E+00  0.45593999997E+02  0.45594000000E+02  0.51100000000E-03 0. -1.
         11   -1    0    0    0    0 -0.00000000000E+00 -0.00000000000E+00 -0.45593999997E+02  0.45594000000E+02  0.51100000000E-03 0.  1.
    9900012    2    1    2    0    0 -0.11480320588E+02  0.20834329985E+02  0.21233298481E+02  0.59301952407E+02  0.50000015281E+02 0.  0.
         12    1    1    2    0    0  0.11480320588E+02 -0.20834329985E+02 -0.21233298481E+02  0.31886047593E+02  0.00000000000E+00 0. -1.
         11    1    3    3    0    0  0.93780568239E+01  0.14026431260E+02  0.22192848930E+02  0.27878509063E+02  0.51100000000E-03 0. -1.
        -11    1    3    3    0    0 -0.11407317282E+02  0.14763136547E+02 -0.30189072132E+01  0.18899494420E+02  0.51100000000E-03 0.  1.
        -12    1    3    3    0    0 -0.94510601293E+01 -0.79552378217E+01  0.20593567644E+01  0.12523948924E+02  0.00000000000E+00 0.  1.
</event>
<event>
 7    1  0.7819001E-012  0.5930209E+02  0.7816164E-02  0.1266604E+00
        -11   -1    0    0    0    0  0.00000000000E+00  0.00000000000E+00  0.45593999997E+02  0.45594000000E+02  0.51100000000E-03 0. -1.
         11   -1    0    0    0    0 -0.00000000000E+00 -0.00000000000E+00 -0.45593999997E+02  0.45594000000E+02  0.51100000000E-03 0.  1.
    9900012    2    1    2    0    0  0.10025037910E+02  0.17754685381E+02 -0.24514910355E+02  0.59302092959E+02  0.50000271615E+02 0.  0.
         12    1    1    2    0    0 -0.10025037910E+02 -0.17754685381E+02  0.24514910355E+02  0.31885907041E+02  0.00000000000E+00 0. -1.
         11    1    3    3    0    0 -0.66051791170E+01  0.99572279602E+01 -0.55469661419E+01  0.13173595313E+02  0.51100000000E-03 0. -1.
        -11    1    3    3    0    0  0.11127190938E+02 -0.70839979510E+01 -0.25704317002E+02  0.28891336382E+02  0.51100000000E-03 0.  1.
        -12    1    3    3    0    0  0.55030260888E+01  0.14881455372E+02  0.67363727886E+01  0.17237161265E+02  0.00000000000E+00 0.  1.
</event>
<event>
 7    1  0.7819001E-012  0.5930195E+02  0.7816164E-02  0.1266605E+00
        -11   -1    0    0    0    0  0.00000000000E+00  0.00000000000E+00  0.45593999997E+02  0.45594000000E+02  0.51100000000E-03 0. -1.
         11   -1    0    0    0    0 -0.00000000000E+00 -0.00000000000E+00 -0.45593999997E+02  0.45594000000E+02  0.51100000000E-03 0.  1.
    9900012    2    1    2    0    0  0.15309951082E+02 -0.26700400760E+02  0.83315009000E+01  0.59301954304E+02  0.50000018742E+02 0.  0.
         12    1    1    2    0    0 -0.15309951082E+02  0.26700400760E+02 -0.83315009000E+01  0.31886045696E+02  0.00000000000E+00 0. -1.
         11    1    3    3    0    0  0.62751505949E+00  0.10832721900E+02  0.14167104764E+02  0.17845125289E+02  0.51100000000E-03 0. -1.
        -11    1    3    3    0    0  0.21981702819E+01 -0.10294791334E+01 -0.76852043861E+00  0.25460565194E+01  0.51100000000E-03 0.  1.
         12    1    3    3    0    0  0.12484265741E+02 -0.36503643527E+02 -0.50670834255E+01  0.38910772496E+02  0.00000000000E+00 0. -1.
</event>
<event>
 7    1  0.7819001E-012  0.5930194E+02  0.7816164E-02  0.1266605E+00
        -11   -1    0    0    0    0  0.00000000000E+00  0.00000000000E+00  0.45593999997E+02  0.45594000000E+02  0.51100000000E-03 0.  1.
         11   -1    0    0    0    0 -0.00000000000E+00 -0.00000000000E+00 -0.45593999997E+02  0.45594000000E+02  0.51100000000E-03 0. -1.
    9900012    2    1    2    0    0 -0.15346256167E+02  0.26064360788E+02 -0.10092674499E+02  0.59301944111E+02  0.50000000152E+02 0.  0.
         12    1    1    2    0    0  0.15346256167E+02 -0.26064360788E+02  0.10092674499E+02  0.31886055889E+02  0.00000000000E+00 0. -1.
         11    1    3    3    0    0  0.68159239909E+01  0.27446127748E+02 -0.93911262299E+01  0.29798322106E+02  0.51100000000E-03 0.  1.
        -11    1    3    3    0    0 -0.72083883006E+01  0.15542058500E+01  0.88491587470E+01  0.11518855347E+02  0.51100000000E-03 0. -1.
         12    1    3    3    0    0 -0.14953791857E+02 -0.29359728095E+01 -0.95507070162E+01  0.17984766658E+02  0.00000000000E+00 0. -1.
</event>
<event>
 7    1  0.7819001E-012  0.5930191E+02  0.7816164E-02  0.1266605E+00
        -11   -1    0    0    0    0  0.00000000000E+00  0.00000000000E+00  0.45593999997E+02  0.45594000000E+02  0.51100000000E-03 0.  1.
         11   -1    0    0    0    0 -0.00000000000E+00 -0.00000000000E+00 -0.45593999997E+02  0.45594000000E+02  0.51100000000E-03 0. -1.
    9900012    2    1    2    0    0 -0.14390638280E+02  0.63376934328E+01  0.27739244673E+02  0.59301913330E+02  0.49999944014E+02 0.  0.
         12    1    1    2    0    0  0.14390638280E+02 -0.63376934328E+01 -0.27739244673E+02  0.31886086670E+02  0.00000000000E+00 0. -1.
         11    1    3    3    0    0  0.73886788849E+00  0.56709802734E+01  0.36233665802E+01  0.67701350543E+01  0.51100000000E-03 0. -1.
        -11    1    3    3    0    0 -0.28659386950E+02 -0.56024893745E+01  0.23708630303E+02  0.37614458638E+02  0.51100000000E-03 0.  1.
        -12    1    3    3    0    0  0.13529880782E+02  0.62692025338E+01  0.40724778980E+00  0.14917319637E+02  0.00000000000E+00 0.  1.
</event>
<event>
 7    1  0.7819001E-012  0.5930196E+02  0.7816164E-02  0.1266605E+00
        -11   -1    0    0    0    0  0.00000000000E+00  0.00000000000E+00  0.45593999997E+02  0.45594000000E+02  0.51100000000E-03 0. -1.
         11   -1    0    0    0    0 -0.00000000000E+00 -0.00000000000E+00 -0.45593999997E+02  0.45594000000E+02  0.51100000000E-03 0.  1.
    9900012    2    1    2    0    0 -0.23063885215E+02 -0.20860913189E+02 -0.70426639352E+01  0.59301958922E+02  0.50000027164E+02 0.  0.
         12    1    1    2    0    0  0.23063885215E+02  0.20860913189E+02  0.70426639352E+01  0.31886041078E+02  0.00000000000E+00 0. -1.
         11    1    3    3    0    0  0.40850006229E+01 -0.49080897612E+01  0.13614399766E+01  0.65291725558E+01  0.51100000000E-03 0. -1.
        -11    1    3    3    0    0 -0.26985079670E+02  0.78981376045E+01 -0.26842262155E+01  0.28245002621E+02  0.51100000000E-03 0.  1.
        -12    1    3    3    0    0 -0.16380616830E+00 -0.23850961032E+02 -0.57198776963E+01  0.24527783746E+02  0.00000000000E+00 0.  1.
</event>
<event>
 7    1  0.7819001E-012  0.5930194E+02  0.7816164E-02  0.1266605E+00
        -11   -1    0    0    0    0  0.00000000000E+00  0.00000000000E+00  0.45593999997E+02  0.45594000000E+02  0.51100000000E-03 0.  1.
         11   -1    0    0    0    0 -0.00000000000E+00 -0.00000000000E+00 -0.45593999997E+02  0.45594000000E+02  0.51100000000E-03 0. -1.
    9900012    2    1    2    0    0 -0.17696899732E+02 -0.22849580056E+02  0.13469868370E+02  0.59301938425E+02  0.49999989782E+02 0.  0.
         12    1    1    2    0    0  0.17696899732E+02  0.22849580056E+02 -0.13469868370E+02  0.31886061575E+02  0.00000000000E+00 0. -1.
         11    1    3    3    0    0 -0.20558575591E+01 -0.15751634325E+02 -0.16167775485E+02  0.22665778138E+02  0.51100000000E-03 0. -1.
        -11    1    3    3    0    0 -0.83025505200E+01  0.14623995489E+01  0.57016256610E+01  0.10177401093E+02  0.51100000000E-03 0.  1.
         12    1    3    3    0    0 -0.73384916525E+01 -0.85603452799E+01  0.23936018195E+02  0.26458759194E+02  0.00000000000E+00 0. -1.
</event>
<event>
 7    1  0.7819001E-012  0.5930200E+02  0.7816164E-02  0.1266605E+00
        -11   -1    0    0    0    0  0.00000000000E+00  0.00000000000E+00  0.45593999997E+02  0.45594000000E+02  0.51100000000E-03 0.  1.
         11   -1    0    0    0    0 -0.00000000000E+00 -0.00000000000E+00 -0.45593999997E+02  0.45594000000E+02  0.51100000000E-03 0. -1.
    9900012    2    1    2    0    0  0.30031143488E+02 -0.40034131479E+01 -0.99408363411E+01  0.59301998006E+02  0.50000098443E+02 0.  0.
         12    1    1    2    0    0 -0.30031143488E+02  0.40034131479E+01  0.99408363411E+01  0.31886001994E+02  0.00000000000E+00 0. -1.
         11    1    3    3    0    0  0.14245420586E+01 -0.77946355068E+00 -0.19209225610E+02  0.19277739294E+02  0.51100000000E-03 0. -1.
        -11    1    3    3    0    0  0.26769155708E+02  0.46755610139E+01 -0.68735457964E+00  0.27183101822E+02  0.51100000000E-03 0.  1.
         12    1    3    3    0    0  0.18374457214E+01 -0.78995106111E+01  0.99557438484E+01  0.12841156889E+02  0.00000000000E+00 0. -1.
</event>
<event>
 7    1  0.7819001E-012  0.5930202E+02  0.7816164E-02  0.1266605E+00
        -11   -1    0    0    0    0  0.00000000000E+00  0.00000000000E+00  0.45593999997E+02  0.45594000000E+02  0.51100000000E-03 0. -1.
         11   -1    0    0    0    0 -0.00000000000E+00 -0.00000000000E+00 -0.45593999997E+02  0.45594000000E+02  0.51100000000E-03 0.  1.
    9900012    2    1    2    0    0 -0.29760202020E+02 -0.10686714633E+02 -0.41036932921E+01  0.59302018871E+02  0.50000136496E+02 0.  0.
         12    1    1    2    0    0  0.29760202020E+02  0.10686714633E+02  0.41036932921E+01  0.31885981129E+02  0.00000000000E+00 0. -1.
         11    1    3    3    0    0 -0.34896331014E+02  0.55513993406E+01 -0.21417579820E+01  0.35399987011E+02  0.51100000000E-03 0. -1.
        -11    1    3    3    0    0 -0.17460439879E+01  0.14902914890E+00 -0.55062943630E+01  0.57784216849E+01  0.51100000000E-03 0.  1.
         12    1    3    3    0    0  0.68821729817E+01 -0.16387143123E+02  0.35443590529E+01  0.18123610175E+02  0.00000000000E+00 0. -1.
</event>
<event>
 7    1  0.7819001E-012  0.5930195E+02  0.7816164E-02  0.1266605E+00
        -11   -1    0    0    0    0  0.00000000000E+00  0.00000000000E+00  0.45593999997E+02  0.45594000000E+02  0.51100000000E-03 0.  1.
         11   -1    0    0    0    0 -0.00000000000E+00 -0.00000000000E+00 -0.45593999997E+02  0.45594000000E+02  0.51100000000E-03 0. -1.
    9900012    2    1    2    0    0  0.10361679845E+02  0.21997479310E+02  0.20626839499E+02  0.59301952692E+02  0.50000015801E+02 0.  0.
         12    1    1    2    0    0 -0.10361679845E+02 -0.21997479310E+02 -0.20626839499E+02  0.31886047308E+02  0.00000000000E+00 0. -1.
         11    1    3    3    0    0 -0.84936882615E+01  0.18922181166E+02  0.33927857572E+01  0.21016723718E+02  0.51100000000E-03 0. -1.
        -11    1    3    3    0    0  0.14651301052E+02  0.14279036829E+02  0.16523069720E+02  0.26297592067E+02  0.51100000000E-03 0.  1.
        -12    1    3    3    0    0  0.42040670544E+01 -0.11203738686E+02  0.71098402211E+00  0.11987636907E+02  0.00000000000E+00 0.  1.
</event>
<event>
 7    1  0.7819001E-012  0.5930203E+02  0.7816164E-02  0.1266604E+00
        -11   -1    0    0    0    0  0.00000000000E+00  0.00000000000E+00  0.45593999997E+02  0.45594000000E+02  0.51100000000E-03 0. -1.
         11   -1    0    0    0    0 -0.00000000000E+00 -0.00000000000E+00 -0.45593999997E+02  0.45594000000E+02  0.51100000000E-03 0.  1.
    9900012    2    1    2    0    0  0.55391208477E+01  0.11974131104E+02 -0.29028493800E+02  0.59302029295E+02  0.50000155507E+02 0.  0.
         12    1    1    2    0    0 -0.55391208477E+01 -0.11974131104E+02  0.29028493800E+02  0.31885970705E+02  0.00000000000E+00 0. -1.
         11    1    3    3    0    0 -0.61059203096E+01  0.17612722180E+01  0.23797121730E+01  0.67858214639E+01  0.51100000000E-03 0. -1.
        -11    1    3    3    0    0  0.20107222065E+02  0.41529986632E+01 -0.35759896908E+02  0.41234912443E+02  0.51100000000E-03 0.  1.
        -12    1    3    3    0    0 -0.84621809077E+01  0.60598602233E+01  0.43516909345E+01  0.11281295388E+02  0.00000000000E+00 0.  1.
</event>
<event>
 7    1  0.7819001E-012  0.5930190E+02  0.7816164E-02  0.1266605E+00
        -11   -1    0    0    0    0  0.00000000000E+00  0.00000000000E+00  0.45593999997E+02  0.45594000000E+02  0.51100000000E-03 0. -1.
         11   -1    0    0    0    0 -0.00000000000E+00 -0.00000000000E+00 -0.45593999997E+02  0.45594000000E+02  0.51100000000E-03 0.  1.
    9900012    2    1    2    0    0 -0.44739223913E+01  0.30840819638E+02 -0.67491698718E+01  0.59301899086E+02  0.49999918038E+02 0.  0.
         12    1    1    2    0    0  0.44739223913E+01 -0.30840819638E+02  0.67491698718E+01  0.31886100914E+02  0.00000000000E+00 0. -1.
         11    1    3    3    0    0  0.14220098521E+02  0.26648814543E+02 -0.87864899885E+01  0.31457478047E+02  0.51100000000E-03 0.  1.
        -11    1    3    3    0    0 -0.95727849587E+01 -0.34302062372E+01  0.94118050319E+01  0.13855922954E+02  0.51100000000E-03 0. -1.
        -12    1    3    3    0    0 -0.91212359535E+01  0.76222113318E+01 -0.73744849152E+01  0.13988498085E+02  0.00000000000E+00 0.  1.
</event>
<event>
 7    1  0.7819001E-012  0.5930189E+02  0.7816164E-02  0.1266605E+00
        -11   -1    0    0    0    0  0.00000000000E+00  0.00000000000E+00  0.45593999997E+02  0.45594000000E+02  0.51100000000E-03 0.  1.
         11   -1    0    0    0    0 -0.00000000000E+00 -0.00000000000E+00 -0.45593999997E+02  0.45594000000E+02  0.51100000000E-03 0. -1.
    9900012    2    1    2    0    0 -0.27038088103E+00  0.30790329624E+02  0.82829135477E+01  0.59301887647E+02  0.49999897175E+02 0.  0.
         12    1    1    2    0    0  0.27038088103E+00 -0.30790329624E+02 -0.82829135477E+01  0.31886112353E+02  0.00000000000E+00 0. -1.
         11    1    3    3    0    0  0.11735707992E+02 -0.60511685831E+01 -0.45575404536E+01  0.13968344875E+02  0.51100000000E-03 0. -1.
        -11    1    3    3    0    0 -0.12830909642E+02  0.27738824179E+02  0.17347527175E+02  0.35142727675E+02  0.51100000000E-03 0.  1.
         12    1    3    3    0    0  0.82482076922E+00  0.91026740274E+01 -0.45070731739E+01  0.10190815097E+02  0.00000000000E+00 0. -1.
</event>
<event>
 7    1  0.7819001E-012  0.5930195E+02  0.7816164E-02  0.1266605E+00
        -11   -1    0    0    0    0  0.00000000000E+00  0.00000000000E+00  0.45593999997E+02  0.45594000000E+02  0.51100000000E-03 0. -1.
         11   -1    0    0    0    0 -0.00000000000E+00 -0.00000000000E+00 -0.45593999997E+02  0.45594000000E+02  0.51100000000E-03 0.  1.
    9900012    2    1    2    0    0 -0.54579159996E+01  0.24087120542E+02 -0.20167838745E+02  0.59301953793E+02  0.50000017810E+02 0.  0.
         12    1    1    2    0    0  0.54579159996E+01 -0.24087120542E+02  0.20167838745E+02  0.31886046207E+02  0.00000000000E+00 0. -1.
         11    1    3    3    0    0 -0.38367388760E+01  0.80138751297E+01 -0.27882244875E+02  0.29263669273E+02  0.51100000000E-03 0.  1.
        -11    1    3    3    0    0 -0.12484475964E+02  0.11099936585E+02  0.68635545727E+01  0.18060429505E+02  0.51100000000E-03 0. -1.
        -12    1    3    3    0    0  0.10863298840E+02  0.49733088276E+01  0.85085155735E+00  0.11977855015E+02  0.00000000000E+00 0.  1.
</event>
<event>
 7    1  0.7819001E-012  0.5930194E+02  0.7816164E-02  0.1266605E+00
        -11   -1    0    0    0    0  0.00000000000E+00  0.00000000000E+00  0.45593999997E+02  0.45594000000E+02  0.51100000000E-03 0.  1.
         11   -1    0    0    0    0 -0.00000000000E+00 -0.00000000000E+00 -0.45593999997E+02  0.45594000000E+02  0.51100000000E-03 0. -1.
    9900012    2    1    2    0    0  0.14857774984E+02 -0.24447950461E+02  0.14080667631E+02  0.59301937839E+02  0.49999988713E+02 0.  0.
         12    1    1    2    0    0 -0.14857774984E+02  0.24447950461E+02 -0.14080667631E+02  0.31886062161E+02  0.00000000000E+00 0. -1.
         11    1    3    3    0    0  0.25412771358E+02  0.34885744446E+01  0.11899087516E+02  0.28276622565E+02  0.51100000000E-03 0. -1.
        -11    1    3    3    0    0  0.58376667607E+00 -0.70529541486E+00  0.13010000621E+01  0.15908571831E+01  0.51100000000E-03 0.  1.
         12    1    3    3    0    0 -0.11138763050E+02 -0.27231229491E+02  0.88058005353E+00  0.29434458091E+02  0.00000000000E+00 0. -1.
</event>
<event>
 7    1  0.7819001E-012  0.5930190E+02  0.7816164E-02  0.1266605E+00
        -11   -1    0    0    0    0  0.00000000000E+00  0.00000000000E+00  0.45593999997E+02  0.45594000000E+02  0.51100000000E-03 0.  1.
         11   -1    0    0    0    0 -0.00000000000E+00 -0.00000000000E+00 -0.45593999997E+02  0.45594000000E+02  0.51100000000E-03 0. -1.
    9900012    2    1    2    0    0  0.66693434712E+01  0.73861219952E+01  0.30293372072E+02  0.59301900646E+02  0.49999920883E+02 0.  0.
         12    1    1    2    0    0 -0.66693434712E+01 -0.73861219952E+01 -0.30293372072E+02  0.31886099354E+02  0.00000000000E+00 0. -1.
         11    1    3    3    0    0  0.18660357390E+02  0.40091610376E+01  0.27986574561E+02  0.33875222008E+02  0.51100000000E-03 0. -1.
        -11    1    3    3    0    0 -0.81874915091E+01 -0.56345961623E+01  0.91337363624E+01  0.13498475148E+02  0.51100000000E-03 0.  1.
         12    1    3    3    0    0 -0.38035224094E+01  0.90115571199E+01 -0.68269388510E+01  0.11928203491E+02  0.00000000000E+00 0. -1.
</event>
<event>
 7    1  0.7819001E-012  0.5930196E+02  0.7816164E-02  0.1266605E+00
        -11   -1    0    0    0    0  0.00000000000E+00  0.00000000000E+00  0.45593999997E+02  0.45594000000E+02  0.51100000000E-03 0.  1.
         11   -1    0    0    0    0 -0.00000000000E+00 -0.00000000000E+00 -0.45593999997E+02  0.45594000000E+02  0.51100000000E-03 0. -1.
    9900012    2    1    2    0    0  0.50669014591E+01  0.16396315756E+02  0.26873912923E+02  0.59301955144E+02  0.50000020274E+02 0.  0.
         12    1    1    2    0    0 -0.50669014591E+01 -0.16396315756E+02 -0.26873912923E+02  0.31886044856E+02  0.00000000000E+00 0. -1.
         11    1    3    3    0    0  0.11401760403E+01 -0.49606245653E+01  0.19842004035E+02  0.20484455616E+02  0.51100000000E-03 0. -1.
        -11    1    3    3    0    0  0.20675385412E+01  0.23701604621E+02 -0.67370951571E+01  0.24727095031E+02  0.51100000000E-03 0.  1.
        -12    1    3    3    0    0  0.18591868776E+01 -0.23446643002E+01  0.13769004045E+02  0.14090404498E+02  0.00000000000E+00 0.  1.
</event>
<event>
 7    1  0.7819001E-012  0.5930193E+02  0.7816164E-02  0.1266605E+00
        -11   -1    0    0    0    0  0.00000000000E+00  0.00000000000E+00  0.45593999997E+02  0.45594000000E+02  0.51100000000E-03 0.  1.
         11   -1    0    0    0    0 -0.00000000000E+00 -0.00000000000E+00 -0.45593999997E+02  0.45594000000E+02  0.51100000000E-03 0. -1.
    9900012    2    1    2    0    0  0.69730817319E+01  0.15177932571E+02  0.27161143525E+02  0.59301933708E+02  0.49999981180E+02 0.  0.
         12    1    1    2    0    0 -0.69730817319E+01 -0.15177932571E+02 -0.27161143525E+02  0.31886066292E+02  0.00000000000E+00 0. -1.
         11    1    3    3    0    0  0.18883329567E+02  0.26418143327E+02  0.13495889124E+02  0.35165856393E+02  0.51100000000E-03 0. -1.
        -11    1    3    3    0    0  0.35243438082E+00 -0.55333008901E+01  0.73553845573E+01  0.92110428823E+01  0.51100000000E-03 0.  1.
         12    1    3    3    0    0 -0.12262682216E+02 -0.57069098661E+01  0.63098698444E+01  0.14925034433E+02  0.00000000000E+00 0. -1.
</event>
<event>
 7    1  0.7819001E-012  0.5930193E+02  0.7816164E-02  0.1266605E+00
        -11   -1    0    0    0    0  0.00000000000E+00  0.00000000000E+00  0.45593999997E+02  0.45594000000E+02  0.51100000000E-03 0. -1.
         11   -1    0    0    0    0 -0.00000000000E+00 -0.00000000000E+00 -0.45593999997E+02  0.45594000000E+02  0.51100000000E-03 0.  1.
    9900012    2    1    2    0    0  0.31778367702E+02 -0.19645342799E+01 -0.17313770773E+01  0.59301925997E+02  0.49999967117E+02 0.  0.
         12    1    1    2    0    0 -0.31778367702E+02  0.19645342799E+01  0.17313770773E+01  0.31886074003E+02  0.00000000000E+00 0. -1.
         11    1    3    3    0    0  0.71934692336E+01 -0.26147807967E+01  0.30732560048E+01  0.82479076717E+01  0.51100000000E-03 0. -1.
        -11    1    3    3    0    0  0.22204629282E+00  0.62388685003E+01 -0.20573647565E+02  0.21499947886E+02  0.51100000000E-03 0.  1.
        -12    1    3    3    0    0  0.24362852175E+02 -0.55886219835E+01  0.15769014483E+02  0.29554070440E+02  0.00000000000E+00 0.  1.
</event>
<event>
 7    1  0.7819001E-012  0.5930195E+02  0.7816164E-02  0.1266605E+00
        -11   -1    0    0    0    0  0.00000000000E+00  0.00000000000E+00  0.45593999997E+02  0.45594000000E+02  0.51100000000E-03 0.  1.
         11   -1    0    0    0    0 -0.00000000000E+00 -0.00000000000E+00 -0.45593999997E+02  0.45594000000E+02  0.51100000000E-03 0. -1.
    9900012    2    1    2    0    0 -0.70369744090E+01  0.16649063702E+02  0.26268041847E+02  0.59301947352E+02  0.50000006063E+02 0.  0.
         12    1    1    2    0    0  0.70369744090E+01 -0.16649063702E+02 -0.26268041847E+02  0.31886052648E+02  0.00000000000E+00 0. -1.
         11    1    3    3    0    0  0.40273054566E+01 -0.20945138125E+01 -0.98133944585E+01  0.10812441371E+02  0.51100000000E-03 0. -1.
        -11    1    3    3    0    0  0.60053769861E+01  0.13067371940E+02  0.16958887365E+02  0.22235661067E+02  0.51100000000E-03 0.  1.
         12    1    3    3    0    0 -0.17069656852E+02  0.56762055737E+01  0.19122548940E+02  0.26253844913E+02  0.00000000000E+00 0. -1.
</event>
<event>
 7    1  0.7819001E-012  0.5930194E+02  0.7816164E-02  0.1266605E+00
        -11   -1    0    0    0    0  0.00000000000E+00  0.00000000000E+00  0.45593999997E+02  0.45594000000E+02  0.51100000000E-03 0.  1.
         11   -1    0    0    0    0 -0.00000000000E+00 -0.00000000000E+00 -0.45593999997E+02  0.45594000000E+02  0.51100000000E-03 0. -1.
    9900012    2    1    2    0    0 -0.23873644738E+02 -0.12497434445E+02  0.17046534542E+02  0.59301935322E+02  0.49999984123E+02 0.  0.
         12    1    1    2    0    0  0.23873644738E+02  0.12497434445E+02 -0.17046534542E+02  0.31886064678E+02  0.00000000000E+00 0. -1.
         11    1    3    3    0    0 -0.39022187597E+01  0.47255407058E+01 -0.99715281243E+01  0.11704247930E+02  0.51100000000E-03 0. -1.
        -11    1    3    3    0    0 -0.24187830120E+02 -0.35972414036E+01  0.20525628744E+02  0.31926363827E+02  0.51100000000E-03 0.  1.
        -12    1    3    3    0    0  0.42164041427E+01 -0.13625733747E+02  0.64924339221E+01  0.15671323565E+02  0.00000000000E+00 0.  1.
</event>
<event>
 7    1  0.7819001E-012  0.5930193E+02  0.7816164E-02  0.1266605E+00
        -11   -1    0    0    0    0  0.00000000000E+00  0.00000000000E+00  0.45593999997E+02  0.45594000000E+02  0.51100000000E-03 0.  1.
         11   -1    0    0    0    0 -0.00000000000E+00 -0.00000000000E+00 -0.45593999997E+02  0.45594000000E+02  0.51100000000E-03 0. -1.
    9900012    2    1    2    0    0 -0.71727461706E+01 -0.68487271874E+01  0.30304585165E+02  0.59301933549E+02  0.49999980889E+02 0.  0.
         12    1    1    2    0    0  0.71727461706E+01  0.68487271874E+01 -0.30304585165E+02  0.31886066451E+02  0.00000000000E+00 0. -1.
         11    1    3    3    0    0  0.28355387623E+01 -0.39313669287E+01 -0.10306781307E+01  0.49556254571E+01  0.51100000000E-03 0. -1.
        -11    1    3    3    0    0 -0.13039260380E+02  0.13554991638E+02 -0.81516820182E-02  0.18808513399E+02  0.51100000000E-03 0.  1.
        -12    1    3    3    0    0  0.30309754476E+01 -0.16472351896E+02  0.31343414978E+02  0.35537794693E+02  0.00000000000E+00 0.  1.
</event>
<event>
 7    1  0.7819001E-012  0.5930197E+02  0.7816164E-02  0.1266605E+00
        -11   -1    0    0    0    0  0.00000000000E+00  0.00000000000E+00  0.45593999997E+02  0.45594000000E+02  0.51100000000E-03 0. -1.
         11   -1    0    0    0    0 -0.00000000000E+00 -0.00000000000E+00 -0.45593999997E+02  0.45594000000E+02  0.51100000000E-03 0.  1.
    9900012    2    1    2    0    0 -0.85557044006E+01 -0.66167920935E+01 -0.29995616029E+02  0.59301968633E+02  0.50000044873E+02 0.  0.
         12    1    1    2    0    0  0.85557044006E+01  0.66167920935E+01  0.29995616029E+02  0.31886031367E+02  0.00000000000E+00 0. -1.
         11    1    3    3    0    0 -0.23979403574E+02  0.34977539199E+01 -0.78890364587E+01  0.25484955852E+02  0.51100000000E-03 0. -1.
        -11    1    3    3    0    0  0.11489024090E+02 -0.92424257048E+01 -0.40150678903E+01  0.15282044296E+02  0.51100000000E-03 0.  1.
         12    1    3    3    0    0  0.39346750839E+01 -0.87212030861E+00 -0.18091511680E+02  0.18534968485E+02  0.00000000000E+00 0. -1.
</event>
<event>
 7    1  0.7819001E-012  0.5930194E+02  0.7816164E-02  0.1266605E+00
        -11   -1    0    0    0    0  0.00000000000E+00  0.00000000000E+00  0.45593999997E+02  0.45594000000E+02  0.51100000000E-03 0. -1.
         11   -1    0    0    0    0 -0.00000000000E+00 -0.00000000000E+00 -0.45593999997E+02  0.45594000000E+02  0.51100000000E-03 0.  1.
    9900012    2    1    2    0    0 -0.46330093612E+01  0.18467988494E+02 -0.25577124555E+02  0.59301942306E+02  0.49999996860E+02 0.  0.
         12    1    1    2    0    0  0.46330093612E+01 -0.18467988494E+02  0.25577124555E+02  0.31886057694E+02  0.00000000000E+00 0. -1.
         11    1    3    3    0    0 -0.69886156008E+01  0.19647082811E+02  0.44577936491E+01  0.21324177252E+02  0.51100000000E-03 0. -1.
        -11    1    3    3    0    0  0.11633236318E+02  0.45806310972E+00 -0.83269165275E+01  0.14313614085E+02  0.51100000000E-03 0.  1.
        -12    1    3    3    0    0 -0.92776300786E+01 -0.16371574262E+01 -0.21708001677E+02  0.23664150969E+02  0.00000000000E+00 0.  1.
</event>
<event>
 7    1  0.7819001E-012  0.5930193E+02  0.7816164E-02  0.1266605E+00
        -11   -1    0    0    0    0  0.00000000000E+00  0.00000000000E+00  0.45593999997E+02  0.45594000000E+02  0.51100000000E-03 0.  1.
         11   -1    0    0    0    0 -0.00000000000E+00 -0.00000000000E+00 -0.45593999997E+02  0.45594000000E+02  0.51100000000E-03 0. -1.
    9900012    2    1    2    0    0  0.14941638820E+02  0.27598608574E+02  0.56378936416E+01  0.59301927639E+02  0.49999970112E+02 0.  0.
         12    1    1    2    0    0 -0.14941638820E+02 -0.27598608574E+02 -0.56378936416E+01  0.31886072361E+02  0.00000000000E+00 0. -1.
         11    1    3    3    0    0  0.14376115991E+02  0.28257028545E+02  0.33551765501E+01  0.31880865470E+02  0.51100000000E-03 0. -1.
        -11    1    3    3    0    0 -0.83552201755E+01 -0.10252591509E+02  0.48201675255E+01  0.14076908470E+02  0.51100000000E-03 0.  1.
         12    1    3    3    0    0  0.89207430045E+01  0.95941715385E+01 -0.25374504340E+01  0.13344153700E+02  0.00000000000E+00 0. -1.
</event>
<event>
 7    1  0.7819001E-012  0.5930196E+02  0.7816164E-02  0.1266605E+00
        -11   -1    0    0    0    0  0.00000000000E+00  0.00000000000E+00  0.45593999997E+02  0.45594000000E+02  0.51100000000E-03 0.  1.
         11   -1    0    0    0    0 -0.00000000000E+00 -0.00000000000E+00 -0.45593999997E+02  0.45594000000E+02  0.51100000000E-03 0. -1.
    9900012    2    1    2    0    0  0.67544642970E+01  0.23514696778E+02  0.20448851886E+02  0.59301963935E+02  0.50000036307E+02 0.  0.
         12    1    1    2    0    0 -0.67544642970E+01 -0.23514696778E+02 -0.20448851886E+02  0.31886036065E+02  0.00000000000E+00 0. -1.
         11    1    3    3    0    0  0.12072789937E+02 -0.28039101703E+01  0.24712924970E+02  0.27646750802E+02  0.51100000000E-03 0. -1.
        -11    1    3    3    0    0 -0.83342413486E+01  0.16020841828E+02 -0.86984822231E+01  0.20044713642E+02  0.51100000000E-03 0.  1.
         12    1    3    3    0    0  0.30159157085E+01  0.10297765120E+02  0.44344091391E+01  0.11610499492E+02  0.00000000000E+00 0. -1.
</event>
<event>
 7    1  0.7819001E-012  0.5930197E+02  0.7816164E-02  0.1266605E+00
        -11   -1    0    0    0    0  0.00000000000E+00  0.00000000000E+00  0.45593999997E+02  0.45594000000E+02  0.51100000000E-03 0.  1.
         11   -1    0    0    0    0 -0.00000000000E+00 -0.00000000000E+00 -0.45593999997E+02  0.45594000000E+02  0.51100000000E-03 0. -1.
    9900012    2    1    2    0    0 -0.15865648234E+02 -0.27556630398E+02  0.23732598639E+01  0.59301968024E+02  0.50000043764E+02 0.  0.
         12    1    1    2    0    0  0.15865648234E+02  0.27556630398E+02 -0.23732598639E+01  0.31886031976E+02  0.00000000000E+00 0. -1.
         11    1    3    3    0    0  0.10417809977E+01  0.54491647490E+01  0.86607890424E+01  0.10285327958E+02  0.51100000000E-03 0. -1.
        -11    1    3    3    0    0 -0.23113496371E+02 -0.18727947206E+02 -0.12482349915E+02  0.32261103216E+02  0.51100000000E-03 0.  1.
        -12    1    3    3    0    0  0.62060671394E+01 -0.14277847941E+02  0.61948207369E+01  0.16755536850E+02  0.00000000000E+00 0.  1.
</event>
<event>
 7    1  0.7819001E-012  0.5930194E+02  0.7816164E-02  0.1266605E+00
        -11   -1    0    0    0    0  0.00000000000E+00  0.00000000000E+00  0.45593999997E+02  0.45594000000E+02  0.51100000000E-03 0. -1.
         11   -1    0    0    0    0 -0.00000000000E+00 -0.00000000000E+00 -0.45593999997E+02  0.45594000000E+02  0.51100000000E-03 0.  1.
    9900012    2    1    2    0    0 -0.28385267026E+02  0.19605033446E+01 -0.14392837981E+02  0.59301941249E+02  0.49999994933E+02 0.  0.
         12    1    1    2    0    0  0.28385267026E+02 -0.19605033446E+01  0.14392837981E+02  0.31886058751E+02  0.00000000000E+00 0. -1.
         11    1    3    3    0    0  0.15945622683E+01  0.51417095661E+01 -0.19157474116E+02  0.19899462828E+02  0.51100000000E-03 0. -1.
        -11    1    3    3    0    0 -0.26961566218E+02 -0.16560327767E-01 -0.61415097450E+01  0.27652205507E+02  0.51100000000E-03 0.  1.
         12    1    3    3    0    0 -0.30182630764E+01 -0.31646458938E+01  0.10906145879E+02  0.11750272915E+02  0.00000000000E+00 0. -1.
</event>
<event>
 7    1  0.7819001E-012  0.5930197E+02  0.7816164E-02  0.1266605E+00
        -11   -1    0    0    0    0  0.00000000000E+00  0.00000000000E+00  0.45593999997E+02  0.45594000000E+02  0.51100000000E-03 0.  1.
         11   -1    0    0    0    0 -0.00000000000E+00 -0.00000000000E+00 -0.45593999997E+02  0.45594000000E+02  0.51100000000E-03 0. -1.
    9900012    2    1    2    0    0 -0.21554461232E+02 -0.87449140936E+01  0.21809412094E+02  0.59301972066E+02  0.50000051135E+02 0.  0.
         12    1    1    2    0    0  0.21554461232E+02  0.87449140936E+01 -0.21809412094E+02  0.31886027934E+02  0.00000000000E+00 0. -1.
         11    1    3    3    0    0 -0.70125258839E+01  0.11992139887E+02 -0.10474353273E+02  0.17398247472E+02  0.51100000000E-03 0. -1.
        -11    1    3    3    0    0 -0.19002395562E+01 -0.78220706236E+01  0.14289197761E+02  0.16400514386E+02  0.51100000000E-03 0.  1.
         12    1    3    3    0    0 -0.12641695792E+02 -0.12914983357E+02  0.17994567606E+02  0.25503210209E+02  0.00000000000E+00 0. -1.
</event>
<event>
 7    1  0.7819001E-012  0.5930194E+02  0.7816164E-02  0.1266605E+00
        -11   -1    0    0    0    0  0.00000000000E+00  0.00000000000E+00  0.45593999997E+02  0.45594000000E+02  0.51100000000E-03 0. -1.
         11   -1    0    0    0    0 -0.00000000000E+00 -0.00000000000E+00 -0.45593999997E+02  0.45594000000E+02  0.51100000000E-03 0.  1.
    9900012    2    1    2    0    0 -0.28011217773E+02  0.10160959217E+02 -0.11351101069E+02  0.59301938644E+02  0.49999990182E+02 0.  0.
         12    1    1    2    0    0  0.28011217773E+02 -0.10160959217E+02  0.11351101069E+02  0.31886061356E+02  0.00000000000E+00 0. -1.
         11    1    3    3    0    0  0.13168848747E+02  0.79558841203E+01 -0.43490420234E+01  0.15988396925E+02  0.51100000000E-03 0. -1.
        -11    1    3    3    0    0 -0.22177528014E+02 -0.41251648478E+01 -0.18578611972E+01  0.22634296594E+02  0.51100000000E-03 0.  1.
         12    1    3    3    0    0 -0.19002538506E+02  0.63302399445E+01 -0.51441978483E+01  0.20679245124E+02  0.00000000000E+00 0. -1.
</event>
<event>
 7    1  0.7819001E-012  0.5930189E+02  0.7816164E-02  0.1266605E+00
        -11   -1    0    0    0    0  0.00000000000E+00  0.00000000000E+00  0.45593999997E+02  0.45594000000E+02  0.51100000000E-03 0.  1.
         11   -1    0    0    0    0 -0.00000000000E+00 -0.00000000000E+00 -0.45593999997E+02  0.45594000000E+02  0.51100000000E-03 0. -1.
    9900012    2    1    2    0    0 -0.61061259315E+01 -0.24946422871E+02  0.18897489381E+02  0.59301891852E+02  0.49999904844E+02 0.  0.
         12    1    1    2    0    0  0.61061259315E+01  0.24946422871E+02 -0.18897489381E+02  0.31886108148E+02  0.00000000000E+00 0. -1.
         11    1    3    3    0    0 -0.76904240278E+01  0.93243260076E+01 -0.58095793742E+01  0.13410327736E+02  0.51100000000E-03 0. -1.
        -11    1    3    3    0    0  0.21995524112E+01 -0.13142371000E+02 -0.67364761086E-01  0.13325332438E+02  0.51100000000E-03 0.  1.
         12    1    3    3    0    0 -0.61525431488E+00 -0.21128377878E+02  0.24774433516E+02  0.32566231678E+02  0.00000000000E+00 0. -1.
</event>
<event>
 7    1  0.7819001E-012  0.5930194E+02  0.7816164E-02  0.1266605E+00
        -11   -1    0    0    0    0  0.00000000000E+00  0.00000000000E+00  0.45593999997E+02  0.45594000000E+02  0.51100000000E-03 0. -1.
         11   -1    0    0    0    0 -0.00000000000E+00 -0.00000000000E+00 -0.45593999997E+02  0.45594000000E+02  0.51100000000E-03 0.  1.
    9900012    2    1    2    0    0  0.14681682208E+02 -0.13610733843E+02 -0.24817671747E+02  0.59301941931E+02  0.49999996177E+02 0.  0.
         12    1    1    2    0    0 -0.14681682208E+02  0.13610733843E+02  0.24817671747E+02  0.31886058069E+02  0.00000000000E+00 0. -1.
         11    1    3    3    0    0  0.11427578728E+02 -0.28003050527E+01  0.12259069924E+02  0.16991646760E+02  0.51100000000E-03 0. -1.
        -11    1    3    3    0    0 -0.20936070347E+01 -0.11677076554E+02 -0.34151892142E+02  0.36153686457E+02  0.51100000000E-03 0.  1.
         12    1    3    3    0    0  0.53477105150E+01  0.86664776363E+00 -0.29248495286E+01  0.61566087145E+01  0.00000000000E+00 0. -1.
</event>
<event>
 7    1  0.7819001E-012  0.5930192E+02  0.7816164E-02  0.1266605E+00
        -11   -1    0    0    0    0  0.00000000000E+00  0.00000000000E+00  0.45593999997E+02  0.45594000000E+02  0.51100000000E-03 0.  1.
         11   -1    0    0    0    0 -0.00000000000E+00 -0.00000000000E+00 -0.45593999997E+02  0.45594000000E+02  0.51100000000E-03 0. -1.
    9900012    2    1    2    0    0 -0.96918120151E+01  0.29290356450E+02 -0.80539175559E+01  0.59301924840E+02  0.49999965006E+02 0.  0.
         12    1    1    2    0    0  0.96918120151E+01 -0.29290356450E+02  0.80539175559E+01  0.31886075160E+02  0.00000000000E+00 0. -1.
         11    1    3    3    0    0 -0.33030122640E+01  0.16095969326E+02 -0.19714454359E+02  0.25664174046E+02  0.51100000000E-03 0. -1.
        -11    1    3    3    0    0 -0.44772443760E+01 -0.74407586193E+01  0.93904742294E+01  0.12790293685E+02  0.51100000000E-03 0.  1.
        -12    1    3    3    0    0 -0.19115553751E+01  0.20635145744E+02  0.22700625734E+01  0.20847457109E+02  0.00000000000E+00 0.  1.
</event>
<event>
 7    1  0.7819001E-012  0.5930191E+02  0.7816164E-02  0.1266605E+00
        -11   -1    0    0    0    0  0.00000000000E+00  0.00000000000E+00  0.45593999997E+02  0.45594000000E+02  0.51100000000E-03 0.  1.
         11   -1    0    0    0    0 -0.00000000000E+00 -0.00000000000E+00 -0.45593999997E+02  0.45594000000E+02  0.51100000000E-03 0. -1.
    9900012    2    1    2    0    0  0.22653731298E+02 -0.16782805975E+02  0.14895261119E+02  0.59301907077E+02  0.49999932611E+02 0.  0.
         12    1    1    2    0    0 -0.22653731298E+02  0.16782805975E+02 -0.14895261119E+02  0.31886092923E+02  0.00000000000E+00 0. -1.
         11    1    3    3    0    0  0.29297507520E+02 -0.13773357370E+02  0.15848602686E+02  0.36044798897E+02  0.51100000000E-03 0. -1.
        -11    1    3    3    0    0 -0.10636404485E+02  0.65448524359E+01  0.16031790862E+01  0.12591202374E+02  0.51100000000E-03 0.  1.
        -12    1    3    3    0    0  0.39926282622E+01 -0.95543010408E+01 -0.25565206539E+01  0.10665905806E+02  0.00000000000E+00 0.  1.
</event>
<event>
 7    1  0.7819001E-012  0.5930194E+02  0.7816164E-02  0.1266605E+00
        -11   -1    0    0    0    0  0.00000000000E+00  0.00000000000E+00  0.45593999997E+02  0.45594000000E+02  0.51100000000E-03 0.  1.
         11   -1    0    0    0    0 -0.00000000000E+00 -0.00000000000E+00 -0.45593999997E+02  0.45594000000E+02  0.51100000000E-03 0. -1.
    9900012    2    1    2    0    0 -0.19146603088E+02 -0.38024494043E+01  0.25212495696E+02  0.59301937677E+02  0.49999988417E+02 0.  0.
         12    1    1    2    0    0  0.19146603088E+02  0.38024494043E+01 -0.25212495696E+02  0.31886062323E+02  0.00000000000E+00 0. -1.
         11    1    3    3    0    0 -0.23343328317E+02  0.44167345281E-01 -0.60333862137E+01  0.24110468206E+02  0.51100000000E-03 0. -1.
        -11    1    3    3    0    0  0.68528082521E+01  0.32015467816E+01  0.92911789656E+01  0.11980688193E+02  0.51100000000E-03 0.  1.
        -12    1    3    3    0    0 -0.26560830234E+01 -0.70481635312E+01  0.21954702944E+02  0.23210781278E+02  0.00000000000E+00 0.  1.
</event>
<event>
 7    1  0.7819001E-012  0.5930197E+02  0.7816164E-02  0.1266605E+00
        -11   -1    0    0    0    0  0.00000000000E+00  0.00000000000E+00  0.45593999997E+02  0.45594000000E+02  0.51100000000E-03 0.  1.
         11   -1    0    0    0    0 -0.00000000000E+00 -0.00000000000E+00 -0.45593999997E+02  0.45594000000E+02  0.51100000000E-03 0. -1.
    9900012    2    1    2    0    0  0.30453162374E+01  0.11892892501E+02  0.29427950588E+02  0.59301966712E+02  0.50000041371E+02 0.  0.
         12    1    1    2    0    0 -0.30453162374E+01 -0.11892892501E+02 -0.29427950588E+02  0.31886033288E+02  0.00000000000E+00 0. -1.
         11    1    3    3    0    0  0.22422603639E+02  0.15624593011E+02  0.74971318051E+01  0.28339161002E+02  0.51100000000E-03 0. -1.
        -11    1    3    3    0    0 -0.23327247146E+01  0.11043249910E+01  0.80554398243E+01  0.84587971547E+01  0.51100000000E-03 0.  1.
         12    1    3    3    0    0 -0.17044562687E+02 -0.48360255013E+01  0.13875378958E+02  0.22504008556E+02  0.00000000000E+00 0. -1.
</event>
<event>
 7    1  0.7819001E-012  0.5930195E+02  0.7816164E-02  0.1266605E+00
        -11   -1    0    0    0    0  0.00000000000E+00  0.00000000000E+00  0.45593999997E+02  0.45594000000E+02  0.51100000000E-03 0. -1.
         11   -1    0    0    0    0 -0.00000000000E+00 -0.00000000000E+00 -0.45593999997E+02  0.45594000000E+02  0.51100000000E-03 0.  1.
    9900012    2    1    2    0    0  0.12874055645E+02  0.28306396559E+02  0.70517038882E+01  0.59301954108E+02  0.50000018384E+02 0.  0.
         12    1    1    2    0    0 -0.12874055645E+02 -0.28306396559E+02 -0.70517038882E+01  0.31886045892E+02  0.00000000000E+00 0. -1.
         11    1    3    3    0    0  0.68781190238E+01  0.24129398594E+02 -0.18407101068E+02  0.31118447387E+02  0.51100000000E-03 0. -1.
        -11    1    3    3    0    0  0.37471500509E+01  0.61363890292E+01  0.23595521363E+02  0.24666678586E+02  0.51100000000E-03 0.  1.
         12    1    3    3    0    0  0.22487865705E+01 -0.19593910640E+01  0.18632835924E+01  0.35168281345E+01  0.00000000000E+00 0. -1.
</event>
<event>
 7    1  0.7819001E-012  0.5930196E+02  0.7816164E-02  0.1266605E+00
        -11   -1    0    0    0    0  0.00000000000E+00  0.00000000000E+00  0.45593999997E+02  0.45594000000E+02  0.51100000000E-03 0.  1.
         11   -1    0    0    0    0 -0.00000000000E+00 -0.00000000000E+00 -0.45593999997E+02  0.45594000000E+02  0.51100000000E-03 0. -1.
    9900012    2    1    2    0    0 -0.12971987085E+02  0.31779553193E+01  0.28954230517E+02  0.59301963655E+02  0.50000035796E+02 0.  0.
         12    1    1    2    0    0  0.12971987085E+02 -0.31779553193E+01 -0.28954230517E+02  0.31886036345E+02  0.00000000000E+00 0. -1.
         11    1    3    3    0    0 -0.69879568406E+01 -0.12435902844E+02 -0.84905713551E+01  0.16600392241E+02  0.51100000000E-03 0. -1.
        -11    1    3    3    0    0 -0.10556697946E+01  0.13709483523E+02  0.18603022817E+02  0.23133024778E+02  0.51100000000E-03 0.  1.
         12    1    3    3    0    0 -0.49283604494E+01  0.19043746404E+01  0.18841779055E+02  0.19568546636E+02  0.00000000000E+00 0. -1.
</event>
<event>
 7    1  0.7819001E-012  0.5930202E+02  0.7816164E-02  0.1266604E+00
        -11   -1    0    0    0    0  0.00000000000E+00  0.00000000000E+00  0.45593999997E+02  0.45594000000E+02  0.51100000000E-03 0. -1.
         11   -1    0    0    0    0 -0.00000000000E+00 -0.00000000000E+00 -0.45593999997E+02  0.45594000000E+02  0.51100000000E-03 0.  1.
    9900012    2    1    2    0    0 -0.12213409096E+01  0.30532945261E+02  0.91084129809E+01  0.59302021782E+02  0.50000141804E+02 0.  0.
         12    1    1    2    0    0  0.12213409096E+01 -0.30532945261E+02 -0.91084129809E+01  0.31885978218E+02  0.00000000000E+00 0. -1.
         11    1    3    3    0    0  0.50918171402E+01  0.80039409763E+01 -0.10547335910E+02  0.14185766388E+02  0.51100000000E-03 0. -1.
        -11    1    3    3    0    0  0.67396823735E+01  0.22268086349E+02  0.21803319499E+02  0.31885352900E+02  0.51100000000E-03 0.  1.
        -12    1    3    3    0    0 -0.13052840423E+02  0.26091793585E+00 -0.21475706079E+01  0.13230902494E+02  0.00000000000E+00 0.  1.
</event>
<event>
 7    1  0.7819001E-012  0.5930186E+02  0.7816164E-02  0.1266605E+00
        -11   -1    0    0    0    0  0.00000000000E+00  0.00000000000E+00  0.45593999997E+02  0.45594000000E+02  0.51100000000E-03 0.  1.
         11   -1    0    0    0    0 -0.00000000000E+00 -0.00000000000E+00 -0.45593999997E+02  0.45594000000E+02  0.51100000000E-03 0. -1.
    9900012    2    1    2    0    0  0.15950611851E+02 -0.27608400859E+02 -0.28285970338E+00  0.59301861538E+02  0.49999849559E+02 0.  0.
         12    1    1    2    0    0 -0.15950611851E+02  0.27608400859E+02  0.28285970338E+00  0.31886138462E+02  0.00000000000E+00 0. -1.
         11    1    3    3    0    0 -0.46827913803E+01 -0.11529359260E+02 -0.11385476717E+02  0.16866645796E+02  0.51100000000E-03 0. -1.
        -11    1    3    3    0    0  0.18909248382E+02 -0.13260177339E+02  0.21482618790E+02  0.31541954407E+02  0.51100000000E-03 0.  1.
        -12    1    3    3    0    0  0.17241548491E+01 -0.28188642594E+01 -0.10380001776E+02  0.10893261336E+02  0.00000000000E+00 0.  1.
</event>
<event>
 7    1  0.7819001E-012  0.5930190E+02  0.7816164E-02  0.1266605E+00
        -11   -1    0    0    0    0  0.00000000000E+00  0.00000000000E+00  0.45593999997E+02  0.45594000000E+02  0.51100000000E-03 0.  1.
         11   -1    0    0    0    0 -0.00000000000E+00 -0.00000000000E+00 -0.45593999997E+02  0.45594000000E+02  0.51100000000E-03 0. -1.
    9900012    2    1    2    0    0 -0.83884714967E+01  0.20278928043E+01  0.30696000549E+02  0.59301901885E+02  0.49999923142E+02 0.  0.
         12    1    1    2    0    0  0.83884714967E+01 -0.20278928043E+01 -0.30696000549E+02  0.31886098115E+02  0.00000000000E+00 0. -1.
         11    1    3    3    0    0 -0.11207281321E+02  0.16806079552E+02  0.15349203763E+02  0.25370169904E+02  0.51100000000E-03 0. -1.
        -11    1    3    3    0    0  0.80916723600E+01 -0.12995078142E+02  0.21007058622E+02  0.25993147745E+02  0.51100000000E-03 0.  1.
        -12    1    3    3    0    0 -0.52728625357E+01 -0.17831086057E+01 -0.56602618362E+01  0.79385842361E+01  0.00000000000E+00 0.  1.
</event>
<event>
 7    1  0.7819001E-012  0.5930194E+02  0.7816164E-02  0.1266605E+00
        -11   -1    0    0    0    0  0.00000000000E+00  0.00000000000E+00  0.45593999997E+02  0.45594000000E+02  0.51100000000E-03 0.  1.
         11   -1    0    0    0    0 -0.00000000000E+00 -0.00000000000E+00 -0.45593999997E+02  0.45594000000E+02  0.51100000000E-03 0. -1.
    9900012    2    1    2    0    0  0.12727756524E+02  0.20143199492E+02  0.21189073245E+02  0.59301935695E+02  0.49999984803E+02 0.  0.
         12    1    1    2    0    0 -0.12727756524E+02 -0.20143199492E+02 -0.21189073245E+02  0.31886064305E+02  0.00000000000E+00 0. -1.
         11    1    3    3    0    0 -0.63541744663E+01  0.30332580429E+02  0.60775041089E+01  0.31581276496E+02  0.51100000000E-03 0. -1.
        -11    1    3    3    0    0  0.12368904901E+02 -0.38779282447E+01  0.12808275586E+02  0.18223063948E+02  0.51100000000E-03 0.  1.
         12    1    3    3    0    0  0.67130260895E+01 -0.63114526931E+01  0.23032935496E+01  0.94975952510E+01  0.00000000000E+00 0. -1.
</event>
<event>
 7    1  0.7819001E-012  0.5930196E+02  0.7816164E-02  0.1266605E+00
        -11   -1    0    0    0    0  0.00000000000E+00  0.00000000000E+00  0.45593999997E+02  0.45594000000E+02  0.51100000000E-03 0.  1.
         11   -1    0    0    0    0 -0.00000000000E+00 -0.00000000000E+00 -0.45593999997E+02  0.45594000000E+02  0.51100000000E-03 0. -1.
    9900012    2    1    2    0    0  0.18489719239E+02 -0.25958197093E+02 -0.10109207417E+01  0.59301957997E+02  0.50000025477E+02 0.  0.
         12    1    1    2    0    0 -0.18489719239E+02  0.25958197093E+02  0.10109207417E+01  0.31886042003E+02  0.00000000000E+00 0. -1.
         11    1    3    3    0    0 -0.59317793363E-01  0.32549737878E+01 -0.70716781682E+01  0.77850501177E+01  0.51100000000E-03 0. -1.
        -11    1    3    3    0    0  0.10960681558E+02 -0.37326470538E+02  0.91948287667E+01  0.39974327003E+02  0.51100000000E-03 0.  1.
        -12    1    3    3    0    0  0.75883554742E+01  0.81132996569E+01 -0.31340713402E+01  0.11542580877E+02  0.00000000000E+00 0.  1.
</event>
<event>
 7    1  0.7819001E-012  0.5930198E+02  0.7816164E-02  0.1266605E+00
        -11   -1    0    0    0    0  0.00000000000E+00  0.00000000000E+00  0.45593999997E+02  0.45594000000E+02  0.51100000000E-03 0.  1.
         11   -1    0    0    0    0 -0.00000000000E+00 -0.00000000000E+00 -0.45593999997E+02  0.45594000000E+02  0.51100000000E-03 0. -1.
    9900012    2    1    2    0    0  0.49192576461E+01  0.16446325137E+02  0.26870751092E+02  0.59301984718E+02  0.50000074209E+02 0.  0.
         12    1    1    2    0    0 -0.49192576461E+01 -0.16446325137E+02 -0.26870751092E+02  0.31886015282E+02  0.00000000000E+00 0. -1.
         11    1    3    3    0    0  0.17028475169E+02  0.16577453765E+02  0.84390896911E+00  0.23780099296E+02  0.51100000000E-03 0.  1.
        -11    1    3    3    0    0 -0.14678096120E+02  0.17630747342E+01  0.72315718780E+01  0.16457538404E+02  0.51100000000E-03 0. -1.
         12    1    3    3    0    0  0.25688785975E+01 -0.18942033618E+01  0.18795270245E+02  0.19064347018E+02  0.00000000000E+00 0. -1.
</event>
<event>
 7    1  0.7819001E-012  0.5930174E+02  0.7816164E-02  0.1266605E+00
        -11   -1    0    0    0    0  0.00000000000E+00  0.00000000000E+00  0.45593999997E+02  0.45594000000E+02  0.51100000000E-03 0. -1.
         11   -1    0    0    0    0 -0.00000000000E+00 -0.00000000000E+00 -0.45593999997E+02  0.45594000000E+02  0.51100000000E-03 0.  1.
    9900012    2    1    2    0    0  0.87006467617E+01 -0.18116173868E+02 -0.24755540458E+02  0.59301736608E+02  0.49999621715E+02 0.  0.
         12    1    1    2    0    0 -0.87006467617E+01  0.18116173868E+02  0.24755540458E+02  0.31886263392E+02  0.00000000000E+00 0. -1.
         11    1    3    3    0    0  0.15699193684E+02 -0.10915602280E+02 -0.92570624874E+01  0.21244017078E+02  0.51100000000E-03 0. -1.
        -11    1    3    3    0    0 -0.14798110307E+02  0.39381761827E+01 -0.18618010288E+02  0.24106505505E+02  0.51100000000E-03 0.  1.
        -12    1    3    3    0    0  0.77995633849E+01 -0.11138747771E+02  0.31195323167E+01  0.13951214025E+02  0.00000000000E+00 0.  1.
</event>
<event>
 7    1  0.7819001E-012  0.5930191E+02  0.7816164E-02  0.1266605E+00
        -11   -1    0    0    0    0  0.00000000000E+00  0.00000000000E+00  0.45593999997E+02  0.45594000000E+02  0.51100000000E-03 0.  1.
         11   -1    0    0    0    0 -0.00000000000E+00 -0.00000000000E+00 -0.45593999997E+02  0.45594000000E+02  0.51100000000E-03 0. -1.
    9900012    2    1    2    0    0  0.99306377274E+01  0.28647855512E+01  0.30164517181E+02  0.59301911204E+02  0.49999940138E+02 0.  0.
         12    1    1    2    0    0 -0.99306377274E+01 -0.28647855512E+01 -0.30164517181E+02  0.31886088796E+02  0.00000000000E+00 0. -1.
         11    1    3    3    0    0  0.20287929318E+02 -0.45790893000E+01 -0.51164924583E+01  0.21418371323E+02  0.51100000000E-03 0. -1.
        -11    1    3    3    0    0 -0.57889301973E+01  0.11406930673E+01  0.17660321427E+02  0.18619877729E+02  0.51100000000E-03 0.  1.
         12    1    3    3    0    0 -0.45683613928E+01  0.63031817838E+01  0.17620688212E+02  0.19263662152E+02  0.00000000000E+00 0. -1.
</event>
<event>
 7    1  0.7819001E-012  0.5930209E+02  0.7816164E-02  0.1266604E+00
        -11   -1    0    0    0    0  0.00000000000E+00  0.00000000000E+00  0.45593999997E+02  0.45594000000E+02  0.51100000000E-03 0.  1.
         11   -1    0    0    0    0 -0.00000000000E+00 -0.00000000000E+00 -0.45593999997E+02  0.45594000000E+02  0.51100000000E-03 0. -1.
    9900012    2    1    2    0    0  0.80827930359E+01 -0.19196964219E+02  0.24142416714E+02  0.59302089894E+02  0.50000266025E+02 0.  0.
         12    1    1    2    0    0 -0.80827930359E+01  0.19196964219E+02 -0.24142416714E+02  0.31885910106E+02  0.00000000000E+00 0. -1.
         11    1    3    3    0    0 -0.19407279781E+02 -0.15912290276E+02  0.10564805177E+02  0.27229737403E+02  0.51100000000E-03 0. -1.
        -11    1    3    3    0    0  0.17501476725E+02 -0.25066321183E+01  0.13168271383E+02  0.22045141497E+02  0.51100000000E-03 0.  1.
         12    1    3    3    0    0  0.99885960921E+01 -0.77804182408E+00  0.40934015429E+00  0.10027210995E+02  0.00000000000E+00 0. -1.
</event>
<event>
 7    1  0.7819001E-012  0.5930190E+02  0.7816164E-02  0.1266605E+00
        -11   -1    0    0    0    0  0.00000000000E+00  0.00000000000E+00  0.45593999997E+02  0.45594000000E+02  0.51100000000E-03 0.  1.
         11   -1    0    0    0    0 -0.00000000000E+00 -0.00000000000E+00 -0.45593999997E+02  0.45594000000E+02  0.51100000000E-03 0. -1.
    9900012    2    1    2    0    0 -0.21344695120E+02 -0.22114862509E+02 -0.84888226133E+01  0.59301901730E+02  0.49999922859E+02 0.  0.
         12    1    1    2    0    0  0.21344695120E+02  0.22114862509E+02  0.84888226133E+01  0.31886098270E+02  0.00000000000E+00 0. -1.
         11    1    3    3    0    0  0.11545837969E+02 -0.76189452356E+01  0.85430632670E+00  0.13859456717E+02  0.51100000000E-03 0. -1.
        -11    1    3    3    0    0 -0.18671527805E+02 -0.16491612111E+02 -0.16008910818E+02  0.29612234742E+02  0.51100000000E-03 0.  1.
        -12    1    3    3    0    0 -0.14219005285E+02  0.19956948384E+01  0.66657818777E+01  0.15830210271E+02  0.00000000000E+00 0.  1.
</event>
<event>
 7    1  0.7819001E-012  0.5930192E+02  0.7816164E-02  0.1266605E+00
        -11   -1    0    0    0    0  0.00000000000E+00  0.00000000000E+00  0.45593999997E+02  0.45594000000E+02  0.51100000000E-03 0. -1.
         11   -1    0    0    0    0 -0.00000000000E+00 -0.00000000000E+00 -0.45593999997E+02  0.45594000000E+02  0.51100000000E-03 0.  1.
    9900012    2    1    2    0    0  0.17143019777E+02 -0.23298197991E+02 -0.13417631583E+02  0.59301921627E+02  0.49999959147E+02 0.  0.
         12    1    1    2    0    0 -0.17143019777E+02  0.23298197991E+02  0.13417631583E+02  0.31886078373E+02  0.00000000000E+00 0. -1.
         11    1    3    3    0    0 -0.43368353608E+01 -0.12428465818E+02  0.68383803993E+01  0.14833689705E+02  0.51100000000E-03 0. -1.
        -11    1    3    3    0    0  0.13778358751E+02  0.54318892670E+01 -0.21819586474E+02  0.26371252247E+02  0.51100000000E-03 0.  1.
        -12    1    3    3    0    0  0.77014963868E+01 -0.16301621440E+02  0.15635744920E+01  0.18096979675E+02  0.00000000000E+00 0.  1.
</event>
<event>
 7    1  0.7819001E-012  0.5930195E+02  0.7816164E-02  0.1266605E+00
        -11   -1    0    0    0    0  0.00000000000E+00  0.00000000000E+00  0.45593999997E+02  0.45594000000E+02  0.51100000000E-03 0. -1.
         11   -1    0    0    0    0 -0.00000000000E+00 -0.00000000000E+00 -0.45593999997E+02  0.45594000000E+02  0.51100000000E-03 0.  1.
    9900012    2    1    2    0    0  0.26994676731E+02  0.67852153995E+01 -0.15555341896E+02  0.59301946915E+02  0.50000005266E+02 0.  0.
         12    1    1    2    0    0 -0.26994676731E+02 -0.67852153995E+01  0.15555341896E+02  0.31886053085E+02  0.00000000000E+00 0. -1.
         11    1    3    3    0    0  0.15422072232E+02 -0.11689273595E+02  0.10864981798E+02  0.22192955162E+02  0.51100000000E-03 0. -1.
        -11    1    3    3    0    0 -0.21358854194E+01  0.76171101863E+01 -0.12338402098E+02  0.14656689282E+02  0.51100000000E-03 0.  1.
         12    1    3    3    0    0  0.13708489919E+02  0.10857378808E+02 -0.14081921595E+02  0.22452302471E+02  0.00000000000E+00 0. -1.
</event>
<event>
 7    1  0.7819001E-012  0.5930189E+02  0.7816164E-02  0.1266605E+00
        -11   -1    0    0    0    0  0.00000000000E+00  0.00000000000E+00  0.45593999997E+02  0.45594000000E+02  0.51100000000E-03 0.  1.
         11   -1    0    0    0    0 -0.00000000000E+00 -0.00000000000E+00 -0.45593999997E+02  0.45594000000E+02  0.51100000000E-03 0. -1.
    9900012    2    1    2    0    0 -0.23456372018E+02  0.20691301227E+02 -0.61961650317E+01  0.59301893373E+02  0.49999907618E+02 0.  0.
         12    1    1    2    0    0  0.23456372018E+02 -0.20691301227E+02  0.61961650317E+01  0.31886106627E+02  0.00000000000E+00 0. -1.
         11    1    3    3    0    0 -0.25292822668E+01  0.18039781567E+02 -0.94812381850E+01  0.20535940824E+02  0.51100000000E-03 0. -1.
        -11    1    3    3    0    0 -0.18911379249E+02  0.77090891324E+00  0.16595946104E+02  0.25172604017E+02  0.51100000000E-03 0.  1.
         12    1    3    3    0    0 -0.20157105026E+01  0.18806107472E+01 -0.13310872950E+02  0.13593348532E+02  0.00000000000E+00 0. -1.
</event>
<event>
 7    1  0.7819001E-012  0.5930192E+02  0.7816164E-02  0.1266605E+00
        -11   -1    0    0    0    0  0.00000000000E+00  0.00000000000E+00  0.45593999997E+02  0.45594000000E+02  0.51100000000E-03 0.  1.
         11   -1    0    0    0    0 -0.00000000000E+00 -0.00000000000E+00 -0.45593999997E+02  0.45594000000E+02  0.51100000000E-03 0. -1.
    9900012    2    1    2    0    0  0.26777888856E+02  0.16777015575E+02  0.42659412371E+01  0.59301924076E+02  0.49999963613E+02 0.  0.
         12    1    1    2    0    0 -0.26777888856E+02 -0.16777015575E+02 -0.42659412371E+01  0.31886075924E+02  0.00000000000E+00 0. -1.
         11    1    3    3    0    0  0.20882498977E+02 -0.10784245609E+02 -0.32614281344E+00  0.23505001304E+02  0.51100000000E-03 0. -1.
        -11    1    3    3    0    0  0.51603175995E+01  0.29226771959E+02 -0.12225057315E+01  0.29703999686E+02  0.51100000000E-03 0.  1.
        -12    1    3    3    0    0  0.73507227916E+00 -0.16655107746E+01  0.58145897820E+01  0.60929230858E+01  0.00000000000E+00 0.  1.
</event>
<event>
 7    1  0.7819001E-012  0.5930195E+02  0.7816164E-02  0.1266605E+00
        -11   -1    0    0    0    0  0.00000000000E+00  0.00000000000E+00  0.45593999997E+02  0.45594000000E+02  0.51100000000E-03 0.  1.
         11   -1    0    0    0    0 -0.00000000000E+00 -0.00000000000E+00 -0.45593999997E+02  0.45594000000E+02  0.51100000000E-03 0. -1.
    9900012    2    1    2    0    0  0.67645689049E+01 -0.33710423383E+01  0.30977358490E+02  0.59301951987E+02  0.50000014515E+02 0.  0.
         12    1    1    2    0    0 -0.67645689049E+01  0.33710423383E+01 -0.30977358490E+02  0.31886048013E+02  0.00000000000E+00 0. -1.
         11    1    3    3    0    0  0.58851493030E+01  0.66033159639E+00 -0.36737037064E+01  0.69690113588E+01  0.51100000000E-03 0. -1.
        -11    1    3    3    0    0 -0.18340858462E+01  0.15285044174E+02  0.27578339307E+02  0.31584192968E+02  0.51100000000E-03 0.  1.
         12    1    3    3    0    0  0.27135054481E+01 -0.19316418108E+02  0.70727228895E+01  0.20748747659E+02  0.00000000000E+00 0. -1.
</event>
<event>
 7    1  0.7819001E-012  0.5930196E+02  0.7816164E-02  0.1266605E+00
        -11   -1    0    0    0    0  0.00000000000E+00  0.00000000000E+00  0.45593999997E+02  0.45594000000E+02  0.51100000000E-03 0.  1.
         11   -1    0    0    0    0 -0.00000000000E+00 -0.00000000000E+00 -0.45593999997E+02  0.45594000000E+02  0.51100000000E-03 0. -1.
    9900012    2    1    2    0    0  0.28176753144E+02 -0.14064040405E+02 -0.49992580261E+01  0.59301964953E+02  0.50000038162E+02 0.  0.
         12    1    1    2    0    0 -0.28176753144E+02  0.14064040405E+02  0.49992580261E+01  0.31886035047E+02  0.00000000000E+00 0. -1.
         11    1    3    3    0    0  0.40202157011E+02 -0.20068573608E+01  0.22678872779E+01  0.40316054095E+02  0.51100000000E-03 0. -1.
        -11    1    3    3    0    0 -0.71430103563E+01 -0.82878303302E+01 -0.25862535135E+01  0.11242750377E+02  0.51100000000E-03 0.  1.
         12    1    3    3    0    0 -0.48823935113E+01 -0.37693527141E+01 -0.46808917904E+01  0.77431604811E+01  0.00000000000E+00 0. -1.
</event>
<event>
 7    1  0.7819001E-012  0.5930194E+02  0.7816164E-02  0.1266605E+00
        -11   -1    0    0    0    0  0.00000000000E+00  0.00000000000E+00  0.45593999997E+02  0.45594000000E+02  0.51100000000E-03 0.  1.
         11   -1    0    0    0    0 -0.00000000000E+00 -0.00000000000E+00 -0.45593999997E+02  0.45594000000E+02  0.51100000000E-03 0. -1.
    9900012    2    1    2    0    0 -0.21334120170E+02  0.17033807482E+02  0.16475006176E+02  0.59301935500E+02  0.49999984447E+02 0.  0.
         12    1    1    2    0    0  0.21334120170E+02 -0.17033807482E+02 -0.16475006176E+02  0.31886064500E+02  0.00000000000E+00 0. -1.
         11    1    3    3    0    0 -0.16013613944E+02  0.13837801963E+02  0.88988586371E+01  0.22958882378E+02  0.51100000000E-03 0. -1.
        -11    1    3    3    0    0  0.12574667800E+02  0.35967074435E+01  0.12167892431E+02  0.17863823252E+02  0.51100000000E-03 0.  1.
        -12    1    3    3    0    0 -0.17895174026E+02 -0.40070192478E+00 -0.45917448916E+01  0.18479229870E+02  0.00000000000E+00 0.  1.
</event>
<event>
 7    1  0.7819001E-012  0.5930188E+02  0.7816164E-02  0.1266605E+00
        -11   -1    0    0    0    0  0.00000000000E+00  0.00000000000E+00  0.45593999997E+02  0.45594000000E+02  0.51100000000E-03 0.  1.
         11   -1    0    0    0    0 -0.00000000000E+00 -0.00000000000E+00 -0.45593999997E+02  0.45594000000E+02  0.51100000000E-03 0. -1.
    9900012    2    1    2    0    0 -0.18167160496E+02  0.39895663373E+01  0.25899077341E+02  0.59301881278E+02  0.49999885560E+02 0.  0.
         12    1    1    2    0    0  0.18167160496E+02 -0.39895663373E+01 -0.25899077341E+02  0.31886118722E+02  0.00000000000E+00 0. -1.
         11    1    3    3    0    0 -0.53463700029E+01  0.94859637657E+01  0.17157624353E+02  0.20321202092E+02  0.51100000000E-03 0.  1.
        -11    1    3    3    0    0 -0.44587117891E+00  0.68896792921E+01 -0.10752517864E+02  0.12778228459E+02  0.51100000000E-03 0. -1.
        -12    1    3    3    0    0 -0.12374919314E+02 -0.12386076720E+02  0.19493970852E+02  0.26202450728E+02  0.00000000000E+00 0.  1.
</event>
<event>
 7    1  0.7819001E-012  0.5930197E+02  0.7816164E-02  0.1266605E+00
        -11   -1    0    0    0    0  0.00000000000E+00  0.00000000000E+00  0.45593999997E+02  0.45594000000E+02  0.51100000000E-03 0.  1.
         11   -1    0    0    0    0 -0.00000000000E+00 -0.00000000000E+00 -0.45593999997E+02  0.45594000000E+02  0.51100000000E-03 0. -1.
    9900012    2    1    2    0    0  0.19368887557E+02 -0.23153905327E+02  0.10269443138E+02  0.59301974857E+02  0.50000056225E+02 0.  0.
         12    1    1    2    0    0 -0.19368887557E+02  0.23153905327E+02 -0.10269443138E+02  0.31886025143E+02  0.00000000000E+00 0. -1.
         11    1    3    3    0    0  0.23071338271E+02 -0.11006732226E+02 -0.82108476660E+00  0.25575554430E+02  0.51100000000E-03 0. -1.
        -11    1    3    3    0    0 -0.61920481547E+01 -0.19236824455E+02  0.15083565516E+02  0.25217272343E+02  0.51100000000E-03 0.  1.
        -12    1    3    3    0    0  0.24895974403E+01  0.70896513547E+01 -0.39930376117E+01  0.85091480839E+01  0.00000000000E+00 0.  1.
</event>
<event>
 7    1  0.7819001E-012  0.5930194E+02  0.7816164E-02  0.1266605E+00
        -11   -1    0    0    0    0  0.00000000000E+00  0.00000000000E+00  0.45593999997E+02  0.45594000000E+02  0.51100000000E-03 0.  1.
         11   -1    0    0    0    0 -0.00000000000E+00 -0.00000000000E+00 -0.45593999997E+02  0.45594000000E+02  0.51100000000E-03 0. -1.
    9900012    2    1    2    0    0  0.62891601536E+01 -0.19761689426E+02  0.24220717494E+02  0.59301936268E+02  0.49999985848E+02 0.  0.
         12    1    1    2    0    0 -0.62891601536E+01  0.19761689426E+02 -0.24220717494E+02  0.31886063732E+02  0.00000000000E+00 0. -1.
         11    1    3    3    0    0  0.48666710570E+01  0.73043343741E+01  0.69629186009E+01  0.11203571909E+02  0.51100000000E-03 0. -1.
        -11    1    3    3    0    0 -0.13414218667E+02 -0.20399722219E+02  0.43424929153E-01  0.24414991605E+02  0.51100000000E-03 0.  1.
        -12    1    3    3    0    0  0.14836707764E+02 -0.66663015806E+01  0.17214373964E+02  0.23683372754E+02  0.00000000000E+00 0.  1.
</event>
<event>
 7    1  0.7819001E-012  0.5930192E+02  0.7816164E-02  0.1266605E+00
        -11   -1    0    0    0    0  0.00000000000E+00  0.00000000000E+00  0.45593999997E+02  0.45594000000E+02  0.51100000000E-03 0.  1.
         11   -1    0    0    0    0 -0.00000000000E+00 -0.00000000000E+00 -0.45593999997E+02  0.45594000000E+02  0.51100000000E-03 0. -1.
    9900012    2    1    2    0    0 -0.27155445881E+02 -0.14103246357E+02  0.89667158194E+01  0.59301924805E+02  0.49999964942E+02 0.  0.
         12    1    1    2    0    0  0.27155445881E+02  0.14103246357E+02 -0.89667158194E+01  0.31886075195E+02  0.00000000000E+00 0. -1.
         11    1    3    3    0    0  0.27952937653E+01  0.81546729956E+01  0.55361310902E+01  0.10245052787E+02  0.51100000000E-03 0. -1.
        -11    1    3    3    0    0 -0.28139926448E+01 -0.20460050516E+02 -0.36059455144E+01  0.20965091582E+02  0.51100000000E-03 0.  1.
         12    1    3    3    0    0 -0.27136747001E+02 -0.17978688360E+01  0.70365302437E+01  0.28091780435E+02  0.00000000000E+00 0. -1.
</event>
<event>
 7    1  0.7819001E-012  0.5930182E+02  0.7816164E-02  0.1266605E+00
        -11   -1    0    0    0    0  0.00000000000E+00  0.00000000000E+00  0.45593999997E+02  0.45594000000E+02  0.51100000000E-03 0.  1.
         11   -1    0    0    0    0 -0.00000000000E+00 -0.00000000000E+00 -0.45593999997E+02  0.45594000000E+02  0.51100000000E-03 0. -1.
    9900012    2    1    2    0    0 -0.23980927404E+02 -0.12959070458E+01 -0.20975324866E+02  0.59301819491E+02  0.49999772875E+02 0.  0.
         12    1    1    2    0    0  0.23980927404E+02  0.12959070458E+01  0.20975324866E+02  0.31886180509E+02  0.00000000000E+00 0. -1.
         11    1    3    3    0    0 -0.28569129102E+02  0.19179300658E+01 -0.14352990741E+01  0.28669385712E+02  0.51100000000E-03 0. -1.
        -11    1    3    3    0    0  0.94831271956E+01 -0.79153940905E+00  0.82119182951E+00  0.95514706892E+01  0.51100000000E-03 0.  1.
        -12    1    3    3    0    0 -0.48949254970E+01 -0.24222977025E+01 -0.20361217621E+02  0.21080963090E+02  0.00000000000E+00 0.  1.
</event>
<event>
 7    1  0.7819001E-012  0.5930195E+02  0.7816164E-02  0.1266605E+00
        -11   -1    0    0    0    0  0.00000000000E+00  0.00000000000E+00  0.45593999997E+02  0.45594000000E+02  0.51100000000E-03 0.  1.
         11   -1    0    0    0    0 -0.00000000000E+00 -0.00000000000E+00 -0.45593999997E+02  0.45594000000E+02  0.51100000000E-03 0. -1.
    9900012    2    1    2    0    0  0.54295296194E+01 -0.30587136770E+02  0.71880053906E+01  0.59301950556E+02  0.50000011906E+02 0.  0.
         12    1    1    2    0    0 -0.54295296194E+01  0.30587136770E+02 -0.71880053906E+01  0.31886049444E+02  0.00000000000E+00 0. -1.
         11    1    3    3    0    0  0.45218970184E+00  0.77948200049E+00 -0.14636867749E+01  0.17188504740E+01  0.51100000000E-03 0. -1.
        -11    1    3    3    0    0 -0.17810567285E+02 -0.27357139204E+02  0.10704500201E+02  0.34354267526E+02  0.51100000000E-03 0.  1.
        -12    1    3    3    0    0  0.22787907202E+02 -0.40094795660E+01 -0.20528080357E+01  0.23228832555E+02  0.00000000000E+00 0.  1.
</event>
<event>
 7    1  0.7819001E-012  0.5930194E+02  0.7816164E-02  0.1266605E+00
        -11   -1    0    0    0    0  0.00000000000E+00  0.00000000000E+00  0.45593999997E+02  0.45594000000E+02  0.51100000000E-03 0.  1.
         11   -1    0    0    0    0 -0.00000000000E+00 -0.00000000000E+00 -0.45593999997E+02  0.45594000000E+02  0.51100000000E-03 0. -1.
    9900012    2    1    2    0    0  0.54793140342E+01  0.27536472783E+02 -0.15114260289E+02  0.59301935964E+02  0.49999985294E+02 0.  0.
         12    1    1    2    0    0 -0.54793140342E+01 -0.27536472783E+02  0.15114260289E+02  0.31886064036E+02  0.00000000000E+00 0. -1.
         11    1    3    3    0    0 -0.16756937310E+02  0.22979480608E+02 -0.92234323063E+01  0.29898548138E+02  0.51100000000E-03 0. -1.
        -11    1    3    3    0    0  0.17390277038E+02  0.99142464001E+01  0.10083742470E+00  0.20018096453E+02  0.51100000000E-03 0.  1.
         12    1    3    3    0    0  0.48459743060E+01 -0.53572542254E+01 -0.59916654073E+01  0.93852913734E+01  0.00000000000E+00 0. -1.
</event>
<event>
 7    1  0.7819001E-012  0.5930189E+02  0.7816164E-02  0.1266605E+00
        -11   -1    0    0    0    0  0.00000000000E+00  0.00000000000E+00  0.45593999997E+02  0.45594000000E+02  0.51100000000E-03 0.  1.
         11   -1    0    0    0    0 -0.00000000000E+00 -0.00000000000E+00 -0.45593999997E+02  0.45594000000E+02  0.51100000000E-03 0. -1.
    9900012    2    1    2    0    0  0.79657410223E+01  0.20360330276E+02  0.23210519851E+02  0.59301885299E+02  0.49999892892E+02 0.  0.
         12    1    1    2    0    0 -0.79657410223E+01 -0.20360330276E+02 -0.23210519851E+02  0.31886114701E+02  0.00000000000E+00 0. -1.
         11    1    3    3    0    0 -0.11892849201E+02 -0.44686113683E+01 -0.51807085956E+01  0.13720353184E+02  0.51100000000E-03 0. -1.
        -11    1    3    3    0    0  0.12377487362E+02  0.22796232587E+02  0.14614442596E+02  0.29773349597E+02  0.51100000000E-03 0.  1.
         12    1    3    3    0    0  0.74811028614E+01  0.20327090566E+01  0.13776785851E+02  0.15808182517E+02  0.00000000000E+00 0. -1.
</event>
<event>
 7    1  0.7819001E-012  0.5930195E+02  0.7816164E-02  0.1266605E+00
        -11   -1    0    0    0    0  0.00000000000E+00  0.00000000000E+00  0.45593999997E+02  0.45594000000E+02  0.51100000000E-03 0.  1.
         11   -1    0    0    0    0 -0.00000000000E+00 -0.00000000000E+00 -0.45593999997E+02  0.45594000000E+02  0.51100000000E-03 0. -1.
    9900012    2    1    2    0    0  0.26521154107E+02  0.49899879055E+01  0.16983771567E+02  0.59301951466E+02  0.50000013566E+02 0.  0.
         12    1    1    2    0    0 -0.26521154107E+02 -0.49899879055E+01 -0.16983771567E+02  0.31886048534E+02  0.00000000000E+00 0. -1.
         11    1    3    3    0    0 -0.73928815783E+01  0.72622329001E+01  0.31354775646E+00  0.10367884894E+02  0.51100000000E-03 0. -1.
        -11    1    3    3    0    0  0.25661337951E+02 -0.63694682976E+01 -0.35847463333E+01  0.26681918941E+02  0.51100000000E-03 0.  1.
        -12    1    3    3    0    0  0.82526977346E+01  0.40972233031E+01  0.20254970144E+02  0.22252147631E+02  0.00000000000E+00 0.  1.
</event>
<event>
 7    1  0.7819001E-012  0.5930196E+02  0.7816164E-02  0.1266605E+00
        -11   -1    0    0    0    0  0.00000000000E+00  0.00000000000E+00  0.45593999997E+02  0.45594000000E+02  0.51100000000E-03 0.  1.
         11   -1    0    0    0    0 -0.00000000000E+00 -0.00000000000E+00 -0.45593999997E+02  0.45594000000E+02  0.51100000000E-03 0. -1.
    9900012    2    1    2    0    0  0.25983986129E+02 -0.12993679446E+02  0.13142164812E+02  0.59301957024E+02  0.50000023702E+02 0.  0.
         12    1    1    2    0    0 -0.25983986129E+02  0.12993679446E+02 -0.13142164812E+02  0.31886042976E+02  0.00000000000E+00 0. -1.
         11    1    3    3    0    0 -0.37991408747E+01  0.42788592318E+01  0.22409005081E+01  0.61452211563E+01  0.51100000000E-03 0. -1.
        -11    1    3    3    0    0  0.20380516754E+02  0.58529499011E+01 -0.71199549459E+01  0.22367750097E+02  0.51100000000E-03 0.  1.
        -12    1    3    3    0    0  0.94026102497E+01 -0.23125488579E+02  0.18021219250E+02  0.30788985771E+02  0.00000000000E+00 0.  1.
</event>
<event>
 7    1  0.7819001E-012  0.5930193E+02  0.7816164E-02  0.1266605E+00
        -11   -1    0    0    0    0  0.00000000000E+00  0.00000000000E+00  0.45593999997E+02  0.45594000000E+02  0.51100000000E-03 0. -1.
         11   -1    0    0    0    0 -0.00000000000E+00 -0.00000000000E+00 -0.45593999997E+02  0.45594000000E+02  0.51100000000E-03 0.  1.
    9900012    2    1    2    0    0 -0.13586624088E+02  0.18056707413E+02 -0.22496233850E+02  0.59301928210E+02  0.49999971153E+02 0.  0.
         12    1    1    2    0    0  0.13586624088E+02 -0.18056707413E+02  0.22496233850E+02  0.31886071790E+02  0.00000000000E+00 0. -1.
         11    1    3    3    0    0  0.71460659773E+01  0.10313759599E+02  0.38008713478E+01  0.13110549923E+02  0.51100000000E-03 0. -1.
        -11    1    3    3    0    0 -0.21112469736E+02  0.16891266830E+02 -0.25215987346E+02  0.36971574102E+02  0.51100000000E-03 0.  1.
        -12    1    3    3    0    0  0.37977967067E+00 -0.91483190155E+01 -0.10811178517E+01  0.92198041854E+01  0.00000000000E+00 0.  1.
</event>
<event>
 7    1  0.7819001E-012  0.5930198E+02  0.7816164E-02  0.1266605E+00
        -11   -1    0    0    0    0  0.00000000000E+00  0.00000000000E+00  0.45593999997E+02  0.45594000000E+02  0.51100000000E-03 0. -1.
         11   -1    0    0    0    0 -0.00000000000E+00 -0.00000000000E+00 -0.45593999997E+02  0.45594000000E+02  0.51100000000E-03 0.  1.
    9900012    2    1    2    0    0 -0.14153182335E+02  0.11778280986E+02 -0.26032249723E+02  0.59301976434E+02  0.50000059101E+02 0.  0.
         12    1    1    2    0    0  0.14153182335E+02 -0.11778280986E+02  0.26032249723E+02  0.31886023566E+02  0.00000000000E+00 0. -1.
         11    1    3    3    0    0 -0.34984920398E+01  0.72878889537E+01  0.12823729692E+02  0.15159182544E+02  0.51100000000E-03 0. -1.
        -11    1    3    3    0    0  0.19165046725E+01  0.12735300157E+01 -0.25199963971E+02  0.25304802968E+02  0.51100000000E-03 0.  1.
        -12    1    3    3    0    0 -0.12571194967E+02  0.32168620169E+01 -0.13656015444E+02  0.18837990921E+02  0.00000000000E+00 0.  1.
</event>
<event>
 7    1  0.7819001E-012  0.5930186E+02  0.7816164E-02  0.1266605E+00
        -11   -1    0    0    0    0  0.00000000000E+00  0.00000000000E+00  0.45593999997E+02  0.45594000000E+02  0.51100000000E-03 0.  1.
         11   -1    0    0    0    0 -0.00000000000E+00 -0.00000000000E+00 -0.45593999997E+02  0.45594000000E+02  0.51100000000E-03 0. -1.
    9900012    2    1    2    0    0  0.28430061065E+02 -0.12551985329E+02  0.71347916002E+01  0.59301859452E+02  0.49999845754E+02 0.  0.
         12    1    1    2    0    0 -0.28430061065E+02  0.12551985329E+02 -0.71347916002E+01  0.31886140548E+02  0.00000000000E+00 0. -1.
         11    1    3    3    0    0  0.34132565561E+02 -0.87810477875E+01  0.16123146871E+02  0.38756866454E+02  0.51100000000E-03 0. -1.
        -11    1    3    3    0    0 -0.10495870580E+02 -0.58058761896E+01 -0.25471919040E+01  0.12262123977E+02  0.51100000000E-03 0.  1.
         12    1    3    3    0    0  0.47933660836E+01  0.20349386482E+01 -0.64411633668E+01  0.82828690217E+01  0.00000000000E+00 0. -1.
</event>
<event>
 7    1  0.7819001E-012  0.5930192E+02  0.7816164E-02  0.1266605E+00
        -11   -1    0    0    0    0  0.00000000000E+00  0.00000000000E+00  0.45593999997E+02  0.45594000000E+02  0.51100000000E-03 0.  1.
         11   -1    0    0    0    0 -0.00000000000E+00 -0.00000000000E+00 -0.45593999997E+02  0.45594000000E+02  0.51100000000E-03 0. -1.
    9900012    2    1    2    0    0 -0.24400863144E+02 -0.18703053525E+02  0.84567124556E+01  0.59301916532E+02  0.49999949855E+02 0.  0.
         12    1    1    2    0    0  0.24400863144E+02  0.18703053525E+02 -0.84567124556E+01  0.31886083468E+02  0.00000000000E+00 0. -1.
         11    1    3    3    0    0 -0.20954392679E+02  0.51152368693E+01 -0.11424418379E+02  0.24408391105E+02  0.51100000000E-03 0. -1.
        -11    1    3    3    0    0 -0.79447170258E+01 -0.11194707945E+02  0.43943448894E+01  0.14413545083E+02  0.51100000000E-03 0.  1.
         12    1    3    3    0    0  0.44982465602E+01 -0.12623582450E+02  0.15486785946E+02  0.20479980344E+02  0.00000000000E+00 0. -1.
</event>
<event>
 7    1  0.7819001E-012  0.5930184E+02  0.7816164E-02  0.1266605E+00
        -11   -1    0    0    0    0  0.00000000000E+00  0.00000000000E+00  0.45593999997E+02  0.45594000000E+02  0.51100000000E-03 0.  1.
         11   -1    0    0    0    0 -0.00000000000E+00 -0.00000000000E+00 -0.45593999997E+02  0.45594000000E+02  0.51100000000E-03 0. -1.
    9900012    2    1    2    0    0 -0.72534910507E+01 -0.23121766391E+02  0.20724329032E+02  0.59301842701E+02  0.49999815204E+02 0.  0.
         12    1    1    2    0    0  0.72534910507E+01  0.23121766391E+02 -0.20724329032E+02  0.31886157299E+02  0.00000000000E+00 0. -1.
         11    1    3    3    0    0 -0.18621809615E+02 -0.14618756397E+02 -0.97380639909E+01  0.25599017998E+02  0.51100000000E-03 0. -1.
        -11    1    3    3    0    0  0.53658794874E+01 -0.45824448939E+01  0.12359623566E+02  0.14232067975E+02  0.51100000000E-03 0.  1.
         12    1    3    3    0    0  0.60024390765E+01 -0.39205651006E+01  0.18102769457E+02  0.19470756728E+02  0.00000000000E+00 0. -1.
</event>
<event>
 7    1  0.7819001E-012  0.5930192E+02  0.7816164E-02  0.1266605E+00
        -11   -1    0    0    0    0  0.00000000000E+00  0.00000000000E+00  0.45593999997E+02  0.45594000000E+02  0.51100000000E-03 0. -1.
         11   -1    0    0    0    0 -0.00000000000E+00 -0.00000000000E+00 -0.45593999997E+02  0.45594000000E+02  0.51100000000E-03 0.  1.
    9900012    2    1    2    0    0  0.23509866638E+02 -0.17330537156E+02 -0.12792992123E+02  0.59301921612E+02  0.49999959120E+02 0.  0.
         12    1    1    2    0    0 -0.23509866638E+02  0.17330537156E+02  0.12792992123E+02  0.31886078388E+02  0.00000000000E+00 0. -1.
         11    1    3    3    0    0  0.30863474323E+02 -0.15035626194E+02 -0.60407800049E+01  0.34858501484E+02  0.51100000000E-03 0. -1.
        -11    1    3    3    0    0 -0.10446125906E+02  0.77253075273E+01 -0.33265185385E+01  0.13411474515E+02  0.51100000000E-03 0.  1.
        -12    1    3    3    0    0  0.30925182206E+01 -0.10020218489E+02 -0.34256935801E+01  0.11031945613E+02  0.00000000000E+00 0.  1.
</event>
<event>
 7    1  0.7819001E-012  0.5930194E+02  0.7816164E-02  0.1266605E+00
        -11   -1    0    0    0    0  0.00000000000E+00  0.00000000000E+00  0.45593999997E+02  0.45594000000E+02  0.51100000000E-03 0.  1.
         11   -1    0    0    0    0 -0.00000000000E+00 -0.00000000000E+00 -0.45593999997E+02  0.45594000000E+02  0.51100000000E-03 0. -1.
    9900012    2    1    2    0    0 -0.25434804825E+01 -0.11808290232E+02  0.29509583801E+02  0.59301944313E+02  0.50000000521E+02 0.  0.
         12    1    1    2    0    0  0.25434804825E+01  0.11808290232E+02 -0.29509583801E+02  0.31886055687E+02  0.00000000000E+00 0. -1.
         11    1    3    3    0    0 -0.22151702635E+02  0.55608740446E+01  0.17776175552E+02  0.28941556062E+02  0.51100000000E-03 0. -1.
        -11    1    3    3    0    0  0.18151496079E+02 -0.14137625443E+02  0.13198880707E+02  0.26524700097E+02  0.51100000000E-03 0.  1.
        -12    1    3    3    0    0  0.14567260736E+01 -0.32315388338E+01 -0.14654724591E+01  0.38356881542E+01  0.00000000000E+00 0.  1.
</event>
<event>
 7    1  0.7819001E-012  0.5930194E+02  0.7816164E-02  0.1266605E+00
        -11   -1    0    0    0    0  0.00000000000E+00  0.00000000000E+00  0.45593999997E+02  0.45594000000E+02  0.51100000000E-03 0. -1.
         11   -1    0    0    0    0 -0.00000000000E+00 -0.00000000000E+00 -0.45593999997E+02  0.45594000000E+02  0.51100000000E-03 0.  1.
    9900012    2    1    2    0    0  0.20851651499E+02  0.21101356683E+02 -0.11690252254E+02  0.59301943143E+02  0.49999998387E+02 0.  0.
         12    1    1    2    0    0 -0.20851651499E+02 -0.21101356683E+02  0.11690252254E+02  0.31886056857E+02  0.00000000000E+00 0. -1.
         11    1    3    3    0    0 -0.21893564292E+01 -0.74793929501E+01  0.71544496202E+01  0.10579260376E+02  0.51100000000E-03 0. -1.
        -11    1    3    3    0    0  0.14928820090E+02  0.73042648626E+01 -0.19900356043E+02  0.25927709605E+02  0.51100000000E-03 0.  1.
        -12    1    3    3    0    0  0.81121878389E+01  0.21276484771E+02  0.10556541690E+01  0.22794973162E+02  0.00000000000E+00 0.  1.
</event>
<event>
 7    1  0.7819001E-012  0.5930195E+02  0.7816164E-02  0.1266605E+00
        -11   -1    0    0    0    0  0.00000000000E+00  0.00000000000E+00  0.45593999997E+02  0.45594000000E+02  0.51100000000E-03 0.  1.
         11   -1    0    0    0    0 -0.00000000000E+00 -0.00000000000E+00 -0.45593999997E+02  0.45594000000E+02  0.51100000000E-03 0. -1.
    9900012    2    1    2    0    0 -0.15481423000E+02  0.14758864637E+02  0.23647865908E+02  0.59301951241E+02  0.50000013156E+02 0.  0.
         12    1    1    2    0    0  0.15481423000E+02 -0.14758864637E+02 -0.23647865908E+02  0.31886048759E+02  0.00000000000E+00 0. -1.
         11    1    3    3    0    0 -0.11284056018E+02 -0.12341885378E+02  0.22326801311E+02  0.27895127028E+02  0.51100000000E-03 0. -1.
        -11    1    3    3    0    0 -0.41929484189E+01  0.19087488356E+02 -0.61128641729E+01  0.20476331138E+02  0.51100000000E-03 0.  1.
        -12    1    3    3    0    0 -0.44185628688E-02  0.80132616578E+01  0.74339287694E+01  0.10930493075E+02  0.00000000000E+00 0.  1.
</event>
<event>
 7    1  0.7819001E-012  0.5930197E+02  0.7816164E-02  0.1266605E+00
        -11   -1    0    0    0    0  0.00000000000E+00  0.00000000000E+00  0.45593999997E+02  0.45594000000E+02  0.51100000000E-03 0.  1.
         11   -1    0    0    0    0 -0.00000000000E+00 -0.00000000000E+00 -0.45593999997E+02  0.45594000000E+02  0.51100000000E-03 0. -1.
    9900012    2    1    2    0    0  0.12935458616E+02 -0.28913624982E+02 -0.36599315625E+01  0.59301970171E+02  0.50000047679E+02 0.  0.
         12    1    1    2    0    0 -0.12935458616E+02  0.28913624982E+02  0.36599315625E+01  0.31886029829E+02  0.00000000000E+00 0. -1.
         11    1    3    3    0    0 -0.12367394173E+02 -0.26581295992E+02 -0.91113098899E+01  0.30700711774E+02  0.51100000000E-03 0. -1.
        -11    1    3    3    0    0  0.57238259211E+01 -0.24413962940E+01  0.64940548251E+01  0.89941840859E+01  0.51100000000E-03 0.  1.
         12    1    3    3    0    0  0.19579026868E+02  0.10906730380E+00 -0.10426764977E+01  0.19607074311E+02  0.00000000000E+00 0. -1.
</event>
<event>
 7    1  0.7819001E-012  0.5930195E+02  0.7816164E-02  0.1266605E+00
        -11   -1    0    0    0    0  0.00000000000E+00  0.00000000000E+00  0.45593999997E+02  0.45594000000E+02  0.51100000000E-03 0. -1.
         11   -1    0    0    0    0 -0.00000000000E+00 -0.00000000000E+00 -0.45593999997E+02  0.45594000000E+02  0.51100000000E-03 0.  1.
    9900012    2    1    2    0    0 -0.29402624198E+01 -0.14373592154E+02 -0.28310330999E+02  0.59301950765E+02  0.50000012288E+02 0.  0.
         12    1    1    2    0    0  0.29402624198E+01  0.14373592154E+02  0.28310330999E+02  0.31886049235E+02  0.00000000000E+00 0. -1.
         11    1    3    3    0    0 -0.21371482720E+02 -0.41097456733E+01 -0.23517788292E+02  0.32042419533E+02  0.51100000000E-03 0. -1.
        -11    1    3    3    0    0  0.17120854895E+02 -0.13447800926E+02 -0.73418556342E+01  0.22975418744E+02  0.51100000000E-03 0.  1.
        -12    1    3    3    0    0  0.13103654056E+01  0.31839544454E+01  0.25493129270E+01  0.42841124876E+01  0.00000000000E+00 0.  1.
</event>
<event>
 7    1  0.7819001E-012  0.5930163E+02  0.7816164E-02  0.1266606E+00
        -11   -1    0    0    0    0  0.00000000000E+00  0.00000000000E+00  0.45593999997E+02  0.45594000000E+02  0.51100000000E-03 0.  1.
         11   -1    0    0    0    0 -0.00000000000E+00 -0.00000000000E+00 -0.45593999997E+02  0.45594000000E+02  0.51100000000E-03 0. -1.
    9900012    2    1    2    0    0  0.18977888063E+02 -0.10921486990E+02  0.23179757818E+02  0.59301634797E+02  0.49999436034E+02 0.  0.
         12    1    1    2    0    0 -0.18977888063E+02  0.10921486990E+02 -0.23179757818E+02  0.31886365203E+02  0.00000000000E+00 0. -1.
         11    1    3    3    0    0 -0.10511097163E+02  0.84169644364E+01  0.79213591461E+01  0.15622944181E+02  0.51100000000E-03 0. -1.
        -11    1    3    3    0    0  0.17090605998E+02 -0.15729727046E+02 -0.59102527810E+00  0.23234940014E+02  0.51100000000E-03 0.  1.
        -12    1    3    3    0    0  0.12398379227E+02 -0.36087243803E+01  0.15849423950E+02  0.20443750602E+02  0.00000000000E+00 0.  1.
</event>
<event>
 7    1  0.7819001E-012  0.5930206E+02  0.7816164E-02  0.1266604E+00
        -11   -1    0    0    0    0  0.00000000000E+00  0.00000000000E+00  0.45593999997E+02  0.45594000000E+02  0.51100000000E-03 0. -1.
         11   -1    0    0    0    0 -0.00000000000E+00 -0.00000000000E+00 -0.45593999997E+02  0.45594000000E+02  0.51100000000E-03 0.  1.
    9900012    2    1    2    0    0  0.27649705844E+00  0.31273003137E+02  0.62157705453E+01  0.59302062985E+02  0.50000216949E+02 0.  0.
         12    1    1    2    0    0 -0.27649705844E+00 -0.31273003137E+02 -0.62157705453E+01  0.31885937015E+02  0.00000000000E+00 0. -1.
         11    1    3    3    0    0  0.24925581647E+01  0.32621799079E+02 -0.35357439825E+01  0.32907386817E+02  0.51100000000E-03 0. -1.
        -11    1    3    3    0    0 -0.96171417561E+01  0.79363163351E+01  0.66080787551E+01  0.14111741127E+02  0.51100000000E-03 0.  1.
         12    1    3    3    0    0  0.74010806499E+01 -0.92851122767E+01  0.31434357727E+01  0.12282935042E+02  0.00000000000E+00 0. -1.
</event>
<event>
 7    1  0.7819001E-012  0.5930193E+02  0.7816164E-02  0.1266605E+00
        -11   -1    0    0    0    0  0.00000000000E+00  0.00000000000E+00  0.45593999997E+02  0.45594000000E+02  0.51100000000E-03 0.  1.
         11   -1    0    0    0    0 -0.00000000000E+00 -0.00000000000E+00 -0.45593999997E+02  0.45594000000E+02  0.51100000000E-03 0. -1.
    9900012    2    1    2    0    0 -0.97031587028E+01 -0.29959471510E+02 -0.50000040462E+01  0.59301933099E+02  0.49999980068E+02 0.  0.
         12    1    1    2    0    0  0.97031587028E+01  0.29959471510E+02  0.50000040462E+01  0.31886066901E+02  0.00000000000E+00 0. -1.
         11    1    3    3    0    0 -0.40107733047E+01  0.11854210740E+02 -0.10232968872E+02  0.16165465256E+02  0.51100000000E-03 0. -1.
        -11    1    3    3    0    0 -0.27631534064E+01 -0.22043190042E+02  0.63907782274E+01  0.23116645314E+02  0.51100000000E-03 0.  1.
         12    1    3    3    0    0 -0.29292319917E+01 -0.19770492207E+02 -0.11578134017E+01  0.20019822528E+02  0.00000000000E+00 0. -1.
</event>
<event>
 7    1  0.7819001E-012  0.5930197E+02  0.7816164E-02  0.1266605E+00
        -11   -1    0    0    0    0  0.00000000000E+00  0.00000000000E+00  0.45593999997E+02  0.45594000000E+02  0.51100000000E-03 0.  1.
         11   -1    0    0    0    0 -0.00000000000E+00 -0.00000000000E+00 -0.45593999997E+02  0.45594000000E+02  0.51100000000E-03 0. -1.
    9900012    2    1    2    0    0  0.42446158772E+01 -0.29604041086E+02  0.11059056740E+02  0.59301972519E+02  0.50000051961E+02 0.  0.
         12    1    1    2    0    0 -0.42446158772E+01  0.29604041086E+02 -0.11059056740E+02  0.31886027481E+02  0.00000000000E+00 0. -1.
         11    1    3    3    0    0 -0.13710039911E+02 -0.19919705503E+02 -0.75546713518E+01  0.25334421667E+02  0.51100000000E-03 0. -1.
        -11    1    3    3    0    0  0.16977798247E+02 -0.23251865522E+01  0.20082466502E+02  0.26399954297E+02  0.51100000000E-03 0.  1.
         12    1    3    3    0    0  0.97685754176E+00 -0.73591490303E+01 -0.14687384102E+01  0.75675965553E+01  0.00000000000E+00 0. -1.
</event>
<event>
 7    1  0.7819001E-012  0.5930190E+02  0.7816164E-02  0.1266605E+00
        -11   -1    0    0    0    0  0.00000000000E+00  0.00000000000E+00  0.45593999997E+02  0.45594000000E+02  0.51100000000E-03 0. -1.
         11   -1    0    0    0    0 -0.00000000000E+00 -0.00000000000E+00 -0.45593999997E+02  0.45594000000E+02  0.51100000000E-03 0.  1.
    9900012    2    1    2    0    0  0.72122117337E+01  0.13551085520E+02 -0.27947722778E+02  0.59301903887E+02  0.49999926793E+02 0.  0.
         12    1    1    2    0    0 -0.72122117337E+01 -0.13551085520E+02  0.27947722778E+02  0.31886096113E+02  0.00000000000E+00 0. -1.
         11    1    3    3    0    0 -0.31290478755E+01  0.23943934466E+02 -0.30798409628E+02  0.39136236075E+02  0.51100000000E-03 0.  1.
        -11    1    3    3    0    0  0.11573641886E+02 -0.10705665948E+02 -0.13051020325E+01  0.15819726972E+02  0.51100000000E-03 0. -1.
        -12    1    3    3    0    0 -0.12323822764E+01  0.31281700189E+00  0.41557888818E+01  0.43459408397E+01  0.00000000000E+00 0.  1.
</event>
<event>
 7    1  0.7819001E-012  0.5930199E+02  0.7816164E-02  0.1266605E+00
        -11   -1    0    0    0    0  0.00000000000E+00  0.00000000000E+00  0.45593999997E+02  0.45594000000E+02  0.51100000000E-03 0. -1.
         11   -1    0    0    0    0 -0.00000000000E+00 -0.00000000000E+00 -0.45593999997E+02  0.45594000000E+02  0.51100000000E-03 0.  1.
    9900012    2    1    2    0    0  0.19950713463E-01 -0.29896080422E+02 -0.11087913422E+02  0.59301986661E+02  0.50000077752E+02 0.  0.
         12    1    1    2    0    0 -0.19950713463E-01  0.29896080422E+02  0.11087913422E+02  0.31886013339E+02  0.00000000000E+00 0. -1.
         11    1    3    3    0    0  0.19325822016E+02 -0.93461327153E+01 -0.26546115722E+01  0.21630639292E+02  0.51100000000E-03 0. -1.
        -11    1    3    3    0    0 -0.13914080321E+02 -0.18034440936E+01  0.39379539724E+01  0.14572629259E+02  0.51100000000E-03 0.  1.
         12    1    3    3    0    0 -0.53917909811E+01 -0.18746503613E+02 -0.12371255822E+02  0.23098718110E+02  0.00000000000E+00 0. -1.
</event>
<event>
 7    1  0.7819001E-012  0.5930195E+02  0.7816164E-02  0.1266605E+00
        -11   -1    0    0    0    0  0.00000000000E+00  0.00000000000E+00  0.45593999997E+02  0.45594000000E+02  0.51100000000E-03 0.  1.
         11   -1    0    0    0    0 -0.00000000000E+00 -0.00000000000E+00 -0.45593999997E+02  0.45594000000E+02  0.51100000000E-03 0. -1.
    9900012    2    1    2    0    0  0.21602945869E+00 -0.20162345802E+02  0.24701284809E+02  0.59301947749E+02  0.50000006786E+02 0.  0.
         12    1    1    2    0    0 -0.21602945869E+00  0.20162345802E+02 -0.24701284809E+02  0.31886052251E+02  0.00000000000E+00 0. -1.
         11    1    3    3    0    0  0.20894517778E+02 -0.14498852158E+02  0.41683471460E+01  0.25771548368E+02  0.51100000000E-03 0. -1.
        -11    1    3    3    0    0 -0.11364190779E+02 -0.10733676345E+02  0.14543230852E+02  0.21350929812E+02  0.51100000000E-03 0.  1.
         12    1    3    3    0    0 -0.93142975409E+01  0.50701827014E+01  0.59897068103E+01  0.12179469569E+02  0.00000000000E+00 0. -1.
</event>
<event>
 7    1  0.7819001E-012  0.5930192E+02  0.7816164E-02  0.1266605E+00
        -11   -1    0    0    0    0  0.00000000000E+00  0.00000000000E+00  0.45593999997E+02  0.45594000000E+02  0.51100000000E-03 0. -1.
         11   -1    0    0    0    0 -0.00000000000E+00 -0.00000000000E+00 -0.45593999997E+02  0.45594000000E+02  0.51100000000E-03 0.  1.
    9900012    2    1    2    0    0  0.25817485008E+01  0.30284956529E+02 -0.96373378214E+01  0.59301916867E+02  0.49999950466E+02 0.  0.
         12    1    1    2    0    0 -0.25817485008E+01 -0.30284956529E+02  0.96373378214E+01  0.31886083133E+02  0.00000000000E+00 0. -1.
         11    1    3    3    0    0 -0.27359814416E+01 -0.67436463146E+01  0.51402966897E+01  0.89098266192E+01  0.51100000000E-03 0. -1.
        -11    1    3    3    0    0 -0.91771838343E+01  0.28046175211E+02 -0.29868280767E+01  0.29660239199E+02  0.51100000000E-03 0.  1.
        -12    1    3    3    0    0  0.14494913777E+02  0.89824276321E+01 -0.11790806434E+02  0.20731851049E+02  0.00000000000E+00 0.  1.
</event>
<event>
 7    1  0.7819001E-012  0.5930197E+02  0.7816164E-02  0.1266605E+00
        -11   -1    0    0    0    0  0.00000000000E+00  0.00000000000E+00  0.45593999997E+02  0.45594000000E+02  0.51100000000E-03 0.  1.
         11   -1    0    0    0    0 -0.00000000000E+00 -0.00000000000E+00 -0.45593999997E+02  0.45594000000E+02  0.51100000000E-03 0. -1.
    9900012    2    1    2    0    0  0.15360217749E+02  0.18408464302E+02  0.21021677287E+02  0.59301972289E+02  0.50000051541E+02 0.  0.
         12    1    1    2    0    0 -0.15360217749E+02 -0.18408464302E+02 -0.21021677287E+02  0.31886027711E+02  0.00000000000E+00 0. -1.
         11    1    3    3    0    0 -0.14270008639E+02  0.11733233324E+02  0.78685227412E+00  0.18491107255E+02  0.51100000000E-03 0.  1.
        -11    1    3    3    0    0  0.27502690691E+02 -0.85445271781E+00  0.14444378197E+02  0.31076810429E+02  0.51100000000E-03 0. -1.
         12    1    3    3    0    0  0.21275356967E+01  0.75296836963E+01  0.57904468158E+01  0.97340546040E+01  0.00000000000E+00 0. -1.
</event>
<event>
 7    1  0.7819001E-012  0.5930196E+02  0.7816164E-02  0.1266605E+00
        -11   -1    0    0    0    0  0.00000000000E+00  0.00000000000E+00  0.45593999997E+02  0.45594000000E+02  0.51100000000E-03 0. -1.
         11   -1    0    0    0    0 -0.00000000000E+00 -0.00000000000E+00 -0.45593999997E+02  0.45594000000E+02  0.51100000000E-03 0.  1.
    9900012    2    1    2    0    0 -0.11566871732E+02  0.14748941189E+02 -0.25795262436E+02  0.59301963056E+02  0.50000034704E+02 0.  0.
         12    1    1    2    0    0  0.11566871732E+02 -0.14748941189E+02  0.25795262436E+02  0.31886036944E+02  0.00000000000E+00 0. -1.
         11    1    3    3    0    0 -0.47284225556E+01  0.65559600077E+01  0.11734431575E+02  0.14249051762E+02  0.51100000000E-03 0. -1.
        -11    1    3    3    0    0 -0.14151108995E+02  0.97796877836E+01 -0.28889321828E+02  0.33622746688E+02  0.51100000000E-03 0.  1.
        -12    1    3    3    0    0  0.73126598185E+01 -0.15867066025E+01 -0.86403721823E+01  0.11430164606E+02  0.00000000000E+00 0.  1.
</event>
<event>
 7    1  0.7819001E-012  0.5930195E+02  0.7816164E-02  0.1266605E+00
        -11   -1    0    0    0    0  0.00000000000E+00  0.00000000000E+00  0.45593999997E+02  0.45594000000E+02  0.51100000000E-03 0. -1.
         11   -1    0    0    0    0 -0.00000000000E+00 -0.00000000000E+00 -0.45593999997E+02  0.45594000000E+02  0.51100000000E-03 0.  1.
    9900012    2    1    2    0    0 -0.13350400002E+02 -0.14263288459E+02 -0.25200111088E+02  0.59301950123E+02  0.50000011117E+02 0.  0.
         12    1    1    2    0    0  0.13350400002E+02  0.14263288459E+02  0.25200111088E+02  0.31886049877E+02  0.00000000000E+00 0. -1.
         11    1    3    3    0    0 -0.11883978326E+02  0.13576674192E+02  0.39774351791E+01  0.18476336591E+02  0.51100000000E-03 0. -1.
        -11    1    3    3    0    0 -0.11092186164E+01 -0.54082670652E+00 -0.15898634558E+01  0.20125917456E+01  0.51100000000E-03 0.  1.
         12    1    3    3    0    0 -0.35720305997E+00 -0.27299135944E+02 -0.27587682811E+02  0.38813021787E+02  0.00000000000E+00 0. -1.
</event>
<event>
 7    1  0.7819001E-012  0.5930194E+02  0.7816164E-02  0.1266605E+00
        -11   -1    0    0    0    0  0.00000000000E+00  0.00000000000E+00  0.45593999997E+02  0.45594000000E+02  0.51100000000E-03 0. -1.
         11   -1    0    0    0    0 -0.00000000000E+00 -0.00000000000E+00 -0.45593999997E+02  0.45594000000E+02  0.51100000000E-03 0.  1.
    9900012    2    1    2    0    0  0.21017872159E+02  0.41978142324E+01 -0.23608222993E+02  0.59301940549E+02  0.49999993656E+02 0.  0.
         12    1    1    2    0    0 -0.21017872159E+02 -0.41978142324E+01  0.23608222993E+02  0.31886059451E+02  0.00000000000E+00 0. -1.
         11    1    3    3    0    0 -0.79690203123E+01 -0.47014789776E+01 -0.27056224971E+02  0.28594553664E+02  0.51100000000E-03 0. -1.
        -11    1    3    3    0    0  0.18315666207E+02  0.63867526705E+01  0.36734262178E+01  0.19742043935E+02  0.51100000000E-03 0.  1.
         12    1    3    3    0    0  0.10671226264E+02  0.25125405394E+01 -0.22542423999E+00  0.10965342951E+02  0.00000000000E+00 0. -1.
</event>
<event>
 7    1  0.7819001E-012  0.5930191E+02  0.7816164E-02  0.1266605E+00
        -11   -1    0    0    0    0  0.00000000000E+00  0.00000000000E+00  0.45593999997E+02  0.45594000000E+02  0.51100000000E-03 0.  1.
         11   -1    0    0    0    0 -0.00000000000E+00 -0.00000000000E+00 -0.45593999997E+02  0.45594000000E+02  0.51100000000E-03 0. -1.
    9900012    2    1    2    0    0  0.19619034605E+02  0.36876974337E+01  0.24863970877E+02  0.59301910886E+02  0.49999939558E+02 0.  0.
         12    1    1    2    0    0 -0.19619034605E+02 -0.36876974337E+01 -0.24863970877E+02  0.31886089114E+02  0.00000000000E+00 0. -1.
         11    1    3    3    0    0  0.16088634495E+02 -0.82331074650E+01 -0.74470142016E+01  0.19547026352E+02  0.51100000000E-03 0. -1.
        -11    1    3    3    0    0 -0.56524707063E+01 -0.90308369107E+00  0.16317001112E+02  0.17291920390E+02  0.51100000000E-03 0.  1.
         12    1    3    3    0    0  0.91828708167E+01  0.12823888590E+02  0.15993983967E+02  0.22462964144E+02  0.00000000000E+00 0. -1.
</event>
<event>
 7    1  0.7819001E-012  0.5930188E+02  0.7816164E-02  0.1266605E+00
        -11   -1    0    0    0    0  0.00000000000E+00  0.00000000000E+00  0.45593999997E+02  0.45594000000E+02  0.51100000000E-03 0.  1.
         11   -1    0    0    0    0 -0.00000000000E+00 -0.00000000000E+00 -0.45593999997E+02  0.45594000000E+02  0.51100000000E-03 0. -1.
    9900012    2    1    2    0    0 -0.29830875999E+02  0.99632181768E+01  0.52514333616E+01  0.59301883403E+02  0.49999889435E+02 0.  0.
         12    1    1    2    0    0  0.29830875999E+02 -0.99632181768E+01 -0.52514333616E+01  0.31886116597E+02  0.00000000000E+00 0. -1.
         11    1    3    3    0    0 -0.17889455086E+02  0.18818528100E+02 -0.11919089051E+02  0.28569814266E+02  0.51100000000E-03 0. -1.
        -11    1    3    3    0    0  0.78494902736E+00 -0.49725495531E+01  0.16673936358E+02  0.17417305990E+02  0.51100000000E-03 0.  1.
         12    1    3    3    0    0 -0.12726369940E+02 -0.38827603705E+01  0.49658605431E+00  0.13314763147E+02  0.00000000000E+00 0. -1.
</event>
<event>
 7    1  0.7819001E-012  0.5930194E+02  0.7816164E-02  0.1266605E+00
        -11   -1    0    0    0    0  0.00000000000E+00  0.00000000000E+00  0.45593999997E+02  0.45594000000E+02  0.51100000000E-03 0.  1.
         11   -1    0    0    0    0 -0.00000000000E+00 -0.00000000000E+00 -0.45593999997E+02  0.45594000000E+02  0.51100000000E-03 0. -1.
    9900012    2    1    2    0    0  0.21100737092E+02 -0.32650047864E+01  0.23681624766E+02  0.59301941704E+02  0.49999995762E+02 0.  0.
         12    1    1    2    0    0 -0.21100737092E+02  0.32650047864E+01 -0.23681624766E+02  0.31886058296E+02  0.00000000000E+00 0. -1.
         11    1    3    3    0    0  0.26806240491E+01  0.10270130385E+02  0.27082544505E+02  0.29088237151E+02  0.51100000000E-03 0. -1.
        -11    1    3    3    0    0  0.20034644650E+02 -0.12012054043E+02  0.28945969076E+01  0.23538375477E+02  0.51100000000E-03 0.  1.
        -12    1    3    3    0    0 -0.16145316077E+01 -0.15230811290E+01 -0.62955166459E+01  0.66753290763E+01  0.00000000000E+00 0.  1.
</event>
<event>
 7    1  0.7819001E-012  0.5930191E+02  0.7816164E-02  0.1266605E+00
        -11   -1    0    0    0    0  0.00000000000E+00  0.00000000000E+00  0.45593999997E+02  0.45594000000E+02  0.51100000000E-03 0. -1.
         11   -1    0    0    0    0 -0.00000000000E+00 -0.00000000000E+00 -0.45593999997E+02  0.45594000000E+02  0.51100000000E-03 0.  1.
    9900012    2    1    2    0    0 -0.23764947298E+02  0.16250649411E+02  0.13706445300E+02  0.59301906337E+02  0.49999931261E+02 0.  0.
         12    1    1    2    0    0  0.23764947298E+02 -0.16250649411E+02 -0.13706445300E+02  0.31886093663E+02  0.00000000000E+00 0. -1.
         11    1    3    3    0    0 -0.52305904991E+01 -0.33205763262E+01  0.20144805455E+02  0.21076016967E+02  0.51100000000E-03 0. -1.
        -11    1    3    3    0    0 -0.54454595000E+01  0.56313956137E+01 -0.15270837706E+02  0.17162870687E+02  0.51100000000E-03 0.  1.
         12    1    3    3    0    0 -0.13088897299E+02  0.13939830124E+02  0.88324775502E+01  0.21063018683E+02  0.00000000000E+00 0. -1.
</event>
<event>
 7    1  0.7819001E-012  0.5930204E+02  0.7816164E-02  0.1266604E+00
        -11   -1    0    0    0    0  0.00000000000E+00  0.00000000000E+00  0.45593999997E+02  0.45594000000E+02  0.51100000000E-03 0. -1.
         11   -1    0    0    0    0 -0.00000000000E+00 -0.00000000000E+00 -0.45593999997E+02  0.45594000000E+02  0.51100000000E-03 0.  1.
    9900012    2    1    2    0    0 -0.17535712729E+02  0.14037525403E+02 -0.22630978884E+02  0.59302038424E+02  0.50000172156E+02 0.  0.
         12    1    1    2    0    0  0.17535712729E+02 -0.14037525403E+02  0.22630978884E+02  0.31885961576E+02  0.00000000000E+00 0. -1.
         11    1    3    3    0    0  0.70634482856E+01 -0.12872857733E+01 -0.37484178661E+01  0.80993853536E+01  0.51100000000E-03 0. -1.
        -11    1    3    3    0    0 -0.33030977108E+02  0.45149775628E+01 -0.97672485632E+01  0.34739453304E+02  0.51100000000E-03 0.  1.
        -12    1    3    3    0    0  0.84318160935E+01  0.10809833614E+02 -0.91153124551E+01  0.16463199766E+02  0.00000000000E+00 0.  1.
</event>
<event>
 7    1  0.7819001E-012  0.5930195E+02  0.7816164E-02  0.1266605E+00
        -11   -1    0    0    0    0  0.00000000000E+00  0.00000000000E+00  0.45593999997E+02  0.45594000000E+02  0.51100000000E-03 0.  1.
         11   -1    0    0    0    0 -0.00000000000E+00 -0.00000000000E+00 -0.45593999997E+02  0.45594000000E+02  0.51100000000E-03 0. -1.
    9900012    2    1    2    0    0  0.26831345052E+02  0.10318052253E+02  0.13796275076E+02  0.59301945280E+02  0.50000002285E+02 0.  0.
         12    1    1    2    0    0 -0.26831345052E+02 -0.10318052253E+02 -0.13796275076E+02  0.31886054720E+02  0.00000000000E+00 0. -1.
         11    1    3    3    0    0 -0.41643515931E+01  0.72304821515E+01 -0.11935374954E+02  0.14562790663E+02  0.51100000000E-03 0. -1.
        -11    1    3    3    0    0  0.97161388480E+01 -0.66496908082E+01  0.14795141477E+02  0.18908145164E+02  0.51100000000E-03 0.  1.
         12    1    3    3    0    0  0.21279557797E+02  0.97372609096E+01  0.10936508553E+02  0.25831009454E+02  0.00000000000E+00 0. -1.
</event>
<event>
 7    1  0.7819001E-012  0.5930195E+02  0.7816164E-02  0.1266605E+00
        -11   -1    0    0    0    0  0.00000000000E+00  0.00000000000E+00  0.45593999997E+02  0.45594000000E+02  0.51100000000E-03 0. -1.
         11   -1    0    0    0    0 -0.00000000000E+00 -0.00000000000E+00 -0.45593999997E+02  0.45594000000E+02  0.51100000000E-03 0.  1.
    9900012    2    1    2    0    0 -0.20417310760E+02  0.64733982431E+01 -0.23620942243E+02  0.59301947000E+02  0.50000005420E+02 0.  0.
         12    1    1    2    0    0  0.20417310760E+02 -0.64733982431E+01  0.23620942243E+02  0.31886053000E+02  0.00000000000E+00 0. -1.
         11    1    3    3    0    0 -0.13503562804E+02 -0.12528331067E+02 -0.40945286452E+00  0.18424791441E+02  0.51100000000E-03 0. -1.
        -11    1    3    3    0    0 -0.95967917224E+01  0.10816736325E+02 -0.27638372933E+02  0.31192625005E+02  0.51100000000E-03 0.  1.
         12    1    3    3    0    0  0.26830437663E+01  0.81849929861E+01  0.44268835546E+01  0.96845305534E+01  0.00000000000E+00 0. -1.
</event>
<event>
 7    1  0.7819001E-012  0.5930199E+02  0.7816164E-02  0.1266605E+00
        -11   -1    0    0    0    0  0.00000000000E+00  0.00000000000E+00  0.45593999997E+02  0.45594000000E+02  0.51100000000E-03 0. -1.
         11   -1    0    0    0    0 -0.00000000000E+00 -0.00000000000E+00 -0.45593999997E+02  0.45594000000E+02  0.51100000000E-03 0.  1.
    9900012    2    1    2    0    0 -0.58412709929E+01  0.31158513734E+02 -0.34269881439E+01  0.59301989389E+02  0.50000082728E+02 0.  0.
         12    1    1    2    0    0  0.58412709929E+01 -0.31158513734E+02  0.34269881439E+01  0.31886010611E+02  0.00000000000E+00 0. -1.
         11    1    3    3    0    0  0.14341728656E+02  0.14598589844E+02 -0.40123372949E+01  0.20854324662E+02  0.51100000000E-03 0. -1.
        -11    1    3    3    0    0 -0.11841414408E+02 -0.23621844513E+00  0.11699729606E+02  0.16648079993E+02  0.51100000000E-03 0.  1.
        -12    1    3    3    0    0 -0.83415852404E+01  0.16796142335E+02 -0.11114380455E+02  0.21799584734E+02  0.00000000000E+00 0.  1.
</event>
<event>
 7    1  0.7819001E-012  0.5930195E+02  0.7816164E-02  0.1266605E+00
        -11   -1    0    0    0    0  0.00000000000E+00  0.00000000000E+00  0.45593999997E+02  0.45594000000E+02  0.51100000000E-03 0. -1.
         11   -1    0    0    0    0 -0.00000000000E+00 -0.00000000000E+00 -0.45593999997E+02  0.45594000000E+02  0.51100000000E-03 0.  1.
    9900012    2    1    2    0    0  0.10634441303E+02 -0.20092178082E+02  0.22359182354E+02  0.59301952935E+02  0.50000016245E+02 0.  0.
         12    1    1    2    0    0 -0.10634441303E+02  0.20092178082E+02 -0.22359182354E+02  0.31886047065E+02  0.00000000000E+00 0. -1.
         11    1    3    3    0    0 -0.66114218625E+01 -0.55255111949E+01  0.22475732245E+02  0.24070743927E+02  0.51100000000E-03 0. -1.
        -11    1    3    3    0    0  0.39534114657E+01  0.38312013004E+01 -0.92506482523E+01  0.10764852947E+02  0.51100000000E-03 0.  1.
         12    1    3    3    0    0  0.13292451700E+02 -0.18397868187E+02  0.91340983612E+01  0.24466356061E+02  0.00000000000E+00 0. -1.
</event>
<event>
 7    1  0.7819001E-012  0.5930195E+02  0.7816164E-02  0.1266605E+00
        -11   -1    0    0    0    0  0.00000000000E+00  0.00000000000E+00  0.45593999997E+02  0.45594000000E+02  0.51100000000E-03 0. -1.
         11   -1    0    0    0    0 -0.00000000000E+00 -0.00000000000E+00 -0.45593999997E+02  0.45594000000E+02  0.51100000000E-03 0.  1.
    9900012    2    1    2    0    0 -0.31007228080E+02  0.63347653413E+01 -0.38913924209E+01  0.59301946934E+02  0.50000005300E+02 0.  0.
         12    1    1    2    0    0  0.31007228080E+02 -0.63347653413E+01  0.38913924209E+01  0.31886053066E+02  0.00000000000E+00 0. -1.
         11    1    3    3    0    0 -0.29833417917E+02  0.23613152801E+02 -0.21464116184E+01  0.38108016124E+02  0.51100000000E-03 0. -1.
        -11    1    3    3    0    0 -0.54119525245E+01 -0.93414724787E+01 -0.46274967585E+01  0.11745895654E+02  0.51100000000E-03 0.  1.
         12    1    3    3    0    0  0.42381423608E+01 -0.79369149808E+01  0.28825159561E+01  0.94480351566E+01  0.00000000000E+00 0. -1.
</event>
<event>
 7    1  0.7819001E-012  0.5930194E+02  0.7816164E-02  0.1266605E+00
        -11   -1    0    0    0    0  0.00000000000E+00  0.00000000000E+00  0.45593999997E+02  0.45594000000E+02  0.51100000000E-03 0.  1.
         11   -1    0    0    0    0 -0.00000000000E+00 -0.00000000000E+00 -0.45593999997E+02  0.45594000000E+02  0.51100000000E-03 0. -1.
    9900012    2    1    2    0    0 -0.30687478337E+02 -0.39781211623E+01 -0.76924745519E+01  0.59301938165E+02  0.49999989307E+02 0.  0.
         12    1    1    2    0    0  0.30687478337E+02  0.39781211623E+01  0.76924745519E+01  0.31886061835E+02  0.00000000000E+00 0. -1.
         11    1    3    3    0    0 -0.63719492371E+01 -0.81224721848E+01 -0.12558825830E+02  0.16257318289E+02  0.51100000000E-03 0. -1.
        -11    1    3    3    0    0 -0.13658413933E+01  0.18799012802E+01  0.16881837087E+02  0.17041008633E+02  0.51100000000E-03 0.  1.
        -12    1    3    3    0    0 -0.22949687706E+02  0.22644497423E+01 -0.12015485809E+02  0.26003611243E+02  0.00000000000E+00 0.  1.
</event>
<event>
 7    1  0.7819001E-012  0.5930189E+02  0.7816164E-02  0.1266605E+00
        -11   -1    0    0    0    0  0.00000000000E+00  0.00000000000E+00  0.45593999997E+02  0.45594000000E+02  0.51100000000E-03 0. -1.
         11   -1    0    0    0    0 -0.00000000000E+00 -0.00000000000E+00 -0.45593999997E+02  0.45594000000E+02  0.51100000000E-03 0.  1.
    9900012    2    1    2    0    0  0.27913814215E+01  0.24862191234E+02 -0.19768746959E+02  0.59301894569E+02  0.49999909800E+02 0.  0.
         12    1    1    2    0    0 -0.27913814215E+01 -0.24862191234E+02  0.19768746959E+02  0.31886105431E+02  0.00000000000E+00 0. -1.
         11    1    3    3    0    0  0.70841571726E+01 -0.77513645362E+01 -0.35364965123E+01  0.11080421601E+02  0.51100000000E-03 0. -1.
        -11    1    3    3    0    0 -0.36472108943E+01  0.35111976396E+02 -0.37777529366E+01  0.35502456975E+02  0.51100000000E-03 0.  1.
        -12    1    3    3    0    0 -0.64556485688E+00 -0.24984206254E+01 -0.12454497510E+02  0.12719015993E+02  0.00000000000E+00 0.  1.
</event>
<event>
 7    1  0.7819001E-012  0.5930197E+02  0.7816164E-02  0.1266605E+00
        -11   -1    0    0    0    0  0.00000000000E+00  0.00000000000E+00  0.45593999997E+02  0.45594000000E+02  0.51100000000E-03 0. -1.
         11   -1    0    0    0    0 -0.00000000000E+00 -0.00000000000E+00 -0.45593999997E+02  0.45594000000E+02  0.51100000000E-03 0.  1.
    9900012    2    1    2    0    0 -0.29964222130E+02  0.95197104047E+01 -0.53140971979E+01  0.59301966646E+02  0.50000041250E+02 0.  0.
         12    1    1    2    0    0  0.29964222130E+02 -0.95197104047E+01  0.53140971979E+01  0.31886033354E+02  0.00000000000E+00 0. -1.
         11    1    3    3    0    0 -0.10209073085E+02  0.21835093743E+01 -0.25250427932E+02  0.27323561215E+02  0.51100000000E-03 0. -1.
        -11    1    3    3    0    0 -0.26016723797E+01  0.48188560846E+01 -0.10678778809E+00  0.54773604070E+01  0.51100000000E-03 0.  1.
         12    1    3    3    0    0 -0.17153476665E+02  0.25173449458E+01  0.20043118522E+02  0.26501045024E+02  0.00000000000E+00 0. -1.
</event>
<event>
 7    1  0.7819001E-012  0.5930196E+02  0.7816164E-02  0.1266605E+00
        -11   -1    0    0    0    0  0.00000000000E+00  0.00000000000E+00  0.45593999997E+02  0.45594000000E+02  0.51100000000E-03 0.  1.
         11   -1    0    0    0    0 -0.00000000000E+00 -0.00000000000E+00 -0.45593999997E+02  0.45594000000E+02  0.51100000000E-03 0. -1.
    9900012    2    1    2    0    0  0.25282320179E+02 -0.10840009508E+02  0.16125084222E+02  0.59301955075E+02  0.50000020148E+02 0.  0.
         12    1    1    2    0    0 -0.25282320179E+02  0.10840009508E+02 -0.16125084222E+02  0.31886044925E+02  0.00000000000E+00 0. -1.
         11    1    3    3    0    0 -0.10533119844E+02  0.83678862827E+00  0.13880653279E+02  0.17444751777E+02  0.51100000000E-03 0. -1.
        -11    1    3    3    0    0  0.21443891965E+02 -0.13835098791E+02  0.71780185597E+01  0.26509892717E+02  0.51100000000E-03 0.  1.
         12    1    3    3    0    0  0.14371548059E+02  0.21583006548E+01 -0.49335876164E+01  0.15347310582E+02  0.00000000000E+00 0. -1.
</event>
<event>
 7    1  0.7819001E-012  0.5930196E+02  0.7816164E-02  0.1266605E+00
        -11   -1    0    0    0    0  0.00000000000E+00  0.00000000000E+00  0.45593999997E+02  0.45594000000E+02  0.51100000000E-03 0.  1.
         11   -1    0    0    0    0 -0.00000000000E+00 -0.00000000000E+00 -0.45593999997E+02  0.45594000000E+02  0.51100000000E-03 0. -1.
    9900012    2    1    2    0    0  0.29457137136E+02 -0.11657413836E+02  0.36196089613E+01  0.59301956115E+02  0.50000022045E+02 0.  0.
         12    1    1    2    0    0 -0.29457137136E+02  0.11657413836E+02 -0.36196089613E+01  0.31886043885E+02  0.00000000000E+00 0. -1.
         11    1    3    3    0    0 -0.16268298267E+00 -0.10185754248E+02  0.16347368598E+02  0.19261685172E+02  0.51100000000E-03 0.  1.
        -11    1    3    3    0    0  0.84981588270E+01  0.94708469188E+01  0.66392169297E+00  0.12741916539E+02  0.51100000000E-03 0. -1.
         12    1    3    3    0    0  0.21121661291E+02 -0.10942506507E+02 -0.13391681329E+02  0.27298354404E+02  0.00000000000E+00 0. -1.
</event>
<event>
 7    1  0.7819001E-012  0.5930194E+02  0.7816164E-02  0.1266605E+00
        -11   -1    0    0    0    0  0.00000000000E+00  0.00000000000E+00  0.45593999997E+02  0.45594000000E+02  0.51100000000E-03 0.  1.
         11   -1    0    0    0    0 -0.00000000000E+00 -0.00000000000E+00 -0.45593999997E+02  0.45594000000E+02  0.51100000000E-03 0. -1.
    9900012    2    1    2    0    0 -0.67242935313E+01 -0.20873275717E+02  0.23147590900E+02  0.59301941493E+02  0.49999995377E+02 0.  0.
         12    1    1    2    0    0  0.67242935313E+01  0.20873275717E+02 -0.23147590900E+02  0.31886058507E+02  0.00000000000E+00 0. -1.
         11    1    3    3    0    0 -0.22429531798E+02 -0.16198958836E+02  0.22568348946E+02  0.35704629090E+02  0.51100000000E-03 0. -1.
        -11    1    3    3    0    0  0.20960072646E+01  0.47553646341E+01  0.41610839529E+01  0.66574288716E+01  0.51100000000E-03 0.  1.
         12    1    3    3    0    0  0.13609231002E+02 -0.94296815152E+01 -0.35818419994E+01  0.16939883531E+02  0.00000000000E+00 0. -1.
</event>
<event>
 7    1  0.7819001E-012  0.5930201E+02  0.7816164E-02  0.1266605E+00
        -11   -1    0    0    0    0  0.00000000000E+00  0.00000000000E+00  0.45593999997E+02  0.45594000000E+02  0.51100000000E-03 0.  1.
         11   -1    0    0    0    0 -0.00000000000E+00 -0.00000000000E+00 -0.45593999997E+02  0.45594000000E+02  0.51100000000E-03 0. -1.
    9900012    2    1    2    0    0 -0.22178285350E+02  0.17131169256E+02 -0.15210622367E+02  0.59302010382E+02  0.50000121014E+02 0.  0.
         12    1    1    2    0    0  0.22178285350E+02 -0.17131169256E+02  0.15210622367E+02  0.31885989618E+02  0.00000000000E+00 0. -1.
         11    1    3    3    0    0  0.27264692588E+01 -0.35344854157E+00  0.11452158892E+01  0.29782679841E+01  0.51100000000E-03 0. -1.
        -11    1    3    3    0    0 -0.32402181490E+02  0.17608961187E+02  0.15508286397E+01  0.36910458533E+02  0.51100000000E-03 0.  1.
        -12    1    3    3    0    0  0.74974268815E+01 -0.12434338904E+00 -0.17906666896E+02  0.19413283865E+02  0.00000000000E+00 0.  1.
</event>
<event>
 7    1  0.7819001E-012  0.5930195E+02  0.7816164E-02  0.1266605E+00
        -11   -1    0    0    0    0  0.00000000000E+00  0.00000000000E+00  0.45593999997E+02  0.45594000000E+02  0.51100000000E-03 0. -1.
         11   -1    0    0    0    0 -0.00000000000E+00 -0.00000000000E+00 -0.45593999997E+02  0.45594000000E+02  0.51100000000E-03 0.  1.
    9900012    2    1    2    0    0  0.26713720573E+02 -0.15338427582E+02 -0.82358982286E+01  0.59301949019E+02  0.50000009103E+02 0.  0.
         12    1    1    2    0    0 -0.26713720573E+02  0.15338427582E+02  0.82358982286E+01  0.31886050981E+02  0.00000000000E+00 0. -1.
         11    1    3    3    0    0  0.11207733635E+02 -0.14366446141E+02  0.59835294612E+01  0.19178391304E+02  0.51100000000E-03 0. -1.
        -11    1    3    3    0    0  0.14298651819E+02  0.43885589683E+01 -0.24362670536E+02  0.28587595379E+02  0.51100000000E-03 0.  1.
         12    1    3    3    0    0  0.12073351188E+01 -0.53605404095E+01  0.10143242846E+02  0.11535962335E+02  0.00000000000E+00 0. -1.
</event>
<event>
 7    1  0.7819001E-012  0.5930210E+02  0.7816164E-02  0.1266604E+00
        -11   -1    0    0    0    0  0.00000000000E+00  0.00000000000E+00  0.45593999997E+02  0.45594000000E+02  0.51100000000E-03 0.  1.
         11   -1    0    0    0    0 -0.00000000000E+00 -0.00000000000E+00 -0.45593999997E+02  0.45594000000E+02  0.51100000000E-03 0. -1.
    9900012    2    1    2    0    0 -0.25138702203E+02 -0.17252706548E+02  0.93327579970E+01  0.59302100240E+02  0.50000284893E+02 0.  0.
         12    1    1    2    0    0  0.25138702203E+02  0.17252706548E+02 -0.93327579970E+01  0.31885899760E+02  0.00000000000E+00 0. -1.
         11    1    3    3    0    0  0.48932819651E+01  0.80804827115E+01 -0.57617077640E+01  0.11065066012E+02  0.51100000000E-03 0. -1.
        -11    1    3    3    0    0 -0.87186591317E+01 -0.77466131478E+01  0.16913536921E+02  0.20544896294E+02  0.51100000000E-03 0.  1.
         12    1    3    3    0    0 -0.21313325037E+02 -0.17586576111E+02 -0.18190711596E+01  0.27692137933E+02  0.00000000000E+00 0. -1.
</event>
<event>
 7    1  0.7819001E-012  0.5930191E+02  0.7816164E-02  0.1266605E+00
        -11   -1    0    0    0    0  0.00000000000E+00  0.00000000000E+00  0.45593999997E+02  0.45594000000E+02  0.51100000000E-03 0. -1.
         11   -1    0    0    0    0 -0.00000000000E+00 -0.00000000000E+00 -0.45593999997E+02  0.45594000000E+02  0.51100000000E-03 0.  1.
    9900012    2    1    2    0    0  0.16349545802E+02  0.25947725001E+02 -0.87252876654E+01  0.59301910156E+02  0.49999938226E+02 0.  0.
         12    1    1    2    0    0 -0.16349545802E+02 -0.25947725001E+02  0.87252876654E+01  0.31886089844E+02  0.00000000000E+00 0. -1.
         11    1    3    3    0    0  0.20568644708E+02  0.20239682564E+02  0.72041365278E+01  0.29742452468E+02  0.51100000000E-03 0. -1.
        -11    1    3    3    0    0 -0.90268671720E+01  0.12037690971E+02 -0.46264475394E+01  0.15741485062E+02  0.51100000000E-03 0.  1.
        -12    1    3    3    0    0  0.48077682662E+01 -0.63296485341E+01 -0.11302976654E+02  0.13817972626E+02  0.00000000000E+00 0.  1.
</event>
<event>
 7    1  0.7819001E-012  0.5930193E+02  0.7816164E-02  0.1266605E+00
        -11   -1    0    0    0    0  0.00000000000E+00  0.00000000000E+00  0.45593999997E+02  0.45594000000E+02  0.51100000000E-03 0.  1.
         11   -1    0    0    0    0 -0.00000000000E+00 -0.00000000000E+00 -0.45593999997E+02  0.45594000000E+02  0.51100000000E-03 0. -1.
    9900012    2    1    2    0    0 -0.22644503985E+02  0.18222434926E+02 -0.13110711302E+02  0.59301930217E+02  0.49999974812E+02 0.  0.
         12    1    1    2    0    0  0.22644503985E+02 -0.18222434926E+02  0.13110711302E+02  0.31886069783E+02  0.00000000000E+00 0. -1.
         11    1    3    3    0    0  0.43971381927E+01 -0.59463514545E+01  0.32301321364E+01  0.80701718560E+01  0.51100000000E-03 0. -1.
        -11    1    3    3    0    0 -0.25364974116E+02  0.31750291253E+02 -0.15179775147E+02  0.43380738587E+02  0.51100000000E-03 0.  1.
        -12    1    3    3    0    0 -0.16766680617E+01 -0.75815048718E+01 -0.11610682909E+01  0.78510197736E+01  0.00000000000E+00 0.  1.
</event>
<event>
 7    1  0.7819001E-012  0.5930194E+02  0.7816164E-02  0.1266605E+00
        -11   -1    0    0    0    0  0.00000000000E+00  0.00000000000E+00  0.45593999997E+02  0.45594000000E+02  0.51100000000E-03 0.  1.
         11   -1    0    0    0    0 -0.00000000000E+00 -0.00000000000E+00 -0.45593999997E+02  0.45594000000E+02  0.51100000000E-03 0. -1.
    9900012    2    1    2    0    0 -0.20110419555E+02  0.11320638331E+02  0.22003074672E+02  0.59301935301E+02  0.49999984085E+02 0.  0.
         12    1    1    2    0    0  0.20110419555E+02 -0.11320638331E+02 -0.22003074672E+02  0.31886064699E+02  0.00000000000E+00 0. -1.
         11    1    3    3    0    0 -0.12373966359E+02  0.39669962354E+01 -0.90742555980E+01  0.15849107783E+02  0.51100000000E-03 0. -1.
        -11    1    3    3    0    0  0.93635255584E+01  0.23925998882E+01  0.20698544867E+02  0.22843596585E+02  0.51100000000E-03 0.  1.
        -12    1    3    3    0    0 -0.17099978754E+02  0.49610422077E+01  0.10378785404E+02  0.20609230933E+02  0.00000000000E+00 0.  1.
</event>
<event>
 7    1  0.7819001E-012  0.5930199E+02  0.7816164E-02  0.1266605E+00
        -11   -1    0    0    0    0  0.00000000000E+00  0.00000000000E+00  0.45593999997E+02  0.45594000000E+02  0.51100000000E-03 0. -1.
         11   -1    0    0    0    0 -0.00000000000E+00 -0.00000000000E+00 -0.45593999997E+02  0.45594000000E+02  0.51100000000E-03 0.  1.
    9900012    2    1    2    0    0 -0.29360485521E+02  0.18497418648E+01 -0.12298705438E+02  0.59301987229E+02  0.50000078788E+02 0.  0.
         12    1    1    2    0    0  0.29360485521E+02 -0.18497418648E+01  0.12298705438E+02  0.31886012771E+02  0.00000000000E+00 0. -1.
         11    1    3    3    0    0 -0.15889902358E+02 -0.95684091116E+01 -0.20118175296E+02  0.27363925658E+02  0.51100000000E-03 0.  1.
        -11    1    3    3    0    0  0.30520301660E+01  0.82737138789E+01 -0.55783495771E+01  0.10434903629E+02  0.51100000000E-03 0. -1.
         12    1    3    3    0    0 -0.16522613329E+02  0.31444370975E+01  0.13397819435E+02  0.21503157942E+02  0.00000000000E+00 0. -1.
</event>
<event>
 7    1  0.7819001E-012  0.5930189E+02  0.7816164E-02  0.1266605E+00
        -11   -1    0    0    0    0  0.00000000000E+00  0.00000000000E+00  0.45593999997E+02  0.45594000000E+02  0.51100000000E-03 0. -1.
         11   -1    0    0    0    0 -0.00000000000E+00 -0.00000000000E+00 -0.45593999997E+02  0.45594000000E+02  0.51100000000E-03 0.  1.
    9900012    2    1    2    0    0 -0.31020425075E+02 -0.58272317174E+01  0.45277713960E+01  0.59301888366E+02  0.49999898487E+02 0.  0.
         12    1    1    2    0    0  0.31020425075E+02  0.58272317174E+01 -0.45277713960E+01  0.31886111634E+02  0.00000000000E+00 0. -1.
         11    1    3    3    0    0  0.18055928508E+01 -0.34253477972E+01  0.16800077030E+01  0.42208529017E+01  0.51100000000E-03 0. -1.
        -11    1    3    3    0    0 -0.35761936642E+02  0.12294166371E+02  0.90139540683E+01  0.38875622276E+02  0.51100000000E-03 0.  1.
        -12    1    3    3    0    0  0.29359187167E+01 -0.14696050291E+02 -0.61661903754E+01  0.16205413189E+02  0.00000000000E+00 0.  1.
</event>
<event>
 7    1  0.7819001E-012  0.5930195E+02  0.7816164E-02  0.1266605E+00
        -11   -1    0    0    0    0  0.00000000000E+00  0.00000000000E+00  0.45593999997E+02  0.45594000000E+02  0.51100000000E-03 0. -1.
         11   -1    0    0    0    0 -0.00000000000E+00 -0.00000000000E+00 -0.45593999997E+02  0.45594000000E+02  0.51100000000E-03 0.  1.
    9900012    2    1    2    0    0 -0.30585574927E+02  0.78445867066E+01 -0.44390280559E+01  0.59301954395E+02  0.50000018908E+02 0.  0.
         12    1    1    2    0    0  0.30585574927E+02 -0.78445867066E+01  0.44390280559E+01  0.31886045605E+02  0.00000000000E+00 0. -1.
         11    1    3    3    0    0  0.83270439216E+01  0.42247755798E+01 -0.75748302096E+01  0.12023578591E+02  0.51100000000E-03 0. -1.
        -11    1    3    3    0    0 -0.33316296286E+02  0.13372431550E+02  0.16655308348E+01  0.35938440659E+02  0.51100000000E-03 0.  1.
         12    1    3    3    0    0 -0.55963225632E+01 -0.97526204232E+01  0.14702713189E+01  0.11339935145E+02  0.00000000000E+00 0. -1.
</event>
<event>
 7    1  0.7819001E-012  0.5930196E+02  0.7816164E-02  0.1266605E+00
        -11   -1    0    0    0    0  0.00000000000E+00  0.00000000000E+00  0.45593999997E+02  0.45594000000E+02  0.51100000000E-03 0.  1.
         11   -1    0    0    0    0 -0.00000000000E+00 -0.00000000000E+00 -0.45593999997E+02  0.45594000000E+02  0.51100000000E-03 0. -1.
    9900012    2    1    2    0    0  0.48651120032E+01  0.26044590273E+02  0.17740612157E+02  0.59301963605E+02  0.50000035704E+02 0.  0.
         12    1    1    2    0    0 -0.48651120032E+01 -0.26044590273E+02 -0.17740612157E+02  0.31886036395E+02  0.00000000000E+00 0. -1.
         11    1    3    3    0    0 -0.14873435446E+02  0.22957516901E+02  0.24467047340E+02  0.36700178065E+02  0.51100000000E-03 0. -1.
        -11    1    3    3    0    0  0.19794420913E+02  0.35299780221E+01 -0.77000622891E+01  0.21530694453E+02  0.51100000000E-03 0.  1.
        -12    1    3    3    0    0 -0.55873463809E-01 -0.44290464999E+00  0.97362710598E+00  0.10710910860E+01  0.00000000000E+00 0.  1.
</event>
<event>
 7    1  0.7819001E-012  0.5930195E+02  0.7816164E-02  0.1266605E+00
        -11   -1    0    0    0    0  0.00000000000E+00  0.00000000000E+00  0.45593999997E+02  0.45594000000E+02  0.51100000000E-03 0.  1.
         11   -1    0    0    0    0 -0.00000000000E+00 -0.00000000000E+00 -0.45593999997E+02  0.45594000000E+02  0.51100000000E-03 0. -1.
    9900012    2    1    2    0    0 -0.36219880939E+00  0.90033217155E+01  0.30586425033E+02  0.59301946839E+02  0.50000005126E+02 0.  0.
         12    1    1    2    0    0  0.36219880939E+00 -0.90033217155E+01 -0.30586425033E+02  0.31886053161E+02  0.00000000000E+00 0. -1.
         11    1    3    3    0    0 -0.11264931826E+02 -0.14445638558E+02  0.15029549683E+01  0.18380262139E+02  0.51100000000E-03 0. -1.
        -11    1    3    3    0    0  0.74831514829E+01  0.82618560045E+01  0.49355370493E+01  0.12190789432E+02  0.51100000000E-03 0.  1.
         12    1    3    3    0    0  0.34195815340E+01  0.15187104269E+02  0.24147933016E+02  0.28730895268E+02  0.00000000000E+00 0. -1.
</event>
<event>
 7    1  0.7819001E-012  0.5930194E+02  0.7816164E-02  0.1266605E+00
        -11   -1    0    0    0    0  0.00000000000E+00  0.00000000000E+00  0.45593999997E+02  0.45594000000E+02  0.51100000000E-03 0.  1.
         11   -1    0    0    0    0 -0.00000000000E+00 -0.00000000000E+00 -0.45593999997E+02  0.45594000000E+02  0.51100000000E-03 0. -1.
    9900012    2    1    2    0    0 -0.14440237324E+02 -0.25735230386E+02  0.12078844405E+02  0.59301936914E+02  0.49999987026E+02 0.  0.
         12    1    1    2    0    0  0.14440237324E+02  0.25735230386E+02 -0.12078844405E+02  0.31886063086E+02  0.00000000000E+00 0. -1.
         11    1    3    3    0    0  0.96106425313E+01 -0.25750066626E+01  0.88128896012E+01  0.13291430794E+02  0.51100000000E-03 0. -1.
        -11    1    3    3    0    0 -0.64662554424E+01 -0.25581171875E+02 -0.42654872614E+01  0.26728321978E+02  0.51100000000E-03 0.  1.
        -12    1    3    3    0    0 -0.17584624413E+02  0.24209481516E+01  0.75314420647E+01  0.19282184141E+02  0.00000000000E+00 0.  1.
</event>
<event>
 7    1  0.7819001E-012  0.5930196E+02  0.7816164E-02  0.1266605E+00
        -11   -1    0    0    0    0  0.00000000000E+00  0.00000000000E+00  0.45593999997E+02  0.45594000000E+02  0.51100000000E-03 0.  1.
         11   -1    0    0    0    0 -0.00000000000E+00 -0.00000000000E+00 -0.45593999997E+02  0.45594000000E+02  0.51100000000E-03 0. -1.
    9900012    2    1    2    0    0 -0.18841226486E+02 -0.20384850105E+02  0.15690307292E+02  0.59301958034E+02  0.50000025545E+02 0.  0.
         12    1    1    2    0    0  0.18841226486E+02  0.20384850105E+02 -0.15690307292E+02  0.31886041966E+02  0.00000000000E+00 0. -1.
         11    1    3    3    0    0 -0.55831763862E+00 -0.27942739187E+02 -0.71131713522E+01  0.28839306490E+02  0.51100000000E-03 0. -1.
        -11    1    3    3    0    0 -0.53077542710E+01  0.36620043769E+01  0.94487953907E+01  0.11439504624E+02  0.51100000000E-03 0.  1.
         12    1    3    3    0    0 -0.12975154576E+02  0.38958847053E+01  0.13354683254E+02  0.19023146920E+02  0.00000000000E+00 0. -1.
</event>
<event>
 7    1  0.7819001E-012  0.5930197E+02  0.7816164E-02  0.1266605E+00
        -11   -1    0    0    0    0  0.00000000000E+00  0.00000000000E+00  0.45593999997E+02  0.45594000000E+02  0.51100000000E-03 0. -1.
         11   -1    0    0    0    0 -0.00000000000E+00 -0.00000000000E+00 -0.45593999997E+02  0.45594000000E+02  0.51100000000E-03 0.  1.
    9900012    2    1    2    0    0 -0.19241625955E+02 -0.20568508565E+02 -0.14947072986E+02  0.59301973204E+02  0.50000053210E+02 0.  0.
         12    1    1    2    0    0  0.19241625955E+02  0.20568508565E+02  0.14947072986E+02  0.31886026796E+02  0.00000000000E+00 0. -1.
         11    1    3    3    0    0 -0.22896224299E+02 -0.24620056469E+02 -0.15673890338E+02  0.37095216758E+02  0.51100000000E-03 0. -1.
        -11    1    3    3    0    0  0.39641777072E+01  0.70251400140E+01 -0.89676550760E+01  0.12061763343E+02  0.51100000000E-03 0.  1.
         12    1    3    3    0    0 -0.30957936265E+00 -0.29735921105E+01  0.96944724276E+01  0.10144993104E+02  0.00000000000E+00 0. -1.
</event>
<event>
 7    1  0.7819001E-012  0.5930198E+02  0.7816164E-02  0.1266605E+00
        -11   -1    0    0    0    0  0.00000000000E+00  0.00000000000E+00  0.45593999997E+02  0.45594000000E+02  0.51100000000E-03 0. -1.
         11   -1    0    0    0    0 -0.00000000000E+00 -0.00000000000E+00 -0.45593999997E+02  0.45594000000E+02  0.51100000000E-03 0.  1.
    9900012    2    1    2    0    0 -0.79468002806E+01  0.14776136149E+02 -0.27115170013E+02  0.59301979881E+02  0.50000065387E+02 0.  0.
         12    1    1    2    0    0  0.79468002806E+01 -0.14776136149E+02  0.27115170013E+02  0.31886020119E+02  0.00000000000E+00 0. -1.
         11    1    3    3    0    0  0.21799185653E+01 -0.54510904361E+01  0.97098642452E+01  0.11346712996E+02  0.51100000000E-03 0. -1.
        -11    1    3    3    0    0 -0.12637136357E+02  0.22728677302E+02 -0.26894366521E+02  0.37411187338E+02  0.51100000000E-03 0.  1.
         12    1    3    3    0    0  0.25104175116E+01 -0.25014507173E+01 -0.99306677372E+01  0.10544079546E+02  0.00000000000E+00 0. -1.
</event>
<event>
 7    1  0.7819001E-012  0.5930197E+02  0.7816164E-02  0.1266605E+00
        -11   -1    0    0    0    0  0.00000000000E+00  0.00000000000E+00  0.45593999997E+02  0.45594000000E+02  0.51100000000E-03 0. -1.
         11   -1    0    0    0    0 -0.00000000000E+00 -0.00000000000E+00 -0.45593999997E+02  0.45594000000E+02  0.51100000000E-03 0.  1.
    9900012    2    1    2    0    0  0.60648241906E+00  0.11841745307E+02 -0.29599396290E+02  0.59301968363E+02  0.50000044381E+02 0.  0.
         12    1    1    2    0    0 -0.60648241906E+00 -0.11841745307E+02  0.29599396290E+02  0.31886031637E+02  0.00000000000E+00 0. -1.
         11    1    3    3    0    0 -0.76231336971E+00  0.71901531594E+01  0.10751218055E+02  0.12956392788E+02  0.51100000000E-03 0. -1.
        -11    1    3    3    0    0 -0.47482310179E+01 -0.26191317176E+01 -0.35046831556E+02  0.35463868248E+02  0.51100000000E-03 0.  1.
         12    1    3    3    0    0  0.61170268066E+01  0.72707238648E+01 -0.53037827899E+01  0.10881707327E+02  0.00000000000E+00 0. -1.
</event>
<event>
 7    1  0.7819001E-012  0.5930197E+02  0.7816164E-02  0.1266605E+00
        -11   -1    0    0    0    0  0.00000000000E+00  0.00000000000E+00  0.45593999997E+02  0.45594000000E+02  0.51100000000E-03 0. -1.
         11   -1    0    0    0    0 -0.00000000000E+00 -0.00000000000E+00 -0.45593999997E+02  0.45594000000E+02  0.51100000000E-03 0.  1.
    9900012    2    1    2    0    0  0.15363577901E+02  0.84892814865E+01 -0.26619759776E+02  0.59301968002E+02  0.50000043723E+02 0.  0.
         12    1    1    2    0    0 -0.15363577901E+02 -0.84892814865E+01  0.26619759776E+02  0.31886031998E+02  0.00000000000E+00 0. -1.
         11    1    3    3    0    0  0.70854423713E-01  0.25554271856E+01  0.24558959002E+01  0.35449475855E+01  0.51100000000E-03 0. -1.
        -11    1    3    3    0    0  0.28489014181E+02 -0.59168517868E+01 -0.22718830429E+02  0.36915827505E+02  0.51100000000E-03 0.  1.
        -12    1    3    3    0    0 -0.13196290704E+02  0.11850706088E+02 -0.63568252470E+01  0.18841192912E+02  0.00000000000E+00 0.  1.
</event>
<event>
 7    1  0.7819001E-012  0.5930195E+02  0.7816164E-02  0.1266605E+00
        -11   -1    0    0    0    0  0.00000000000E+00  0.00000000000E+00  0.45593999997E+02  0.45594000000E+02  0.51100000000E-03 0.  1.
         11   -1    0    0    0    0 -0.00000000000E+00 -0.00000000000E+00 -0.45593999997E+02  0.45594000000E+02  0.51100000000E-03 0. -1.
    9900012    2    1    2    0    0 -0.28450787640E+02  0.64519571064E+01  0.12870323875E+02  0.59301948120E+02  0.50000007464E+02 0.  0.
         12    1    1    2    0    0  0.28450787640E+02 -0.64519571064E+01 -0.12870323875E+02  0.31886051880E+02  0.00000000000E+00 0. -1.
         11    1    3    3    0    0 -0.26349522469E+02 -0.31258854101E+01 -0.72422098484E+01  0.27504874071E+02  0.51100000000E-03 0. -1.
        -11    1    3    3    0    0 -0.64635569732E+01  0.10185255524E+02  0.23382988632E+02  0.26311236315E+02  0.51100000000E-03 0.  1.
        -12    1    3    3    0    0  0.43622918026E+01 -0.60741300775E+00 -0.32704549081E+01  0.54858377335E+01  0.00000000000E+00 0.  1.
</event>
<event>
 7    1  0.7819001E-012  0.5930195E+02  0.7816164E-02  0.1266605E+00
        -11   -1    0    0    0    0  0.00000000000E+00  0.00000000000E+00  0.45593999997E+02  0.45594000000E+02  0.51100000000E-03 0.  1.
         11   -1    0    0    0    0 -0.00000000000E+00 -0.00000000000E+00 -0.45593999997E+02  0.45594000000E+02  0.51100000000E-03 0. -1.
    9900012    2    1    2    0    0  0.17087555801E+02 -0.10867749492E+02  0.24629816373E+02  0.59301946672E+02  0.50000004822E+02 0.  0.
         12    1    1    2    0    0 -0.17087555801E+02  0.10867749492E+02 -0.24629816373E+02  0.31886053328E+02  0.00000000000E+00 0. -1.
         11    1    3    3    0    0  0.85941889673E+01 -0.16125094153E+02  0.10962494563E+02  0.21308567121E+02  0.51100000000E-03 0. -1.
        -11    1    3    3    0    0  0.13795451351E+02  0.17380257960E+02  0.92959496139E+01  0.24058315074E+02  0.51100000000E-03 0.  1.
        -12    1    3    3    0    0 -0.53020845170E+01 -0.12122913298E+02  0.43713721966E+01  0.13935064476E+02  0.00000000000E+00 0.  1.
</event>
<event>
 7    1  0.7819001E-012  0.5930194E+02  0.7816164E-02  0.1266605E+00
        -11   -1    0    0    0    0  0.00000000000E+00  0.00000000000E+00  0.45593999997E+02  0.45594000000E+02  0.51100000000E-03 0. -1.
         11   -1    0    0    0    0 -0.00000000000E+00 -0.00000000000E+00 -0.45593999997E+02  0.45594000000E+02  0.51100000000E-03 0.  1.
    9900012    2    1    2    0    0  0.19672390459E+02  0.23783202972E+02 -0.80048143611E+01  0.59301941245E+02  0.49999994925E+02 0.  0.
         12    1    1    2    0    0 -0.19672390459E+02 -0.23783202972E+02  0.80048143611E+01  0.31886058755E+02  0.00000000000E+00 0. -1.
         11    1    3    3    0    0 -0.75838745121E+01 -0.20674988288E+01  0.39494863425E+01  0.87970532938E+01  0.51100000000E-03 0. -1.
        -11    1    3    3    0    0  0.30149688271E+02  0.11543321702E+02 -0.14992040755E+02  0.35595129794E+02  0.51100000000E-03 0.  1.
         12    1    3    3    0    0 -0.28934233000E+01  0.14307380099E+02  0.30377400515E+01  0.14909758157E+02  0.00000000000E+00 0. -1.
</event>
<event>
 7    1  0.7819001E-012  0.5930195E+02  0.7816164E-02  0.1266605E+00
        -11   -1    0    0    0    0  0.00000000000E+00  0.00000000000E+00  0.45593999997E+02  0.45594000000E+02  0.51100000000E-03 0.  1.
         11   -1    0    0    0    0 -0.00000000000E+00 -0.00000000000E+00 -0.45593999997E+02  0.45594000000E+02  0.51100000000E-03 0. -1.
    9900012    2    1    2    0    0 -0.10518628533E+01 -0.21726448372E+02  0.23314697050E+02  0.59301951753E+02  0.50000014088E+02 0.  0.
         12    1    1    2    0    0  0.10518628533E+01  0.21726448372E+02 -0.23314697050E+02  0.31886048247E+02  0.00000000000E+00 0. -1.
         11    1    3    3    0    0  0.63218594905E+01 -0.18911693796E+01 -0.88824137018E+01  0.11065247511E+02  0.51100000000E-03 0. -1.
        -11    1    3    3    0    0 -0.56271245701E+01  0.31595520487E+01  0.22169720344E+02  0.23089906896E+02  0.51100000000E-03 0.  1.
         12    1    3    3    0    0 -0.17465977738E+01 -0.22994831041E+02  0.10027390408E+02  0.25146797346E+02  0.00000000000E+00 0. -1.
</event>
<event>
 7    1  0.7819001E-012  0.5930196E+02  0.7816164E-02  0.1266605E+00
        -11   -1    0    0    0    0  0.00000000000E+00  0.00000000000E+00  0.45593999997E+02  0.45594000000E+02  0.51100000000E-03 0.  1.
         11   -1    0    0    0    0 -0.00000000000E+00 -0.00000000000E+00 -0.45593999997E+02  0.45594000000E+02  0.51100000000E-03 0. -1.
    9900012    2    1    2    0    0 -0.11881820018E+02 -0.22653695179E+02  0.19035545776E+02  0.59301959869E+02  0.50000028891E+02 0.  0.
         12    1    1    2    0    0  0.11881820018E+02  0.22653695179E+02 -0.19035545776E+02  0.31886040131E+02  0.00000000000E+00 0. -1.
         11    1    3    3    0    0  0.43757881508E+01  0.77901470383E+01  0.21032872990E+02  0.22852038406E+02  0.51100000000E-03 0. -1.
        -11    1    3    3    0    0 -0.68258949100E+01 -0.31572193306E+01 -0.62521835322E+00  0.75466398797E+01  0.51100000000E-03 0.  1.
         12    1    3    3    0    0 -0.94317132592E+01 -0.27286622887E+02 -0.13721088614E+01  0.28903281584E+02  0.00000000000E+00 0. -1.
</event>
<event>
 7    1  0.7819001E-012  0.5930194E+02  0.7816164E-02  0.1266605E+00
        -11   -1    0    0    0    0  0.00000000000E+00  0.00000000000E+00  0.45593999997E+02  0.45594000000E+02  0.51100000000E-03 0. -1.
         11   -1    0    0    0    0 -0.00000000000E+00 -0.00000000000E+00 -0.45593999997E+02  0.45594000000E+02  0.51100000000E-03 0.  1.
    9900012    2    1    2    0    0 -0.25741636343E+02  0.17842203611E+02 -0.59786789672E+01  0.59301942334E+02  0.49999996911E+02 0.  0.
         12    1    1    2    0    0  0.25741636343E+02 -0.17842203611E+02  0.59786789672E+01  0.31886057666E+02  0.00000000000E+00 0. -1.
         11    1    3    3    0    0  0.76939206878E+01 -0.14172243580E+01  0.67339837099E+01  0.10322377502E+02  0.51100000000E-03 0. -1.
        -11    1    3    3    0    0 -0.19225338847E+02  0.24235886868E+02 -0.13821193536E+02  0.33882403354E+02  0.51100000000E-03 0.  1.
         12    1    3    3    0    0 -0.14210218184E+02 -0.49764588989E+01  0.11085308592E+01  0.15097161477E+02  0.00000000000E+00 0. -1.
</event>
<event>
 7    1  0.7819001E-012  0.5930189E+02  0.7816164E-02  0.1266605E+00
        -11   -1    0    0    0    0  0.00000000000E+00  0.00000000000E+00  0.45593999997E+02  0.45594000000E+02  0.51100000000E-03 0. -1.
         11   -1    0    0    0    0 -0.00000000000E+00 -0.00000000000E+00 -0.45593999997E+02  0.45594000000E+02  0.51100000000E-03 0.  1.
    9900012    2    1    2    0    0 -0.14949766436E+02 -0.28018895116E+02 -0.28582777006E+01  0.59301894069E+02  0.49999908888E+02 0.  0.
         12    1    1    2    0    0  0.14949766436E+02  0.28018895116E+02  0.28582777006E+01  0.31886105931E+02  0.00000000000E+00 0. -1.
         11    1    3    3    0    0  0.58599048275E+01  0.22511694020E+01 -0.55280379551E+01  0.83645353820E+01  0.51100000000E-03 0. -1.
        -11    1    3    3    0    0 -0.89116971609E+01 -0.22771925992E+02  0.17826084912E+02  0.30261332807E+02  0.51100000000E-03 0.  1.
        -12    1    3    3    0    0 -0.11897974102E+02 -0.74981385257E+01 -0.15156324657E+02  0.20676025881E+02  0.00000000000E+00 0.  1.
</event>
<event>
 7    1  0.7819001E-012  0.5930195E+02  0.7816164E-02  0.1266605E+00
        -11   -1    0    0    0    0  0.00000000000E+00  0.00000000000E+00  0.45593999997E+02  0.45594000000E+02  0.51100000000E-03 0. -1.
         11   -1    0    0    0    0 -0.00000000000E+00 -0.00000000000E+00 -0.45593999997E+02  0.45594000000E+02  0.51100000000E-03 0.  1.
    9900012    2    1    2    0    0  0.31491467403E+02 -0.20737263846E+00 -0.49964559372E+01  0.59301951412E+02  0.50000013467E+02 0.  0.
         12    1    1    2    0    0 -0.31491467403E+02  0.20737263846E+00  0.49964559372E+01  0.31886048588E+02  0.00000000000E+00 0. -1.
         11    1    3    3    0    0 -0.53059296657E+01  0.98151475462E+01  0.56002137054E+01  0.12484086061E+02  0.51100000000E-03 0. -1.
        -11    1    3    3    0    0  0.18199462458E+02 -0.44067441269E+01  0.75910956665E+01  0.20205557682E+02  0.51100000000E-03 0.  1.
         12    1    3    3    0    0  0.18597934611E+02 -0.56157760578E+01 -0.18187765309E+02  0.26612307669E+02  0.00000000000E+00 0. -1.
</event>
<event>
 7    1  0.7819001E-012  0.5930192E+02  0.7816164E-02  0.1266605E+00
        -11   -1    0    0    0    0  0.00000000000E+00  0.00000000000E+00  0.45593999997E+02  0.45594000000E+02  0.51100000000E-03 0.  1.
         11   -1    0    0    0    0 -0.00000000000E+00 -0.00000000000E+00 -0.45593999997E+02  0.45594000000E+02  0.51100000000E-03 0. -1.
    9900012    2    1    2    0    0  0.13755788146E+02  0.21362280529E+02  0.19265334545E+02  0.59301923853E+02  0.49999963207E+02 0.  0.
         12    1    1    2    0    0 -0.13755788146E+02 -0.21362280529E+02 -0.19265334545E+02  0.31886076147E+02  0.00000000000E+00 0. -1.
         11    1    3    3    0    0  0.37990216663E+01  0.17035620931E+02 -0.86369628903E+01  0.19474138603E+02  0.51100000000E-03 0. -1.
        -11    1    3    3    0    0  0.11829941546E+02 -0.89180654757E+01  0.12132137382E+02  0.19148581319E+02  0.51100000000E-03 0.  1.
         12    1    3    3    0    0 -0.18731750666E+01  0.13244725074E+02  0.15770160053E+02  0.20679203931E+02  0.00000000000E+00 0. -1.
</event>
<event>
 7    1  0.7819001E-012  0.5930195E+02  0.7816164E-02  0.1266605E+00
        -11   -1    0    0    0    0  0.00000000000E+00  0.00000000000E+00  0.45593999997E+02  0.45594000000E+02  0.51100000000E-03 0.  1.
         11   -1    0    0    0    0 -0.00000000000E+00 -0.00000000000E+00 -0.45593999997E+02  0.45594000000E+02  0.51100000000E-03 0. -1.
    9900012    2    1    2    0    0 -0.16886612526E+02  0.23924246642E+02  0.12617171294E+02  0.59301948638E+02  0.50000008408E+02 0.  0.
         12    1    1    2    0    0  0.16886612526E+02 -0.23924246642E+02 -0.12617171294E+02  0.31886051362E+02  0.00000000000E+00 0. -1.
         11    1    3    3    0    0 -0.11628551978E+02  0.22746602396E+02  0.16349792602E+02  0.30330625777E+02  0.51100000000E-03 0. -1.
        -11    1    3    3    0    0  0.98187949413E+01 -0.27068651795E+01  0.47533126716E+01  0.11239654568E+02  0.51100000000E-03 0.  1.
         12    1    3    3    0    0 -0.15076855490E+02  0.38845094247E+01 -0.84859339789E+01  0.17731668292E+02  0.00000000000E+00 0. -1.
</event>
<event>
 7    1  0.7819001E-012  0.5930185E+02  0.7816164E-02  0.1266605E+00
        -11   -1    0    0    0    0  0.00000000000E+00  0.00000000000E+00  0.45593999997E+02  0.45594000000E+02  0.51100000000E-03 0. -1.
         11   -1    0    0    0    0 -0.00000000000E+00 -0.00000000000E+00 -0.45593999997E+02  0.45594000000E+02  0.51100000000E-03 0.  1.
    9900012    2    1    2    0    0  0.21776370650E+02 -0.22051408899E+02  0.75000947679E+01  0.59301852935E+02  0.49999833869E+02 0.  0.
         12    1    1    2    0    0 -0.21776370650E+02  0.22051408899E+02 -0.75000947679E+01  0.31886147065E+02  0.00000000000E+00 0. -1.
         11    1    3    3    0    0  0.81207806893E+01  0.10519129757E+02  0.79831583392E+01  0.15502580017E+02  0.51100000000E-03 0. -1.
        -11    1    3    3    0    0  0.18112483753E+02 -0.34395283554E+02 -0.13943609864E+01  0.38897838517E+02  0.51100000000E-03 0.  1.
        -12    1    3    3    0    0 -0.44568937924E+01  0.18247448981E+01  0.91129741508E+00  0.49014344021E+01  0.00000000000E+00 0.  1.
</event>
<event>
 7    1  0.7819001E-012  0.5930194E+02  0.7816164E-02  0.1266605E+00
        -11   -1    0    0    0    0  0.00000000000E+00  0.00000000000E+00  0.45593999997E+02  0.45594000000E+02  0.51100000000E-03 0.  1.
         11   -1    0    0    0    0 -0.00000000000E+00 -0.00000000000E+00 -0.45593999997E+02  0.45594000000E+02  0.51100000000E-03 0. -1.
    9900012    2    1    2    0    0  0.18460473099E+02  0.21382382836E+02  0.14789360313E+02  0.59301944408E+02  0.50000000693E+02 0.  0.
         12    1    1    2    0    0 -0.18460473099E+02 -0.21382382836E+02 -0.14789360313E+02  0.31886055592E+02  0.00000000000E+00 0. -1.
         11    1    3    3    0    0 -0.39411160163E+01 -0.25371111814E+01  0.51786548930E+01  0.69848260796E+01  0.51100000000E-03 0. -1.
        -11    1    3    3    0    0  0.12890756121E+02 -0.32482157248E-01 -0.12798805374E+02  0.18165408548E+02  0.51100000000E-03 0.  1.
        -12    1    3    3    0    0  0.95108329941E+01  0.23951976175E+02  0.22409510793E+02  0.34151709780E+02  0.00000000000E+00 0.  1.
</event>
<event>
 7    1  0.7819001E-012  0.5930197E+02  0.7816164E-02  0.1266605E+00
        -11   -1    0    0    0    0  0.00000000000E+00  0.00000000000E+00  0.45593999997E+02  0.45594000000E+02  0.51100000000E-03 0.  1.
         11   -1    0    0    0    0 -0.00000000000E+00 -0.00000000000E+00 -0.45593999997E+02  0.45594000000E+02  0.51100000000E-03 0. -1.
    9900012    2    1    2    0    0  0.26383481258E+02  0.11686227597E+02  0.13566989867E+02  0.59301965239E+02  0.50000038684E+02 0.  0.
         12    1    1    2    0    0 -0.26383481258E+02 -0.11686227597E+02 -0.13566989867E+02  0.31886034761E+02  0.00000000000E+00 0. -1.
         11    1    3    3    0    0 -0.10658046551E+02 -0.58373275203E+01  0.29177650484E+01  0.12497267782E+02  0.51100000000E-03 0. -1.
        -11    1    3    3    0    0  0.35928794458E+02  0.90828357347E+01  0.84091568412E+01  0.38001185445E+02  0.51100000000E-03 0.  1.
         12    1    3    3    0    0  0.11127333513E+01  0.84407193827E+01  0.22400679774E+01  0.88035120124E+01  0.00000000000E+00 0. -1.
</event>
<event>
 7    1  0.7819001E-012  0.5930193E+02  0.7816164E-02  0.1266605E+00
        -11   -1    0    0    0    0  0.00000000000E+00  0.00000000000E+00  0.45593999997E+02  0.45594000000E+02  0.51100000000E-03 0.  1.
         11   -1    0    0    0    0 -0.00000000000E+00 -0.00000000000E+00 -0.45593999997E+02  0.45594000000E+02  0.51100000000E-03 0. -1.
    9900012    2    1    2    0    0  0.15773730794E+02  0.17446787947E+02  0.21529524671E+02  0.59301930544E+02  0.49999975409E+02 0.  0.
         12    1    1    2    0    0 -0.15773730794E+02 -0.17446787947E+02 -0.21529524671E+02  0.31886069456E+02  0.00000000000E+00 0. -1.
         11    1    3    3    0    0  0.51462350258E+01  0.19549231429E+02 -0.11704771688E+02  0.23359320729E+02  0.51100000000E-03 0. -1.
        -11    1    3    3    0    0  0.60092049780E+01 -0.53468976764E+01  0.19568567681E+02  0.21157237546E+02  0.51100000000E-03 0.  1.
         12    1    3    3    0    0  0.46182907903E+01  0.32444541938E+01  0.13665728677E+02  0.14785372269E+02  0.00000000000E+00 0. -1.
</event>
<event>
 7    1  0.7819001E-012  0.5930195E+02  0.7816164E-02  0.1266605E+00
        -11   -1    0    0    0    0  0.00000000000E+00  0.00000000000E+00  0.45593999997E+02  0.45594000000E+02  0.51100000000E-03 0. -1.
         11   -1    0    0    0    0 -0.00000000000E+00 -0.00000000000E+00 -0.45593999997E+02  0.45594000000E+02  0.51100000000E-03 0.  1.
    9900012    2    1    2    0    0  0.18990784185E+02 -0.69991634045E+01 -0.24639034770E+02  0.59301949653E+02  0.50000010259E+02 0.  0.
         12    1    1    2    0    0 -0.18990784185E+02  0.69991634045E+01  0.24639034770E+02  0.31886050347E+02  0.00000000000E+00 0. -1.
         11    1    3    3    0    0  0.20024683976E+02  0.49319436792E+01 -0.18958472073E+02  0.28013134427E+02  0.51100000000E-03 0. -1.
        -11    1    3    3    0    0  0.27524351362E+01 -0.16890601869E+02 -0.13131054304E+02  0.21570649459E+02  0.51100000000E-03 0.  1.
         12    1    3    3    0    0 -0.37863349273E+01  0.49594947852E+01  0.74504916068E+01  0.97181657677E+01  0.00000000000E+00 0. -1.
</event>
<event>
 7    1  0.7819001E-012  0.5930193E+02  0.7816164E-02  0.1266605E+00
        -11   -1    0    0    0    0  0.00000000000E+00  0.00000000000E+00  0.45593999997E+02  0.45594000000E+02  0.51100000000E-03 0.  1.
         11   -1    0    0    0    0 -0.00000000000E+00 -0.00000000000E+00 -0.45593999997E+02  0.45594000000E+02  0.51100000000E-03 0. -1.
    9900012    2    1    2    0    0  0.15901447756E+02  0.14993566193E+02 -0.23217628087E+02  0.59301932166E+02  0.49999978367E+02 0.  0.
         12    1    1    2    0    0 -0.15901447756E+02 -0.14993566193E+02  0.23217628087E+02  0.31886067834E+02  0.00000000000E+00 0. -1.
         11    1    3    3    0    0 -0.77485325950E+01  0.17630999507E+02 -0.79731677176E+01  0.20843783358E+02  0.51100000000E-03 0. -1.
        -11    1    3    3    0    0  0.25177812852E+02  0.63981920010E+01 -0.95983617726E+01  0.27694542240E+02  0.51100000000E-03 0.  1.
        -12    1    3    3    0    0 -0.15278325010E+01 -0.90356253146E+01 -0.56460985968E+01  0.10763606568E+02  0.00000000000E+00 0.  1.
</event>
<event>
 7    1  0.7819001E-012  0.5930184E+02  0.7816164E-02  0.1266605E+00
        -11   -1    0    0    0    0  0.00000000000E+00  0.00000000000E+00  0.45593999997E+02  0.45594000000E+02  0.51100000000E-03 0.  1.
         11   -1    0    0    0    0 -0.00000000000E+00 -0.00000000000E+00 -0.45593999997E+02  0.45594000000E+02  0.51100000000E-03 0. -1.
    9900012    2    1    2    0    0  0.35607777439E+00 -0.28137580011E+02 -0.14995899954E+02  0.59301839746E+02  0.49999809816E+02 0.  0.
         12    1    1    2    0    0 -0.35607777439E+00  0.28137580011E+02  0.14995899954E+02  0.31886160254E+02  0.00000000000E+00 0. -1.
         11    1    3    3    0    0  0.17429577092E+02 -0.12174758407E+02 -0.21996580594E+02  0.30591901837E+02  0.51100000000E-03 0. -1.
        -11    1    3    3    0    0 -0.17014147552E+02 -0.18596318156E+02  0.61964104603E+01  0.25955727089E+02  0.51100000000E-03 0.  1.
         12    1    3    3    0    0 -0.59351766061E-01  0.26334965520E+01  0.80427017965E+00  0.27542108204E+01  0.00000000000E+00 0. -1.
</event>
<event>
 7    1  0.7819001E-012  0.5930193E+02  0.7816164E-02  0.1266605E+00
        -11   -1    0    0    0    0  0.00000000000E+00  0.00000000000E+00  0.45593999997E+02  0.45594000000E+02  0.51100000000E-03 0.  1.
         11   -1    0    0    0    0 -0.00000000000E+00 -0.00000000000E+00 -0.45593999997E+02  0.45594000000E+02  0.51100000000E-03 0. -1.
    9900012    2    1    2    0    0  0.27512887491E+02  0.11728963691E+02  0.11054122203E+02  0.59301934313E+02  0.49999982282E+02 0.  0.
         12    1    1    2    0    0 -0.27512887491E+02 -0.11728963691E+02 -0.11054122203E+02  0.31886065687E+02  0.00000000000E+00 0. -1.
         11    1    3    3    0    0  0.40310395470E+01 -0.86135975844E+01  0.70930246451E+01  0.11863993512E+02  0.51100000000E-03 0. -1.
        -11    1    3    3    0    0  0.15061619086E+02  0.28732524079E+02  0.10208989542E+02  0.34009318975E+02  0.51100000000E-03 0.  1.
        -12    1    3    3    0    0  0.84202288581E+01 -0.83899628037E+01 -0.62478919848E+01  0.13428621825E+02  0.00000000000E+00 0.  1.
</event>
<event>
 7    1  0.7819001E-012  0.5930193E+02  0.7816164E-02  0.1266605E+00
        -11   -1    0    0    0    0  0.00000000000E+00  0.00000000000E+00  0.45593999997E+02  0.45594000000E+02  0.51100000000E-03 0.  1.
         11   -1    0    0    0    0 -0.00000000000E+00 -0.00000000000E+00 -0.45593999997E+02  0.45594000000E+02  0.51100000000E-03 0. -1.
    9900012    2    1    2    0    0 -0.23420059446E+02 -0.21416248494E+02  0.30930223234E+01  0.59301926690E+02  0.49999968381E+02 0.  0.
         12    1    1    2    0    0  0.23420059446E+02  0.21416248494E+02 -0.30930223234E+01  0.31886073310E+02  0.00000000000E+00 0. -1.
         11    1    3    3    0    0 -0.20043850391E+02 -0.26813024447E+02 -0.61352991586E+01  0.34034337286E+02  0.51100000000E-03 0.  1.
        -11    1    3    3    0    0 -0.41628134658E+00  0.99966755027E+01 -0.41365151230E+01  0.10826706281E+02  0.51100000000E-03 0. -1.
        -12    1    3    3    0    0 -0.29599277087E+01 -0.45998995499E+01  0.13364836605E+02  0.14440883124E+02  0.00000000000E+00 0.  1.
</event>
<event>
 7    1  0.7819001E-012  0.5930193E+02  0.7816164E-02  0.1266605E+00
        -11   -1    0    0    0    0  0.00000000000E+00  0.00000000000E+00  0.45593999997E+02  0.45594000000E+02  0.51100000000E-03 0. -1.
         11   -1    0    0    0    0 -0.00000000000E+00 -0.00000000000E+00 -0.45593999997E+02  0.45594000000E+02  0.51100000000E-03 0.  1.
    9900012    2    1    2    0    0  0.26817504885E+02  0.11789637860E+02 -0.12591551889E+02  0.59301932383E+02  0.49999978762E+02 0.  0.
         12    1    1    2    0    0 -0.26817504885E+02 -0.11789637860E+02  0.12591551889E+02  0.31886067617E+02  0.00000000000E+00 0. -1.
         11    1    3    3    0    0  0.16294659106E+02  0.35063119906E+01  0.97178536928E+01  0.19293698966E+02  0.51100000000E-03 0. -1.
        -11    1    3    3    0    0  0.17286864466E+02  0.11827915000E+02 -0.24334604091E+02  0.32107759386E+02  0.51100000000E-03 0.  1.
        -12    1    3    3    0    0 -0.67640186864E+01 -0.35445891306E+01  0.20251985092E+01  0.79004740299E+01  0.00000000000E+00 0.  1.
</event>
<event>
 7    1  0.7819001E-012  0.5930194E+02  0.7816164E-02  0.1266605E+00
        -11   -1    0    0    0    0  0.00000000000E+00  0.00000000000E+00  0.45593999997E+02  0.45594000000E+02  0.51100000000E-03 0. -1.
         11   -1    0    0    0    0 -0.00000000000E+00 -0.00000000000E+00 -0.45593999997E+02  0.45594000000E+02  0.51100000000E-03 0.  1.
    9900012    2    1    2    0    0  0.58674389122E+01  0.23081099933E+02 -0.21202753875E+02  0.59301940579E+02  0.49999993711E+02 0.  0.
         12    1    1    2    0    0 -0.58674389122E+01 -0.23081099933E+02  0.21202753875E+02  0.31886059421E+02  0.00000000000E+00 0. -1.
         11    1    3    3    0    0  0.88810176422E+00 -0.94558487059E+01  0.33119181387E+01  0.10058359782E+02  0.51100000000E-03 0. -1.
        -11    1    3    3    0    0  0.94998684813E+01  0.29816996528E+02 -0.85660306886E+01  0.32444994454E+02  0.51100000000E-03 0.  1.
        -12    1    3    3    0    0 -0.45205313333E+01  0.27199521113E+01 -0.15948641325E+02  0.16798586343E+02  0.00000000000E+00 0.  1.
</event>
<event>
 7    1  0.7819001E-012  0.5930200E+02  0.7816164E-02  0.1266605E+00
        -11   -1    0    0    0    0  0.00000000000E+00  0.00000000000E+00  0.45593999997E+02  0.45594000000E+02  0.51100000000E-03 0.  1.
         11   -1    0    0    0    0 -0.00000000000E+00 -0.00000000000E+00 -0.45593999997E+02  0.45594000000E+02  0.51100000000E-03 0. -1.
    9900012    2    1    2    0    0  0.62195871012E+01 -0.16134498904E+02  0.26790142298E+02  0.59301999264E+02  0.50000100738E+02 0.  0.
         12    1    1    2    0    0 -0.62195871012E+01  0.16134498904E+02 -0.26790142298E+02  0.31886000736E+02  0.00000000000E+00 0. -1.
         11    1    3    3    0    0 -0.10854734827E+02 -0.80373547056E+01  0.25693833869E+02  0.29027528968E+02  0.51100000000E-03 0. -1.
        -11    1    3    3    0    0  0.13445619146E+02 -0.59818544020E+01  0.11744262108E+02  0.18828036250E+02  0.51100000000E-03 0.  1.
         12    1    3    3    0    0  0.36287027824E+01 -0.21152897961E+01 -0.10647953680E+02  0.11446434046E+02  0.00000000000E+00 0. -1.
</event>
<event>
 7    1  0.7819001E-012  0.5930195E+02  0.7816164E-02  0.1266605E+00
        -11   -1    0    0    0    0  0.00000000000E+00  0.00000000000E+00  0.45593999997E+02  0.45594000000E+02  0.51100000000E-03 0.  1.
         11   -1    0    0    0    0 -0.00000000000E+00 -0.00000000000E+00 -0.45593999997E+02  0.45594000000E+02  0.51100000000E-03 0. -1.
    9900012    2    1    2    0    0  0.75515157559E+01  0.99630884563E+01  0.29333111368E+02  0.59301953768E+02  0.50000017764E+02 0.  0.
         12    1    1    2    0    0 -0.75515157559E+01 -0.99630884563E+01 -0.29333111368E+02  0.31886046232E+02  0.00000000000E+00 0. -1.
         11    1    3    3    0    0  0.27947007441E+01 -0.44164524230E+01  0.13338965061E+02  0.14326318209E+02  0.51100000000E-03 0. -1.
        -11    1    3    3    0    0 -0.12728557734E+02  0.14757432665E+02 -0.23507869735E+01  0.19629676526E+02  0.51100000000E-03 0.  1.
        -12    1    3    3    0    0  0.17485372746E+02 -0.37789178535E+00  0.18344933280E+02  0.25345959033E+02  0.00000000000E+00 0.  1.
</event>
<event>
 7    1  0.7819001E-012  0.5930200E+02  0.7816164E-02  0.1266605E+00
        -11   -1    0    0    0    0  0.00000000000E+00  0.00000000000E+00  0.45593999997E+02  0.45594000000E+02  0.51100000000E-03 0.  1.
         11   -1    0    0    0    0 -0.00000000000E+00 -0.00000000000E+00 -0.45593999997E+02  0.45594000000E+02  0.51100000000E-03 0. -1.
    9900012    2    1    2    0    0 -0.26410075762E+02  0.17606752054E+02  0.30376172817E+01  0.59302000903E+02  0.50000103727E+02 0.  0.
         12    1    1    2    0    0  0.26410075762E+02 -0.17606752054E+02 -0.30376172817E+01  0.31885999097E+02  0.00000000000E+00 0. -1.
         11    1    3    3    0    0  0.40870143831E+01  0.16473222584E+02 -0.20560106644E+01  0.17096722756E+02  0.51100000000E-03 0. -1.
        -11    1    3    3    0    0 -0.20071044809E+02 -0.28166182937E+01  0.16589078341E+02  0.26191175972E+02  0.51100000000E-03 0.  1.
        -12    1    3    3    0    0 -0.10426045336E+02  0.39501477643E+01 -0.11495450395E+02  0.16014102176E+02  0.00000000000E+00 0.  1.
</event>
<event>
 7    1  0.7819001E-012  0.5930194E+02  0.7816164E-02  0.1266605E+00
        -11   -1    0    0    0    0  0.00000000000E+00  0.00000000000E+00  0.45593999997E+02  0.45594000000E+02  0.51100000000E-03 0.  1.
         11   -1    0    0    0    0 -0.00000000000E+00 -0.00000000000E+00 -0.45593999997E+02  0.45594000000E+02  0.51100000000E-03 0. -1.
    9900012    2    1    2    0    0 -0.21767074621E+02 -0.14058297962E+02  0.18581699353E+02  0.59301939880E+02  0.49999992435E+02 0.  0.
         12    1    1    2    0    0  0.21767074621E+02  0.14058297962E+02 -0.18581699353E+02  0.31886060120E+02  0.00000000000E+00 0. -1.
         11    1    3    3    0    0 -0.74074010998E+01 -0.12507446680E+02  0.23974763841E+01  0.14732742677E+02  0.51100000000E-03 0. -1.
        -11    1    3    3    0    0  0.45232161873E+01 -0.11942928089E+01  0.23762944491E+02  0.24219069989E+02  0.51100000000E-03 0.  1.
        -12    1    3    3    0    0 -0.18882889709E+02 -0.35655847336E+00 -0.75787215227E+01  0.20350127214E+02  0.00000000000E+00 0.  1.
</event>
<event>
 7    1  0.7819001E-012  0.5930196E+02  0.7816164E-02  0.1266605E+00
        -11   -1    0    0    0    0  0.00000000000E+00  0.00000000000E+00  0.45593999997E+02  0.45594000000E+02  0.51100000000E-03 0. -1.
         11   -1    0    0    0    0 -0.00000000000E+00 -0.00000000000E+00 -0.45593999997E+02  0.45594000000E+02  0.51100000000E-03 0.  1.
    9900012    2    1    2    0    0  0.30884480204E+02  0.58732365587E+00 -0.79071901217E+01  0.59301957251E+02  0.50000024117E+02 0.  0.
         12    1    1    2    0    0 -0.30884480204E+02 -0.58732365587E+00  0.79071901217E+01  0.31886042749E+02  0.00000000000E+00 0. -1.
         11    1    3    3    0    0  0.91270768279E+01 -0.20096987858E+02 -0.30579022584E+01  0.22283249738E+02  0.51100000000E-03 0.  1.
        -11    1    3    3    0    0  0.38310169538E+00  0.13976982699E+02  0.48403649846E+00  0.13990607702E+02  0.51100000000E-03 0. -1.
        -12    1    3    3    0    0  0.21374301681E+02  0.67073288147E+01 -0.53333243618E+01  0.23028099811E+02  0.00000000000E+00 0.  1.
</event>
<event>
 7    1  0.7819001E-012  0.5930194E+02  0.7816164E-02  0.1266605E+00
        -11   -1    0    0    0    0  0.00000000000E+00  0.00000000000E+00  0.45593999997E+02  0.45594000000E+02  0.51100000000E-03 0.  1.
         11   -1    0    0    0    0 -0.00000000000E+00 -0.00000000000E+00 -0.45593999997E+02  0.45594000000E+02  0.51100000000E-03 0. -1.
    9900012    2    1    2    0    0 -0.12081560572E+01  0.79191408299E+01  0.30863377801E+02  0.59301944712E+02  0.50000001247E+02 0.  0.
         12    1    1    2    0    0  0.12081560572E+01 -0.79191408299E+01 -0.30863377801E+02  0.31886055288E+02  0.00000000000E+00 0. -1.
         11    1    3    3    0    0  0.26505649185E+00 -0.21235924715E+01 -0.82114998879E+01  0.84857899219E+01  0.51100000000E-03 0. -1.
        -11    1    3    3    0    0  0.40591987509E+01  0.10201566788E+00  0.39228996139E+02  0.39438580604E+02  0.51100000000E-03 0.  1.
        -12    1    3    3    0    0 -0.55324113000E+01  0.99407176335E+01 -0.15411845004E+00  0.11377574186E+02  0.00000000000E+00 0.  1.
</event>
<event>
 7    1  0.7819001E-012  0.5930194E+02  0.7816164E-02  0.1266605E+00
        -11   -1    0    0    0    0  0.00000000000E+00  0.00000000000E+00  0.45593999997E+02  0.45594000000E+02  0.51100000000E-03 0.  1.
         11   -1    0    0    0    0 -0.00000000000E+00 -0.00000000000E+00 -0.45593999997E+02  0.45594000000E+02  0.51100000000E-03 0. -1.
    9900012    2    1    2    0    0  0.12599914817E+02  0.13465957086E+02  0.26012129101E+02  0.59301941698E+02  0.49999995751E+02 0.  0.
         12    1    1    2    0    0 -0.12599914817E+02 -0.13465957086E+02 -0.26012129101E+02  0.31886058302E+02  0.00000000000E+00 0. -1.
         11    1    3    3    0    0 -0.49237476703E+01  0.25894788458E+02  0.81077107983E+01  0.27577496896E+02  0.51100000000E-03 0. -1.
        -11    1    3    3    0    0  0.11648483294E+02  0.67878804956E+00  0.63121565700E+01  0.13266168893E+02  0.51100000000E-03 0.  1.
         12    1    3    3    0    0  0.58751791937E+01 -0.13107619422E+02  0.11592261733E+02  0.18458275909E+02  0.00000000000E+00 0. -1.
</event>
<event>
 7    1  0.7819001E-012  0.5930197E+02  0.7816164E-02  0.1266605E+00
        -11   -1    0    0    0    0  0.00000000000E+00  0.00000000000E+00  0.45593999997E+02  0.45594000000E+02  0.51100000000E-03 0. -1.
         11   -1    0    0    0    0 -0.00000000000E+00 -0.00000000000E+00 -0.45593999997E+02  0.45594000000E+02  0.51100000000E-03 0.  1.
    9900012    2    1    2    0    0 -0.62699778529E+01  0.31164405747E+02  0.24872122328E+01  0.59301968066E+02  0.50000043839E+02 0.  0.
         12    1    1    2    0    0  0.62699778529E+01 -0.31164405747E+02 -0.24872122328E+01  0.31886031934E+02  0.00000000000E+00 0. -1.
         11    1    3    3    0    0  0.38166964642E+01  0.42086396238E+02  0.20084664424E+00  0.42259581870E+02  0.51100000000E-03 0. -1.
        -11    1    3    3    0    0 -0.36166172859E+01 -0.93384029325E+01  0.26895671650E+01  0.10369159162E+02  0.51100000000E-03 0.  1.
         12    1    3    3    0    0 -0.64700570311E+01 -0.15835875580E+01 -0.40320157641E+00  0.66732270342E+01  0.00000000000E+00 0. -1.
</event>
<event>
 7    1  0.7819001E-012  0.5930199E+02  0.7816164E-02  0.1266605E+00
        -11   -1    0    0    0    0  0.00000000000E+00  0.00000000000E+00  0.45593999997E+02  0.45594000000E+02  0.51100000000E-03 0. -1.
         11   -1    0    0    0    0 -0.00000000000E+00 -0.00000000000E+00 -0.45593999997E+02  0.45594000000E+02  0.51100000000E-03 0.  1.
    9900012    2    1    2    0    0 -0.19518674125E+02  0.11338185893E+02 -0.22520755352E+02  0.59301991774E+02  0.50000087078E+02 0.  0.
         12    1    1    2    0    0  0.19518674125E+02 -0.11338185893E+02  0.22520755352E+02  0.31886008226E+02  0.00000000000E+00 0. -1.
         11    1    3    3    0    0 -0.10837497488E+02  0.29027453910E+01 -0.49344011049E+01  0.12256655218E+02  0.51100000000E-03 0. -1.
        -11    1    3    3    0    0  0.64635091567E+01  0.78805491661E+00 -0.26909778108E+02  0.27686352942E+02  0.51100000000E-03 0.  1.
        -12    1    3    3    0    0 -0.15144685794E+02  0.76473855852E+01  0.93234238603E+01  0.19358983614E+02  0.00000000000E+00 0.  1.
</event>
<event>
 7    1  0.7819001E-012  0.5930195E+02  0.7816164E-02  0.1266605E+00
        -11   -1    0    0    0    0  0.00000000000E+00  0.00000000000E+00  0.45593999997E+02  0.45594000000E+02  0.51100000000E-03 0. -1.
         11   -1    0    0    0    0 -0.00000000000E+00 -0.00000000000E+00 -0.45593999997E+02  0.45594000000E+02  0.51100000000E-03 0.  1.
    9900012    2    1    2    0    0  0.54860545368E+01 -0.13539144483E+02 -0.28342815777E+02  0.59301946092E+02  0.50000003764E+02 0.  0.
         12    1    1    2    0    0 -0.54860545368E+01  0.13539144483E+02  0.28342815777E+02  0.31886053908E+02  0.00000000000E+00 0. -1.
         11    1    3    3    0    0 -0.10176438201E+02 -0.16006569524E+02 -0.21631361653E+02  0.28769531967E+02  0.51100000000E-03 0. -1.
        -11    1    3    3    0    0  0.75613463376E+01  0.13605843451E+02 -0.61847227990E+01  0.16749439716E+02  0.51100000000E-03 0.  1.
         12    1    3    3    0    0  0.81011464001E+01 -0.11138418409E+02 -0.52673132432E+00  0.13782974408E+02  0.00000000000E+00 0. -1.
</event>
<event>
 7    1  0.7819001E-012  0.5930194E+02  0.7816164E-02  0.1266605E+00
        -11   -1    0    0    0    0  0.00000000000E+00  0.00000000000E+00  0.45593999997E+02  0.45594000000E+02  0.51100000000E-03 0.  1.
         11   -1    0    0    0    0 -0.00000000000E+00 -0.00000000000E+00 -0.45593999997E+02  0.45594000000E+02  0.51100000000E-03 0. -1.
    9900012    2    1    2    0    0  0.23345436697E+02  0.19823294961E+02  0.88740172650E+01  0.59301943171E+02  0.49999998437E+02 0.  0.
         12    1    1    2    0    0 -0.23345436697E+02 -0.19823294961E+02 -0.88740172650E+01  0.31886056829E+02  0.00000000000E+00 0. -1.
         11    1    3    3    0    0  0.11152691305E+02  0.26030850049E+01 -0.19337325014E+02  0.22474223320E+02  0.51100000000E-03 0. -1.
        -11    1    3    3    0    0  0.77958977994E+01  0.12769586103E+02  0.11160475105E+02  0.18665330337E+02  0.51100000000E-03 0.  1.
         12    1    3    3    0    0  0.43968475934E+01  0.44506238529E+01  0.17050867174E+02  0.18162389513E+02  0.00000000000E+00 0. -1.
</event>
<event>
 7    1  0.7819001E-012  0.5930193E+02  0.7816164E-02  0.1266605E+00
        -11   -1    0    0    0    0  0.00000000000E+00  0.00000000000E+00  0.45593999997E+02  0.45594000000E+02  0.51100000000E-03 0.  1.
         11   -1    0    0    0    0 -0.00000000000E+00 -0.00000000000E+00 -0.45593999997E+02  0.45594000000E+02  0.51100000000E-03 0. -1.
    9900012    2    1    2    0    0 -0.16703861338E+02  0.93092341141E+01  0.25515498141E+02  0.59301929863E+02  0.49999974167E+02 0.  0.
         12    1    1    2    0    0  0.16703861338E+02 -0.93092341141E+01 -0.25515498141E+02  0.31886070137E+02  0.00000000000E+00 0. -1.
         11    1    3    3    0    0  0.97884940185E+00 -0.49384351661E+01 -0.13214229527E+01  0.52050405303E+01  0.51100000000E-03 0.  1.
        -11    1    3    3    0    0  0.11209166813E+02  0.12024212740E+02  0.16606426638E+02  0.23366653988E+02  0.51100000000E-03 0. -1.
        -12    1    3    3    0    0 -0.28891877553E+02  0.22234565400E+01  0.10230494456E+02  0.30730235345E+02  0.00000000000E+00 0.  1.
</event>
<event>
 7    1  0.7819001E-012  0.5930201E+02  0.7816164E-02  0.1266605E+00
        -11   -1    0    0    0    0  0.00000000000E+00  0.00000000000E+00  0.45593999997E+02  0.45594000000E+02  0.51100000000E-03 0.  1.
         11   -1    0    0    0    0 -0.00000000000E+00 -0.00000000000E+00 -0.45593999997E+02  0.45594000000E+02  0.51100000000E-03 0. -1.
    9900012    2    1    2    0    0  0.27311913409E+02  0.12949614173E+02  0.10152976741E+02  0.59302014708E+02  0.50000128904E+02 0.  0.
         12    1    1    2    0    0 -0.27311913409E+02 -0.12949614173E+02 -0.10152976741E+02  0.31885985292E+02  0.00000000000E+00 0. -1.
         11    1    3    3    0    0  0.31452101245E+00 -0.10950912114E+02 -0.10235578618E+02  0.14992947325E+02  0.51100000000E-03 0. -1.
        -11    1    3    3    0    0  0.24892340802E+02  0.16385639445E+02  0.21036439329E+02  0.36478069995E+02  0.51100000000E-03 0.  1.
        -12    1    3    3    0    0  0.21050515948E+01  0.75148868415E+01 -0.64788396956E+00  0.78309973883E+01  0.00000000000E+00 0.  1.
</event>
<event>
 7    1  0.7819001E-012  0.5930194E+02  0.7816164E-02  0.1266605E+00
        -11   -1    0    0    0    0  0.00000000000E+00  0.00000000000E+00  0.45593999997E+02  0.45594000000E+02  0.51100000000E-03 0. -1.
         11   -1    0    0    0    0 -0.00000000000E+00 -0.00000000000E+00 -0.45593999997E+02  0.45594000000E+02  0.51100000000E-03 0.  1.
    9900012    2    1    2    0    0  0.24335243294E+02  0.82219015373E+01 -0.18892250517E+02  0.59301939399E+02  0.49999991558E+02 0.  0.
         12    1    1    2    0    0 -0.24335243294E+02 -0.82219015373E+01  0.18892250517E+02  0.31886060601E+02  0.00000000000E+00 0. -1.
         11    1    3    3    0    0 -0.32299877864E-01  0.13278011895E+02 -0.34126823360E+01  0.13709596791E+02  0.51100000000E-03 0. -1.
        -11    1    3    3    0    0  0.24818855134E+02 -0.91826787290E+01  0.30180287977E+01  0.26634670204E+02  0.51100000000E-03 0.  1.
        -12    1    3    3    0    0 -0.45131196201E+00  0.41265683711E+01 -0.18497596979E+02  0.18957672405E+02  0.00000000000E+00 0.  1.
</event>
<event>
 7    1  0.7819001E-012  0.5930194E+02  0.7816164E-02  0.1266605E+00
        -11   -1    0    0    0    0  0.00000000000E+00  0.00000000000E+00  0.45593999997E+02  0.45594000000E+02  0.51100000000E-03 0. -1.
         11   -1    0    0    0    0 -0.00000000000E+00 -0.00000000000E+00 -0.45593999997E+02  0.45594000000E+02  0.51100000000E-03 0.  1.
    9900012    2    1    2    0    0  0.12741117520E+02  0.11129457362E+02 -0.27028137079E+02  0.59301935790E+02  0.49999984976E+02 0.  0.
         12    1    1    2    0    0 -0.12741117520E+02 -0.11129457362E+02  0.27028137079E+02  0.31886064210E+02  0.00000000000E+00 0. -1.
         11    1    3    3    0    0 -0.11951266396E+02 -0.15895742263E+01 -0.13355025383E+01  0.12130254819E+02  0.51100000000E-03 0. -1.
        -11    1    3    3    0    0  0.25840599615E+02 -0.85498034163E+00 -0.15352948061E+02  0.30069595844E+02  0.51100000000E-03 0.  1.
        -12    1    3    3    0    0 -0.11482156984E+01  0.13574011930E+02 -0.10339686480E+02  0.17102085126E+02  0.00000000000E+00 0.  1.
</event>
<event>
 7    1  0.7819001E-012  0.5930196E+02  0.7816164E-02  0.1266605E+00
        -11   -1    0    0    0    0  0.00000000000E+00  0.00000000000E+00  0.45593999997E+02  0.45594000000E+02  0.51100000000E-03 0. -1.
         11   -1    0    0    0    0 -0.00000000000E+00 -0.00000000000E+00 -0.45593999997E+02  0.45594000000E+02  0.51100000000E-03 0.  1.
    9900012    2    1    2    0    0 -0.29649025192E+02 -0.10526016786E+02  0.51824682364E+01  0.59301957580E+02  0.50000024715E+02 0.  0.
         12    1    1    2    0    0  0.29649025192E+02  0.10526016786E+02 -0.51824682364E+01  0.31886042420E+02  0.00000000000E+00 0. -1.
         11    1    3    3    0    0 -0.16105216675E+01  0.38542947158E+01 -0.69493146223E+01  0.81081651302E+01  0.51100000000E-03 0. -1.
        -11    1    3    3    0    0 -0.31183928616E+02 -0.12745973915E+02  0.22316775072E+02  0.40409599167E+02  0.51100000000E-03 0.  1.
        -12    1    3    3    0    0  0.31454250922E+01 -0.16343375873E+01 -0.10184992213E+02  0.10784193282E+02  0.00000000000E+00 0.  1.
</event>
<event>
 7    1  0.7819001E-012  0.5930194E+02  0.7816164E-02  0.1266605E+00
        -11   -1    0    0    0    0  0.00000000000E+00  0.00000000000E+00  0.45593999997E+02  0.45594000000E+02  0.51100000000E-03 0. -1.
         11   -1    0    0    0    0 -0.00000000000E+00 -0.00000000000E+00 -0.45593999997E+02  0.45594000000E+02  0.51100000000E-03 0.  1.
    9900012    2    1    2    0    0  0.24191970857E+02 -0.18693473412E+02 -0.90566633800E+01  0.59301944212E+02  0.50000000335E+02 0.  0.
         12    1    1    2    0    0 -0.24191970857E+02  0.18693473412E+02  0.90566633800E+01  0.31886055788E+02  0.00000000000E+00 0. -1.
         11    1    3    3    0    0 -0.12036998300E+02 -0.12172999016E+01  0.22945022767E+01  0.12314052464E+02  0.51100000000E-03 0. -1.
        -11    1    3    3    0    0  0.11353392940E+02 -0.17332594908E+02 -0.50880976120E+01  0.21335583307E+02  0.51100000000E-03 0.  1.
         12    1    3    3    0    0  0.24875576218E+02 -0.14357860276E+00 -0.62630680447E+01  0.25652308440E+02  0.00000000000E+00 0. -1.
</event>
<event>
 7    1  0.7819001E-012  0.5930191E+02  0.7816164E-02  0.1266605E+00
        -11   -1    0    0    0    0  0.00000000000E+00  0.00000000000E+00  0.45593999997E+02  0.45594000000E+02  0.51100000000E-03 0.  1.
         11   -1    0    0    0    0 -0.00000000000E+00 -0.00000000000E+00 -0.45593999997E+02  0.45594000000E+02  0.51100000000E-03 0. -1.
    9900012    2    1    2    0    0 -0.13208031926E+02 -0.21275514390E+02  0.19738880499E+02  0.59301905488E+02  0.49999929712E+02 0.  0.
         12    1    1    2    0    0  0.13208031926E+02  0.21275514390E+02 -0.19738880499E+02  0.31886094512E+02  0.00000000000E+00 0. -1.
         11    1    3    3    0    0 -0.43298388291E+01  0.41162426481E+01  0.28147498803E+02  0.28774513844E+02  0.51100000000E-03 0. -1.
        -11    1    3    3    0    0 -0.23618368257E+01 -0.10288103473E+02  0.24253047564E+01  0.10830764039E+02  0.51100000000E-03 0.  1.
         12    1    3    3    0    0 -0.65163562715E+01 -0.15103653565E+02 -0.10833923061E+02  0.19696627604E+02  0.00000000000E+00 0. -1.
</event>
<event>
 7    1  0.7819001E-012  0.5930194E+02  0.7816164E-02  0.1266605E+00
        -11   -1    0    0    0    0  0.00000000000E+00  0.00000000000E+00  0.45593999997E+02  0.45594000000E+02  0.51100000000E-03 0. -1.
         11   -1    0    0    0    0 -0.00000000000E+00 -0.00000000000E+00 -0.45593999997E+02  0.45594000000E+02  0.51100000000E-03 0.  1.
    9900012    2    1    2    0    0  0.99460654570E+00  0.19897679780E+02  0.24896060272E+02  0.59301941607E+02  0.49999995584E+02 0.  0.
         12    1    1    2    0    0 -0.99460654570E+00 -0.19897679780E+02 -0.24896060272E+02  0.31886058393E+02  0.00000000000E+00 0. -1.
         11    1    3    3    0    0 -0.14861658922E+01  0.62177890077E+01  0.13025277404E+02  0.14509563774E+02  0.51100000000E-03 0. -1.
        -11    1    3    3    0    0 -0.63603742583E+00  0.38538896178E-01 -0.14725724590E+02  0.14739504531E+02  0.51100000000E-03 0.  1.
        -12    1    3    3    0    0  0.31168098637E+01  0.13641351876E+02  0.26596507458E+02  0.30052873302E+02  0.00000000000E+00 0.  1.
</event>
<event>
 7    1  0.7819001E-012  0.5930195E+02  0.7816164E-02  0.1266605E+00
        -11   -1    0    0    0    0  0.00000000000E+00  0.00000000000E+00  0.45593999997E+02  0.45594000000E+02  0.51100000000E-03 0.  1.
         11   -1    0    0    0    0 -0.00000000000E+00 -0.00000000000E+00 -0.45593999997E+02  0.45594000000E+02  0.51100000000E-03 0. -1.
    9900012    2    1    2    0    0  0.25726752381E+02  0.16683710703E+02  0.87469123616E+01  0.59301945576E+02  0.50000002823E+02 0.  0.
         12    1    1    2    0    0 -0.25726752381E+02 -0.16683710703E+02 -0.87469123616E+01  0.31886054424E+02  0.00000000000E+00 0. -1.
         11    1    3    3    0    0  0.45785715702E+01 -0.70738065950E+01 -0.53018424685E+01  0.99554804599E+01  0.51100000000E-03 0. -1.
        -11    1    3    3    0    0 -0.58180915149E+00  0.47400255787E+01  0.19399203501E+02  0.19978374336E+02  0.51100000000E-03 0.  1.
        -12    1    3    3    0    0  0.21729989962E+02  0.19017491719E+02 -0.53504486714E+01  0.29368090779E+02  0.00000000000E+00 0.  1.
</event>
<event>
 7    1  0.7819001E-012  0.5930197E+02  0.7816164E-02  0.1266605E+00
        -11   -1    0    0    0    0  0.00000000000E+00  0.00000000000E+00  0.45593999997E+02  0.45594000000E+02  0.51100000000E-03 0.  1.
         11   -1    0    0    0    0 -0.00000000000E+00 -0.00000000000E+00 -0.45593999997E+02  0.45594000000E+02  0.51100000000E-03 0. -1.
    9900012    2    1    2    0    0 -0.14894585111E+02 -0.71383903325E+01  0.27274777025E+02  0.59301972591E+02  0.50000052093E+02 0.  0.
         12    1    1    2    0    0  0.14894585111E+02  0.71383903325E+01 -0.27274777025E+02  0.31886027409E+02  0.00000000000E+00 0. -1.
         11    1    3    3    0    0 -0.78726492923E+01 -0.11729290095E+02  0.90786295101E+01  0.16792151949E+02  0.51100000000E-03 0. -1.
        -11    1    3    3    0    0 -0.19351780840E+02  0.12744830352E+02  0.78439785147E+01  0.24463240210E+02  0.51100000000E-03 0.  1.
         12    1    3    3    0    0  0.12329845021E+02 -0.81539305889E+01  0.10352169000E+02  0.18046580432E+02  0.00000000000E+00 0. -1.
</event>
<event>
 7    1  0.7819001E-012  0.5930194E+02  0.7816164E-02  0.1266605E+00
        -11   -1    0    0    0    0  0.00000000000E+00  0.00000000000E+00  0.45593999997E+02  0.45594000000E+02  0.51100000000E-03 0.  1.
         11   -1    0    0    0    0 -0.00000000000E+00 -0.00000000000E+00 -0.45593999997E+02  0.45594000000E+02  0.51100000000E-03 0. -1.
    9900012    2    1    2    0    0 -0.23448474150E+02  0.65511020912E+01  0.20590605231E+02  0.59301938745E+02  0.49999990365E+02 0.  0.
         12    1    1    2    0    0  0.23448474150E+02 -0.65511020912E+01 -0.20590605231E+02  0.31886061255E+02  0.00000000000E+00 0. -1.
         11    1    3    3    0    0 -0.28671747105E+02  0.60936166922E+01  0.82598003249E+01  0.30453662311E+02  0.51100000000E-03 0. -1.
        -11    1    3    3    0    0 -0.20168406236E+01 -0.19738286054E+01  0.18694989520E+02  0.18906778649E+02  0.51100000000E-03 0.  1.
         12    1    3    3    0    0  0.72401135786E+01  0.24313140043E+01 -0.63641846137E+01  0.99414977853E+01  0.00000000000E+00 0. -1.
</event>
<event>
 7    1  0.7819001E-012  0.5930194E+02  0.7816164E-02  0.1266605E+00
        -11   -1    0    0    0    0  0.00000000000E+00  0.00000000000E+00  0.45593999997E+02  0.45594000000E+02  0.51100000000E-03 0.  1.
         11   -1    0    0    0    0 -0.00000000000E+00 -0.00000000000E+00 -0.45593999997E+02  0.45594000000E+02  0.51100000000E-03 0. -1.
    9900012    2    1    2    0    0  0.20492413864E+02  0.20729961483E+02  0.12924807144E+02  0.59301937703E+02  0.49999988466E+02 0.  0.
         12    1    1    2    0    0 -0.20492413864E+02 -0.20729961483E+02 -0.12924807144E+02  0.31886062297E+02  0.00000000000E+00 0. -1.
         11    1    3    3    0    0 -0.38100488381E+01 -0.70223554350E+01  0.42017171453E+01  0.90268696255E+01  0.51100000000E-03 0. -1.
        -11    1    3    3    0    0  0.32124295682E+02  0.19559230060E+02  0.98869923913E+01  0.38888127654E+02  0.51100000000E-03 0.  1.
        -12    1    3    3    0    0 -0.78218329805E+01  0.81930868580E+01 -0.11639023922E+01  0.11386940424E+02  0.00000000000E+00 0.  1.
</event>
<event>
 7    1  0.7819001E-012  0.5930194E+02  0.7816164E-02  0.1266605E+00
        -11   -1    0    0    0    0  0.00000000000E+00  0.00000000000E+00  0.45593999997E+02  0.45594000000E+02  0.51100000000E-03 0.  1.
         11   -1    0    0    0    0 -0.00000000000E+00 -0.00000000000E+00 -0.45593999997E+02  0.45594000000E+02  0.51100000000E-03 0. -1.
    9900012    2    1    2    0    0 -0.27387878396E+02  0.12218286445E+02 -0.10832287368E+02  0.59301939467E+02  0.49999991682E+02 0.  0.
         12    1    1    2    0    0  0.27387878396E+02 -0.12218286445E+02  0.10832287368E+02  0.31886060533E+02  0.00000000000E+00 0. -1.
         11    1    3    3    0    0  0.12453828930E+02  0.15241332796E+01 -0.87768768000E+01  0.15311903993E+02  0.51100000000E-03 0. -1.
        -11    1    3    3    0    0 -0.38981557315E+02  0.66693741421E+01 -0.38922297520E+00  0.39549890733E+02  0.51100000000E-03 0.  1.
         12    1    3    3    0    0 -0.86015001053E+00  0.40247790235E+01 -0.16661875929E+01  0.44401447413E+01  0.00000000000E+00 0. -1.
</event>
<event>
 7    1  0.7819001E-012  0.5930195E+02  0.7816164E-02  0.1266605E+00
        -11   -1    0    0    0    0  0.00000000000E+00  0.00000000000E+00  0.45593999997E+02  0.45594000000E+02  0.51100000000E-03 0.  1.
         11   -1    0    0    0    0 -0.00000000000E+00 -0.00000000000E+00 -0.45593999997E+02  0.45594000000E+02  0.51100000000E-03 0. -1.
    9900012    2    1    2    0    0 -0.50031139663E+01  0.21852080713E+02  0.22675441541E+02  0.59301949289E+02  0.50000009596E+02 0.  0.
         12    1    1    2    0    0  0.50031139663E+01 -0.21852080713E+02 -0.22675441541E+02  0.31886050711E+02  0.00000000000E+00 0. -1.
         11    1    3    3    0    0  0.68605839599E+01  0.14540737390E+02 -0.11988063102E+02  0.20055281431E+02  0.51100000000E-03 0. -1.
        -11    1    3    3    0    0  0.19205030913E+01  0.92601717538E+00  0.10426902302E+02  0.10642656239E+02  0.51100000000E-03 0.  1.
         12    1    3    3    0    0 -0.13784201017E+02  0.63853261482E+01  0.24236602340E+02  0.28604011619E+02  0.00000000000E+00 0. -1.
</event>
<event>
 7    1  0.7819001E-012  0.5930194E+02  0.7816164E-02  0.1266605E+00
        -11   -1    0    0    0    0  0.00000000000E+00  0.00000000000E+00  0.45593999997E+02  0.45594000000E+02  0.51100000000E-03 0.  1.
         11   -1    0    0    0    0 -0.00000000000E+00 -0.00000000000E+00 -0.45593999997E+02  0.45594000000E+02  0.51100000000E-03 0. -1.
    9900012    2    1    2    0    0 -0.11280306877E+01 -0.14693656220E+01  0.31832204657E+02  0.59301941261E+02  0.49999994954E+02 0.  0.
         12    1    1    2    0    0  0.11280306877E+01  0.14693656220E+01 -0.31832204657E+02  0.31886058739E+02  0.00000000000E+00 0. -1.
         11    1    3    3    0    0 -0.96419746113E+01  0.73140183303E+00  0.60020449201E+01  0.11381000243E+02  0.51100000000E-03 0. -1.
        -11    1    3    3    0    0  0.19616574439E+02  0.93543731854E+01  0.62386057034E+01  0.22610495169E+02  0.51100000000E-03 0.  1.
        -12    1    3    3    0    0 -0.11102630516E+02 -0.11555140640E+02  0.19591554034E+02  0.25310445849E+02  0.00000000000E+00 0.  1.
</event>
<event>
 7    1  0.7819001E-012  0.5930193E+02  0.7816164E-02  0.1266605E+00
        -11   -1    0    0    0    0  0.00000000000E+00  0.00000000000E+00  0.45593999997E+02  0.45594000000E+02  0.51100000000E-03 0.  1.
         11   -1    0    0    0    0 -0.00000000000E+00 -0.00000000000E+00 -0.45593999997E+02  0.45594000000E+02  0.51100000000E-03 0. -1.
    9900012    2    1    2    0    0 -0.31589905095E+02  0.18944443819E+00  0.43316829296E+01  0.59301929843E+02  0.49999974130E+02 0.  0.
         12    1    1    2    0    0  0.31589905095E+02 -0.18944443819E+00 -0.43316829296E+01  0.31886070157E+02  0.00000000000E+00 0. -1.
         11    1    3    3    0    0 -0.15614912181E+02 -0.76764317244E+01 -0.12869957759E+02  0.21642294228E+02  0.51100000000E-03 0. -1.
        -11    1    3    3    0    0 -0.17347161243E+02  0.50109561110E+01  0.24073636611E+02  0.30092751026E+02  0.51100000000E-03 0.  1.
        -12    1    3    3    0    0  0.13721683299E+01  0.28549200516E+01 -0.68719959223E+01  0.75668845889E+01  0.00000000000E+00 0.  1.
</event>
<event>
 7    1  0.7819001E-012  0.5930196E+02  0.7816164E-02  0.1266605E+00
        -11   -1    0    0    0    0  0.00000000000E+00  0.00000000000E+00  0.45593999997E+02  0.45594000000E+02  0.51100000000E-03 0. -1.
         11   -1    0    0    0    0 -0.00000000000E+00 -0.00000000000E+00 -0.45593999997E+02  0.45594000000E+02  0.51100000000E-03 0.  1.
    9900012    2    1    2    0    0  0.10459838924E+02  0.23368070980E+02 -0.19006437609E+02  0.59301958505E+02  0.50000026403E+02 0.  0.
         12    1    1    2    0    0 -0.10459838924E+02 -0.23368070980E+02  0.19006437609E+02  0.31886041495E+02  0.00000000000E+00 0. -1.
         11    1    3    3    0    0  0.18656807100E+02 -0.34585660789E+00  0.96989579772E+01  0.21030117785E+02  0.51100000000E-03 0. -1.
        -11    1    3    3    0    0 -0.61482461253E+01  0.18893997034E+02 -0.20592153356E+02  0.28615045595E+02  0.51100000000E-03 0.  1.
         12    1    3    3    0    0 -0.20487220508E+01  0.48199305534E+01 -0.81132422305E+01  0.96567951242E+01  0.00000000000E+00 0. -1.
</event>
<event>
 7    1  0.7819001E-012  0.5930204E+02  0.7816164E-02  0.1266604E+00
        -11   -1    0    0    0    0  0.00000000000E+00  0.00000000000E+00  0.45593999997E+02  0.45594000000E+02  0.51100000000E-03 0.  1.
         11   -1    0    0    0    0 -0.00000000000E+00 -0.00000000000E+00 -0.45593999997E+02  0.45594000000E+02  0.51100000000E-03 0. -1.
    9900012    2    1    2    0    0 -0.67035764886E+01 -0.23904718160E+02 -0.20008522643E+02  0.59302039666E+02  0.50000174421E+02 0.  0.
         12    1    1    2    0    0  0.67035764886E+01  0.23904718160E+02  0.20008522643E+02  0.31885960334E+02  0.00000000000E+00 0. -1.
         11    1    3    3    0    0 -0.34012801055E+01  0.92627632389E+01 -0.14699330037E+02  0.17704174450E+02  0.51100000000E-03 0. -1.
        -11    1    3    3    0    0 -0.12007908936E+01 -0.95288313355E+01  0.95934805866E+01  0.13574807380E+02  0.51100000000E-03 0.  1.
         12    1    3    3    0    0 -0.21015054895E+01 -0.23638650064E+02 -0.14902673193E+02  0.28023057836E+02  0.00000000000E+00 0. -1.
</event>
<event>
 7    1  0.7819001E-012  0.5930194E+02  0.7816164E-02  0.1266605E+00
        -11   -1    0    0    0    0  0.00000000000E+00  0.00000000000E+00  0.45593999997E+02  0.45594000000E+02  0.51100000000E-03 0.  1.
         11   -1    0    0    0    0 -0.00000000000E+00 -0.00000000000E+00 -0.45593999997E+02  0.45594000000E+02  0.51100000000E-03 0. -1.
    9900012    2    1    2    0    0  0.11798551619E+01 -0.20478688646E+02  0.24412132388E+02  0.59301937926E+02  0.49999988872E+02 0.  0.
         12    1    1    2    0    0 -0.11798551619E+01  0.20478688646E+02 -0.24412132388E+02  0.31886062074E+02  0.00000000000E+00 0. -1.
         11    1    3    3    0    0  0.19269629352E+02 -0.14180138319E+02  0.14897587528E+02  0.28183914784E+02  0.51100000000E-03 0. -1.
        -11    1    3    3    0    0 -0.45042215539E+01 -0.13101596592E+02  0.76063829738E+01  0.15804964640E+02  0.51100000000E-03 0.  1.
         12    1    3    3    0    0 -0.13585552636E+02  0.68030462655E+01  0.19081618856E+01  0.15313058502E+02  0.00000000000E+00 0. -1.
</event>
<event>
 7    1  0.7819001E-012  0.5930195E+02  0.7816164E-02  0.1266605E+00
        -11   -1    0    0    0    0  0.00000000000E+00  0.00000000000E+00  0.45593999997E+02  0.45594000000E+02  0.51100000000E-03 0. -1.
         11   -1    0    0    0    0 -0.00000000000E+00 -0.00000000000E+00 -0.45593999997E+02  0.45594000000E+02  0.51100000000E-03 0.  1.
    9900012    2    1    2    0    0  0.16214705453E+02 -0.91391235021E+01 -0.25889763797E+02  0.59301951001E+02  0.50000012718E+02 0.  0.
         12    1    1    2    0    0 -0.16214705453E+02  0.91391235021E+01  0.25889763797E+02  0.31886048999E+02  0.00000000000E+00 0. -1.
         11    1    3    3    0    0 -0.28677586569E+01  0.91049813069E+01 -0.26991590574E+01  0.99201907336E+01  0.51100000000E-03 0. -1.
        -11    1    3    3    0    0  0.19645351951E+02 -0.64080348638E+01 -0.29453272806E+02  0.35979133443E+02  0.51100000000E-03 0.  1.
        -12    1    3    3    0    0 -0.56288784133E+00 -0.11836069945E+02  0.62626680666E+01  0.13402626824E+02  0.00000000000E+00 0.  1.
</event>
<event>
 7    1  0.7819001E-012  0.5930193E+02  0.7816164E-02  0.1266605E+00
        -11   -1    0    0    0    0  0.00000000000E+00  0.00000000000E+00  0.45593999997E+02  0.45594000000E+02  0.51100000000E-03 0.  1.
         11   -1    0    0    0    0 -0.00000000000E+00 -0.00000000000E+00 -0.45593999997E+02  0.45594000000E+02  0.51100000000E-03 0. -1.
    9900012    2    1    2    0    0  0.11361319386E+02  0.16895464261E+02  0.24539464296E+02  0.59301927826E+02  0.49999970451E+02 0.  0.
         12    1    1    2    0    0 -0.11361319386E+02 -0.16895464261E+02 -0.24539464296E+02  0.31886072174E+02  0.00000000000E+00 0. -1.
         11    1    3    3    0    0 -0.58932472324E+01  0.67577613836E+01 -0.54950291921E+01  0.10516322929E+02  0.51100000000E-03 0.  1.
        -11    1    3    3    0    0  0.58356192922E+01 -0.95638189212E+01  0.21909687182E+02  0.24608036848E+02  0.51100000000E-03 0. -1.
        -12    1    3    3    0    0  0.11418947326E+02  0.19701521799E+02  0.81248063062E+01  0.24177568048E+02  0.00000000000E+00 0.  1.
</event>
<event>
 7    1  0.7819001E-012  0.5930194E+02  0.7816164E-02  0.1266605E+00
        -11   -1    0    0    0    0  0.00000000000E+00  0.00000000000E+00  0.45593999997E+02  0.45594000000E+02  0.51100000000E-03 0.  1.
         11   -1    0    0    0    0 -0.00000000000E+00 -0.00000000000E+00 -0.45593999997E+02  0.45594000000E+02  0.51100000000E-03 0. -1.
    9900012    2    1    2    0    0  0.24647858031E+02 -0.19512279064E+02 -0.53362078768E+01  0.59301936362E+02  0.49999986020E+02 0.  0.
         12    1    1    2    0    0 -0.24647858031E+02  0.19512279064E+02  0.53362078768E+01  0.31886063638E+02  0.00000000000E+00 0. -1.
         11    1    3    3    0    0 -0.49432264573E+01  0.24419158278E+01  0.26764420644E+01  0.61287668501E+01  0.51100000000E-03 0. -1.
        -11    1    3    3    0    0  0.23455515131E+02  0.57819512687E+01 -0.34714647520E+01  0.24405802964E+02  0.51100000000E-03 0.  1.
        -12    1    3    3    0    0  0.61355693574E+01 -0.27736146161E+02 -0.45411851891E+01  0.28767366548E+02  0.00000000000E+00 0.  1.
</event>
<event>
 7    1  0.8806032E-012  0.5930195E+02  0.7816164E-02  0.1266605E+00
        -11   -1    0    0    0    0  0.00000000000E+00  0.00000000000E+00  0.45593999997E+02  0.45594000000E+02  0.51100000000E-03 0. -1.
         11   -1    0    0    0    0 -0.00000000000E+00 -0.00000000000E+00 -0.45593999997E+02  0.45594000000E+02  0.51100000000E-03 0.  1.
    9900012    2    1    2    0    0 -0.10832716989E+02  0.92216453961E+01 -0.28536532650E+02  0.59301949808E+02  0.50000010542E+02 0.  0.
         12    1    1    2    0    0  0.10832716989E+02 -0.92216453961E+01  0.28536532650E+02  0.31886050192E+02  0.00000000000E+00 0. -1.
         11    1    3    3    0    0  0.60266335069E+01  0.18265768931E+01  0.86140165687E+01  0.10670425309E+02  0.51100000000E-03 0. -1.
        -11    1    3    3    0    0 -0.14178064105E+02  0.16415290038E+02 -0.22787328843E+02  0.31460159009E+02  0.51100000000E-03 0.  1.
         12    1    3    3    0    0 -0.26812863902E+01 -0.90202215350E+01 -0.14363220376E+02  0.17171365490E+02  0.00000000000E+00 0. -1.
</event>
<event>
 7    1  0.7819001E-012  0.5930217E+02  0.7816164E-02  0.1266604E+00
        -11   -1    0    0    0    0  0.00000000000E+00  0.00000000000E+00  0.45593999997E+02  0.45594000000E+02  0.51100000000E-03 0. -1.
         11   -1    0    0    0    0 -0.00000000000E+00 -0.00000000000E+00 -0.45593999997E+02  0.45594000000E+02  0.51100000000E-03 0.  1.
    9900012    2    1    2    0    0 -0.30521445969E+02 -0.88650641608E+01  0.25608357792E+01  0.59302173893E+02  0.50000419217E+02 0.  0.
         12    1    1    2    0    0  0.30521445969E+02  0.88650641608E+01 -0.25608357792E+01  0.31885826107E+02  0.00000000000E+00 0. -1.
         11    1    3    3    0    0  0.20882459432E+01 -0.42744001733E+01  0.63327269877E+00  0.47991981135E+01  0.51100000000E-03 0. -1.
        -11    1    3    3    0    0 -0.68957355666E+01  0.15110965174E+02  0.12099410743E+02  0.20549651532E+02  0.51100000000E-03 0.  1.
        -12    1    3    3    0    0 -0.25713956346E+02 -0.19701629161E+02 -0.10171847663E+02  0.33953324247E+02  0.00000000000E+00 0.  1.
</event>
<event>
 7    1  0.7819001E-012  0.5930183E+02  0.7816164E-02  0.1266605E+00
        -11   -1    0    0    0    0  0.00000000000E+00  0.00000000000E+00  0.45593999997E+02  0.45594000000E+02  0.51100000000E-03 0. -1.
         11   -1    0    0    0    0 -0.00000000000E+00 -0.00000000000E+00 -0.45593999997E+02  0.45594000000E+02  0.51100000000E-03 0.  1.
    9900012    2    1    2    0    0 -0.10906123217E+02 -0.29814025726E+02  0.29846948223E+01  0.59301826558E+02  0.49999785763E+02 0.  0.
         12    1    1    2    0    0  0.10906123217E+02  0.29814025726E+02 -0.29846948223E+01  0.31886173442E+02  0.00000000000E+00 0. -1.
         11    1    3    3    0    0 -0.28863251392E+00 -0.97281081459E+01  0.21166773685E+02  0.23297032114E+02  0.51100000000E-03 0. -1.
        -11    1    3    3    0    0 -0.11397484887E+02 -0.20389766542E+02 -0.64367471182E+01  0.24229670966E+02  0.51100000000E-03 0.  1.
         12    1    3    3    0    0  0.77999418384E+00  0.30384896220E+00 -0.11745331745E+02  0.11775123478E+02  0.00000000000E+00 0. -1.
</event>
<event>
 7    1  0.7819001E-012  0.5930198E+02  0.7816164E-02  0.1266605E+00
        -11   -1    0    0    0    0  0.00000000000E+00  0.00000000000E+00  0.45593999997E+02  0.45594000000E+02  0.51100000000E-03 0.  1.
         11   -1    0    0    0    0 -0.00000000000E+00 -0.00000000000E+00 -0.45593999997E+02  0.45594000000E+02  0.51100000000E-03 0. -1.
    9900012    2    1    2    0    0 -0.12530479346E+02  0.84234805056E+01  0.28084694010E+02  0.59301984662E+02  0.50000074107E+02 0.  0.
         12    1    1    2    0    0  0.12530479346E+02 -0.84234805056E+01 -0.28084694010E+02  0.31886015338E+02  0.00000000000E+00 0. -1.
         11    1    3    3    0    0 -0.11014080442E+02  0.87387620336E+00  0.38504841753E+01  0.11700421199E+02  0.51100000000E-03 0. -1.
        -11    1    3    3    0    0  0.94218071357E+01  0.21280562930E+02  0.11836936495E+02  0.26110263770E+02  0.51100000000E-03 0.  1.
        -12    1    3    3    0    0 -0.10938206040E+02 -0.13730958627E+02  0.12397273340E+02  0.21491299693E+02  0.00000000000E+00 0.  1.
</event>
<event>
 7    1  0.7819001E-012  0.5930198E+02  0.7816164E-02  0.1266605E+00
        -11   -1    0    0    0    0  0.00000000000E+00  0.00000000000E+00  0.45593999997E+02  0.45594000000E+02  0.51100000000E-03 0. -1.
         11   -1    0    0    0    0 -0.00000000000E+00 -0.00000000000E+00 -0.45593999997E+02  0.45594000000E+02  0.51100000000E-03 0.  1.
    9900012    2    1    2    0    0 -0.35035704370E+01  0.30634345512E+02 -0.81227999795E+01  0.59301984095E+02  0.50000073074E+02 0.  0.
         12    1    1    2    0    0  0.35035704370E+01 -0.30634345512E+02  0.81227999795E+01  0.31886015905E+02  0.00000000000E+00 0. -1.
         11    1    3    3    0    0  0.17358709416E+02  0.21137727427E+02  0.33676100564E+00  0.27354007414E+02  0.51100000000E-03 0. -1.
        -11    1    3    3    0    0 -0.15321670532E+02  0.11274308386E+02 -0.14227606094E+02  0.23754755164E+02  0.51100000000E-03 0.  1.
        -12    1    3    3    0    0 -0.55406093204E+01 -0.17776903008E+01  0.57680451093E+01  0.81932215172E+01  0.00000000000E+00 0.  1.
</event>
<event>
 7    1  0.7819001E-012  0.5930198E+02  0.7816164E-02  0.1266605E+00
        -11   -1    0    0    0    0  0.00000000000E+00  0.00000000000E+00  0.45593999997E+02  0.45594000000E+02  0.51100000000E-03 0. -1.
         11   -1    0    0    0    0 -0.00000000000E+00 -0.00000000000E+00 -0.45593999997E+02  0.45594000000E+02  0.51100000000E-03 0.  1.
    9900012    2    1    2    0    0  0.17857865935E+02 -0.26286776351E+02 -0.26115915503E+01  0.59301978030E+02  0.50000062011E+02 0.  0.
         12    1    1    2    0    0 -0.17857865935E+02  0.26286776351E+02  0.26115915503E+01  0.31886021970E+02  0.00000000000E+00 0. -1.
         11    1    3    3    0    0  0.10440919060E+02 -0.35008000133E+02  0.44922057489E+01  0.36806966418E+02  0.51100000000E-03 0. -1.
        -11    1    3    3    0    0  0.11072504761E+02  0.40646974361E+01  0.16680838319E+01  0.11912373016E+02  0.51100000000E-03 0.  1.
         12    1    3    3    0    0 -0.36555578870E+01  0.46565263458E+01 -0.87718811311E+01  0.10582638596E+02  0.00000000000E+00 0. -1.
</event>
<event>
 7    1  0.7819001E-012  0.5930194E+02  0.7816164E-02  0.1266605E+00
        -11   -1    0    0    0    0  0.00000000000E+00  0.00000000000E+00  0.45593999997E+02  0.45594000000E+02  0.51100000000E-03 0.  1.
         11   -1    0    0    0    0 -0.00000000000E+00 -0.00000000000E+00 -0.45593999997E+02  0.45594000000E+02  0.51100000000E-03 0. -1.
    9900012    2    1    2    0    0  0.48531209182E+01  0.17108146569E+02  0.26466568650E+02  0.59301941639E+02  0.49999995644E+02 0.  0.
         12    1    1    2    0    0 -0.48531209182E+01 -0.17108146569E+02 -0.26466568650E+02  0.31886058361E+02  0.00000000000E+00 0. -1.
         11    1    3    3    0    0 -0.13339667906E+02  0.15859820772E+02  0.15966991881E+02  0.26161526804E+02  0.51100000000E-03 0. -1.
        -11    1    3    3    0    0  0.20784881037E+02  0.73809851652E+01  0.13475940098E+02  0.25847459904E+02  0.51100000000E-03 0.  1.
         12    1    3    3    0    0 -0.25920922124E+01 -0.61326593681E+01 -0.29763633281E+01  0.72929549309E+01  0.00000000000E+00 0. -1.
</event>
<event>
 7    1  0.7819001E-012  0.5930216E+02  0.7816164E-02  0.1266604E+00
        -11   -1    0    0    0    0  0.00000000000E+00  0.00000000000E+00  0.45593999997E+02  0.45594000000E+02  0.51100000000E-03 0. -1.
         11   -1    0    0    0    0 -0.00000000000E+00 -0.00000000000E+00 -0.45593999997E+02  0.45594000000E+02  0.51100000000E-03 0.  1.
    9900012    2    1    2    0    0 -0.30380460243E+02  0.27688014559E+01 -0.92772995062E+01  0.59302158123E+02  0.50000390457E+02 0.  0.
         12    1    1    2    0    0  0.30380460243E+02 -0.27688014559E+01  0.92772995062E+01  0.31885841877E+02  0.00000000000E+00 0. -1.
         11    1    3    3    0    0  0.95223377076E+01 -0.49760441366E+01 -0.38874142624E+01  0.11425756893E+02  0.51100000000E-03 0. -1.
        -11    1    3    3    0    0 -0.35326728592E+02  0.14760119552E+02 -0.79803356175E+01  0.39109137539E+02  0.51100000000E-03 0.  1.
        -12    1    3    3    0    0 -0.45760693586E+01 -0.70152739591E+01  0.25904503738E+01  0.87672636914E+01  0.00000000000E+00 0.  1.
</event>
<event>
 7    1  0.7819001E-012  0.5930191E+02  0.7816164E-02  0.1266605E+00
        -11   -1    0    0    0    0  0.00000000000E+00  0.00000000000E+00  0.45593999997E+02  0.45594000000E+02  0.51100000000E-03 0.  1.
         11   -1    0    0    0    0 -0.00000000000E+00 -0.00000000000E+00 -0.45593999997E+02  0.45594000000E+02  0.51100000000E-03 0. -1.
    9900012    2    1    2    0    0  0.16171741952E+02 -0.19595699951E+02  0.19266701581E+02  0.59301913941E+02  0.49999945129E+02 0.  0.
         12    1    1    2    0    0 -0.16171741952E+02  0.19595699951E+02 -0.19266701581E+02  0.31886086059E+02  0.00000000000E+00 0. -1.
         11    1    3    3    0    0 -0.82949229539E+01 -0.17882773946E+02 -0.41977751893E+01  0.20154916711E+02  0.51100000000E-03 0. -1.
        -11    1    3    3    0    0  0.32641777171E+01 -0.24588763982E+01  0.16222628779E+02  0.16729453490E+02  0.51100000000E-03 0.  1.
         12    1    3    3    0    0  0.21202487189E+02  0.74595039373E+00  0.72418479916E+01  0.22417543740E+02  0.00000000000E+00 0. -1.
</event>
<event>
 7    1  0.7819001E-012  0.5930192E+02  0.7816164E-02  0.1266605E+00
        -11   -1    0    0    0    0  0.00000000000E+00  0.00000000000E+00  0.45593999997E+02  0.45594000000E+02  0.51100000000E-03 0.  1.
         11   -1    0    0    0    0 -0.00000000000E+00 -0.00000000000E+00 -0.45593999997E+02  0.45594000000E+02  0.51100000000E-03 0. -1.
    9900012    2    1    2    0    0  0.26661958052E+02  0.13302716590E+02  0.11353417025E+02  0.59301915982E+02  0.49999948852E+02 0.  0.
         12    1    1    2    0    0 -0.26661958052E+02 -0.13302716590E+02 -0.11353417025E+02  0.31886084018E+02  0.00000000000E+00 0. -1.
         11    1    3    3    0    0 -0.15823201373E+00  0.27243424753E+01 -0.37206183632E+01  0.46141175276E+01  0.51100000000E-03 0. -1.
        -11    1    3    3    0    0  0.37925749339E+02  0.19797961576E+01  0.74307298516E+01  0.38697516744E+02  0.51100000000E-03 0.  1.
        -12    1    3    3    0    0 -0.11105559273E+02  0.85985779569E+01  0.76433055368E+01  0.15990281711E+02  0.00000000000E+00 0.  1.
</event>
<event>
 7    1  0.7819001E-012  0.5930195E+02  0.7816164E-02  0.1266605E+00
        -11   -1    0    0    0    0  0.00000000000E+00  0.00000000000E+00  0.45593999997E+02  0.45594000000E+02  0.51100000000E-03 0.  1.
         11   -1    0    0    0    0 -0.00000000000E+00 -0.00000000000E+00 -0.45593999997E+02  0.45594000000E+02  0.51100000000E-03 0. -1.
    9900012    2    1    2    0    0  0.22766530858E+02  0.80575508362E+00  0.22310448797E+02  0.59301948283E+02  0.50000007761E+02 0.  0.
         12    1    1    2    0    0 -0.22766530858E+02 -0.80575508362E+00 -0.22310448797E+02  0.31886051717E+02  0.00000000000E+00 0. -1.
         11    1    3    3    0    0 -0.53048859034E+01 -0.56950997917E+01  0.41071894243E+01  0.88002830246E+01  0.51100000000E-03 0. -1.
        -11    1    3    3    0    0  0.51897373078E+01  0.18099556335E+02  0.16079534914E+02  0.24760427220E+02  0.51100000000E-03 0.  1.
        -12    1    3    3    0    0  0.22881679454E+02 -0.11598701459E+02  0.21237244587E+01  0.25741238038E+02  0.00000000000E+00 0.  1.
</event>
<event>
 7    1  0.7819001E-012  0.5930227E+02  0.7816164E-02  0.1266604E+00
        -11   -1    0    0    0    0  0.00000000000E+00  0.00000000000E+00  0.45593999997E+02  0.45594000000E+02  0.51100000000E-03 0.  1.
         11   -1    0    0    0    0 -0.00000000000E+00 -0.00000000000E+00 -0.45593999997E+02  0.45594000000E+02  0.51100000000E-03 0. -1.
    9900012    2    1    2    0    0  0.18702505648E+02 -0.21805726085E+02  0.13835696992E+02  0.59302267785E+02  0.50000590453E+02 0.  0.
         12    1    1    2    0    0 -0.18702505648E+02  0.21805726085E+02 -0.13835696992E+02  0.31885732215E+02  0.00000000000E+00 0. -1.
         11    1    3    3    0    0 -0.54295335680E+01 -0.16504152655E+02  0.23988934011E+02  0.29619855585E+02  0.51100000000E-03 0. -1.
        -11    1    3    3    0    0  0.11011013342E+02 -0.20757541255E+01 -0.11558073109E+02  0.16097832905E+02  0.51100000000E-03 0.  1.
         12    1    3    3    0    0  0.13121025875E+02 -0.32258193048E+01  0.14048360891E+01  0.13584579295E+02  0.00000000000E+00 0. -1.
</event>
<event>
 7    1  0.7819001E-012  0.5930188E+02  0.7816164E-02  0.1266605E+00
        -11   -1    0    0    0    0  0.00000000000E+00  0.00000000000E+00  0.45593999997E+02  0.45594000000E+02  0.51100000000E-03 0.  1.
         11   -1    0    0    0    0 -0.00000000000E+00 -0.00000000000E+00 -0.45593999997E+02  0.45594000000E+02  0.51100000000E-03 0. -1.
    9900012    2    1    2    0    0 -0.23557271115E+02  0.11354996044E+02  0.18244006617E+02  0.59301878646E+02  0.49999880759E+02 0.  0.
         12    1    1    2    0    0  0.23557271115E+02 -0.11354996044E+02 -0.18244006617E+02  0.31886121354E+02  0.00000000000E+00 0. -1.
         11    1    3    3    0    0 -0.87899253530E+01 -0.10523339159E+02 -0.80172475881E+00  0.13734854117E+02  0.51100000000E-03 0. -1.
        -11    1    3    3    0    0 -0.13708419724E+02  0.22460876756E+02  0.26894274854E+02  0.37625972096E+02  0.51100000000E-03 0.  1.
        -12    1    3    3    0    0 -0.10589260385E+01 -0.58254155253E+00 -0.78485434782E+01  0.79410524330E+01  0.00000000000E+00 0.  1.
</event>
<event>
 7    1  0.7819001E-012  0.5930193E+02  0.7816164E-02  0.1266605E+00
        -11   -1    0    0    0    0  0.00000000000E+00  0.00000000000E+00  0.45593999997E+02  0.45594000000E+02  0.51100000000E-03 0.  1.
         11   -1    0    0    0    0 -0.00000000000E+00 -0.00000000000E+00 -0.45593999997E+02  0.45594000000E+02  0.51100000000E-03 0. -1.
    9900012    2    1    2    0    0 -0.17788972421E+02 -0.80416296595E+01  0.25211232413E+02  0.59301928007E+02  0.49999970781E+02 0.  0.
         12    1    1    2    0    0  0.17788972421E+02  0.80416296595E+01 -0.25211232413E+02  0.31886071993E+02  0.00000000000E+00 0. -1.
         11    1    3    3    0    0  0.16139153404E+02  0.33822959316E+01  0.79496257534E+01  0.18305975753E+02  0.51100000000E-03 0. -1.
        -11    1    3    3    0    0 -0.92445484527E+01 -0.61116986494E+01  0.13801361077E+01  0.11167780102E+02  0.51100000000E-03 0.  1.
         12    1    3    3    0    0 -0.24683577373E+02 -0.53122269417E+01  0.15881470552E+02  0.29828172152E+02  0.00000000000E+00 0. -1.
</event>
<event>
 7    1  0.7819001E-012  0.5930195E+02  0.7816164E-02  0.1266605E+00
        -11   -1    0    0    0    0  0.00000000000E+00  0.00000000000E+00  0.45593999997E+02  0.45594000000E+02  0.51100000000E-03 0. -1.
         11   -1    0    0    0    0 -0.00000000000E+00 -0.00000000000E+00 -0.45593999997E+02  0.45594000000E+02  0.51100000000E-03 0.  1.
    9900012    2    1    2    0    0  0.20671834281E+02 -0.23625567838E+02  0.55882191189E+01  0.59301946918E+02  0.50000005272E+02 0.  0.
         12    1    1    2    0    0 -0.20671834281E+02  0.23625567838E+02 -0.55882191189E+01  0.31886053082E+02  0.00000000000E+00 0. -1.
         11    1    3    3    0    0  0.77095337844E+01 -0.14781621533E+02  0.63748434506E+01  0.17848581893E+02  0.51100000000E-03 0. -1.
        -11    1    3    3    0    0 -0.91274550628E+01  0.86673997172E+01 -0.36866411288E+01  0.13115852121E+02  0.51100000000E-03 0.  1.
        -12    1    3    3    0    0  0.22089755559E+02 -0.17511346023E+02  0.29000167972E+01  0.28337512905E+02  0.00000000000E+00 0.  1.
</event>
<event>
 7    1  0.7819001E-012  0.5930195E+02  0.7816164E-02  0.1266605E+00
        -11   -1    0    0    0    0  0.00000000000E+00  0.00000000000E+00  0.45593999997E+02  0.45594000000E+02  0.51100000000E-03 0.  1.
         11   -1    0    0    0    0 -0.00000000000E+00 -0.00000000000E+00 -0.45593999997E+02  0.45594000000E+02  0.51100000000E-03 0. -1.
    9900012    2    1    2    0    0  0.25994874061E+02 -0.11641720095E+02 -0.14333775368E+02  0.59301949123E+02  0.50000009293E+02 0.  0.
         12    1    1    2    0    0 -0.25994874061E+02  0.11641720095E+02  0.14333775368E+02  0.31886050877E+02  0.00000000000E+00 0. -1.
         11    1    3    3    0    0  0.29191942940E+02  0.85120549218E+00 -0.16276079493E+02  0.33433588610E+02  0.51100000000E-03 0. -1.
        -11    1    3    3    0    0  0.41954200450E+01 -0.16541513510E+02 -0.56561577680E+00  0.17074634404E+02  0.51100000000E-03 0.  1.
         12    1    3    3    0    0 -0.73924889237E+01  0.40485879233E+01  0.25079199020E+01  0.87937261098E+01  0.00000000000E+00 0. -1.
</event>
<event>
 7    1  0.7819001E-012  0.5930194E+02  0.7816164E-02  0.1266605E+00
        -11   -1    0    0    0    0  0.00000000000E+00  0.00000000000E+00  0.45593999997E+02  0.45594000000E+02  0.51100000000E-03 0.  1.
         11   -1    0    0    0    0 -0.00000000000E+00 -0.00000000000E+00 -0.45593999997E+02  0.45594000000E+02  0.51100000000E-03 0. -1.
    9900012    2    1    2    0    0  0.11196676146E+02  0.29798843357E+02  0.18395674769E+01  0.59301943006E+02  0.49999998136E+02 0.  0.
         12    1    1    2    0    0 -0.11196676146E+02 -0.29798843357E+02 -0.18395674769E+01  0.31886056994E+02  0.00000000000E+00 0. -1.
         11    1    3    3    0    0  0.12438432016E+02  0.15925706704E+02 -0.10816512921E+02  0.22920289638E+02  0.51100000000E-03 0. -1.
        -11    1    3    3    0    0  0.59150804861E+01  0.11779272316E+02  0.21248483004E+02  0.25004748823E+02  0.51100000000E-03 0.  1.
        -12    1    3    3    0    0 -0.71568363557E+01  0.20938643365E+01 -0.85924026060E+01  0.11376904545E+02  0.00000000000E+00 0.  1.
</event>
<event>
 7    1  0.7819001E-012  0.5930213E+02  0.7816164E-02  0.1266604E+00
        -11   -1    0    0    0    0  0.00000000000E+00  0.00000000000E+00  0.45593999997E+02  0.45594000000E+02  0.51100000000E-03 0. -1.
         11   -1    0    0    0    0 -0.00000000000E+00 -0.00000000000E+00 -0.45593999997E+02  0.45594000000E+02  0.51100000000E-03 0.  1.
    9900012    2    1    2    0    0 -0.21591024298E+01  0.19642173982E+02 -0.25024629641E+02  0.59302128353E+02  0.50000336164E+02 0.  0.
         12    1    1    2    0    0  0.21591024298E+01 -0.19642173982E+02  0.25024629641E+02  0.31885871647E+02  0.00000000000E+00 0. -1.
         11    1    3    3    0    0 -0.10934694519E+02 -0.11802902629E+02 -0.74093437387E+01  0.17713679166E+02  0.51100000000E-03 0. -1.
        -11    1    3    3    0    0 -0.17062120466E+01  0.24951661056E+02 -0.14345550789E+02  0.28832124041E+02  0.51100000000E-03 0.  1.
         12    1    3    3    0    0  0.10481804136E+02  0.64934155553E+01 -0.32697351133E+01  0.12756325146E+02  0.00000000000E+00 0. -1.
</event>
<event>
 7    1  0.7819001E-012  0.5930196E+02  0.7816164E-02  0.1266605E+00
        -11   -1    0    0    0    0  0.00000000000E+00  0.00000000000E+00  0.45593999997E+02  0.45594000000E+02  0.51100000000E-03 0. -1.
         11   -1    0    0    0    0 -0.00000000000E+00 -0.00000000000E+00 -0.45593999997E+02  0.45594000000E+02  0.51100000000E-03 0.  1.
    9900012    2    1    2    0    0 -0.15871720001E+00 -0.15229877720E+02 -0.28013303189E+02  0.59301960389E+02  0.50000029839E+02 0.  0.
         12    1    1    2    0    0  0.15871720001E+00  0.15229877720E+02  0.28013303189E+02  0.31886039611E+02  0.00000000000E+00 0. -1.
         11    1    3    3    0    0 -0.50216058249E+01 -0.65432983761E+01  0.72319319528E+01  0.10969599753E+02  0.51100000000E-03 0. -1.
        -11    1    3    3    0    0 -0.36969601736E+01 -0.13592501917E+02 -0.35778818277E+02  0.38451885005E+02  0.51100000000E-03 0.  1.
         12    1    3    3    0    0  0.85598487985E+01  0.49059225728E+01  0.53358313559E+00  0.98804756316E+01  0.00000000000E+00 0. -1.
</event>
<event>
 7    1  0.7819001E-012  0.5930196E+02  0.7816164E-02  0.1266605E+00
        -11   -1    0    0    0    0  0.00000000000E+00  0.00000000000E+00  0.45593999997E+02  0.45594000000E+02  0.51100000000E-03 0. -1.
         11   -1    0    0    0    0 -0.00000000000E+00 -0.00000000000E+00 -0.45593999997E+02  0.45594000000E+02  0.51100000000E-03 0.  1.
    9900012    2    1    2    0    0 -0.18980691175E+01 -0.23946012045E+02  0.20969159921E+02  0.59301955607E+02  0.50000021118E+02 0.  0.
         12    1    1    2    0    0  0.18980691175E+01  0.23946012045E+02 -0.20969159921E+02  0.31886044393E+02  0.00000000000E+00 0. -1.
         11    1    3    3    0    0 -0.14728652613E+02  0.38899312075E+01 -0.19630179136E+01  0.15359629299E+02  0.51100000000E-03 0. -1.
        -11    1    3    3    0    0  0.12400272148E+02 -0.31469725748E+02  0.20676119322E+02  0.39643565663E+02  0.51100000000E-03 0.  1.
        -12    1    3    3    0    0  0.43031134749E+00  0.36337824949E+01  0.22560585127E+01  0.42987606457E+01  0.00000000000E+00 0.  1.
</event>
<event>
 7    1  0.7819001E-012  0.5930195E+02  0.7816164E-02  0.1266605E+00
        -11   -1    0    0    0    0  0.00000000000E+00  0.00000000000E+00  0.45593999997E+02  0.45594000000E+02  0.51100000000E-03 0.  1.
         11   -1    0    0    0    0 -0.00000000000E+00 -0.00000000000E+00 -0.45593999997E+02  0.45594000000E+02  0.51100000000E-03 0. -1.
    9900012    2    1    2    0    0 -0.34517943076E+01 -0.88186438278E+01  0.30447280384E+02  0.59301949042E+02  0.50000009144E+02 0.  0.
         12    1    1    2    0    0  0.34517943076E+01  0.88186438278E+01 -0.30447280384E+02  0.31886050958E+02  0.00000000000E+00 0. -1.
         11    1    3    3    0    0 -0.31487518551E+01  0.12534771757E+02 -0.73896332018E+00  0.12945316076E+02  0.51100000000E-03 0. -1.
        -11    1    3    3    0    0 -0.15324471765E+01 -0.32318786111E+01  0.27615007321E+02  0.27845683029E+02  0.51100000000E-03 0.  1.
        -12    1    3    3    0    0  0.12294047240E+01 -0.18121536974E+02  0.35712363832E+01  0.18510949937E+02  0.00000000000E+00 0.  1.
</event>
<event>
 7    1  0.7819001E-012  0.5930194E+02  0.7816164E-02  0.1266605E+00
        -11   -1    0    0    0    0  0.00000000000E+00  0.00000000000E+00  0.45593999997E+02  0.45594000000E+02  0.51100000000E-03 0.  1.
         11   -1    0    0    0    0 -0.00000000000E+00 -0.00000000000E+00 -0.45593999997E+02  0.45594000000E+02  0.51100000000E-03 0. -1.
    9900012    2    1    2    0    0  0.89431299027E+01  0.50193800891E+01  0.30191834218E+02  0.59301943449E+02  0.49999998944E+02 0.  0.
         12    1    1    2    0    0 -0.89431299027E+01 -0.50193800891E+01 -0.30191834218E+02  0.31886056551E+02  0.00000000000E+00 0. -1.
         11    1    3    3    0    0 -0.68861599470E+01 -0.13175413657E+02 -0.17728704545E+00  0.14867486499E+02  0.51100000000E-03 0. -1.
        -11    1    3    3    0    0  0.19299663966E+02  0.73144253205E+01  0.16211716123E+02  0.26244953550E+02  0.51100000000E-03 0.  1.
         12    1    3    3    0    0 -0.34703741161E+01  0.10880368426E+02  0.14157405141E+02  0.18189503399E+02  0.00000000000E+00 0. -1.
</event>
<event>
 7    1  0.7819001E-012  0.5930194E+02  0.7816164E-02  0.1266605E+00
        -11   -1    0    0    0    0  0.00000000000E+00  0.00000000000E+00  0.45593999997E+02  0.45594000000E+02  0.51100000000E-03 0.  1.
         11   -1    0    0    0    0 -0.00000000000E+00 -0.00000000000E+00 -0.45593999997E+02  0.45594000000E+02  0.51100000000E-03 0. -1.
    9900012    2    1    2    0    0  0.24042627633E+02 -0.75021202016E+01  0.19554815931E+02  0.59301943845E+02  0.49999999667E+02 0.  0.
         12    1    1    2    0    0 -0.24042627633E+02  0.75021202016E+01 -0.19554815931E+02  0.31886056155E+02  0.00000000000E+00 0. -1.
         11    1    3    3    0    0 -0.37641978310E+01 -0.12127881295E+01 -0.58269851732E+01  0.70422863353E+01  0.51100000000E-03 0. -1.
        -11    1    3    3    0    0  0.33998480696E+02 -0.72315158470E+01  0.28786126823E+02  0.45131281932E+02  0.51100000000E-03 0.  1.
        -12    1    3    3    0    0 -0.61916552318E+01  0.94218377489E+00 -0.34043257197E+01  0.71283755780E+01  0.00000000000E+00 0.  1.
</event>
<event>
 7    1  0.7819001E-012  0.5930195E+02  0.7816164E-02  0.1266605E+00
        -11   -1    0    0    0    0  0.00000000000E+00  0.00000000000E+00  0.45593999997E+02  0.45594000000E+02  0.51100000000E-03 0.  1.
         11   -1    0    0    0    0 -0.00000000000E+00 -0.00000000000E+00 -0.45593999997E+02  0.45594000000E+02  0.51100000000E-03 0. -1.
    9900012    2    1    2    0    0 -0.30741090389E+02 -0.43400445114E+01  0.72711578162E+01  0.59301947240E+02  0.50000005858E+02 0.  0.
         12    1    1    2    0    0  0.30741090389E+02  0.43400445114E+01 -0.72711578162E+01  0.31886052760E+02  0.00000000000E+00 0. -1.
         11    1    3    3    0    0 -0.55486083217E+00 -0.10733866568E+02  0.13533869683E+02  0.17282632638E+02  0.51100000000E-03 0.  1.
        -11    1    3    3    0    0 -0.32485960282E+01  0.12827660802E+02 -0.54530659713E+01  0.14312169177E+02  0.51100000000E-03 0. -1.
        -12    1    3    3    0    0 -0.26937633528E+02 -0.64338387451E+01 -0.80964589582E+00  0.27707145425E+02  0.00000000000E+00 0.  1.
</event>
<event>
 7    1  0.7819001E-012  0.5930192E+02  0.7816164E-02  0.1266605E+00
        -11   -1    0    0    0    0  0.00000000000E+00  0.00000000000E+00  0.45593999997E+02  0.45594000000E+02  0.51100000000E-03 0. -1.
         11   -1    0    0    0    0 -0.00000000000E+00 -0.00000000000E+00 -0.45593999997E+02  0.45594000000E+02  0.51100000000E-03 0.  1.
    9900012    2    1    2    0    0 -0.52228919148E+01  0.27681065251E+02 -0.14939957043E+02  0.59301916988E+02  0.49999950687E+02 0.  0.
         12    1    1    2    0    0  0.52228919148E+01 -0.27681065251E+02  0.14939957043E+02  0.31886083012E+02  0.00000000000E+00 0. -1.
         11    1    3    3    0    0  0.20458100302E+02  0.51375796052E+01  0.63598791225E+00  0.21102916221E+02  0.51100000000E-03 0. -1.
        -11    1    3    3    0    0 -0.11975579271E+02  0.15070400866E+02 -0.79647475514E+01  0.20831915057E+02  0.51100000000E-03 0.  1.
         12    1    3    3    0    0 -0.13705412946E+02  0.74730847804E+01 -0.76111974035E+01  0.17367085710E+02  0.00000000000E+00 0. -1.
</event>
<event>
 7    1  0.7819001E-012  0.5930189E+02  0.7816164E-02  0.1266605E+00
        -11   -1    0    0    0    0  0.00000000000E+00  0.00000000000E+00  0.45593999997E+02  0.45594000000E+02  0.51100000000E-03 0. -1.
         11   -1    0    0    0    0 -0.00000000000E+00 -0.00000000000E+00 -0.45593999997E+02  0.45594000000E+02  0.51100000000E-03 0.  1.
    9900012    2    1    2    0    0 -0.24627982780E+02  0.19373594388E+02  0.59034012673E+01  0.59301892652E+02  0.49999906303E+02 0.  0.
         12    1    1    2    0    0  0.24627982780E+02 -0.19373594388E+02 -0.59034012673E+01  0.31886107348E+02  0.00000000000E+00 0. -1.
         11    1    3    3    0    0 -0.27434538054E+02  0.21303466733E+02  0.69141509147E+00  0.34741468423E+02  0.51100000000E-03 0.  1.
        -11    1    3    3    0    0  0.83577748393E+01  0.78806444012E+01  0.65265446899E+01  0.13211840988E+02  0.51100000000E-03 0. -1.
         12    1    3    3    0    0 -0.55512195644E+01 -0.98105167464E+01 -0.13145585140E+01  0.11348583241E+02  0.00000000000E+00 0. -1.
</event>
<event>
 7    1  0.7819001E-012  0.5930195E+02  0.7816164E-02  0.1266605E+00
        -11   -1    0    0    0    0  0.00000000000E+00  0.00000000000E+00  0.45593999997E+02  0.45594000000E+02  0.51100000000E-03 0. -1.
         11   -1    0    0    0    0 -0.00000000000E+00 -0.00000000000E+00 -0.45593999997E+02  0.45594000000E+02  0.51100000000E-03 0.  1.
    9900012    2    1    2    0    0  0.19811308867E+02 -0.18830086085E+02 -0.16421339099E+02  0.59301945387E+02  0.50000002479E+02 0.  0.
         12    1    1    2    0    0 -0.19811308867E+02  0.18830086085E+02  0.16421339099E+02  0.31886054613E+02  0.00000000000E+00 0. -1.
         11    1    3    3    0    0 -0.13301491326E+01 -0.29414044377E+01  0.62783681091E+01  0.70596786864E+01  0.51100000000E-03 0. -1.
        -11    1    3    3    0    0 -0.16459332075E+00  0.34840701181E+01 -0.23180581941E+02  0.23441527573E+02  0.51100000000E-03 0.  1.
        -12    1    3    3    0    0  0.21306051320E+02 -0.19372751765E+02  0.48087473345E+00  0.28800739128E+02  0.00000000000E+00 0.  1.
</event>
<event>
 7    1  0.7819001E-012  0.5930195E+02  0.7816164E-02  0.1266605E+00
        -11   -1    0    0    0    0  0.00000000000E+00  0.00000000000E+00  0.45593999997E+02  0.45594000000E+02  0.51100000000E-03 0. -1.
         11   -1    0    0    0    0 -0.00000000000E+00 -0.00000000000E+00 -0.45593999997E+02  0.45594000000E+02  0.51100000000E-03 0.  1.
    9900012    2    1    2    0    0 -0.20933523923E+01  0.31644848555E+02 -0.33078446751E+01  0.59301946612E+02  0.50000004713E+02 0.  0.
         12    1    1    2    0    0  0.20933523923E+01 -0.31644848555E+02  0.33078446751E+01  0.31886053388E+02  0.00000000000E+00 0. -1.
         11    1    3    3    0    0  0.69373262805E+01  0.35586395368E+02  0.23066581081E+01  0.36329584406E+02  0.51100000000E-03 0. -1.
        -11    1    3    3    0    0 -0.15404169317E+02 -0.19655732441E+01 -0.47772134404E+01  0.16247266817E+02  0.51100000000E-03 0.  1.
         12    1    3    3    0    0  0.63734906440E+01 -0.19759735696E+01 -0.83728934283E+00  0.67250953882E+01  0.00000000000E+00 0. -1.
</event>
<event>
 7    1  0.7819001E-012  0.5930199E+02  0.7816164E-02  0.1266605E+00
        -11   -1    0    0    0    0  0.00000000000E+00  0.00000000000E+00  0.45593999997E+02  0.45594000000E+02  0.51100000000E-03 0.  1.
         11   -1    0    0    0    0 -0.00000000000E+00 -0.00000000000E+00 -0.45593999997E+02  0.45594000000E+02  0.51100000000E-03 0. -1.
    9900012    2    1    2    0    0 -0.21561752369E+02 -0.80149270713E+01  0.22080977183E+02  0.59301987791E+02  0.50000079814E+02 0.  0.
         12    1    1    2    0    0  0.21561752369E+02  0.80149270713E+01 -0.22080977183E+02  0.31886012209E+02  0.00000000000E+00 0. -1.
         11    1    3    3    0    0  0.67288863110E+01 -0.84711551688E+01  0.49459976843E+01  0.11895430813E+02  0.51100000000E-03 0. -1.
        -11    1    3    3    0    0 -0.36081122637E+02 -0.15882760510E+01  0.13315264259E+02  0.38492418657E+02  0.51100000000E-03 0.  1.
        -12    1    3    3    0    0  0.77904839562E+01  0.20445041485E+01  0.38197152405E+01  0.89141383209E+01  0.00000000000E+00 0.  1.
</event>
<event>
 7    1  0.7819001E-012  0.5930186E+02  0.7816164E-02  0.1266605E+00
        -11   -1    0    0    0    0  0.00000000000E+00  0.00000000000E+00  0.45593999997E+02  0.45594000000E+02  0.51100000000E-03 0.  1.
         11   -1    0    0    0    0 -0.00000000000E+00 -0.00000000000E+00 -0.45593999997E+02  0.45594000000E+02  0.51100000000E-03 0. -1.
    9900012    2    1    2    0    0 -0.25272162667E+02 -0.12657886174E+01  0.19402106175E+02  0.59301856447E+02  0.49999840273E+02 0.  0.
         12    1    1    2    0    0  0.25272162667E+02  0.12657886174E+01 -0.19402106175E+02  0.31886143553E+02  0.00000000000E+00 0. -1.
         11    1    3    3    0    0  0.75555845387E+01 -0.69025442082E+01  0.62808543148E+01  0.12007543689E+02  0.51100000000E-03 0. -1.
        -11    1    3    3    0    0 -0.32746319631E+02 -0.40582848398E+01  0.16671557099E+02  0.36969337857E+02  0.51100000000E-03 0.  1.
        -12    1    3    3    0    0 -0.81427574507E-01  0.96950404306E+01 -0.35503052391E+01  0.10324974900E+02  0.00000000000E+00 0.  1.
</event>
<event>
 7    1  0.7819001E-012  0.5930194E+02  0.7816164E-02  0.1266605E+00
        -11   -1    0    0    0    0  0.00000000000E+00  0.00000000000E+00  0.45593999997E+02  0.45594000000E+02  0.51100000000E-03 0.  1.
         11   -1    0    0    0    0 -0.00000000000E+00 -0.00000000000E+00 -0.45593999997E+02  0.45594000000E+02  0.51100000000E-03 0. -1.
    9900012    2    1    2    0    0 -0.24979807439E+02  0.62200964184E+01  0.18815965448E+02  0.59301938235E+02  0.49999989436E+02 0.  0.
         12    1    1    2    0    0  0.24979807439E+02 -0.62200964184E+01 -0.18815965448E+02  0.31886061765E+02  0.00000000000E+00 0. -1.
         11    1    3    3    0    0 -0.86066248574E+01  0.23927024766E+02  0.59341104089E+01  0.26111112045E+02  0.51100000000E-03 0. -1.
        -11    1    3    3    0    0 -0.11125004956E+02 -0.55623106174E+01  0.15324749436E+02  0.19737096550E+02  0.51100000000E-03 0.  1.
         12    1    3    3    0    0 -0.52481776255E+01 -0.12144617731E+02 -0.24428943975E+01  0.13453729641E+02  0.00000000000E+00 0. -1.
</event>
<event>
 7    1  0.7819001E-012  0.5930194E+02  0.7816164E-02  0.1266605E+00
        -11   -1    0    0    0    0  0.00000000000E+00  0.00000000000E+00  0.45593999997E+02  0.45594000000E+02  0.51100000000E-03 0.  1.
         11   -1    0    0    0    0 -0.00000000000E+00 -0.00000000000E+00 -0.45593999997E+02  0.45594000000E+02  0.51100000000E-03 0. -1.
    9900012    2    1    2    0    0  0.28229883326E+02 -0.14758359199E+02  0.14090322326E+01  0.59301939555E+02  0.49999991844E+02 0.  0.
         12    1    1    2    0    0 -0.28229883326E+02  0.14758359199E+02 -0.14090322326E+01  0.31886060445E+02  0.00000000000E+00 0. -1.
         11    1    3    3    0    0  0.58638404727E+01  0.13249934112E+02 -0.45230508385E+01  0.15179043719E+02  0.51100000000E-03 0. -1.
        -11    1    3    3    0    0  0.18355342277E+02 -0.26042612435E+02 -0.50577016467E+01  0.32260139472E+02  0.51100000000E-03 0.  1.
        -12    1    3    3    0    0  0.40107005765E+01 -0.19656808759E+01  0.10989784718E+02  0.11862756364E+02  0.00000000000E+00 0.  1.
</event>
<event>
 7    1  0.7819001E-012  0.5930194E+02  0.7816164E-02  0.1266605E+00
        -11   -1    0    0    0    0  0.00000000000E+00  0.00000000000E+00  0.45593999997E+02  0.45594000000E+02  0.51100000000E-03 0. -1.
         11   -1    0    0    0    0 -0.00000000000E+00 -0.00000000000E+00 -0.45593999997E+02  0.45594000000E+02  0.51100000000E-03 0.  1.
    9900012    2    1    2    0    0  0.11633685005E+02 -0.23311544254E+02 -0.18383413397E+02  0.59301943323E+02  0.49999998714E+02 0.  0.
         12    1    1    2    0    0 -0.11633685005E+02  0.23311544254E+02  0.18383413397E+02  0.31886056677E+02  0.00000000000E+00 0. -1.
         11    1    3    3    0    0 -0.59029135880E+01 -0.88050795993E+00 -0.16194167625E+01  0.61840273291E+01  0.51100000000E-03 0. -1.
        -11    1    3    3    0    0  0.13570581137E+02  0.10495081194E+02 -0.71747815417E+01  0.18595292202E+02  0.51100000000E-03 0.  1.
        -12    1    3    3    0    0  0.39660174558E+01 -0.32926117488E+02 -0.95892150933E+01  0.34522623791E+02  0.00000000000E+00 0.  1.
</event>
<event>
 7    1  0.7819001E-012  0.5930194E+02  0.7816164E-02  0.1266605E+00
        -11   -1    0    0    0    0  0.00000000000E+00  0.00000000000E+00  0.45593999997E+02  0.45594000000E+02  0.51100000000E-03 0.  1.
         11   -1    0    0    0    0 -0.00000000000E+00 -0.00000000000E+00 -0.45593999997E+02  0.45594000000E+02  0.51100000000E-03 0. -1.
    9900012    2    1    2    0    0  0.83250413204E+01  0.22640413916E+02  0.20852486684E+02  0.59301939469E+02  0.49999991686E+02 0.  0.
         12    1    1    2    0    0 -0.83250413204E+01 -0.22640413916E+02 -0.20852486684E+02  0.31886060531E+02  0.00000000000E+00 0. -1.
         11    1    3    3    0    0  0.21029718347E+02 -0.56412104145E+00 -0.32009857395E+01  0.21279417197E+02  0.51100000000E-03 0. -1.
        -11    1    3    3    0    0 -0.82739457288E+01  0.81790900528E+01  0.17561116919E+02  0.21065339297E+02  0.51100000000E-03 0.  1.
        -12    1    3    3    0    0 -0.44307312973E+01  0.15025444905E+02  0.64923555048E+01  0.16957182974E+02  0.00000000000E+00 0.  1.
</event>
<event>
 7    1  0.7819001E-012  0.5930194E+02  0.7816164E-02  0.1266605E+00
        -11   -1    0    0    0    0  0.00000000000E+00  0.00000000000E+00  0.45593999997E+02  0.45594000000E+02  0.51100000000E-03 0. -1.
         11   -1    0    0    0    0 -0.00000000000E+00 -0.00000000000E+00 -0.45593999997E+02  0.45594000000E+02  0.51100000000E-03 0.  1.
    9900012    2    1    2    0    0  0.10982061059E+02  0.25997854274E+02 -0.14840042770E+02  0.59301937819E+02  0.49999988678E+02 0.  0.
         12    1    1    2    0    0 -0.10982061059E+02 -0.25997854274E+02  0.14840042770E+02  0.31886062181E+02  0.00000000000E+00 0. -1.
         11    1    3    3    0    0  0.26314732846E+02  0.15055556786E+02 -0.91418191682E+01  0.31665561939E+02  0.51100000000E-03 0. -1.
        -11    1    3    3    0    0 -0.64008874960E+01 -0.48384349786E+01 -0.50720471498E+01  0.94924957904E+01  0.51100000000E-03 0.  1.
         12    1    3    3    0    0 -0.89317842910E+01  0.15780732466E+02 -0.62617645200E+00  0.18143880091E+02  0.00000000000E+00 0. -1.
</event>
<event>
 7    1  0.7819001E-012  0.5930194E+02  0.7816164E-02  0.1266605E+00
        -11   -1    0    0    0    0  0.00000000000E+00  0.00000000000E+00  0.45593999997E+02  0.45594000000E+02  0.51100000000E-03 0.  1.
         11   -1    0    0    0    0 -0.00000000000E+00 -0.00000000000E+00 -0.45593999997E+02  0.45594000000E+02  0.51100000000E-03 0. -1.
    9900012    2    1    2    0    0 -0.19716969601E+02 -0.16402696830E+01  0.25005426986E+02  0.59301941077E+02  0.49999994619E+02 0.  0.
         12    1    1    2    0    0  0.19716969601E+02  0.16402696830E+01 -0.25005426986E+02  0.31886058923E+02  0.00000000000E+00 0. -1.
         11    1    3    3    0    0 -0.23688884232E+02 -0.90843117792E+01  0.96256879216E+01  0.27135619117E+02  0.51100000000E-03 0. -1.
        -11    1    3    3    0    0 -0.20637702765E+01  0.75175616171E+01  0.21920803353E+02  0.23265736617E+02  0.51100000000E-03 0.  1.
         12    1    3    3    0    0  0.60356849075E+01 -0.73519520915E-01 -0.65410642885E+01  0.89005853431E+01  0.00000000000E+00 0. -1.
</event>
<event>
 7    1  0.7819001E-012  0.5930192E+02  0.7816164E-02  0.1266605E+00
        -11   -1    0    0    0    0  0.00000000000E+00  0.00000000000E+00  0.45593999997E+02  0.45594000000E+02  0.51100000000E-03 0. -1.
         11   -1    0    0    0    0 -0.00000000000E+00 -0.00000000000E+00 -0.45593999997E+02  0.45594000000E+02  0.51100000000E-03 0.  1.
    9900012    2    1    2    0    0 -0.17522020257E+02  0.88148321738E+01 -0.25139596699E+02  0.59301924946E+02  0.49999965200E+02 0.  0.
         12    1    1    2    0    0  0.17522020257E+02 -0.88148321738E+01  0.25139596699E+02  0.31886075054E+02  0.00000000000E+00 0. -1.
         11    1    3    3    0    0  0.59585028677E+01 -0.95571819477E+01  0.28368546909E+01  0.11614268294E+02  0.51100000000E-03 0. -1.
        -11    1    3    3    0    0 -0.22759622804E+02  0.22371659786E+02 -0.17381931577E+02  0.36340378883E+02  0.51100000000E-03 0.  1.
         12    1    3    3    0    0 -0.72090032075E+00 -0.39996456644E+01 -0.10594519813E+02  0.11347277770E+02  0.00000000000E+00 0. -1.
</event>
<event>
 7    1  0.7819001E-012  0.5930198E+02  0.7816164E-02  0.1266605E+00
        -11   -1    0    0    0    0  0.00000000000E+00  0.00000000000E+00  0.45593999997E+02  0.45594000000E+02  0.51100000000E-03 0. -1.
         11   -1    0    0    0    0 -0.00000000000E+00 -0.00000000000E+00 -0.45593999997E+02  0.45594000000E+02  0.51100000000E-03 0.  1.
    9900012    2    1    2    0    0 -0.67773549129E+01 -0.30009581560E+02 -0.83791873531E+01  0.59301979462E+02  0.50000064624E+02 0.  0.
         12    1    1    2    0    0  0.67773549129E+01  0.30009581560E+02  0.83791873531E+01  0.31886020538E+02  0.00000000000E+00 0. -1.
         11    1    3    3    0    0  0.14983872837E+02 -0.14006634133E+02  0.99993423147E+01  0.22818612839E+02  0.51100000000E-03 0. -1.
        -11    1    3    3    0    0 -0.13468809897E+02 -0.13852026968E+02 -0.19951650919E+02  0.27773294112E+02  0.51100000000E-03 0.  1.
         12    1    3    3    0    0 -0.82924178527E+01 -0.21509204598E+01  0.15731212517E+01  0.87100725107E+01  0.00000000000E+00 0. -1.
</event>
<event>
 7    1  0.7819001E-012  0.5930195E+02  0.7816164E-02  0.1266605E+00
        -11   -1    0    0    0    0  0.00000000000E+00  0.00000000000E+00  0.45593999997E+02  0.45594000000E+02  0.51100000000E-03 0. -1.
         11   -1    0    0    0    0 -0.00000000000E+00 -0.00000000000E+00 -0.45593999997E+02  0.45594000000E+02  0.51100000000E-03 0.  1.
    9900012    2    1    2    0    0 -0.28635948407E+02 -0.31683293821E+01  0.13662524581E+02  0.59301946150E+02  0.50000003870E+02 0.  0.
         12    1    1    2    0    0  0.28635948407E+02  0.31683293821E+01 -0.13662524581E+02  0.31886053850E+02  0.00000000000E+00 0. -1.
         11    1    3    3    0    0  0.37421097195E-01 -0.47965628730E+01 -0.10259664094E+02  0.11325595936E+02  0.51100000000E-03 0. -1.
        -11    1    3    3    0    0 -0.17314286255E+02  0.33388491274E+01  0.30136353266E+02  0.34916073812E+02  0.51100000000E-03 0.  1.
        -12    1    3    3    0    0 -0.11359083249E+02 -0.17106156365E+01 -0.62141645910E+01  0.13060276401E+02  0.00000000000E+00 0.  1.
</event>
<event>
 7    1  0.7819001E-012  0.5930196E+02  0.7816164E-02  0.1266605E+00
        -11   -1    0    0    0    0  0.00000000000E+00  0.00000000000E+00  0.45593999997E+02  0.45594000000E+02  0.51100000000E-03 0.  1.
         11   -1    0    0    0    0 -0.00000000000E+00 -0.00000000000E+00 -0.45593999997E+02  0.45594000000E+02  0.51100000000E-03 0. -1.
    9900012    2    1    2    0    0 -0.30796824836E+02  0.45876566552E+01 -0.68723181109E+01  0.59301956505E+02  0.50000022755E+02 0.  0.
         12    1    1    2    0    0  0.30796824836E+02 -0.45876566552E+01  0.68723181109E+01  0.31886043495E+02  0.00000000000E+00 0. -1.
         11    1    3    3    0    0  0.72252412665E+01  0.44051039285E+01  0.98634246404E+01  0.12996006997E+02  0.51100000000E-03 0. -1.
        -11    1    3    3    0    0 -0.27950684328E+02  0.79132933548E+01 -0.59626337435E+01  0.29654914728E+02  0.51100000000E-03 0.  1.
         12    1    3    3    0    0 -0.10071381775E+02 -0.77307406281E+01 -0.10773109008E+02  0.16651034779E+02  0.00000000000E+00 0. -1.
</event>
<event>
 7    1  0.7819001E-012  0.5930197E+02  0.7816164E-02  0.1266605E+00
        -11   -1    0    0    0    0  0.00000000000E+00  0.00000000000E+00  0.45593999997E+02  0.45594000000E+02  0.51100000000E-03 0.  1.
         11   -1    0    0    0    0 -0.00000000000E+00 -0.00000000000E+00 -0.45593999997E+02  0.45594000000E+02  0.51100000000E-03 0. -1.
    9900012    2    1    2    0    0  0.19678004935E+02  0.18974206482E+02  0.16415677080E+02  0.59301971024E+02  0.50000049235E+02 0.  0.
         12    1    1    2    0    0 -0.19678004935E+02 -0.18974206482E+02 -0.16415677080E+02  0.31886028976E+02  0.00000000000E+00 0. -1.
         11    1    3    3    0    0 -0.42532831775E+01  0.22542224452E+02 -0.23164529075E+01  0.23056631484E+02  0.51100000000E-03 0. -1.
        -11    1    3    3    0    0  0.23034632967E+02 -0.21888239137E+00  0.70962716768E+01  0.24103927012E+02  0.51100000000E-03 0.  1.
         12    1    3    3    0    0  0.89665514565E+00 -0.33491355786E+01  0.11635858311E+02  0.12141412529E+02  0.00000000000E+00 0. -1.
</event>
<event>
 7    1  0.7819001E-012  0.5930195E+02  0.7816164E-02  0.1266605E+00
        -11   -1    0    0    0    0  0.00000000000E+00  0.00000000000E+00  0.45593999997E+02  0.45594000000E+02  0.51100000000E-03 0.  1.
         11   -1    0    0    0    0 -0.00000000000E+00 -0.00000000000E+00 -0.45593999997E+02  0.45594000000E+02  0.51100000000E-03 0. -1.
    9900012    2    1    2    0    0  0.19850391537E+02 -0.24904675728E+02 -0.15617546344E+01  0.59301952976E+02  0.50000016320E+02 0.  0.
         12    1    1    2    0    0 -0.19850391537E+02  0.24904675728E+02  0.15617546344E+01  0.31886047024E+02  0.00000000000E+00 0. -1.
         11    1    3    3    0    0  0.11128362619E+02  0.17043527993E+01 -0.72683659487E+01  0.13400537932E+02  0.51100000000E-03 0. -1.
        -11    1    3    3    0    0  0.16772428539E+02 -0.22332164221E+02  0.15971192658E+02  0.32173263948E+02  0.51100000000E-03 0.  1.
        -12    1    3    3    0    0 -0.80503996212E+01 -0.42768643061E+01 -0.10264581344E+02  0.13728151096E+02  0.00000000000E+00 0.  1.
</event>
<event>
 7    1  0.7819001E-012  0.5930194E+02  0.7816164E-02  0.1266605E+00
        -11   -1    0    0    0    0  0.00000000000E+00  0.00000000000E+00  0.45593999997E+02  0.45594000000E+02  0.51100000000E-03 0.  1.
         11   -1    0    0    0    0 -0.00000000000E+00 -0.00000000000E+00 -0.45593999997E+02  0.45594000000E+02  0.51100000000E-03 0. -1.
    9900012    2    1    2    0    0  0.12400146297E+02  0.28034336751E+02 -0.87768625433E+01  0.59301937507E+02  0.49999988107E+02 0.  0.
         12    1    1    2    0    0 -0.12400146297E+02 -0.28034336751E+02  0.87768625433E+01  0.31886062493E+02  0.00000000000E+00 0. -1.
         11    1    3    3    0    0  0.47582985661E+01  0.49495982544E+01 -0.21667596816E+02  0.22729379230E+02  0.51100000000E-03 0. -1.
        -11    1    3    3    0    0 -0.62186294455E+00  0.21521396288E+02  0.42444469971E+00  0.21534562110E+02  0.51100000000E-03 0.  1.
         12    1    3    3    0    0  0.82637106750E+01  0.15633422080E+01  0.12466289573E+02  0.15037996167E+02  0.00000000000E+00 0. -1.
</event>
<event>
 7    1  0.7819001E-012  0.5930198E+02  0.7816164E-02  0.1266605E+00
        -11   -1    0    0    0    0  0.00000000000E+00  0.00000000000E+00  0.45593999997E+02  0.45594000000E+02  0.51100000000E-03 0.  1.
         11   -1    0    0    0    0 -0.00000000000E+00 -0.00000000000E+00 -0.45593999997E+02  0.45594000000E+02  0.51100000000E-03 0. -1.
    9900012    2    1    2    0    0  0.17297713511E+02  0.35713694411E+00  0.26783952710E+02  0.59301975440E+02  0.50000057288E+02 0.  0.
         12    1    1    2    0    0 -0.17297713511E+02 -0.35713694411E+00 -0.26783952710E+02  0.31886024560E+02  0.00000000000E+00 0. -1.
         11    1    3    3    0    0 -0.11100359603E+01 -0.14136258326E+02 -0.28352076994E+01  0.14460441980E+02  0.51100000000E-03 0. -1.
        -11    1    3    3    0    0  0.75221830547E+01  0.16186992058E+02  0.60877538550E+01  0.18859021636E+02  0.51100000000E-03 0.  1.
         12    1    3    3    0    0  0.10885566416E+02 -0.16935967877E+01  0.23531406554E+02  0.25982511824E+02  0.00000000000E+00 0. -1.
</event>
<event>
 7    1  0.7819001E-012  0.5930193E+02  0.7816164E-02  0.1266605E+00
        -11   -1    0    0    0    0  0.00000000000E+00  0.00000000000E+00  0.45593999997E+02  0.45594000000E+02  0.51100000000E-03 0.  1.
         11   -1    0    0    0    0 -0.00000000000E+00 -0.00000000000E+00 -0.45593999997E+02  0.45594000000E+02  0.51100000000E-03 0. -1.
    9900012    2    1    2    0    0  0.98931600813E+01  0.11404909668E+02  0.28085131496E+02  0.59301934202E+02  0.49999982080E+02 0.  0.
         12    1    1    2    0    0 -0.98931600813E+01 -0.11404909668E+02 -0.28085131496E+02  0.31886065798E+02  0.00000000000E+00 0. -1.
         11    1    3    3    0    0  0.21832174329E+02  0.12878117557E+02  0.66711108781E+01  0.26210560245E+02  0.51100000000E-03 0. -1.
        -11    1    3    3    0    0 -0.68216548312E+01  0.62833063463E+01  0.21903377513E+02  0.23785980325E+02  0.51100000000E-03 0.  1.
         12    1    3    3    0    0 -0.51173594161E+01 -0.77565142354E+01 -0.48935689489E+00  0.93053936321E+01  0.00000000000E+00 0. -1.
</event>
<event>
 7    1  0.7819001E-012  0.5930187E+02  0.7816164E-02  0.1266605E+00
        -11   -1    0    0    0    0  0.00000000000E+00  0.00000000000E+00  0.45593999997E+02  0.45594000000E+02  0.51100000000E-03 0.  1.
         11   -1    0    0    0    0 -0.00000000000E+00 -0.00000000000E+00 -0.45593999997E+02  0.45594000000E+02  0.51100000000E-03 0. -1.
    9900012    2    1    2    0    0 -0.25226673474E+02  0.18287850758E+02 -0.67745653111E+01  0.59301870178E+02  0.49999865315E+02 0.  0.
         12    1    1    2    0    0  0.25226673474E+02 -0.18287850758E+02  0.67745653111E+01  0.31886129822E+02  0.00000000000E+00 0. -1.
         11    1    3    3    0    0 -0.20049940450E+02 -0.14699162879E+02 -0.71966161831E+01  0.25881591646E+02  0.51100000000E-03 0. -1.
        -11    1    3    3    0    0 -0.25497619964E+01  0.15849887965E+02 -0.46372420524E+00  0.16060363481E+02  0.51100000000E-03 0.  1.
         12    1    3    3    0    0 -0.26269710274E+01  0.17137125671E+02  0.88577507731E+00  0.17359915050E+02  0.00000000000E+00 0. -1.
</event>
<event>
 7    1  0.7819001E-012  0.5930218E+02  0.7816164E-02  0.1266604E+00
        -11   -1    0    0    0    0  0.00000000000E+00  0.00000000000E+00  0.45593999997E+02  0.45594000000E+02  0.51100000000E-03 0.  1.
         11   -1    0    0    0    0 -0.00000000000E+00 -0.00000000000E+00 -0.45593999997E+02  0.45594000000E+02  0.51100000000E-03 0. -1.
    9900012    2    1    2    0    0 -0.22811850164E+02 -0.13418675250E+02  0.17783818632E+02  0.59302179350E+02  0.50000429170E+02 0.  0.
         12    1    1    2    0    0  0.22811850164E+02  0.13418675250E+02 -0.17783818632E+02  0.31885820650E+02  0.00000000000E+00 0. -1.
         11    1    3    3    0    0  0.51040466070E+01  0.74471856368E+01  0.16627053330E+02  0.18920115443E+02  0.51100000000E-03 0. -1.
        -11    1    3    3    0    0 -0.10513136645E+02  0.24504828869E+01  0.30741624262E+01  0.11224142879E+02  0.51100000000E-03 0.  1.
         12    1    3    3    0    0 -0.17402760126E+02 -0.23316343773E+02 -0.19173971237E+01  0.29157921028E+02  0.00000000000E+00 0. -1.
</event>
<event>
 7    1  0.7819001E-012  0.5930194E+02  0.7816164E-02  0.1266605E+00
        -11   -1    0    0    0    0  0.00000000000E+00  0.00000000000E+00  0.45593999997E+02  0.45594000000E+02  0.51100000000E-03 0.  1.
         11   -1    0    0    0    0 -0.00000000000E+00 -0.00000000000E+00 -0.45593999997E+02  0.45594000000E+02  0.51100000000E-03 0. -1.
    9900012    2    1    2    0    0  0.17379351654E+02  0.22575282476E+02  0.14319074483E+02  0.59301935068E+02  0.49999983660E+02 0.  0.
         12    1    1    2    0    0 -0.17379351654E+02 -0.22575282476E+02 -0.14319074483E+02  0.31886064932E+02  0.00000000000E+00 0. -1.
         11    1    3    3    0    0 -0.14684435415E+02  0.14225905663E+02  0.41325169209E+01  0.20858732745E+02  0.51100000000E-03 0. -1.
        -11    1    3    3    0    0  0.16163475342E+02  0.22529331311E+00  0.12505609963E+02  0.20437685119E+02  0.51100000000E-03 0.  1.
         12    1    3    3    0    0  0.15900311727E+02  0.81240835001E+01 -0.23190524009E+01  0.18005517204E+02  0.00000000000E+00 0. -1.
</event>
<event>
 7    1  0.7819001E-012  0.5930195E+02  0.7816164E-02  0.1266605E+00
        -11   -1    0    0    0    0  0.00000000000E+00  0.00000000000E+00  0.45593999997E+02  0.45594000000E+02  0.51100000000E-03 0.  1.
         11   -1    0    0    0    0 -0.00000000000E+00 -0.00000000000E+00 -0.45593999997E+02  0.45594000000E+02  0.51100000000E-03 0. -1.
    9900012    2    1    2    0    0 -0.12393033885E+02  0.11485565814E+02  0.27040976377E+02  0.59301954238E+02  0.50000018620E+02 0.  0.
         12    1    1    2    0    0  0.12393033885E+02 -0.11485565814E+02 -0.27040976377E+02  0.31886045762E+02  0.00000000000E+00 0. -1.
         11    1    3    3    0    0  0.66206491412E+01 -0.64038862539E+01  0.23552515443E+02  0.25289597430E+02  0.51100000000E-03 0. -1.
        -11    1    3    3    0    0 -0.82924154509E+01  0.19605500844E+02 -0.27914442101E+01  0.21469326455E+02  0.51100000000E-03 0.  1.
        -12    1    3    3    0    0 -0.10721267575E+02 -0.17160487770E+01  0.62799051446E+01  0.12543030353E+02  0.00000000000E+00 0.  1.
</event>
<event>
 7    1  0.7819001E-012  0.5930196E+02  0.7816164E-02  0.1266605E+00
        -11   -1    0    0    0    0  0.00000000000E+00  0.00000000000E+00  0.45593999997E+02  0.45594000000E+02  0.51100000000E-03 0.  1.
         11   -1    0    0    0    0 -0.00000000000E+00 -0.00000000000E+00 -0.45593999997E+02  0.45594000000E+02  0.51100000000E-03 0. -1.
    9900012    2    1    2    0    0  0.17391135854E+02  0.26723612388E+02 -0.34135742728E+00  0.59301959320E+02  0.50000027890E+02 0.  0.
         12    1    1    2    0    0 -0.17391135854E+02 -0.26723612388E+02  0.34135742728E+00  0.31886040680E+02  0.00000000000E+00 0. -1.
         11    1    3    3    0    0 -0.53678156858E+01 -0.98529149877E+01 -0.85207736996E+01  0.14088895049E+02  0.51100000000E-03 0. -1.
        -11    1    3    3    0    0  0.95894223858E+01  0.14982809186E+02  0.89398326512E+01  0.19908847302E+02  0.51100000000E-03 0.  1.
         12    1    3    3    0    0  0.13169529154E+02  0.21593718190E+02 -0.76041637888E+00  0.25304216970E+02  0.00000000000E+00 0. -1.
</event>
<event>
 7    1  0.7819001E-012  0.5930179E+02  0.7816164E-02  0.1266605E+00
        -11   -1    0    0    0    0  0.00000000000E+00  0.00000000000E+00  0.45593999997E+02  0.45594000000E+02  0.51100000000E-03 0. -1.
         11   -1    0    0    0    0 -0.00000000000E+00 -0.00000000000E+00 -0.45593999997E+02  0.45594000000E+02  0.51100000000E-03 0.  1.
    9900012    2    1    2    0    0 -0.21857164135E+02 -0.22291501442E+02 -0.64871944160E+01  0.59301790568E+02  0.49999720125E+02 0.  0.
         12    1    1    2    0    0  0.21857164135E+02  0.22291501442E+02  0.64871944160E+01  0.31886209432E+02  0.00000000000E+00 0. -1.
         11    1    3    3    0    0  0.14907966464E+02 -0.83391257158E+01 -0.10233646777E+00  0.17082123838E+02  0.51100000000E-03 0. -1.
        -11    1    3    3    0    0 -0.28926243951E+02 -0.12201633494E+02 -0.10616811121E+02  0.33140973548E+02  0.51100000000E-03 0.  1.
        -12    1    3    3    0    0 -0.78388866481E+01 -0.17507422322E+01  0.42319531724E+01  0.90786931823E+01  0.00000000000E+00 0.  1.
</event>
<event>
 7    1  0.7819001E-012  0.5930189E+02  0.7816164E-02  0.1266605E+00
        -11   -1    0    0    0    0  0.00000000000E+00  0.00000000000E+00  0.45593999997E+02  0.45594000000E+02  0.51100000000E-03 0. -1.
         11   -1    0    0    0    0 -0.00000000000E+00 -0.00000000000E+00 -0.45593999997E+02  0.45594000000E+02  0.51100000000E-03 0.  1.
    9900012    2    1    2    0    0  0.62794977505E+01  0.90806455081E+01 -0.29913776092E+02  0.59301886801E+02  0.49999895632E+02 0.  0.
         12    1    1    2    0    0 -0.62794977505E+01 -0.90806455081E+01  0.29913776092E+02  0.31886113199E+02  0.00000000000E+00 0. -1.
         11    1    3    3    0    0 -0.10945899460E+02  0.15123528669E+02  0.38364662481E+01  0.19059179099E+02  0.51100000000E-03 0. -1.
        -11    1    3    3    0    0  0.11840218508E+02  0.14836975655E+01 -0.23980998318E+02  0.26785824858E+02  0.51100000000E-03 0.  1.
         12    1    3    3    0    0  0.53851787020E+01 -0.75265807267E+01 -0.97692440229E+01  0.13456882844E+02  0.00000000000E+00 0. -1.
</event>
<event>
 7    1  0.7819001E-012  0.5930195E+02  0.7816164E-02  0.1266605E+00
        -11   -1    0    0    0    0  0.00000000000E+00  0.00000000000E+00  0.45593999997E+02  0.45594000000E+02  0.51100000000E-03 0. -1.
         11   -1    0    0    0    0 -0.00000000000E+00 -0.00000000000E+00 -0.45593999997E+02  0.45594000000E+02  0.51100000000E-03 0.  1.
    9900012    2    1    2    0    0 -0.27039819702E+02  0.15013674434E+02 -0.77561667766E+01  0.59301946739E+02  0.50000004944E+02 0.  0.
         12    1    1    2    0    0  0.27039819702E+02 -0.15013674434E+02  0.77561667766E+01  0.31886053261E+02  0.00000000000E+00 0. -1.
         11    1    3    3    0    0 -0.16005891844E+02 -0.10708700944E+02  0.11199365367E+02  0.22277581433E+02  0.51100000000E-03 0. -1.
        -11    1    3    3    0    0 -0.74396957264E+01  0.20421607825E+02 -0.59607862553E+01  0.22537127406E+02  0.51100000000E-03 0.  1.
         12    1    3    3    0    0 -0.35942321317E+01  0.53007675529E+01 -0.12994745888E+02  0.14487237899E+02  0.00000000000E+00 0. -1.
</event>
<event>
 7    1  0.7819001E-012  0.5930194E+02  0.7816164E-02  0.1266605E+00
        -11   -1    0    0    0    0  0.00000000000E+00  0.00000000000E+00  0.45593999997E+02  0.45594000000E+02  0.51100000000E-03 0.  1.
         11   -1    0    0    0    0 -0.00000000000E+00 -0.00000000000E+00 -0.45593999997E+02  0.45594000000E+02  0.51100000000E-03 0. -1.
    9900012    2    1    2    0    0 -0.12021299853E+02  0.25485547459E+02  0.14922995598E+02  0.59301943846E+02  0.49999999669E+02 0.  0.
         12    1    1    2    0    0  0.12021299853E+02 -0.25485547459E+02 -0.14922995598E+02  0.31886056154E+02  0.00000000000E+00 0. -1.
         11    1    3    3    0    0  0.29406217650E+01 -0.70989181360E+01 -0.26435975291E+01  0.81259155314E+01  0.51100000000E-03 0. -1.
        -11    1    3    3    0    0 -0.20631210143E+02  0.14316585648E+02  0.19717766883E+02  0.31928072094E+02  0.51100000000E-03 0.  1.
         12    1    3    3    0    0  0.56692885251E+01  0.18267879947E+02 -0.21511737560E+01  0.19247956221E+02  0.00000000000E+00 0. -1.
</event>
<event>
 7    1  0.7819001E-012  0.5930198E+02  0.7816164E-02  0.1266605E+00
        -11   -1    0    0    0    0  0.00000000000E+00  0.00000000000E+00  0.45593999997E+02  0.45594000000E+02  0.51100000000E-03 0.  1.
         11   -1    0    0    0    0 -0.00000000000E+00 -0.00000000000E+00 -0.45593999997E+02  0.45594000000E+02  0.51100000000E-03 0. -1.
    9900012    2    1    2    0    0  0.65136688937E+01 -0.30876266512E+02  0.45767597981E+01  0.59301977256E+02  0.50000060600E+02 0.  0.
         12    1    1    2    0    0 -0.65136688937E+01  0.30876266512E+02 -0.45767597981E+01  0.31886022744E+02  0.00000000000E+00 0. -1.
         11    1    3    3    0    0 -0.12148540026E+02 -0.12600772975E+02  0.80551436133E+01  0.19267896699E+02  0.51100000000E-03 0. -1.
        -11    1    3    3    0    0  0.24108204232E+02 -0.85560658376E+01  0.49600711423E+01  0.26057898609E+02  0.51100000000E-03 0.  1.
        -12    1    3    3    0    0 -0.54459953131E+01 -0.97194276992E+01 -0.84384549576E+01  0.13976181947E+02  0.00000000000E+00 0.  1.
</event>
<event>
 7    1  0.7819001E-012  0.5930182E+02  0.7816164E-02  0.1266605E+00
        -11   -1    0    0    0    0  0.00000000000E+00  0.00000000000E+00  0.45593999997E+02  0.45594000000E+02  0.51100000000E-03 0. -1.
         11   -1    0    0    0    0 -0.00000000000E+00 -0.00000000000E+00 -0.45593999997E+02  0.45594000000E+02  0.51100000000E-03 0.  1.
    9900012    2    1    2    0    0  0.28437725061E+00  0.18784375561E+02 -0.25764220552E+02  0.59301816530E+02  0.49999767474E+02 0.  0.
         12    1    1    2    0    0 -0.28437725061E+00 -0.18784375561E+02  0.25764220552E+02  0.31886183470E+02  0.00000000000E+00 0. -1.
         11    1    3    3    0    0  0.18684736961E+02  0.48378815616E+01 -0.11650274295E+02  0.22544475703E+02  0.51100000000E-03 0. -1.
        -11    1    3    3    0    0 -0.90230695889E+01  0.16971543257E+02 -0.17838929229E+02  0.26223585980E+02  0.51100000000E-03 0.  1.
        -12    1    3    3    0    0 -0.93772901218E+01 -0.30250492575E+01  0.37249829717E+01  0.10533754847E+02  0.00000000000E+00 0.  1.
</event>
<event>
 7    1  0.7819001E-012  0.5930195E+02  0.7816164E-02  0.1266605E+00
        -11   -1    0    0    0    0  0.00000000000E+00  0.00000000000E+00  0.45593999997E+02  0.45594000000E+02  0.51100000000E-03 0.  1.
         11   -1    0    0    0    0 -0.00000000000E+00 -0.00000000000E+00 -0.45593999997E+02  0.45594000000E+02  0.51100000000E-03 0. -1.
    9900012    2    1    2    0    0 -0.81031365869E+01 -0.32442052185E+01  0.30668138790E+02  0.59301946201E+02  0.50000003963E+02 0.  0.
         12    1    1    2    0    0  0.81031365869E+01  0.32442052185E+01 -0.30668138790E+02  0.31886053799E+02  0.00000000000E+00 0. -1.
         11    1    3    3    0    0  0.13688229015E+02  0.54952101406E+01  0.11368526913E+02  0.18622791211E+02  0.51100000000E-03 0. -1.
        -11    1    3    3    0    0 -0.23267965496E+02 -0.41510101338E+01  0.31727270192E+01  0.23847333194E+02  0.51100000000E-03 0.  1.
        -12    1    3    3    0    0  0.14765998949E+01 -0.45884052252E+01  0.16126884858E+02  0.16831821796E+02  0.00000000000E+00 0.  1.
</event>
<event>
 7    1  0.7819001E-012  0.5930194E+02  0.7816164E-02  0.1266605E+00
        -11   -1    0    0    0    0  0.00000000000E+00  0.00000000000E+00  0.45593999997E+02  0.45594000000E+02  0.51100000000E-03 0.  1.
         11   -1    0    0    0    0 -0.00000000000E+00 -0.00000000000E+00 -0.45593999997E+02  0.45594000000E+02  0.51100000000E-03 0. -1.
    9900012    2    1    2    0    0  0.23181721421E+02  0.17401638711E+02  0.13285764116E+02  0.59301940883E+02  0.49999994264E+02 0.  0.
         12    1    1    2    0    0 -0.23181721421E+02 -0.17401638711E+02 -0.13285764116E+02  0.31886059117E+02  0.00000000000E+00 0. -1.
         11    1    3    3    0    0  0.32322666298E+00 -0.37858304157E+01  0.10142260629E+02  0.10830625021E+02  0.51100000000E-03 0. -1.
        -11    1    3    3    0    0  0.32017915013E+02  0.12314055336E+02 -0.27665991248E+01  0.34415649225E+02  0.51100000000E-03 0.  1.
        -12    1    3    3    0    0 -0.91594202552E+01  0.88734137913E+01  0.59101026119E+01  0.14055666637E+02  0.00000000000E+00 0.  1.
</event>
<event>
 7    1  0.7819001E-012  0.5930195E+02  0.7816164E-02  0.1266605E+00
        -11   -1    0    0    0    0  0.00000000000E+00  0.00000000000E+00  0.45593999997E+02  0.45594000000E+02  0.51100000000E-03 0.  1.
         11   -1    0    0    0    0 -0.00000000000E+00 -0.00000000000E+00 -0.45593999997E+02  0.45594000000E+02  0.51100000000E-03 0. -1.
    9900012    2    1    2    0    0  0.37265335626E+00  0.31322118422E+02  0.59587326959E+01  0.59301945551E+02  0.50000002779E+02 0.  0.
         12    1    1    2    0    0 -0.37265335626E+00 -0.31322118422E+02 -0.59587326959E+01  0.31886054449E+02  0.00000000000E+00 0. -1.
         11    1    3    3    0    0 -0.16361714947E+01 -0.99915806023E+00 -0.16945098004E+02  0.17053202650E+02  0.51100000000E-03 0. -1.
        -11    1    3    3    0    0  0.39246093779E+01  0.24468377985E+01  0.68915574277E+01  0.82995866175E+01  0.51100000000E-03 0.  1.
         12    1    3    3    0    0 -0.19157845270E+01  0.29874438684E+02  0.16012273272E+02  0.33949156284E+02  0.00000000000E+00 0. -1.
</event>
<event>
 7    1  0.7819001E-012  0.5930194E+02  0.7816164E-02  0.1266605E+00
        -11   -1    0    0    0    0  0.00000000000E+00  0.00000000000E+00  0.45593999997E+02  0.45594000000E+02  0.51100000000E-03 0. -1.
         11   -1    0    0    0    0 -0.00000000000E+00 -0.00000000000E+00 -0.45593999997E+02  0.45594000000E+02  0.51100000000E-03 0.  1.
    9900012    2    1    2    0    0 -0.30485091999E+02 -0.42368667799E+01 -0.83324115940E+01  0.59301937884E+02  0.49999988795E+02 0.  0.
         12    1    1    2    0    0  0.30485091999E+02  0.42368667799E+01  0.83324115940E+01  0.31886062116E+02  0.00000000000E+00 0. -1.
         11    1    3    3    0    0 -0.30723574670E+02 -0.96831360888E+01 -0.91916686122E+01  0.33499073676E+02  0.51100000000E-03 0. -1.
        -11    1    3    3    0    0  0.86426854158E+01  0.45737183511E+00  0.94329521962E+01  0.12801788453E+02  0.51100000000E-03 0.  1.
        -12    1    3    3    0    0 -0.84042027450E+01  0.49888974739E+01 -0.85736951780E+01  0.13001075755E+02  0.00000000000E+00 0.  1.
</event>
<event>
 7    1  0.7819001E-012  0.5930199E+02  0.7816164E-02  0.1266605E+00
        -11   -1    0    0    0    0  0.00000000000E+00  0.00000000000E+00  0.45593999997E+02  0.45594000000E+02  0.51100000000E-03 0.  1.
         11   -1    0    0    0    0 -0.00000000000E+00 -0.00000000000E+00 -0.45593999997E+02  0.45594000000E+02  0.51100000000E-03 0. -1.
    9900012    2    1    2    0    0 -0.16697117640E+00 -0.14071226282E+02  0.28612770049E+02  0.59301985850E+02  0.50000076275E+02 0.  0.
         12    1    1    2    0    0  0.16697117640E+00  0.14071226282E+02 -0.28612770049E+02  0.31886014150E+02  0.00000000000E+00 0. -1.
         11    1    3    3    0    0 -0.15985060668E+02 -0.68644233850E+01  0.41533906677E+01  0.17885556386E+02  0.51100000000E-03 0. -1.
        -11    1    3    3    0    0  0.21732122743E+02  0.47593787790E+00  0.98079880838E+01  0.23847605881E+02  0.51100000000E-03 0.  1.
        -12    1    3    3    0    0 -0.59140332515E+01 -0.76827407751E+01  0.14651391298E+02  0.17568823583E+02  0.00000000000E+00 0.  1.
</event>
<event>
 7    1  0.7819001E-012  0.5930196E+02  0.7816164E-02  0.1266605E+00
        -11   -1    0    0    0    0  0.00000000000E+00  0.00000000000E+00  0.45593999997E+02  0.45594000000E+02  0.51100000000E-03 0.  1.
         11   -1    0    0    0    0 -0.00000000000E+00 -0.00000000000E+00 -0.45593999997E+02  0.45594000000E+02  0.51100000000E-03 0. -1.
    9900012    2    1    2    0    0  0.17230529200E+02 -0.42773050919E+01  0.26486471028E+02  0.59301958809E+02  0.50000026957E+02 0.  0.
         12    1    1    2    0    0 -0.17230529200E+02  0.42773050919E+01 -0.26486471028E+02  0.31886041191E+02  0.00000000000E+00 0. -1.
         11    1    3    3    0    0  0.76728811586E+01 -0.10625164684E+02  0.32443194370E+02  0.34990399983E+02  0.51100000000E-03 0.  1.
        -11    1    3    3    0    0  0.76907644187E+00  0.31051336787E+01 -0.12488351490E+02  0.12891557583E+02  0.51100000000E-03 0. -1.
         12    1    3    3    0    0  0.87885715993E+01  0.32427259134E+01  0.65316281477E+01  0.11420001242E+02  0.00000000000E+00 0. -1.
</event>
<event>
 7    1  0.7819001E-012  0.5930195E+02  0.7816164E-02  0.1266605E+00
        -11   -1    0    0    0    0  0.00000000000E+00  0.00000000000E+00  0.45593999997E+02  0.45594000000E+02  0.51100000000E-03 0.  1.
         11   -1    0    0    0    0 -0.00000000000E+00 -0.00000000000E+00 -0.45593999997E+02  0.45594000000E+02  0.51100000000E-03 0. -1.
    9900012    2    1    2    0    0  0.17712879663E+02 -0.10445117968E+02  0.24369524458E+02  0.59301947914E+02  0.50000007087E+02 0.  0.
         12    1    1    2    0    0 -0.17712879663E+02  0.10445117968E+02 -0.24369524458E+02  0.31886052086E+02  0.00000000000E+00 0. -1.
         11    1    3    3    0    0  0.10442084260E+02  0.36398779814E+01 -0.60177510288E+01  0.12589645075E+02  0.51100000000E-03 0. -1.
        -11    1    3    3    0    0  0.72748527286E+01 -0.22395702623E+02  0.30334446387E+02  0.38401427266E+02  0.51100000000E-03 0.  1.
        -12    1    3    3    0    0 -0.40573250366E-02  0.83107066732E+01  0.52829099510E-01  0.83108755726E+01  0.00000000000E+00 0.  1.
</event>
<event>
 7    1  0.7819001E-012  0.5930194E+02  0.7816164E-02  0.1266605E+00
        -11   -1    0    0    0    0  0.00000000000E+00  0.00000000000E+00  0.45593999997E+02  0.45594000000E+02  0.51100000000E-03 0.  1.
         11   -1    0    0    0    0 -0.00000000000E+00 -0.00000000000E+00 -0.45593999997E+02  0.45594000000E+02  0.51100000000E-03 0. -1.
    9900012    2    1    2    0    0 -0.15620628047E+02  0.27502921596E+02 -0.40380665692E+01  0.59301941942E+02  0.49999996195E+02 0.  0.
         12    1    1    2    0    0  0.15620628047E+02 -0.27502921596E+02  0.40380665692E+01  0.31886058058E+02  0.00000000000E+00 0. -1.
         11    1    3    3    0    0 -0.46480584251E+01  0.10439975129E+02 -0.13743881797E+02  0.17874333972E+02  0.51100000000E-03 0. -1.
        -11    1    3    3    0    0 -0.11076563420E+02 -0.37181845736E+01  0.15910442422E+02  0.19739739918E+02  0.51100000000E-03 0.  1.
        -12    1    3    3    0    0  0.10399379810E+00  0.20781131040E+02 -0.62046271939E+01  0.21687868052E+02  0.00000000000E+00 0.  1.
</event>
<event>
 7    1  0.7819001E-012  0.5930195E+02  0.7816164E-02  0.1266605E+00
        -11   -1    0    0    0    0  0.00000000000E+00  0.00000000000E+00  0.45593999997E+02  0.45594000000E+02  0.51100000000E-03 0.  1.
         11   -1    0    0    0    0 -0.00000000000E+00 -0.00000000000E+00 -0.45593999997E+02  0.45594000000E+02  0.51100000000E-03 0. -1.
    9900012    2    1    2    0    0 -0.50507836940E+00  0.50620134478E+01  0.31477631956E+02  0.59301946655E+02  0.50000004792E+02 0.  0.
         12    1    1    2    0    0  0.50507836940E+00 -0.50620134478E+01 -0.31477631956E+02  0.31886053345E+02  0.00000000000E+00 0. -1.
         11    1    3    3    0    0 -0.20901074269E+00  0.49254401350E+01 -0.65638329422E+01  0.82089919703E+01  0.51100000000E-03 0. -1.
        -11    1    3    3    0    0 -0.15428049454E+02 -0.72593061054E+01  0.16275670517E+02  0.23571586415E+02  0.51100000000E-03 0.  1.
        -12    1    3    3    0    0  0.15131981827E+02  0.73958794182E+01  0.21765794381E+02  0.27521368270E+02  0.00000000000E+00 0.  1.
</event>
<event>
 7    1  0.7819001E-012  0.5930196E+02  0.7816164E-02  0.1266605E+00
        -11   -1    0    0    0    0  0.00000000000E+00  0.00000000000E+00  0.45593999997E+02  0.45594000000E+02  0.51100000000E-03 0. -1.
         11   -1    0    0    0    0 -0.00000000000E+00 -0.00000000000E+00 -0.45593999997E+02  0.45594000000E+02  0.51100000000E-03 0.  1.
    9900012    2    1    2    0    0 -0.20649650649E+02 -0.24246400459E+02 -0.15566752133E+01  0.59301964735E+02  0.50000037766E+02 0.  0.
         12    1    1    2    0    0  0.20649650649E+02  0.24246400459E+02  0.15566752133E+01  0.31886035265E+02  0.00000000000E+00 0. -1.
         11    1    3    3    0    0 -0.12451634453E+02  0.62576956039E+01 -0.59563191501E+01  0.15155186996E+02  0.51100000000E-03 0. -1.
        -11    1    3    3    0    0 -0.21749686180E+01 -0.12385645064E+02  0.17092072163E+02  0.21219651817E+02  0.51100000000E-03 0.  1.
        -12    1    3    3    0    0 -0.60230475789E+01 -0.18118450999E+02 -0.12692428227E+02  0.22927125922E+02  0.00000000000E+00 0.  1.
</event>
<event>
 7    1  0.7819001E-012  0.5930198E+02  0.7816164E-02  0.1266605E+00
        -11   -1    0    0    0    0  0.00000000000E+00  0.00000000000E+00  0.45593999997E+02  0.45594000000E+02  0.51100000000E-03 0.  1.
         11   -1    0    0    0    0 -0.00000000000E+00 -0.00000000000E+00 -0.45593999997E+02  0.45594000000E+02  0.51100000000E-03 0. -1.
    9900012    2    1    2    0    0  0.18569251875E+02  0.23053501706E+02  0.11850609712E+02  0.59301984152E+02  0.50000073177E+02 0.  0.
         12    1    1    2    0    0 -0.18569251875E+02 -0.23053501706E+02 -0.11850609712E+02  0.31886015848E+02  0.00000000000E+00 0. -1.
         11    1    3    3    0    0 -0.10025475817E+02 -0.10838161923E+01  0.31180394691E+01  0.10554951127E+02  0.51100000000E-03 0. -1.
        -11    1    3    3    0    0  0.31060971408E+02  0.88394853836E+01  0.78042869258E+01  0.33223897143E+02  0.51100000000E-03 0.  1.
        -12    1    3    3    0    0 -0.24662437156E+01  0.15297832514E+02  0.92828331696E+00  0.15523135882E+02  0.00000000000E+00 0.  1.
</event>
<event>
 7    1  0.7819001E-012  0.5930194E+02  0.7816164E-02  0.1266605E+00
        -11   -1    0    0    0    0  0.00000000000E+00  0.00000000000E+00  0.45593999997E+02  0.45594000000E+02  0.51100000000E-03 0. -1.
         11   -1    0    0    0    0 -0.00000000000E+00 -0.00000000000E+00 -0.45593999997E+02  0.45594000000E+02  0.51100000000E-03 0.  1.
    9900012    2    1    2    0    0  0.31402571908E+02 -0.51035326675E+01 -0.21337973477E+01  0.59301942557E+02  0.49999997318E+02 0.  0.
         12    1    1    2    0    0 -0.31402571908E+02  0.51035326675E+01  0.21337973477E+01  0.31886057443E+02  0.00000000000E+00 0. -1.
         11    1    3    3    0    0  0.10835308976E+02  0.10135924799E+02  0.11818363875E+02  0.18968780063E+02  0.51100000000E-03 0. -1.
        -11    1    3    3    0    0  0.24652913459E+02 -0.19107935354E+02 -0.81227432639E+01  0.32231324731E+02  0.51100000000E-03 0.  1.
         12    1    3    3    0    0 -0.40856505272E+01  0.38684778874E+01 -0.58294179589E+01  0.81018377628E+01  0.00000000000E+00 0. -1.
</event>
<event>
 7    1  0.7819001E-012  0.5930195E+02  0.7816164E-02  0.1266605E+00
        -11   -1    0    0    0    0  0.00000000000E+00  0.00000000000E+00  0.45593999997E+02  0.45594000000E+02  0.51100000000E-03 0.  1.
         11   -1    0    0    0    0 -0.00000000000E+00 -0.00000000000E+00 -0.45593999997E+02  0.45594000000E+02  0.51100000000E-03 0. -1.
    9900012    2    1    2    0    0 -0.31460209338E+02 -0.48144490503E+01 -0.19484171597E+01  0.59301952570E+02  0.50000015580E+02 0.  0.
         12    1    1    2    0    0  0.31460209338E+02  0.48144490503E+01  0.19484171597E+01  0.31886047430E+02  0.00000000000E+00 0. -1.
         11    1    3    3    0    0 -0.46396558891E+01  0.29375903523E+00  0.20825807340E+02  0.21338391523E+02  0.51100000000E-03 0.  1.
        -11    1    3    3    0    0 -0.21767911947E+02 -0.70111087840E+00 -0.22409104600E+02  0.31249024244E+02  0.51100000000E-03 0. -1.
        -12    1    3    3    0    0 -0.50526415021E+01 -0.44070972071E+01 -0.36511989991E+00  0.67145368033E+01  0.00000000000E+00 0.  1.
</event>
<event>
 7    1  0.7819001E-012  0.5930194E+02  0.7816164E-02  0.1266605E+00
        -11   -1    0    0    0    0  0.00000000000E+00  0.00000000000E+00  0.45593999997E+02  0.45594000000E+02  0.51100000000E-03 0. -1.
         11   -1    0    0    0    0 -0.00000000000E+00 -0.00000000000E+00 -0.45593999997E+02  0.45594000000E+02  0.51100000000E-03 0.  1.
    9900012    2    1    2    0    0  0.30853992597E+02  0.60217715102E+01  0.53376029763E+01  0.59301943535E+02  0.49999999102E+02 0.  0.
         12    1    1    2    0    0 -0.30853992597E+02 -0.60217715102E+01 -0.53376029763E+01  0.31886056465E+02  0.00000000000E+00 0. -1.
         11    1    3    3    0    0 -0.14152311744E+00  0.71780555549E+01 -0.15260348072E+02  0.16864837203E+02  0.51100000000E-03 0. -1.
        -11    1    3    3    0    0  0.17535563323E+02  0.67819616310E+00  0.22698708546E+02  0.28691240842E+02  0.51100000000E-03 0.  1.
         12    1    3    3    0    0  0.13459952392E+02 -0.18344802079E+01 -0.21007574978E+01  0.13745865491E+02  0.00000000000E+00 0. -1.
</event>
<event>
 7    1  0.7819001E-012  0.5930179E+02  0.7816164E-02  0.1266605E+00
        -11   -1    0    0    0    0  0.00000000000E+00  0.00000000000E+00  0.45593999997E+02  0.45594000000E+02  0.51100000000E-03 0.  1.
         11   -1    0    0    0    0 -0.00000000000E+00 -0.00000000000E+00 -0.45593999997E+02  0.45594000000E+02  0.51100000000E-03 0. -1.
    9900012    2    1    2    0    0  0.28149315843E+01 -0.28758882744E+02  0.13480857672E+02  0.59301785109E+02  0.49999710170E+02 0.  0.
         12    1    1    2    0    0 -0.28149315843E+01  0.28758882744E+02 -0.13480857672E+02  0.31886214891E+02  0.00000000000E+00 0. -1.
         11    1    3    3    0    0 -0.40306594869E+01 -0.22211577338E+02  0.87406689569E+01  0.24207430220E+02  0.51100000000E-03 0. -1.
        -11    1    3    3    0    0  0.11318649446E+02  0.57265868153E+01  0.14143419879E+02  0.18998472254E+02  0.51100000000E-03 0.  1.
         12    1    3    3    0    0 -0.44730583753E+01 -0.12273892221E+02 -0.94032311645E+01  0.16095882635E+02  0.00000000000E+00 0. -1.
</event>
<event>
 7    1  0.7819001E-012  0.5930188E+02  0.7816164E-02  0.1266605E+00
        -11   -1    0    0    0    0  0.00000000000E+00  0.00000000000E+00  0.45593999997E+02  0.45594000000E+02  0.51100000000E-03 0.  1.
         11   -1    0    0    0    0 -0.00000000000E+00 -0.00000000000E+00 -0.45593999997E+02  0.45594000000E+02  0.51100000000E-03 0. -1.
    9900012    2    1    2    0    0 -0.24190394525E+02  0.20771881432E+02  0.28032402243E+00  0.59301877203E+02  0.49999878127E+02 0.  0.
         12    1    1    2    0    0  0.24190394525E+02 -0.20771881432E+02 -0.28032402243E+00  0.31886122797E+02  0.00000000000E+00 0. -1.
         11    1    3    3    0    0  0.10686974626E+02 -0.34472004511E+01 -0.65548445940E+01  0.13002330773E+02  0.51100000000E-03 0. -1.
        -11    1    3    3    0    0 -0.15964627862E+02  0.84279039634E+01  0.11246523816E+02  0.21269301968E+02  0.51100000000E-03 0.  1.
         12    1    3    3    0    0 -0.18912741289E+02  0.15791177920E+02 -0.44113551992E+01  0.25030244462E+02  0.00000000000E+00 0. -1.
</event>
<event>
 7    1  0.7819001E-012  0.5930195E+02  0.7816164E-02  0.1266605E+00
        -11   -1    0    0    0    0  0.00000000000E+00  0.00000000000E+00  0.45593999997E+02  0.45594000000E+02  0.51100000000E-03 0. -1.
         11   -1    0    0    0    0 -0.00000000000E+00 -0.00000000000E+00 -0.45593999997E+02  0.45594000000E+02  0.51100000000E-03 0.  1.
    9900012    2    1    2    0    0 -0.20068681267E+02 -0.24055714608E+02 -0.59406117941E+01  0.59301949107E+02  0.50000009263E+02 0.  0.
         12    1    1    2    0    0  0.20068681267E+02  0.24055714608E+02  0.59406117941E+01  0.31886050893E+02  0.00000000000E+00 0. -1.
         11    1    3    3    0    0 -0.11461982502E+01 -0.26264208452E+02  0.27087323361E+01  0.26428387146E+02  0.51100000000E-03 0. -1.
        -11    1    3    3    0    0 -0.10981218904E+02  0.83419247583E+01  0.60637327733E+01  0.15064651762E+02  0.51100000000E-03 0.  1.
        -12    1    3    3    0    0 -0.79412641129E+01 -0.61334309142E+01 -0.14713076904E+02  0.17808910199E+02  0.00000000000E+00 0.  1.
</event>
<event>
 7    1  0.7819001E-012  0.5930198E+02  0.7816164E-02  0.1266605E+00
        -11   -1    0    0    0    0  0.00000000000E+00  0.00000000000E+00  0.45593999997E+02  0.45594000000E+02  0.51100000000E-03 0.  1.
         11   -1    0    0    0    0 -0.00000000000E+00 -0.00000000000E+00 -0.45593999997E+02  0.45594000000E+02  0.51100000000E-03 0. -1.
    9900012    2    1    2    0    0  0.16942718990E+02  0.25278228652E+02  0.95222675480E+01  0.59301981907E+02  0.50000069083E+02 0.  0.
         12    1    1    2    0    0 -0.16942718990E+02 -0.25278228652E+02 -0.95222675480E+01  0.31886018093E+02  0.00000000000E+00 0. -1.
         11    1    3    3    0    0 -0.30732350107E+01 -0.75769349818E+01 -0.54897963961E+01  0.98484811967E+01  0.51100000000E-03 0. -1.
        -11    1    3    3    0    0  0.19140784869E+01  0.20676482595E+02  0.17939035009E+02  0.27440656083E+02  0.51100000000E-03 0.  1.
         12    1    3    3    0    0  0.18101875514E+02  0.12178681039E+02 -0.29269710649E+01  0.22012844627E+02  0.00000000000E+00 0. -1.
</event>
<event>
 7    1  0.7819001E-012  0.5930197E+02  0.7816164E-02  0.1266605E+00
        -11   -1    0    0    0    0  0.00000000000E+00  0.00000000000E+00  0.45593999997E+02  0.45594000000E+02  0.51100000000E-03 0.  1.
         11   -1    0    0    0    0 -0.00000000000E+00 -0.00000000000E+00 -0.45593999997E+02  0.45594000000E+02  0.51100000000E-03 0. -1.
    9900012    2    1    2    0    0 -0.25977824749E+02  0.75874670967E+01  0.16861262680E+02  0.59301965208E+02  0.50000038627E+02 0.  0.
         12    1    1    2    0    0  0.25977824749E+02 -0.75874670967E+01 -0.16861262680E+02  0.31886034792E+02  0.00000000000E+00 0. -1.
         11    1    3    3    0    0 -0.30679720439E+01  0.19618475926E+02 -0.85643010396E+01  0.21625085033E+02  0.51100000000E-03 0. -1.
        -11    1    3    3    0    0 -0.12302759331E+02 -0.81091762047E+01  0.20726904059E+02  0.25430713281E+02  0.51100000000E-03 0.  1.
        -12    1    3    3    0    0 -0.10607093374E+02 -0.39218326243E+01  0.46986596604E+01  0.12246166893E+02  0.00000000000E+00 0.  1.
</event>
<event>
 7    1  0.7819001E-012  0.5930195E+02  0.7816164E-02  0.1266605E+00
        -11   -1    0    0    0    0  0.00000000000E+00  0.00000000000E+00  0.45593999997E+02  0.45594000000E+02  0.51100000000E-03 0. -1.
         11   -1    0    0    0    0 -0.00000000000E+00 -0.00000000000E+00 -0.45593999997E+02  0.45594000000E+02  0.51100000000E-03 0.  1.
    9900012    2    1    2    0    0  0.30655786574E+02  0.86985567439E+01 -0.11305637595E+01  0.59301947966E+02  0.50000007183E+02 0.  0.
         12    1    1    2    0    0 -0.30655786574E+02 -0.86985567439E+01  0.11305637595E+01  0.31886052034E+02  0.00000000000E+00 0. -1.
         11    1    3    3    0    0  0.11072864499E+02 -0.30172147845E+01  0.21045194568E+00  0.11478510511E+02  0.51100000000E-03 0. -1.
        -11    1    3    3    0    0 -0.17216699042E+01  0.60014125924E+01 -0.18725268263E+02  0.19738712525E+02  0.51100000000E-03 0.  1.
        -12    1    3    3    0    0  0.21304591979E+02  0.57143589361E+01  0.17384252557E+02  0.28084724931E+02  0.00000000000E+00 0.  1.
</event>
<event>
 7    1  0.7819001E-012  0.5930195E+02  0.7816164E-02  0.1266605E+00
        -11   -1    0    0    0    0  0.00000000000E+00  0.00000000000E+00  0.45593999997E+02  0.45594000000E+02  0.51100000000E-03 0.  1.
         11   -1    0    0    0    0 -0.00000000000E+00 -0.00000000000E+00 -0.45593999997E+02  0.45594000000E+02  0.51100000000E-03 0. -1.
    9900012    2    1    2    0    0 -0.29302277673E+02  0.11433764416E+02  0.52312304620E+01  0.59301949481E+02  0.50000009946E+02 0.  0.
         12    1    1    2    0    0  0.29302277673E+02 -0.11433764416E+02 -0.52312304620E+01  0.31886050519E+02  0.00000000000E+00 0. -1.
         11    1    3    3    0    0 -0.96126169573E+01  0.17721291158E+00 -0.16990561749E+02  0.19522115613E+02  0.51100000000E-03 0. -1.
        -11    1    3    3    0    0 -0.11649952586E+02 -0.61670517687E+01  0.12910971942E+02  0.18451209162E+02  0.51100000000E-03 0.  1.
        -12    1    3    3    0    0 -0.80397081293E+01  0.17423603273E+02  0.93108202690E+01  0.21328624707E+02  0.00000000000E+00 0.  1.
</event>
<event>
 7    1  0.7819001E-012  0.5930196E+02  0.7816164E-02  0.1266605E+00
        -11   -1    0    0    0    0  0.00000000000E+00  0.00000000000E+00  0.45593999997E+02  0.45594000000E+02  0.51100000000E-03 0.  1.
         11   -1    0    0    0    0 -0.00000000000E+00 -0.00000000000E+00 -0.45593999997E+02  0.45594000000E+02  0.51100000000E-03 0. -1.
    9900012    2    1    2    0    0  0.59136852423E+01  0.23375995767E+02  0.20864095289E+02  0.59301963504E+02  0.50000035519E+02 0.  0.
         12    1    1    2    0    0 -0.59136852423E+01 -0.23375995767E+02 -0.20864095289E+02  0.31886036496E+02  0.00000000000E+00 0. -1.
         11    1    3    3    0    0  0.31940408874E+01 -0.88723939643E+01 -0.34099163933E+01  0.10027402551E+02  0.51100000000E-03 0. -1.
        -11    1    3    3    0    0 -0.35890145682E+01  0.25546618614E+02  0.28466451471E+01  0.25954077464E+02  0.51100000000E-03 0.  1.
        -12    1    3    3    0    0  0.63086589230E+01  0.67017711174E+01  0.21427366535E+02  0.23320483489E+02  0.00000000000E+00 0.  1.
</event>
<event>
 7    1  0.7819001E-012  0.5930192E+02  0.7816164E-02  0.1266605E+00
        -11   -1    0    0    0    0  0.00000000000E+00  0.00000000000E+00  0.45593999997E+02  0.45594000000E+02  0.51100000000E-03 0.  1.
         11   -1    0    0    0    0 -0.00000000000E+00 -0.00000000000E+00 -0.45593999997E+02  0.45594000000E+02  0.51100000000E-03 0. -1.
    9900012    2    1    2    0    0 -0.25533290597E+02  0.10819317707E+02  0.15738972924E+02  0.59301924151E+02  0.49999963750E+02 0.  0.
         12    1    1    2    0    0  0.25533290597E+02 -0.10819317707E+02 -0.15738972924E+02  0.31886075849E+02  0.00000000000E+00 0. -1.
         11    1    3    3    0    0  0.59301352827E+01 -0.51327029691E+01 -0.58881673116E+01  0.98072248261E+01  0.51100000000E-03 0. -1.
        -11    1    3    3    0    0 -0.56730208343E-01  0.87428978412E+01  0.13796272941E+02  0.16333359370E+02  0.51100000000E-03 0.  1.
         12    1    3    3    0    0 -0.31406695671E+02  0.72091228348E+01  0.78308672941E+01  0.33161339955E+02  0.00000000000E+00 0. -1.
</event>
<event>
 7    1  0.7819001E-012  0.5930198E+02  0.7816164E-02  0.1266605E+00
        -11   -1    0    0    0    0  0.00000000000E+00  0.00000000000E+00  0.45593999997E+02  0.45594000000E+02  0.51100000000E-03 0. -1.
         11   -1    0    0    0    0 -0.00000000000E+00 -0.00000000000E+00 -0.45593999997E+02  0.45594000000E+02  0.51100000000E-03 0.  1.
    9900012    2    1    2    0    0 -0.74116238667E+01  0.26210833650E+01 -0.30901711790E+02  0.59301983662E+02  0.50000072283E+02 0.  0.
         12    1    1    2    0    0  0.74116238667E+01 -0.26210833650E+01  0.30901711790E+02  0.31886016338E+02  0.00000000000E+00 0. -1.
         11    1    3    3    0    0 -0.16548750066E+02  0.14689372591E+02 -0.57031501074E+01  0.22850923773E+02  0.51100000000E-03 0.  1.
        -11    1    3    3    0    0 -0.30383903574E+01 -0.13717668234E+02 -0.13244981737E+02  0.19308955933E+02  0.51100000000E-03 0. -1.
        -12    1    3    3    0    0  0.12175516556E+02  0.16493790079E+01 -0.11953579946E+02  0.17142103956E+02  0.00000000000E+00 0.  1.
</event>
<event>
 7    1  0.7819001E-012  0.5930192E+02  0.7816164E-02  0.1266605E+00
        -11   -1    0    0    0    0  0.00000000000E+00  0.00000000000E+00  0.45593999997E+02  0.45594000000E+02  0.51100000000E-03 0. -1.
         11   -1    0    0    0    0 -0.00000000000E+00 -0.00000000000E+00 -0.45593999997E+02  0.45594000000E+02  0.51100000000E-03 0.  1.
    9900012    2    1    2    0    0  0.58021574519E+00  0.29146459720E+02 -0.12917785422E+02  0.59301922400E+02  0.49999960556E+02 0.  0.
         12    1    1    2    0    0 -0.58021574519E+00 -0.29146459720E+02  0.12917785422E+02  0.31886077600E+02  0.00000000000E+00 0. -1.
         11    1    3    3    0    0 -0.12589502290E+00  0.17891197912E+02  0.12133028694E+02  0.21617613139E+02  0.51100000000E-03 0. -1.
        -11    1    3    3    0    0  0.44497190159E+01  0.16957384353E+02 -0.25390115597E+02  0.30854673126E+02  0.51100000000E-03 0.  1.
        -12    1    3    3    0    0 -0.37436082478E+01 -0.57021225456E+01  0.33930148073E+00  0.68296361347E+01  0.00000000000E+00 0.  1.
</event>
<event>
 7    1  0.7819001E-012  0.5930201E+02  0.7816164E-02  0.1266605E+00
        -11   -1    0    0    0    0  0.00000000000E+00  0.00000000000E+00  0.45593999997E+02  0.45594000000E+02  0.51100000000E-03 0.  1.
         11   -1    0    0    0    0 -0.00000000000E+00 -0.00000000000E+00 -0.45593999997E+02  0.45594000000E+02  0.51100000000E-03 0. -1.
    9900012    2    1    2    0    0  0.24644426744E+02 -0.80930407156E+01  0.18543775206E+02  0.59302005011E+02  0.50000111218E+02 0.  0.
         12    1    1    2    0    0 -0.24644426744E+02  0.80930407156E+01 -0.18543775206E+02  0.31885994989E+02  0.00000000000E+00 0. -1.
         11    1    3    3    0    0  0.93333584417E+01 -0.67784915421E+01 -0.14146568499E+02  0.18253353882E+02  0.51100000000E-03 0. -1.
        -11    1    3    3    0    0  0.98830650364E+01  0.87172847113E+01  0.20349866504E+02  0.24244238372E+02  0.51100000000E-03 0.  1.
        -12    1    3    3    0    0  0.54280032663E+01 -0.10031833885E+02  0.12340477200E+02  0.16804412756E+02  0.00000000000E+00 0.  1.
</event>
<event>
 7    1  0.7819001E-012  0.5930193E+02  0.7816164E-02  0.1266605E+00
        -11   -1    0    0    0    0  0.00000000000E+00  0.00000000000E+00  0.45593999997E+02  0.45594000000E+02  0.51100000000E-03 0.  1.
         11   -1    0    0    0    0 -0.00000000000E+00 -0.00000000000E+00 -0.45593999997E+02  0.45594000000E+02  0.51100000000E-03 0. -1.
    9900012    2    1    2    0    0  0.27463972662E+02 -0.19297943223E+01  0.16085013766E+02  0.59301928301E+02  0.49999971319E+02 0.  0.
         12    1    1    2    0    0 -0.27463972662E+02  0.19297943223E+01 -0.16085013766E+02  0.31886071699E+02  0.00000000000E+00 0. -1.
         11    1    3    3    0    0 -0.95795664498E+00 -0.18304688975E+01 -0.56609587074E+00  0.21421396113E+01  0.51100000000E-03 0. -1.
        -11    1    3    3    0    0  0.13930355688E+02  0.16681400272E+02  0.25306881643E+02  0.33358090224E+02  0.51100000000E-03 0.  1.
        -12    1    3    3    0    0  0.14491573619E+02 -0.16780725697E+02 -0.86557720064E+01  0.23801698466E+02  0.00000000000E+00 0.  1.
</event>
<event>
 7    1  0.7819001E-012  0.5930195E+02  0.7816164E-02  0.1266605E+00
        -11   -1    0    0    0    0  0.00000000000E+00  0.00000000000E+00  0.45593999997E+02  0.45594000000E+02  0.51100000000E-03 0.  1.
         11   -1    0    0    0    0 -0.00000000000E+00 -0.00000000000E+00 -0.45593999997E+02  0.45594000000E+02  0.51100000000E-03 0. -1.
    9900012    2    1    2    0    0  0.48442020178E+01 -0.30931147529E+02 -0.60429987538E+01  0.59301952666E+02  0.50000015754E+02 0.  0.
         12    1    1    2    0    0 -0.48442020178E+01  0.30931147529E+02  0.60429987538E+01  0.31886047334E+02  0.00000000000E+00 0. -1.
         11    1    3    3    0    0  0.15446026442E+02 -0.13041781125E+02 -0.85690354562E+01  0.21956688198E+02  0.51100000000E-03 0. -1.
        -11    1    3    3    0    0 -0.68659595494E+01  0.46695067918E+01  0.10266960547E+02  0.13204399773E+02  0.51100000000E-03 0.  1.
        -12    1    3    3    0    0 -0.37358648744E+01 -0.22558873196E+02 -0.77409238450E+01  0.24140864695E+02  0.00000000000E+00 0.  1.
</event>
<event>
 7    1  0.7819001E-012  0.5930197E+02  0.7816164E-02  0.1266605E+00
        -11   -1    0    0    0    0  0.00000000000E+00  0.00000000000E+00  0.45593999997E+02  0.45594000000E+02  0.51100000000E-03 0. -1.
         11   -1    0    0    0    0 -0.00000000000E+00 -0.00000000000E+00 -0.45593999997E+02  0.45594000000E+02  0.51100000000E-03 0.  1.
    9900012    2    1    2    0    0 -0.64152050823E+01  0.22858394603E+02  0.21285155310E+02  0.59301970196E+02  0.50000047725E+02 0.  0.
         12    1    1    2    0    0  0.64152050823E+01 -0.22858394603E+02 -0.21285155310E+02  0.31886029804E+02  0.00000000000E+00 0. -1.
         11    1    3    3    0    0 -0.10424077652E+02  0.90265855478E+01  0.20637168597E+02  0.24820019531E+02  0.51100000000E-03 0. -1.
        -11    1    3    3    0    0  0.56653852037E+01 -0.39915075725E+01 -0.11089370588E+02  0.13076806281E+02  0.51100000000E-03 0.  1.
        -12    1    3    3    0    0 -0.16565126338E+01  0.17823316628E+02  0.11737357301E+02  0.21405144385E+02  0.00000000000E+00 0.  1.
</event>
<event>
 7    1  0.7819001E-012  0.5930196E+02  0.7816164E-02  0.1266605E+00
        -11   -1    0    0    0    0  0.00000000000E+00  0.00000000000E+00  0.45593999997E+02  0.45594000000E+02  0.51100000000E-03 0.  1.
         11   -1    0    0    0    0 -0.00000000000E+00 -0.00000000000E+00 -0.45593999997E+02  0.45594000000E+02  0.51100000000E-03 0. -1.
    9900012    2    1    2    0    0  0.17615786329E+02  0.26506180080E+02 -0.19560217040E+01  0.59301960244E+02  0.50000029574E+02 0.  0.
         12    1    1    2    0    0 -0.17615786329E+02 -0.26506180080E+02  0.19560217040E+01  0.31886039756E+02  0.00000000000E+00 0. -1.
         11    1    3    3    0    0 -0.10517299681E+02 -0.37580653444E+01  0.55126560016E+01  0.12454959822E+02  0.51100000000E-03 0.  1.
        -11    1    3    3    0    0  0.22192548439E+02  0.18133052528E+02 -0.13940124944E+02  0.31869168234E+02  0.51100000000E-03 0. -1.
        -12    1    3    3    0    0  0.59405375711E+01  0.12131192896E+02  0.64714472379E+01  0.14977832189E+02  0.00000000000E+00 0.  1.
</event>
<event>
 7    1  0.7819001E-012  0.5930194E+02  0.7816164E-02  0.1266605E+00
        -11   -1    0    0    0    0  0.00000000000E+00  0.00000000000E+00  0.45593999997E+02  0.45594000000E+02  0.51100000000E-03 0.  1.
         11   -1    0    0    0    0 -0.00000000000E+00 -0.00000000000E+00 -0.45593999997E+02  0.45594000000E+02  0.51100000000E-03 0. -1.
    9900012    2    1    2    0    0  0.16915482669E+02 -0.16173154634E+02  0.21656787681E+02  0.59301938196E+02  0.49999989364E+02 0.  0.
         12    1    1    2    0    0 -0.16915482669E+02  0.16173154634E+02 -0.21656787681E+02  0.31886061804E+02  0.00000000000E+00 0. -1.
         11    1    3    3    0    0  0.54616232914E+01  0.13685452252E+02  0.28028290474E+01  0.14999226088E+02  0.51100000000E-03 0. -1.
        -11    1    3    3    0    0  0.16390284764E+02 -0.23882123913E+02  0.21542493818E+02  0.36098148393E+02  0.51100000000E-03 0.  1.
        -12    1    3    3    0    0 -0.49364253869E+01 -0.59764829720E+01 -0.26885351846E+01  0.82045637150E+01  0.00000000000E+00 0.  1.
</event>
<event>
 7    1  0.7819001E-012  0.5930194E+02  0.7816164E-02  0.1266605E+00
        -11   -1    0    0    0    0  0.00000000000E+00  0.00000000000E+00  0.45593999997E+02  0.45594000000E+02  0.51100000000E-03 0. -1.
         11   -1    0    0    0    0 -0.00000000000E+00 -0.00000000000E+00 -0.45593999997E+02  0.45594000000E+02  0.51100000000E-03 0.  1.
    9900012    2    1    2    0    0 -0.85409997821E+01 -0.29622718824E+02 -0.81404440322E+01  0.59301937577E+02  0.49999988236E+02 0.  0.
         12    1    1    2    0    0  0.85409997821E+01  0.29622718824E+02  0.81404440322E+01  0.31886062423E+02  0.00000000000E+00 0. -1.
         11    1    3    3    0    0 -0.14636370653E+02 -0.21536341725E+02  0.73443158482E+01  0.27055061196E+02  0.51100000000E-03 0. -1.
        -11    1    3    3    0    0  0.57158255101E+01 -0.11002814559E+02 -0.21913101827E+02  0.25177700876E+02  0.51100000000E-03 0.  1.
         12    1    3    3    0    0  0.37954536032E+00  0.29164374601E+01  0.64283419467E+01  0.70691755052E+01  0.00000000000E+00 0. -1.
</event>
<event>
 7    1  0.7819001E-012  0.5930195E+02  0.7816164E-02  0.1266605E+00
        -11   -1    0    0    0    0  0.00000000000E+00  0.00000000000E+00  0.45593999997E+02  0.45594000000E+02  0.51100000000E-03 0.  1.
         11   -1    0    0    0    0 -0.00000000000E+00 -0.00000000000E+00 -0.45593999997E+02  0.45594000000E+02  0.51100000000E-03 0. -1.
    9900012    2    1    2    0    0  0.27972722450E+02 -0.71715942222E+01  0.13520921477E+02  0.59301948464E+02  0.50000008092E+02 0.  0.
         12    1    1    2    0    0 -0.27972722450E+02  0.71715942222E+01 -0.13520921477E+02  0.31886051536E+02  0.00000000000E+00 0. -1.
         11    1    3    3    0    0  0.14398237155E+02 -0.82779315457E+01 -0.11278459342E+02  0.20075782158E+02  0.51100000000E-03 0. -1.
        -11    1    3    3    0    0 -0.19170246148E+01  0.94510631361E+01  0.17887186153E+02  0.20321146781E+02  0.51100000000E-03 0.  1.
         12    1    3    3    0    0  0.15491509909E+02 -0.83447258125E+01  0.69121946660E+01  0.18905019525E+02  0.00000000000E+00 0. -1.
</event>
<event>
 7    1  0.8603340E-012  0.5930194E+02  0.7816164E-02  0.1266605E+00
        -11   -1    0    0    0    0  0.00000000000E+00  0.00000000000E+00  0.45593999997E+02  0.45594000000E+02  0.51100000000E-03 0. -1.
         11   -1    0    0    0    0 -0.00000000000E+00 -0.00000000000E+00 -0.45593999997E+02  0.45594000000E+02  0.51100000000E-03 0.  1.
    9900012    2    1    2    0    0  0.25670822296E+02  0.11749795305E+01 -0.18877217667E+02  0.59301936570E+02  0.49999986398E+02 0.  0.
         12    1    1    2    0    0 -0.25670822296E+02 -0.11749795305E+01  0.18877217667E+02  0.31886063430E+02  0.00000000000E+00 0. -1.
         11    1    3    3    0    0 -0.53525915249E+01 -0.99001109241E+01  0.33403844266E+01  0.11739701901E+02  0.51100000000E-03 0. -1.
        -11    1    3    3    0    0  0.27139172175E+02  0.63410193791E+01 -0.27735557890E+02  0.39319262008E+02  0.51100000000E-03 0.  1.
        -12    1    3    3    0    0  0.38842416464E+01  0.47340710755E+01  0.55179557968E+01  0.82429726611E+01  0.00000000000E+00 0.  1.
</event>
<event>
 7    1  0.1091658E-011  0.5930196E+02  0.7816164E-02  0.1266605E+00
        -11   -1    0    0    0    0  0.00000000000E+00  0.00000000000E+00  0.45593999997E+02  0.45594000000E+02  0.51100000000E-03 0. -1.
         11   -1    0    0    0    0 -0.00000000000E+00 -0.00000000000E+00 -0.45593999997E+02  0.45594000000E+02  0.51100000000E-03 0.  1.
    9900012    2    1    2    0    0 -0.19955494228E+02  0.17989429289E+02 -0.17172026631E+02  0.59301955801E+02  0.50000021471E+02 0.  0.
         12    1    1    2    0    0  0.19955494228E+02 -0.17989429289E+02  0.17172026631E+02  0.31886044199E+02  0.00000000000E+00 0. -1.
         11    1    3    3    0    0  0.64598627419E+01  0.19638765188E+02  0.16807779987E+01  0.20742129584E+02  0.51100000000E-03 0. -1.
        -11    1    3    3    0    0 -0.21848250814E+02  0.49195087538E+01 -0.20534562220E+02  0.30384467674E+02  0.51100000000E-03 0.  1.
         12    1    3    3    0    0 -0.45671061556E+01 -0.65688446521E+01  0.16817575901E+01  0.81753585421E+01  0.00000000000E+00 0. -1.
</event>
<event>
 7    1  0.7819001E-012  0.5930213E+02  0.7816164E-02  0.1266604E+00
        -11   -1    0    0    0    0  0.00000000000E+00  0.00000000000E+00  0.45593999997E+02  0.45594000000E+02  0.51100000000E-03 0.  1.
         11   -1    0    0    0    0 -0.00000000000E+00 -0.00000000000E+00 -0.45593999997E+02  0.45594000000E+02  0.51100000000E-03 0. -1.
    9900012    2    1    2    0    0 -0.29433164484E+02 -0.52607753742E+01  0.11077980731E+02  0.59302131874E+02  0.50000342585E+02 0.  0.
         12    1    1    2    0    0  0.29433164484E+02  0.52607753742E+01 -0.11077980731E+02  0.31885868126E+02  0.00000000000E+00 0. -1.
         11    1    3    3    0    0  0.52466333700E+01 -0.12229042708E+02 -0.37719281003E+01  0.13831272144E+02  0.51100000000E-03 0. -1.
        -11    1    3    3    0    0 -0.34054913582E+02  0.11730925174E+02  0.76604432079E+01  0.36824368765E+02  0.51100000000E-03 0.  1.
        -12    1    3    3    0    0 -0.62488427205E+00 -0.47626578406E+01  0.71894656232E+01  0.86464909650E+01  0.00000000000E+00 0.  1.
</event>
<event>
 7    1  0.7819001E-012  0.5930196E+02  0.7816164E-02  0.1266605E+00
        -11   -1    0    0    0    0  0.00000000000E+00  0.00000000000E+00  0.45593999997E+02  0.45594000000E+02  0.51100000000E-03 0. -1.
         11   -1    0    0    0    0 -0.00000000000E+00 -0.00000000000E+00 -0.45593999997E+02  0.45594000000E+02  0.51100000000E-03 0.  1.
    9900012    2    1    2    0    0 -0.17047665099E+02  0.25941503145E+02 -0.72893678718E+01  0.59301963014E+02  0.50000034626E+02 0.  0.
         12    1    1    2    0    0  0.17047665099E+02 -0.25941503145E+02  0.72893678718E+01  0.31886036986E+02  0.00000000000E+00 0. -1.
         11    1    3    3    0    0  0.36114878270E+01  0.30586291580E+02 -0.55797495569E+01  0.31300122721E+02  0.51100000000E-03 0.  1.
        -11    1    3    3    0    0 -0.20896240586E+02 -0.11985720936E+01 -0.66606629278E+01  0.21964832724E+02  0.51100000000E-03 0. -1.
         12    1    3    3    0    0  0.23708766005E+00 -0.34462163418E+01  0.49510446130E+01  0.60370075694E+01  0.00000000000E+00 0. -1.
</event>
<event>
 7    1  0.7819001E-012  0.5930194E+02  0.7816164E-02  0.1266605E+00
        -11   -1    0    0    0    0  0.00000000000E+00  0.00000000000E+00  0.45593999997E+02  0.45594000000E+02  0.51100000000E-03 0.  1.
         11   -1    0    0    0    0 -0.00000000000E+00 -0.00000000000E+00 -0.45593999997E+02  0.45594000000E+02  0.51100000000E-03 0. -1.
    9900012    2    1    2    0    0 -0.90816822120E+01 -0.27886447878E+02  0.12513591471E+02  0.59301938804E+02  0.49999990473E+02 0.  0.
         12    1    1    2    0    0  0.90816822120E+01  0.27886447878E+02 -0.12513591471E+02  0.31886061196E+02  0.00000000000E+00 0. -1.
         11    1    3    3    0    0 -0.11970776387E+02 -0.17032550433E+02  0.14849263420E+02  0.25571622669E+02  0.51100000000E-03 0.  1.
        -11    1    3    3    0    0  0.14647080205E+02 -0.14943998280E+02 -0.35426702994E+01  0.21222878133E+02  0.51100000000E-03 0. -1.
        -12    1    3    3    0    0 -0.11757986031E+02  0.40901008353E+01  0.12069983507E+01  0.12507438002E+02  0.00000000000E+00 0.  1.
</event>
<event>
 7    1  0.7819001E-012  0.5930192E+02  0.7816164E-02  0.1266605E+00
        -11   -1    0    0    0    0  0.00000000000E+00  0.00000000000E+00  0.45593999997E+02  0.45594000000E+02  0.51100000000E-03 0.  1.
         11   -1    0    0    0    0 -0.00000000000E+00 -0.00000000000E+00 -0.45593999997E+02  0.45594000000E+02  0.51100000000E-03 0. -1.
    9900012    2    1    2    0    0  0.56606305962E+01  0.14514122906E+02  0.27821209015E+02  0.59301918812E+02  0.49999954012E+02 0.  0.
         12    1    1    2    0    0 -0.56606305962E+01 -0.14514122906E+02 -0.27821209015E+02  0.31886081188E+02  0.00000000000E+00 0. -1.
         11    1    3    3    0    0 -0.12798465757E+02  0.34963984401E+01  0.13636324997E+02  0.19025637636E+02  0.51100000000E-03 0. -1.
        -11    1    3    3    0    0  0.16514500740E+02 -0.13202005142E+01  0.20437035445E+02  0.26308631324E+02  0.51100000000E-03 0.  1.
        -12    1    3    3    0    0  0.19445956134E+01  0.12337924980E+02 -0.62521514266E+01  0.13967649852E+02  0.00000000000E+00 0.  1.
</event>
<event>
 7    1  0.7819001E-012  0.5930195E+02  0.7816164E-02  0.1266605E+00
        -11   -1    0    0    0    0  0.00000000000E+00  0.00000000000E+00  0.45593999997E+02  0.45594000000E+02  0.51100000000E-03 0. -1.
         11   -1    0    0    0    0 -0.00000000000E+00 -0.00000000000E+00 -0.45593999997E+02  0.45594000000E+02  0.51100000000E-03 0.  1.
    9900012    2    1    2    0    0  0.31377930161E+02 -0.95587104011E+00 -0.55885742185E+01  0.59301947368E+02  0.50000006092E+02 0.  0.
         12    1    1    2    0    0 -0.31377930161E+02  0.95587104011E+00  0.55885742185E+01  0.31886052632E+02  0.00000000000E+00 0. -1.
         11    1    3    3    0    0  0.14340249450E+02 -0.23220895846E+02 -0.89132283133E+01  0.28710597302E+02  0.51100000000E-03 0. -1.
        -11    1    3    3    0    0  0.65115367895E+01  0.93704458590E+01 -0.44143009186E+01  0.12234844495E+02  0.51100000000E-03 0.  1.
         12    1    3    3    0    0  0.10526143922E+02  0.12894578947E+02  0.77389550134E+01  0.18356505571E+02  0.00000000000E+00 0. -1.
</event>
<event>
 7    1  0.7819001E-012  0.5930194E+02  0.7816164E-02  0.1266605E+00
        -11   -1    0    0    0    0  0.00000000000E+00  0.00000000000E+00  0.45593999997E+02  0.45594000000E+02  0.51100000000E-03 0. -1.
         11   -1    0    0    0    0 -0.00000000000E+00 -0.00000000000E+00 -0.45593999997E+02  0.45594000000E+02  0.51100000000E-03 0.  1.
    9900012    2    1    2    0    0 -0.22313451911E+02  0.22540544329E+02 -0.32794600829E+01  0.59301935124E+02  0.49999983762E+02 0.  0.
         12    1    1    2    0    0  0.22313451911E+02 -0.22540544329E+02  0.32794600829E+01  0.31886064876E+02  0.00000000000E+00 0. -1.
         11    1    3    3    0    0  0.28098382072E+01 -0.28461774495E+01  0.13070529224E+01  0.42076483251E+01  0.51100000000E-03 0. -1.
        -11    1    3    3    0    0 -0.32416702454E+02  0.18801142298E+02 -0.15371020875E+02  0.40504244626E+02  0.51100000000E-03 0.  1.
        -12    1    3    3    0    0  0.72934123363E+01  0.65855794811E+01  0.10784507870E+02  0.14590042173E+02  0.00000000000E+00 0.  1.
</event>
<event>
 7    1  0.7819001E-012  0.5930194E+02  0.7816164E-02  0.1266605E+00
        -11   -1    0    0    0    0  0.00000000000E+00  0.00000000000E+00  0.45593999997E+02  0.45594000000E+02  0.51100000000E-03 0.  1.
         11   -1    0    0    0    0 -0.00000000000E+00 -0.00000000000E+00 -0.45593999997E+02  0.45594000000E+02  0.51100000000E-03 0. -1.
    9900012    2    1    2    0    0 -0.27482252862E+02  0.29041721766E+01  0.15906357978E+02  0.59301942506E+02  0.49999997225E+02 0.  0.
         12    1    1    2    0    0  0.27482252862E+02 -0.29041721766E+01 -0.15906357978E+02  0.31886057494E+02  0.00000000000E+00 0. -1.
         11    1    3    3    0    0  0.20243007605E+01 -0.56289764392E+01  0.58740193817E+01  0.83837505497E+01  0.51100000000E-03 0. -1.
        -11    1    3    3    0    0 -0.49426982894E+01  0.21535184409E+02  0.35353395011E+01  0.22376171691E+02  0.51100000000E-03 0.  1.
        -12    1    3    3    0    0 -0.24563855333E+02 -0.13002035793E+02  0.64969990950E+01  0.28542020265E+02  0.00000000000E+00 0.  1.
</event>
<event>
 7    1  0.7819001E-012  0.5930192E+02  0.7816164E-02  0.1266605E+00
        -11   -1    0    0    0    0  0.00000000000E+00  0.00000000000E+00  0.45593999997E+02  0.45594000000E+02  0.51100000000E-03 0.  1.
         11   -1    0    0    0    0 -0.00000000000E+00 -0.00000000000E+00 -0.45593999997E+02  0.45594000000E+02  0.51100000000E-03 0. -1.
    9900012    2    1    2    0    0 -0.25279809048E+02 -0.17805110365E+01 -0.19351570138E+02  0.59301917897E+02  0.49999952344E+02 0.  0.
         12    1    1    2    0    0  0.25279809048E+02  0.17805110365E+01  0.19351570138E+02  0.31886082103E+02  0.00000000000E+00 0. -1.
         11    1    3    3    0    0  0.54843698531E+01 -0.71507892866E+01 -0.22692300054E+02  0.24416236035E+02  0.51100000000E-03 0. -1.
        -11    1    3    3    0    0 -0.11044100792E+02  0.95110230849E+01  0.14606447655E+01  0.14648044437E+02  0.51100000000E-03 0.  1.
         12    1    3    3    0    0 -0.19720078108E+02 -0.41407448348E+01  0.18800851505E+01  0.20237637425E+02  0.00000000000E+00 0. -1.
</event>
<event>
 7    1  0.7819001E-012  0.5930196E+02  0.7816164E-02  0.1266605E+00
        -11   -1    0    0    0    0  0.00000000000E+00  0.00000000000E+00  0.45593999997E+02  0.45594000000E+02  0.51100000000E-03 0.  1.
         11   -1    0    0    0    0 -0.00000000000E+00 -0.00000000000E+00 -0.45593999997E+02  0.45594000000E+02  0.51100000000E-03 0. -1.
    9900012    2    1    2    0    0  0.22510223368E+02 -0.87854966114E+00 -0.22566285512E+02  0.59301964696E+02  0.50000037693E+02 0.  0.
         12    1    1    2    0    0 -0.22510223368E+02  0.87854966114E+00  0.22566285512E+02  0.31886035304E+02  0.00000000000E+00 0. -1.
         11    1    3    3    0    0  0.11896125427E+02 -0.10378960831E+02 -0.33195607833E+02  0.36758522927E+02  0.51100000000E-03 0. -1.
        -11    1    3    3    0    0 -0.19924792643E+01  0.20965936472E+01  0.68609079595E+01  0.74456522098E+01  0.51100000000E-03 0.  1.
         12    1    3    3    0    0  0.12606577205E+02  0.74038175231E+01  0.37684143615E+01  0.15097789558E+02  0.00000000000E+00 0. -1.
</event>
<event>
 7    1  0.7819001E-012  0.5930194E+02  0.7816164E-02  0.1266605E+00
        -11   -1    0    0    0    0  0.00000000000E+00  0.00000000000E+00  0.45593999997E+02  0.45594000000E+02  0.51100000000E-03 0.  1.
         11   -1    0    0    0    0 -0.00000000000E+00 -0.00000000000E+00 -0.45593999997E+02  0.45594000000E+02  0.51100000000E-03 0. -1.
    9900012    2    1    2    0    0  0.14738033012E+02  0.22759812632E+02  0.16778020781E+02  0.59301942397E+02  0.49999997026E+02 0.  0.
         12    1    1    2    0    0 -0.14738033012E+02 -0.22759812632E+02 -0.16778020781E+02  0.31886057603E+02  0.00000000000E+00 0. -1.
         11    1    3    3    0    0  0.13318262317E+02  0.26916313821E+01  0.25316558746E+02  0.28732370902E+02  0.51100000000E-03 0. -1.
        -11    1    3    3    0    0 -0.89918515730E+01  0.92476787556E+01  0.73703169546E+00  0.12919604214E+02  0.51100000000E-03 0.  1.
         12    1    3    3    0    0  0.10411622268E+02  0.10820502495E+02 -0.92755696603E+01  0.17649967281E+02  0.00000000000E+00 0. -1.
</event>
<event>
 7    1  0.7819001E-012  0.5930195E+02  0.7816164E-02  0.1266605E+00
        -11   -1    0    0    0    0  0.00000000000E+00  0.00000000000E+00  0.45593999997E+02  0.45594000000E+02  0.51100000000E-03 0.  1.
         11   -1    0    0    0    0 -0.00000000000E+00 -0.00000000000E+00 -0.45593999997E+02  0.45594000000E+02  0.51100000000E-03 0. -1.
    9900012    2    1    2    0    0 -0.24664521314E+02 -0.16107967745E+02  0.12203078150E+02  0.59301947362E+02  0.50000006081E+02 0.  0.
         12    1    1    2    0    0  0.24664521314E+02  0.16107967745E+02 -0.12203078150E+02  0.31886052638E+02  0.00000000000E+00 0. -1.
         11    1    3    3    0    0 -0.77916766853E+01  0.53321664913E+01  0.57835602469E+01  0.11072117885E+02  0.51100000000E-03 0. -1.
        -11    1    3    3    0    0  0.14578547277E+00 -0.17772902513E+02  0.19551843085E+02  0.26422942407E+02  0.51100000000E-03 0.  1.
        -12    1    3    3    0    0 -0.17018630101E+02 -0.36672317231E+01 -0.13132325182E+02  0.21806887071E+02  0.00000000000E+00 0.  1.
</event>
<event>
 7    1  0.7819001E-012  0.5930193E+02  0.7816164E-02  0.1266605E+00
        -11   -1    0    0    0    0  0.00000000000E+00  0.00000000000E+00  0.45593999997E+02  0.45594000000E+02  0.51100000000E-03 0.  1.
         11   -1    0    0    0    0 -0.00000000000E+00 -0.00000000000E+00 -0.45593999997E+02  0.45594000000E+02  0.51100000000E-03 0. -1.
    9900012    2    1    2    0    0 -0.85831468062E+01  0.30300571279E+02 -0.49926273409E+01  0.59301931620E+02  0.49999977372E+02 0.  0.
         12    1    1    2    0    0  0.85831468062E+01 -0.30300571279E+02  0.49926273409E+01  0.31886068380E+02  0.00000000000E+00 0. -1.
         11    1    3    3    0    0  0.29898963565E+01  0.16356316137E+02  0.18608902865E+02  0.24955156258E+02  0.51100000000E-03 0. -1.
        -11    1    3    3    0    0  0.41265073702E+01  0.60700294744E+01 -0.79657981702E+01  0.10831770938E+02  0.51100000000E-03 0.  1.
         12    1    3    3    0    0 -0.15699550533E+02  0.78742256681E+01 -0.15635732035E+02  0.23515004425E+02  0.00000000000E+00 0. -1.
</event>
<event>
 7    1  0.7819001E-012  0.5930195E+02  0.7816164E-02  0.1266605E+00
        -11   -1    0    0    0    0  0.00000000000E+00  0.00000000000E+00  0.45593999997E+02  0.45594000000E+02  0.51100000000E-03 0.  1.
         11   -1    0    0    0    0 -0.00000000000E+00 -0.00000000000E+00 -0.45593999997E+02  0.45594000000E+02  0.51100000000E-03 0. -1.
    9900012    2    1    2    0    0  0.24120120827E+01  0.13562754090E+02  0.28756814817E+02  0.59301945067E+02  0.50000001895E+02 0.  0.
         12    1    1    2    0    0 -0.24120120827E+01 -0.13562754090E+02 -0.28756814817E+02  0.31886054933E+02  0.00000000000E+00 0. -1.
         11    1    3    3    0    0 -0.52353744000E+01  0.27581919110E+01 -0.10566231586E+02  0.12110409486E+02  0.51100000000E-03 0. -1.
        -11    1    3    3    0    0  0.55710400132E+01  0.16988675121E+02  0.35183576925E+02  0.39465626242E+02  0.51100000000E-03 0.  1.
         12    1    3    3    0    0  0.20763464695E+01 -0.61841129420E+01  0.41394694787E+01  0.77259093384E+01  0.00000000000E+00 0. -1.
</event>
<event>
 7    1  0.7819001E-012  0.5930195E+02  0.7816164E-02  0.1266605E+00
        -11   -1    0    0    0    0  0.00000000000E+00  0.00000000000E+00  0.45593999997E+02  0.45594000000E+02  0.51100000000E-03 0.  1.
         11   -1    0    0    0    0 -0.00000000000E+00 -0.00000000000E+00 -0.45593999997E+02  0.45594000000E+02  0.51100000000E-03 0. -1.
    9900012    2    1    2    0    0 -0.99699560301E+01 -0.17626779719E+02  0.24629591895E+02  0.59301950018E+02  0.50000010925E+02 0.  0.
         12    1    1    2    0    0  0.99699560301E+01  0.17626779719E+02 -0.24629591895E+02  0.31886049982E+02  0.00000000000E+00 0. -1.
         11    1    3    3    0    0 -0.21515062097E+02  0.20831464717E+01 -0.24175753595E+01  0.21750449815E+02  0.51100000000E-03 0. -1.
        -11    1    3    3    0    0  0.64875730166E+01 -0.14672773644E+02  0.95886645288E+01  0.18690141192E+02  0.51100000000E-03 0.  1.
         12    1    3    3    0    0  0.50575330505E+01 -0.50371525461E+01  0.17458502726E+02  0.18861359012E+02  0.00000000000E+00 0. -1.
</event>
<event>
 7    1  0.7819001E-012  0.5930192E+02  0.7816164E-02  0.1266605E+00
        -11   -1    0    0    0    0  0.00000000000E+00  0.00000000000E+00  0.45593999997E+02  0.45594000000E+02  0.51100000000E-03 0. -1.
         11   -1    0    0    0    0 -0.00000000000E+00 -0.00000000000E+00 -0.45593999997E+02  0.45594000000E+02  0.51100000000E-03 0.  1.
    9900012    2    1    2    0    0 -0.91711165716E+01 -0.22924383160E+02 -0.20176353670E+02  0.59301922006E+02  0.49999959838E+02 0.  0.
         12    1    1    2    0    0  0.91711165716E+01  0.22924383160E+02  0.20176353670E+02  0.31886077994E+02  0.00000000000E+00 0. -1.
         11    1    3    3    0    0  0.57584838302E+01 -0.20694695705E+02 -0.20501492207E+02  0.29694136615E+02  0.51100000000E-03 0. -1.
        -11    1    3    3    0    0 -0.19263487608E+02  0.49321190440E+01 -0.38487247693E+01  0.20253899271E+02  0.51100000000E-03 0.  1.
         12    1    3    3    0    0  0.43338872060E+01 -0.71618064984E+01  0.41738633064E+01  0.93538861195E+01  0.00000000000E+00 0. -1.
</event>
<event>
 7    1  0.7819001E-012  0.5930193E+02  0.7816164E-02  0.1266605E+00
        -11   -1    0    0    0    0  0.00000000000E+00  0.00000000000E+00  0.45593999997E+02  0.45594000000E+02  0.51100000000E-03 0.  1.
         11   -1    0    0    0    0 -0.00000000000E+00 -0.00000000000E+00 -0.45593999997E+02  0.45594000000E+02  0.51100000000E-03 0. -1.
    9900012    2    1    2    0    0 -0.53993451544E+01 -0.29418031329E+02 -0.11052069544E+02  0.59301925664E+02  0.49999966509E+02 0.  0.
         12    1    1    2    0    0  0.53993451544E+01  0.29418031329E+02  0.11052069544E+02  0.31886074336E+02  0.00000000000E+00 0. -1.
         11    1    3    3    0    0 -0.10872333012E+02  0.84657340755E+01 -0.81654961800E+01  0.16017228433E+02  0.51100000000E-03 0. -1.
        -11    1    3    3    0    0  0.84049480455E+01 -0.25547588568E+02  0.63050152688E+01  0.27623823976E+02  0.51100000000E-03 0.  1.
         12    1    3    3    0    0 -0.29319601878E+01 -0.12336176837E+02 -0.91915886330E+01  0.15660873254E+02  0.00000000000E+00 0. -1.
</event>
<event>
 7    1  0.7819001E-012  0.5930195E+02  0.7816164E-02  0.1266605E+00
        -11   -1    0    0    0    0  0.00000000000E+00  0.00000000000E+00  0.45593999997E+02  0.45594000000E+02  0.51100000000E-03 0.  1.
         11   -1    0    0    0    0 -0.00000000000E+00 -0.00000000000E+00 -0.45593999997E+02  0.45594000000E+02  0.51100000000E-03 0. -1.
    9900012    2    1    2    0    0  0.12982679739E+02  0.12900380449E+02  0.26110348272E+02  0.59301951706E+02  0.50000014003E+02 0.  0.
         12    1    1    2    0    0 -0.12982679739E+02 -0.12900380449E+02 -0.26110348272E+02  0.31886048294E+02  0.00000000000E+00 0. -1.
         11    1    3    3    0    0  0.23694617027E+02 -0.11627989787E+02  0.14344424607E+02  0.30040098870E+02  0.51100000000E-03 0. -1.
        -11    1    3    3    0    0 -0.87167698521E+01  0.18990165693E+02  0.95138950148E+01  0.22959152169E+02  0.51100000000E-03 0.  1.
         12    1    3    3    0    0 -0.19951674360E+01  0.55382045431E+01  0.22520286499E+01  0.63027006671E+01  0.00000000000E+00 0. -1.
</event>
<event>
 7    1  0.7819001E-012  0.5930191E+02  0.7816164E-02  0.1266605E+00
        -11   -1    0    0    0    0  0.00000000000E+00  0.00000000000E+00  0.45593999997E+02  0.45594000000E+02  0.51100000000E-03 0. -1.
         11   -1    0    0    0    0 -0.00000000000E+00 -0.00000000000E+00 -0.45593999997E+02  0.45594000000E+02  0.51100000000E-03 0.  1.
    9900012    2    1    2    0    0 -0.20256676046E+02 -0.15981258288E+02 -0.18734706759E+02  0.59301909330E+02  0.49999936719E+02 0.  0.
         12    1    1    2    0    0  0.20256676046E+02  0.15981258288E+02  0.18734706759E+02  0.31886090670E+02  0.00000000000E+00 0. -1.
         11    1    3    3    0    0 -0.13098443408E+02  0.66808010021E+01  0.28872674671E+01  0.14984613290E+02  0.51100000000E-03 0. -1.
        -11    1    3    3    0    0 -0.81588324543E+01 -0.13215542812E+02 -0.28590076158E+02  0.32536280884E+02  0.51100000000E-03 0.  1.
        -12    1    3    3    0    0  0.10005998169E+01 -0.94465164786E+01  0.69681019318E+01  0.11781015156E+02  0.00000000000E+00 0.  1.
</event>
<event>
 7    1  0.7819001E-012  0.5930187E+02  0.7816164E-02  0.1266605E+00
        -11   -1    0    0    0    0  0.00000000000E+00  0.00000000000E+00  0.45593999997E+02  0.45594000000E+02  0.51100000000E-03 0. -1.
         11   -1    0    0    0    0 -0.00000000000E+00 -0.00000000000E+00 -0.45593999997E+02  0.45594000000E+02  0.51100000000E-03 0.  1.
    9900012    2    1    2    0    0  0.32940121229E+01 -0.27904092490E+02 -0.15074361076E+02  0.59301870486E+02  0.49999865876E+02 0.  0.
         12    1    1    2    0    0 -0.32940121229E+01  0.27904092490E+02  0.15074361076E+02  0.31886129514E+02  0.00000000000E+00 0. -1.
         11    1    3    3    0    0 -0.73283943508E+01 -0.13491387419E+02  0.15663900619E+02  0.21933551494E+02  0.51100000000E-03 0. -1.
        -11    1    3    3    0    0  0.98756649761E+01 -0.15340357972E+02 -0.22142763078E+02  0.28690717984E+02  0.51100000000E-03 0.  1.
         12    1    3    3    0    0  0.74674149765E+00  0.92765290133E+00 -0.85954986177E+01  0.86776010082E+01  0.00000000000E+00 0. -1.
</event>
<event>
 7    1  0.7819001E-012  0.5930197E+02  0.7816164E-02  0.1266605E+00
        -11   -1    0    0    0    0  0.00000000000E+00  0.00000000000E+00  0.45593999997E+02  0.45594000000E+02  0.51100000000E-03 0.  1.
         11   -1    0    0    0    0 -0.00000000000E+00 -0.00000000000E+00 -0.45593999997E+02  0.45594000000E+02  0.51100000000E-03 0. -1.
    9900012    2    1    2    0    0  0.17786124628E+02 -0.40338996823E+01  0.26155305967E+02  0.59301974752E+02  0.50000056033E+02 0.  0.
         12    1    1    2    0    0 -0.17786124628E+02  0.40338996823E+01 -0.26155305967E+02  0.31886025248E+02  0.00000000000E+00 0. -1.
         11    1    3    3    0    0  0.31866355283E+00 -0.18861217548E+02 -0.49140236696E+01  0.19493452817E+02  0.51100000000E-03 0. -1.
        -11    1    3    3    0    0  0.18565356904E+02  0.14017565969E+02  0.27694278037E+02  0.36168185867E+02  0.51100000000E-03 0.  1.
         12    1    3    3    0    0 -0.10978958284E+01  0.80975189639E+00  0.33750515996E+01  0.36403360675E+01  0.00000000000E+00 0. -1.
</event>
<event>
 7    1  0.7819001E-012  0.5930192E+02  0.7816164E-02  0.1266605E+00
        -11   -1    0    0    0    0  0.00000000000E+00  0.00000000000E+00  0.45593999997E+02  0.45594000000E+02  0.51100000000E-03 0.  1.
         11   -1    0    0    0    0 -0.00000000000E+00 -0.00000000000E+00 -0.45593999997E+02  0.45594000000E+02  0.51100000000E-03 0. -1.
    9900012    2    1    2    0    0  0.17531528884E+02  0.26628612377E+02  0.53356442376E+00  0.59301918504E+02  0.49999953451E+02 0.  0.
         12    1    1    2    0    0 -0.17531528884E+02 -0.26628612377E+02 -0.53356442376E+00  0.31886081496E+02  0.00000000000E+00 0. -1.
         11    1    3    3    0    0  0.58005582773E+01 -0.35541442359E+01  0.15841785559E+02  0.17240666679E+02  0.51100000000E-03 0.  1.
        -11    1    3    3    0    0  0.59555738427E+01  0.18836164960E+02 -0.20355201432E+02  0.28365545928E+02  0.51100000000E-03 0. -1.
        -12    1    3    3    0    0  0.57753967644E+01  0.11346591653E+02  0.50469802967E+01  0.13695705898E+02  0.00000000000E+00 0.  1.
</event>
<event>
 7    1  0.7819001E-012  0.5930193E+02  0.7816164E-02  0.1266605E+00
        -11   -1    0    0    0    0  0.00000000000E+00  0.00000000000E+00  0.45593999997E+02  0.45594000000E+02  0.51100000000E-03 0.  1.
         11   -1    0    0    0    0 -0.00000000000E+00 -0.00000000000E+00 -0.45593999997E+02  0.45594000000E+02  0.51100000000E-03 0. -1.
    9900012    2    1    2    0    0  0.13754421163E+02  0.62694068311E+01  0.28075466262E+02  0.59301931422E+02  0.49999977011E+02 0.  0.
         12    1    1    2    0    0 -0.13754421163E+02 -0.62694068311E+01 -0.28075466262E+02  0.31886068578E+02  0.00000000000E+00 0. -1.
         11    1    3    3    0    0  0.27373806184E+02  0.49963714275E+01  0.24891306213E+02  0.37334516439E+02  0.51100000000E-03 0.  1.
        -11    1    3    3    0    0 -0.10450021550E+02 -0.51906973869E+01  0.72131507383E+01  0.13717719694E+02  0.51100000000E-03 0. -1.
         12    1    3    3    0    0 -0.31693634712E+01  0.64637327904E+01 -0.40289906894E+01  0.82496952898E+01  0.00000000000E+00 0. -1.
</event>
<event>
 7    1  0.7819001E-012  0.5930194E+02  0.7816164E-02  0.1266605E+00
        -11   -1    0    0    0    0  0.00000000000E+00  0.00000000000E+00  0.45593999997E+02  0.45594000000E+02  0.51100000000E-03 0.  1.
         11   -1    0    0    0    0 -0.00000000000E+00 -0.00000000000E+00 -0.45593999997E+02  0.45594000000E+02  0.51100000000E-03 0. -1.
    9900012    2    1    2    0    0 -0.97740951863E+01 -0.17182718037E+02  0.25018837703E+02  0.59301937592E+02  0.49999988263E+02 0.  0.
         12    1    1    2    0    0  0.97740951863E+01  0.17182718037E+02 -0.25018837703E+02  0.31886062408E+02  0.00000000000E+00 0. -1.
         11    1    3    3    0    0 -0.23903862791E+01  0.36387294038E+01 -0.50765910364E+01  0.66877556063E+01  0.51100000000E-03 0. -1.
        -11    1    3    3    0    0  0.97122170329E+01 -0.15401931955E+02  0.29503650429E+02  0.34670045522E+02  0.51100000000E-03 0.  1.
        -12    1    3    3    0    0 -0.17095925940E+02 -0.54195154860E+01  0.59177831100E+00  0.17944136464E+02  0.00000000000E+00 0.  1.
</event>
<event>
 7    1  0.7819001E-012  0.5930192E+02  0.7816164E-02  0.1266605E+00
        -11   -1    0    0    0    0  0.00000000000E+00  0.00000000000E+00  0.45593999997E+02  0.45594000000E+02  0.51100000000E-03 0. -1.
         11   -1    0    0    0    0 -0.00000000000E+00 -0.00000000000E+00 -0.45593999997E+02  0.45594000000E+02  0.51100000000E-03 0.  1.
    9900012    2    1    2    0    0  0.17680450741E+02  0.26483419198E+02 -0.16589222516E+01  0.59301923825E+02  0.49999963155E+02 0.  0.
         12    1    1    2    0    0 -0.17680450741E+02 -0.26483419198E+02  0.16589222516E+01  0.31886076175E+02  0.00000000000E+00 0. -1.
         11    1    3    3    0    0 -0.87416948533E+01  0.14226414198E+02 -0.93909434101E+01  0.19157189466E+02  0.51100000000E-03 0.  1.
        -11    1    3    3    0    0  0.19913898667E+02 -0.53486082739E+01  0.43094831486E+01  0.21065199165E+02  0.51100000000E-03 0. -1.
        -12    1    3    3    0    0  0.65082469267E+01  0.17605613273E+02  0.34225380098E+01  0.19079535194E+02  0.00000000000E+00 0.  1.
</event>
<event>
 7    1  0.7819001E-012  0.5930191E+02  0.7816164E-02  0.1266605E+00
        -11   -1    0    0    0    0  0.00000000000E+00  0.00000000000E+00  0.45593999997E+02  0.45594000000E+02  0.51100000000E-03 0.  1.
         11   -1    0    0    0    0 -0.00000000000E+00 -0.00000000000E+00 -0.45593999997E+02  0.45594000000E+02  0.51100000000E-03 0. -1.
    9900012    2    1    2    0    0  0.23506937164E+01  0.20583713024E+02  0.24238555735E+02  0.59301912330E+02  0.49999942191E+02 0.  0.
         12    1    1    2    0    0 -0.23506937164E+01 -0.20583713024E+02 -0.24238555735E+02  0.31886087670E+02  0.00000000000E+00 0. -1.
         11    1    3    3    0    0  0.11075390403E+02 -0.12281977232E+02  0.94345485560E+01  0.19040009034E+02  0.51100000000E-03 0. -1.
        -11    1    3    3    0    0 -0.11647229936E+02  0.25072052938E+02  0.15859844162E+02  0.31871624697E+02  0.51100000000E-03 0.  1.
         12    1    3    3    0    0  0.29225332492E+01  0.77936373177E+01 -0.10558369830E+01  0.83902785989E+01  0.00000000000E+00 0. -1.
</event>
<event>
 7    1  0.7819001E-012  0.5930195E+02  0.7816164E-02  0.1266605E+00
        -11   -1    0    0    0    0  0.00000000000E+00  0.00000000000E+00  0.45593999997E+02  0.45594000000E+02  0.51100000000E-03 0. -1.
         11   -1    0    0    0    0 -0.00000000000E+00 -0.00000000000E+00 -0.45593999997E+02  0.45594000000E+02  0.51100000000E-03 0.  1.
    9900012    2    1    2    0    0  0.28042532261E+02 -0.49498580028E+01  0.14346966780E+02  0.59301950297E+02  0.50000011434E+02 0.  0.
         12    1    1    2    0    0 -0.28042532261E+02  0.49498580028E+01 -0.14346966780E+02  0.31886049703E+02  0.00000000000E+00 0. -1.
         11    1    3    3    0    0  0.68561305031E+01  0.11746974686E+02 -0.12693973687E+02  0.18604701233E+02  0.51100000000E-03 0.  1.
        -11    1    3    3    0    0  0.12049568449E+02 -0.55856987902E+01  0.21520870563E+02  0.25289128115E+02  0.51100000000E-03 0. -1.
        -12    1    3    3    0    0  0.91368333093E+01 -0.11111133898E+02  0.55200699050E+01  0.15408120949E+02  0.00000000000E+00 0.  1.
</event>
<event>
 7    1  0.7819001E-012  0.5930194E+02  0.7816164E-02  0.1266605E+00
        -11   -1    0    0    0    0  0.00000000000E+00  0.00000000000E+00  0.45593999997E+02  0.45594000000E+02  0.51100000000E-03 0. -1.
         11   -1    0    0    0    0 -0.00000000000E+00 -0.00000000000E+00 -0.45593999997E+02  0.45594000000E+02  0.51100000000E-03 0.  1.
    9900012    2    1    2    0    0 -0.18276089535E+02 -0.22295431043E+02 -0.13624202132E+02  0.59301943834E+02  0.49999999647E+02 0.  0.
         12    1    1    2    0    0  0.18276089535E+02  0.22295431043E+02  0.13624202132E+02  0.31886056166E+02  0.00000000000E+00 0. -1.
         11    1    3    3    0    0 -0.39896742008E+01 -0.89399197880E+01  0.18735905261E+02  0.21139390063E+02  0.51100000000E-03 0. -1.
        -11    1    3    3    0    0 -0.91792460269E+01 -0.91801151327E+01 -0.25676141304E+02  0.28771466838E+02  0.51100000000E-03 0.  1.
         12    1    3    3    0    0 -0.51071693077E+01 -0.41753961222E+01 -0.66839660887E+01  0.93910869333E+01  0.00000000000E+00 0. -1.
</event>
<event>
 7    1  0.7819001E-012  0.5930189E+02  0.7816164E-02  0.1266605E+00
        -11   -1    0    0    0    0  0.00000000000E+00  0.00000000000E+00  0.45593999997E+02  0.45594000000E+02  0.51100000000E-03 0. -1.
         11   -1    0    0    0    0 -0.00000000000E+00 -0.00000000000E+00 -0.45593999997E+02  0.45594000000E+02  0.51100000000E-03 0.  1.
    9900012    2    1    2    0    0 -0.19951454944E+02 -0.16458880812E+02 -0.18648562044E+02  0.59301887376E+02  0.49999896680E+02 0.  0.
         12    1    1    2    0    0  0.19951454944E+02  0.16458880812E+02  0.18648562044E+02  0.31886112624E+02  0.00000000000E+00 0. -1.
         11    1    3    3    0    0 -0.40474590196E+01  0.35446320840E+01 -0.22032919071E+02  0.22680296827E+02  0.51100000000E-03 0.  1.
        -11    1    3    3    0    0 -0.18505151163E+02 -0.71135139726E+01  0.96570974154E+01  0.22052261366E+02  0.51100000000E-03 0. -1.
         12    1    3    3    0    0  0.26011552391E+01 -0.12889998924E+02 -0.62727403892E+01  0.14569329182E+02  0.00000000000E+00 0. -1.
</event>
<event>
 7    1  0.7819001E-012  0.5930190E+02  0.7816164E-02  0.1266605E+00
        -11   -1    0    0    0    0  0.00000000000E+00  0.00000000000E+00  0.45593999997E+02  0.45594000000E+02  0.51100000000E-03 0.  1.
         11   -1    0    0    0    0 -0.00000000000E+00 -0.00000000000E+00 -0.45593999997E+02  0.45594000000E+02  0.51100000000E-03 0. -1.
    9900012    2    1    2    0    0 -0.23540073323E+02 -0.32979635385E+01 -0.21253511907E+02  0.59301899832E+02  0.49999919397E+02 0.  0.
         12    1    1    2    0    0  0.23540073323E+02  0.32979635385E+01  0.21253511907E+02  0.31886100168E+02  0.00000000000E+00 0. -1.
         11    1    3    3    0    0  0.10853637038E+02 -0.24103583322E+01 -0.90114309174E+01  0.14311434299E+02  0.51100000000E-03 0. -1.
        -11    1    3    3    0    0 -0.24833980919E+02  0.79154466865E+01 -0.17036530677E+02  0.31138790637E+02  0.51100000000E-03 0.  1.
        -12    1    3    3    0    0 -0.95597294420E+01 -0.88030518928E+01  0.47944496874E+01  0.13851674896E+02  0.00000000000E+00 0.  1.
</event>
<event>
 7    1  0.7819001E-012  0.5930196E+02  0.7816164E-02  0.1266605E+00
        -11   -1    0    0    0    0  0.00000000000E+00  0.00000000000E+00  0.45593999997E+02  0.45594000000E+02  0.51100000000E-03 0.  1.
         11   -1    0    0    0    0 -0.00000000000E+00 -0.00000000000E+00 -0.45593999997E+02  0.45594000000E+02  0.51100000000E-03 0. -1.
    9900012    2    1    2    0    0 -0.11821182117E+02 -0.16527948280E+02  0.24572462757E+02  0.59301963135E+02  0.50000034848E+02 0.  0.
         12    1    1    2    0    0  0.11821182117E+02  0.16527948280E+02 -0.24572462757E+02  0.31886036865E+02  0.00000000000E+00 0. -1.
         11    1    3    3    0    0 -0.25778149125E+02 -0.19324809871E+02  0.14183426259E+02  0.35201290169E+02  0.51100000000E-03 0.  1.
        -11    1    3    3    0    0  0.75737245418E+01  0.48681799894E+01  0.13873658450E+02  0.16539010819E+02  0.51100000000E-03 0. -1.
         12    1    3    3    0    0  0.63832424655E+01 -0.20713183987E+01 -0.34846219518E+01  0.75616621473E+01  0.00000000000E+00 0. -1.
</event>
<event>
 7    1  0.7819001E-012  0.5930194E+02  0.7816164E-02  0.1266605E+00
        -11   -1    0    0    0    0  0.00000000000E+00  0.00000000000E+00  0.45593999997E+02  0.45594000000E+02  0.51100000000E-03 0.  1.
         11   -1    0    0    0    0 -0.00000000000E+00 -0.00000000000E+00 -0.45593999997E+02  0.45594000000E+02  0.51100000000E-03 0. -1.
    9900012    2    1    2    0    0 -0.14813379724E+02  0.14612190895E+02  0.24161300164E+02  0.59301940864E+02  0.49999994231E+02 0.  0.
         12    1    1    2    0    0  0.14813379724E+02 -0.14612190895E+02 -0.24161300164E+02  0.31886059136E+02  0.00000000000E+00 0. -1.
         11    1    3    3    0    0  0.29770310880E+01  0.82436899597E+01  0.13805212200E+02  0.16352523426E+02  0.51100000000E-03 0. -1.
        -11    1    3    3    0    0 -0.12751229253E+02 -0.14868387353E+02  0.73308028243E+01  0.20914192794E+02  0.51100000000E-03 0.  1.
        -12    1    3    3    0    0 -0.50391815592E+01  0.21236888288E+02  0.30252851397E+01  0.22035224644E+02  0.00000000000E+00 0.  1.
</event>
<event>
 7    1  0.7819001E-012  0.5930197E+02  0.7816164E-02  0.1266605E+00
        -11   -1    0    0    0    0  0.00000000000E+00  0.00000000000E+00  0.45593999997E+02  0.45594000000E+02  0.51100000000E-03 0. -1.
         11   -1    0    0    0    0 -0.00000000000E+00 -0.00000000000E+00 -0.45593999997E+02  0.45594000000E+02  0.51100000000E-03 0.  1.
    9900012    2    1    2    0    0 -0.13940434033E+02 -0.11808773543E+02 -0.26133050525E+02  0.59301966014E+02  0.50000040098E+02 0.  0.
         12    1    1    2    0    0  0.13940434033E+02  0.11808773543E+02  0.26133050525E+02  0.31886033986E+02  0.00000000000E+00 0. -1.
         11    1    3    3    0    0 -0.16321777838E+02 -0.12354265493E+02 -0.47689528916E+01  0.21018354350E+02  0.51100000000E-03 0. -1.
        -11    1    3    3    0    0 -0.52226561859E+01  0.69798038777E+01 -0.25907914170E+02  0.27335212030E+02  0.51100000000E-03 0.  1.
         12    1    3    3    0    0  0.76039999906E+01 -0.64343119273E+01  0.45438165363E+01  0.10948399634E+02  0.00000000000E+00 0. -1.
</event>
<event>
 7    1  0.7819001E-012  0.5930196E+02  0.7816164E-02  0.1266605E+00
        -11   -1    0    0    0    0  0.00000000000E+00  0.00000000000E+00  0.45593999997E+02  0.45594000000E+02  0.51100000000E-03 0. -1.
         11   -1    0    0    0    0 -0.00000000000E+00 -0.00000000000E+00 -0.45593999997E+02  0.45594000000E+02  0.51100000000E-03 0.  1.
    9900012    2    1    2    0    0  0.16273505007E+02  0.26729195236E+02 -0.61190586791E+01  0.59301957249E+02  0.50000024112E+02 0.  0.
         12    1    1    2    0    0 -0.16273505007E+02 -0.26729195236E+02  0.61190586791E+01  0.31886042751E+02  0.00000000000E+00 0. -1.
         11    1    3    3    0    0  0.35514380295E+01  0.40496263893E+01  0.14897013617E+02  0.15840871218E+02  0.51100000000E-03 0. -1.
        -11    1    3    3    0    0  0.16205044051E+02  0.24086635128E+01 -0.14520613255E+02  0.21891855156E+02  0.51100000000E-03 0.  1.
        -12    1    3    3    0    0 -0.34829770735E+01  0.20270905334E+02 -0.64954590413E+01  0.21569230875E+02  0.00000000000E+00 0.  1.
</event>
<event>
 7    1  0.7819001E-012  0.5930195E+02  0.7816164E-02  0.1266605E+00
        -11   -1    0    0    0    0  0.00000000000E+00  0.00000000000E+00  0.45593999997E+02  0.45594000000E+02  0.51100000000E-03 0.  1.
         11   -1    0    0    0    0 -0.00000000000E+00 -0.00000000000E+00 -0.45593999997E+02  0.45594000000E+02  0.51100000000E-03 0. -1.
    9900012    2    1    2    0    0 -0.52405752827E+01 -0.24825939846E+02  0.19311377285E+02  0.59301949583E+02  0.50000010132E+02 0.  0.
         12    1    1    2    0    0  0.52405752827E+01  0.24825939846E+02 -0.19311377285E+02  0.31886050417E+02  0.00000000000E+00 0. -1.
         11    1    3    3    0    0  0.11732626570E+02 -0.28200354832E+01 -0.51185744000E+01  0.13107514277E+02  0.51100000000E-03 0. -1.
        -11    1    3    3    0    0 -0.21386136774E+02 -0.21201522218E+02  0.27481747768E+02  0.40769079596E+02  0.51100000000E-03 0.  1.
        -12    1    3    3    0    0  0.44129349208E+01 -0.80438214488E+00 -0.30517960833E+01  0.54253557104E+01  0.00000000000E+00 0.  1.
</event>
<event>
 7    1  0.7819001E-012  0.5930196E+02  0.7816164E-02  0.1266605E+00
        -11   -1    0    0    0    0  0.00000000000E+00  0.00000000000E+00  0.45593999997E+02  0.45594000000E+02  0.51100000000E-03 0.  1.
         11   -1    0    0    0    0 -0.00000000000E+00 -0.00000000000E+00 -0.45593999997E+02  0.45594000000E+02  0.51100000000E-03 0. -1.
    9900012    2    1    2    0    0  0.17928171939E+02 -0.23416093855E+02  0.12123818469E+02  0.59301956427E+02  0.50000022613E+02 0.  0.
         12    1    1    2    0    0 -0.17928171939E+02  0.23416093855E+02 -0.12123818469E+02  0.31886043573E+02  0.00000000000E+00 0. -1.
         11    1    3    3    0    0 -0.51528501727E+01 -0.25389862629E+00  0.70367120372E+01  0.87253450345E+01  0.51100000000E-03 0. -1.
        -11    1    3    3    0    0  0.25753574548E+02 -0.31954526177E+02  0.29809640900E+01  0.41148809125E+02  0.51100000000E-03 0.  1.
        -12    1    3    3    0    0 -0.26725524368E+01  0.87923309486E+01  0.21061423415E+01  0.94278022678E+01  0.00000000000E+00 0.  1.
</event>
<event>
 7    1  0.7819001E-012  0.5930196E+02  0.7816164E-02  0.1266605E+00
        -11   -1    0    0    0    0  0.00000000000E+00  0.00000000000E+00  0.45593999997E+02  0.45594000000E+02  0.51100000000E-03 0.  1.
         11   -1    0    0    0    0 -0.00000000000E+00 -0.00000000000E+00 -0.45593999997E+02  0.45594000000E+02  0.51100000000E-03 0. -1.
    9900012    2    1    2    0    0  0.26446420646E+02 -0.48472269163E+01  0.17140914124E+02  0.59301957430E+02  0.50000024442E+02 0.  0.
         12    1    1    2    0    0 -0.26446420646E+02  0.48472269163E+01 -0.17140914124E+02  0.31886042570E+02  0.00000000000E+00 0. -1.
         11    1    3    3    0    0 -0.43987712255E+01  0.47046838900E+01  0.13399790164E+02  0.14867333839E+02  0.51100000000E-03 0. -1.
        -11    1    3    3    0    0  0.23510162920E+02 -0.12804136469E+02  0.14940473145E+02  0.30657648463E+02  0.51100000000E-03 0.  1.
         12    1    3    3    0    0  0.73350289519E+01  0.32522256630E+01 -0.11199349185E+02  0.13776975127E+02  0.00000000000E+00 0. -1.
</event>
<event>
 7    1  0.7819001E-012  0.5930191E+02  0.7816164E-02  0.1266605E+00
        -11   -1    0    0    0    0  0.00000000000E+00  0.00000000000E+00  0.45593999997E+02  0.45594000000E+02  0.51100000000E-03 0.  1.
         11   -1    0    0    0    0 -0.00000000000E+00 -0.00000000000E+00 -0.45593999997E+02  0.45594000000E+02  0.51100000000E-03 0. -1.
    9900012    2    1    2    0    0  0.28568959567E+01 -0.88337075298E+01  0.30504535531E+02  0.59301906931E+02  0.49999932345E+02 0.  0.
         12    1    1    2    0    0 -0.28568959567E+01  0.88337075298E+01 -0.30504535531E+02  0.31886093069E+02  0.00000000000E+00 0. -1.
         11    1    3    3    0    0  0.90862669393E+01 -0.96787140484E+01  0.94865801508E+01  0.16316646584E+02  0.51100000000E-03 0. -1.
        -11    1    3    3    0    0 -0.10796092137E+02 -0.13698633908E+00 -0.80983910036E+01  0.13496603565E+02  0.51100000000E-03 0.  1.
        -12    1    3    3    0    0  0.45667211542E+01  0.98199285769E+00  0.29116346384E+02  0.29488656782E+02  0.00000000000E+00 0.  1.
</event>
<event>
 7    1  0.7819001E-012  0.5930202E+02  0.7816164E-02  0.1266604E+00
        -11   -1    0    0    0    0  0.00000000000E+00  0.00000000000E+00  0.45593999997E+02  0.45594000000E+02  0.51100000000E-03 0.  1.
         11   -1    0    0    0    0 -0.00000000000E+00 -0.00000000000E+00 -0.45593999997E+02  0.45594000000E+02  0.51100000000E-03 0. -1.
    9900012    2    1    2    0    0  0.14689286977E+02  0.25334713009E+02  0.12613201933E+02  0.59302020351E+02  0.50000139196E+02 0.  0.
         12    1    1    2    0    0 -0.14689286977E+02 -0.25334713009E+02 -0.12613201933E+02  0.31885979649E+02  0.00000000000E+00 0. -1.
         11    1    3    3    0    0  0.12072220591E+02 -0.10923234487E+02 -0.17418993550E+01  0.16373447264E+02  0.51100000000E-03 0. -1.
        -11    1    3    3    0    0 -0.34244882691E+01  0.24688499857E+02  0.20804358414E+01  0.25011544507E+02  0.51100000000E-03 0.  1.
         12    1    3    3    0    0  0.60415546550E+01  0.11569447640E+02  0.12274665446E+02  0.17917028581E+02  0.00000000000E+00 0. -1.
</event>
<event>
 7    1  0.7819001E-012  0.5930199E+02  0.7816164E-02  0.1266605E+00
        -11   -1    0    0    0    0  0.00000000000E+00  0.00000000000E+00  0.45593999997E+02  0.45594000000E+02  0.51100000000E-03 0. -1.
         11   -1    0    0    0    0 -0.00000000000E+00 -0.00000000000E+00 -0.45593999997E+02  0.45594000000E+02  0.51100000000E-03 0.  1.
    9900012    2    1    2    0    0  0.14669925359E+02  0.26152908637E+02  0.10841425579E+02  0.59301986628E+02  0.50000077692E+02 0.  0.
         12    1    1    2    0    0 -0.14669925359E+02 -0.26152908637E+02 -0.10841425579E+02  0.31886013372E+02  0.00000000000E+00 0. -1.
         11    1    3    3    0    0 -0.16183344501E+02  0.19252153247E+02 -0.12010737591E+01  0.25179130690E+02  0.51100000000E-03 0. -1.
        -11    1    3    3    0    0  0.28535861394E+02  0.73537630217E+01  0.10412799760E+02  0.31253793613E+02  0.51100000000E-03 0.  1.
         12    1    3    3    0    0  0.23174084658E+01 -0.45300763160E+00  0.16296995781E+01  0.28690623254E+01  0.00000000000E+00 0. -1.
</event>
<event>
 7    1  0.7819001E-012  0.5930192E+02  0.7816164E-02  0.1266605E+00
        -11   -1    0    0    0    0  0.00000000000E+00  0.00000000000E+00  0.45593999997E+02  0.45594000000E+02  0.51100000000E-03 0.  1.
         11   -1    0    0    0    0 -0.00000000000E+00 -0.00000000000E+00 -0.45593999997E+02  0.45594000000E+02  0.51100000000E-03 0. -1.
    9900012    2    1    2    0    0 -0.54526511088E+01  0.18156781148E+02  0.25638292121E+02  0.59301919515E+02  0.49999955295E+02 0.  0.
         12    1    1    2    0    0  0.54526511088E+01 -0.18156781148E+02 -0.25638292121E+02  0.31886080485E+02  0.00000000000E+00 0. -1.
         11    1    3    3    0    0 -0.60603174684E+00  0.76142887131E+01 -0.36210548784E+01  0.84532068340E+01  0.51100000000E-03 0. -1.
        -11    1    3    3    0    0 -0.20510054306E+02 -0.19714364149E+01  0.20178421265E+02  0.28839514111E+02  0.51100000000E-03 0.  1.
        -12    1    3    3    0    0  0.15663434944E+02  0.12513928850E+02  0.90809257346E+01  0.22009198570E+02  0.00000000000E+00 0.  1.
</event>
<event>
 7    1  0.7819001E-012  0.5930193E+02  0.7816164E-02  0.1266605E+00
        -11   -1    0    0    0    0  0.00000000000E+00  0.00000000000E+00  0.45593999997E+02  0.45594000000E+02  0.51100000000E-03 0.  1.
         11   -1    0    0    0    0 -0.00000000000E+00 -0.00000000000E+00 -0.45593999997E+02  0.45594000000E+02  0.51100000000E-03 0. -1.
    9900012    2    1    2    0    0 -0.39779778636E+01  0.10768463483E+02  0.29747900893E+02  0.59301925904E+02  0.49999966947E+02 0.  0.
         12    1    1    2    0    0  0.39779778636E+01 -0.10768463483E+02 -0.29747900893E+02  0.31886074096E+02  0.00000000000E+00 0. -1.
         11    1    3    3    0    0  0.12419095100E+02  0.15223674015E+02  0.21657769846E+02  0.29241292184E+02  0.51100000000E-03 0.  1.
        -11    1    3    3    0    0 -0.10668565895E+02 -0.10707522404E+02 -0.36773730401E+01  0.15556105137E+02  0.51100000000E-03 0. -1.
         12    1    3    3    0    0 -0.57285070687E+01  0.62523118718E+01  0.11767504087E+02  0.14504528583E+02  0.00000000000E+00 0. -1.
</event>
<event>
 7    1  0.7819001E-012  0.5930198E+02  0.7816164E-02  0.1266605E+00
        -11   -1    0    0    0    0  0.00000000000E+00  0.00000000000E+00  0.45593999997E+02  0.45594000000E+02  0.51100000000E-03 0. -1.
         11   -1    0    0    0    0 -0.00000000000E+00 -0.00000000000E+00 -0.45593999997E+02  0.45594000000E+02  0.51100000000E-03 0.  1.
    9900012    2    1    2    0    0 -0.73928465470E+01  0.13503118172E+02 -0.27923644477E+02  0.59301979532E+02  0.50000064751E+02 0.  0.
         12    1    1    2    0    0  0.73928465470E+01 -0.13503118172E+02  0.27923644477E+02  0.31886020468E+02  0.00000000000E+00 0. -1.
         11    1    3    3    0    0  0.92098022249E+01 -0.13641488666E+02 -0.19317561919E+02  0.25378708967E+02  0.51100000000E-03 0. -1.
        -11    1    3    3    0    0 -0.70300237382E+01  0.17763351024E+02 -0.27659332372E+01  0.19303063495E+02  0.51100000000E-03 0.  1.
         12    1    3    3    0    0 -0.95726250337E+01  0.93812558139E+01 -0.58401493203E+01  0.14620207070E+02  0.00000000000E+00 0. -1.
</event>
<event>
 7    1  0.7819001E-012  0.5930192E+02  0.7816164E-02  0.1266605E+00
        -11   -1    0    0    0    0  0.00000000000E+00  0.00000000000E+00  0.45593999997E+02  0.45594000000E+02  0.51100000000E-03 0.  1.
         11   -1    0    0    0    0 -0.00000000000E+00 -0.00000000000E+00 -0.45593999997E+02  0.45594000000E+02  0.51100000000E-03 0. -1.
    9900012    2    1    2    0    0 -0.54004256682E+01  0.86304507436E+01  0.30217096433E+02  0.59301918487E+02  0.49999953419E+02 0.  0.
         12    1    1    2    0    0  0.54004256682E+01 -0.86304507436E+01 -0.30217096433E+02  0.31886081513E+02  0.00000000000E+00 0. -1.
         11    1    3    3    0    0 -0.51687793602E+01  0.17476733802E+02  0.10007329663E+01  0.18252505888E+02  0.51100000000E-03 0. -1.
        -11    1    3    3    0    0 -0.68966582182E+01 -0.16138028351E+02  0.24408154116E+02  0.30062565447E+02  0.51100000000E-03 0.  1.
         12    1    3    3    0    0  0.66650119102E+01  0.72917452920E+01  0.48082093510E+01  0.10986847151E+02  0.00000000000E+00 0. -1.
</event>
<event>
 7    1  0.7819001E-012  0.5930195E+02  0.7816164E-02  0.1266605E+00
        -11   -1    0    0    0    0  0.00000000000E+00  0.00000000000E+00  0.45593999997E+02  0.45594000000E+02  0.51100000000E-03 0. -1.
         11   -1    0    0    0    0 -0.00000000000E+00 -0.00000000000E+00 -0.45593999997E+02  0.45594000000E+02  0.51100000000E-03 0.  1.
    9900012    2    1    2    0    0  0.12154305831E+02 -0.95783797045E+01 -0.27879158884E+02  0.59301952768E+02  0.50000015940E+02 0.  0.
         12    1    1    2    0    0 -0.12154305831E+02  0.95783797045E+01  0.27879158884E+02  0.31886047232E+02  0.00000000000E+00 0. -1.
         11    1    3    3    0    0  0.57212870762E+01  0.12341824277E+02 -0.19269994091E+01  0.13739253228E+02  0.51100000000E-03 0. -1.
        -11    1    3    3    0    0  0.17297392376E+02 -0.10131732396E+02 -0.20390317772E+02  0.28594000130E+02  0.51100000000E-03 0.  1.
         12    1    3    3    0    0 -0.10864373622E+02 -0.11788471585E+02 -0.55618417033E+01  0.16968699409E+02  0.00000000000E+00 0. -1.
</event>
<event>
 7    1  0.7819001E-012  0.5930165E+02  0.7816164E-02  0.1266606E+00
        -11   -1    0    0    0    0  0.00000000000E+00  0.00000000000E+00  0.45593999997E+02  0.45594000000E+02  0.51100000000E-03 0. -1.
         11   -1    0    0    0    0 -0.00000000000E+00 -0.00000000000E+00 -0.45593999997E+02  0.45594000000E+02  0.51100000000E-03 0.  1.
    9900012    2    1    2    0    0 -0.31129251484E+02  0.62050974823E+01  0.30340686784E+01  0.59301653306E+02  0.49999469791E+02 0.  0.
         12    1    1    2    0    0  0.31129251484E+02 -0.62050974823E+01 -0.30340686784E+01  0.31886346694E+02  0.00000000000E+00 0. -1.
         11    1    3    3    0    0 -0.14590434770E+02 -0.14763338437E+02 -0.16081460629E+02  0.26257386100E+02  0.51100000000E-03 0. -1.
        -11    1    3    3    0    0 -0.11804071364E+01  0.29635406538E+01  0.14058391168E+01  0.34860175126E+01  0.51100000000E-03 0.  1.
         12    1    3    3    0    0 -0.15358409577E+02  0.18004895266E+02  0.17709690191E+02  0.29558249693E+02  0.00000000000E+00 0. -1.
</event>
<event>
 7    1  0.7819001E-012  0.5930192E+02  0.7816164E-02  0.1266605E+00
        -11   -1    0    0    0    0  0.00000000000E+00  0.00000000000E+00  0.45593999997E+02  0.45594000000E+02  0.51100000000E-03 0. -1.
         11   -1    0    0    0    0 -0.00000000000E+00 -0.00000000000E+00 -0.45593999997E+02  0.45594000000E+02  0.51100000000E-03 0.  1.
    9900012    2    1    2    0    0  0.20615891090E+02  0.24160574023E+02  0.28237502490E+01  0.59301923603E+02  0.49999962750E+02 0.  0.
         12    1    1    2    0    0 -0.20615891090E+02 -0.24160574023E+02 -0.28237502490E+01  0.31886076397E+02  0.00000000000E+00 0. -1.
         11    1    3    3    0    0 -0.11450982581E+02 -0.63117762296E+01 -0.49389175488E+01  0.13976996389E+02  0.51100000000E-03 0. -1.
        -11    1    3    3    0    0  0.22384815712E+02  0.17458166427E+02  0.39405320264E+01  0.28659995505E+02  0.51100000000E-03 0.  1.
         12    1    3    3    0    0  0.96820579598E+01  0.13014183825E+02  0.38221357715E+01  0.16664931708E+02  0.00000000000E+00 0. -1.
</event>
<event>
 7    1  0.7819001E-012  0.5930194E+02  0.7816164E-02  0.1266605E+00
        -11   -1    0    0    0    0  0.00000000000E+00  0.00000000000E+00  0.45593999997E+02  0.45594000000E+02  0.51100000000E-03 0. -1.
         11   -1    0    0    0    0 -0.00000000000E+00 -0.00000000000E+00 -0.45593999997E+02  0.45594000000E+02  0.51100000000E-03 0.  1.
    9900012    2    1    2    0    0  0.85207461615E+01  0.29479059647E+02 -0.86661726778E+01  0.59301943146E+02  0.49999998392E+02 0.  0.
         12    1    1    2    0    0 -0.85207461615E+01 -0.29479059647E+02  0.86661726778E+01  0.31886056854E+02  0.00000000000E+00 0. -1.
         11    1    3    3    0    0 -0.46391213491E+01  0.14322367883E+01 -0.51340948984E+01  0.70662351926E+01  0.51100000000E-03 0. -1.
        -11    1    3    3    0    0  0.26161867645E+02  0.24881669089E+02  0.48750560172E+01  0.36432224016E+02  0.51100000000E-03 0.  1.
        -12    1    3    3    0    0 -0.13002000134E+02  0.31651537703E+01 -0.84071337965E+01  0.15803483937E+02  0.00000000000E+00 0.  1.
</event>
<event>
 7    1  0.7819001E-012  0.5930193E+02  0.7816164E-02  0.1266605E+00
        -11   -1    0    0    0    0  0.00000000000E+00  0.00000000000E+00  0.45593999997E+02  0.45594000000E+02  0.51100000000E-03 0.  1.
         11   -1    0    0    0    0 -0.00000000000E+00 -0.00000000000E+00 -0.45593999997E+02  0.45594000000E+02  0.51100000000E-03 0. -1.
    9900012    2    1    2    0    0  0.24467232627E+02  0.79416452195E+01  0.18841611383E+02  0.59301929048E+02  0.49999972681E+02 0.  0.
         12    1    1    2    0    0 -0.24467232627E+02 -0.79416452195E+01 -0.18841611383E+02  0.31886070952E+02  0.00000000000E+00 0. -1.
         11    1    3    3    0    0  0.42117219188E+01 -0.55152638549E+01 -0.23184720464E+01  0.73165599705E+01  0.51100000000E-03 0. -1.
        -11    1    3    3    0    0  0.29058709401E+02  0.20994630404E+02  0.16954723327E+02  0.39656597701E+02  0.51100000000E-03 0.  1.
        -12    1    3    3    0    0 -0.88031986928E+01 -0.75377213296E+01  0.42053601024E+01  0.12328771377E+02  0.00000000000E+00 0.  1.
</event>
<event>
 7    1  0.7819001E-012  0.5930197E+02  0.7816164E-02  0.1266605E+00
        -11   -1    0    0    0    0  0.00000000000E+00  0.00000000000E+00  0.45593999997E+02  0.45594000000E+02  0.51100000000E-03 0.  1.
         11   -1    0    0    0    0 -0.00000000000E+00 -0.00000000000E+00 -0.45593999997E+02  0.45594000000E+02  0.51100000000E-03 0. -1.
    9900012    2    1    2    0    0 -0.17403318730E+02  0.15836546830E+02  0.21518524138E+02  0.59301974857E+02  0.50000056226E+02 0.  0.
         12    1    1    2    0    0  0.17403318730E+02 -0.15836546830E+02 -0.21518524138E+02  0.31886025143E+02  0.00000000000E+00 0. -1.
         11    1    3    3    0    0 -0.22951731885E+02  0.24342611829E+02  0.25963144654E+02  0.42348903502E+02  0.51100000000E-03 0.  1.
        -11    1    3    3    0    0  0.97531925230E+01 -0.57841450622E+01 -0.33786447590E+01  0.11832004866E+02  0.51100000000E-03 0. -1.
        -12    1    3    3    0    0 -0.42047793675E+01 -0.27219199367E+01 -0.10659757573E+01  0.51210664891E+01  0.00000000000E+00 0.  1.
</event>
<event>
 7    1  0.7819001E-012  0.5930195E+02  0.7816164E-02  0.1266605E+00
        -11   -1    0    0    0    0  0.00000000000E+00  0.00000000000E+00  0.45593999997E+02  0.45594000000E+02  0.51100000000E-03 0.  1.
         11   -1    0    0    0    0 -0.00000000000E+00 -0.00000000000E+00 -0.45593999997E+02  0.45594000000E+02  0.51100000000E-03 0. -1.
    9900012    2    1    2    0    0  0.21878706589E+02  0.14403423072E+02 -0.18181966571E+02  0.59301948088E+02  0.50000007404E+02 0.  0.
         12    1    1    2    0    0 -0.21878706589E+02 -0.14403423072E+02  0.18181966571E+02  0.31886051912E+02  0.00000000000E+00 0. -1.
         11    1    3    3    0    0 -0.57509025132E+01  0.76058827091E+01 -0.12347357753E+02  0.15600627399E+02  0.51100000000E-03 0.  1.
        -11    1    3    3    0    0  0.22811844431E+02 -0.10578216594E+02 -0.50867956103E+01  0.25654520118E+02  0.51100000000E-03 0. -1.
        -12    1    3    3    0    0  0.48177646712E+01  0.17375756957E+02 -0.74781320781E+00  0.18046800571E+02  0.00000000000E+00 0.  1.
</event>
<event>
 7    1  0.7819001E-012  0.5930194E+02  0.7816164E-02  0.1266605E+00
        -11   -1    0    0    0    0  0.00000000000E+00  0.00000000000E+00  0.45593999997E+02  0.45594000000E+02  0.51100000000E-03 0.  1.
         11   -1    0    0    0    0 -0.00000000000E+00 -0.00000000000E+00 -0.45593999997E+02  0.45594000000E+02  0.51100000000E-03 0. -1.
    9900012    2    1    2    0    0  0.59360063081E+01  0.30740762757E+02 -0.60407057099E+01  0.59301940487E+02  0.49999993543E+02 0.  0.
         12    1    1    2    0    0 -0.59360063081E+01 -0.30740762757E+02  0.60407057099E+01  0.31886059513E+02  0.00000000000E+00 0. -1.
         11    1    3    3    0    0  0.18348454647E+01  0.17316365068E+01 -0.54390024514E+01  0.59956626655E+01  0.51100000000E-03 0. -1.
        -11    1    3    3    0    0  0.13756507506E+02  0.55519215537E+01  0.16900469321E+02  0.22487578687E+02  0.51100000000E-03 0.  1.
        -12    1    3    3    0    0 -0.96553466622E+01  0.23457204697E+02 -0.17502172579E+02  0.30818699134E+02  0.00000000000E+00 0.  1.
</event>
<event>
 7    1  0.7819001E-012  0.5930186E+02  0.7816164E-02  0.1266605E+00
        -11   -1    0    0    0    0  0.00000000000E+00  0.00000000000E+00  0.45593999997E+02  0.45594000000E+02  0.51100000000E-03 0.  1.
         11   -1    0    0    0    0 -0.00000000000E+00 -0.00000000000E+00 -0.45593999997E+02  0.45594000000E+02  0.51100000000E-03 0. -1.
    9900012    2    1    2    0    0 -0.40076752899E+01  0.28359124713E+02  0.14015149479E+02  0.59301861466E+02  0.49999849427E+02 0.  0.
         12    1    1    2    0    0  0.40076752899E+01 -0.28359124713E+02 -0.14015149479E+02  0.31886138534E+02  0.00000000000E+00 0. -1.
         11    1    3    3    0    0 -0.10844290294E+02  0.35733435585E+01 -0.56773773509E+01  0.12751471681E+02  0.51100000000E-03 0. -1.
        -11    1    3    3    0    0  0.33379642548E+01  0.32140601874E+02  0.20652378496E+02  0.38349459344E+02  0.51100000000E-03 0.  1.
        -12    1    3    3    0    0  0.34986507497E+01 -0.73548207194E+01 -0.95985166694E+00  0.82009304415E+01  0.00000000000E+00 0.  1.
</event>
<event>
 7    1  0.7819001E-012  0.5930195E+02  0.7816164E-02  0.1266605E+00
        -11   -1    0    0    0    0  0.00000000000E+00  0.00000000000E+00  0.45593999997E+02  0.45594000000E+02  0.51100000000E-03 0.  1.
         11   -1    0    0    0    0 -0.00000000000E+00 -0.00000000000E+00 -0.45593999997E+02  0.45594000000E+02  0.51100000000E-03 0. -1.
    9900012    2    1    2    0    0  0.90212724757E+01 -0.30179419503E+02  0.49537150366E+01  0.59301952717E+02  0.50000015848E+02 0.  0.
         12    1    1    2    0    0 -0.90212724757E+01  0.30179419503E+02 -0.49537150366E+01  0.31886047283E+02  0.00000000000E+00 0. -1.
         11    1    3    3    0    0 -0.11284550244E+02  0.20840392459E+00 -0.78904028078E+01  0.13771091574E+02  0.51100000000E-03 0. -1.
        -11    1    3    3    0    0  0.24417879891E+01 -0.23318818705E+02  0.21538424666E+01  0.23545034976E+02  0.51100000000E-03 0.  1.
        -12    1    3    3    0    0  0.17864034730E+02 -0.70690047226E+01  0.10690275378E+02  0.21985826168E+02  0.00000000000E+00 0.  1.
</event>
<event>
 7    1  0.7819001E-012  0.5930193E+02  0.7816164E-02  0.1266605E+00
        -11   -1    0    0    0    0  0.00000000000E+00  0.00000000000E+00  0.45593999997E+02  0.45594000000E+02  0.51100000000E-03 0. -1.
         11   -1    0    0    0    0 -0.00000000000E+00 -0.00000000000E+00 -0.45593999997E+02  0.45594000000E+02  0.51100000000E-03 0.  1.
    9900012    2    1    2    0    0  0.32922575809E+01 -0.31715651621E+02 -0.42881449284E-02  0.59301928807E+02  0.49999972242E+02 0.  0.
         12    1    1    2    0    0 -0.32922575809E+01  0.31715651621E+02  0.42881449284E-02  0.31886071193E+02  0.00000000000E+00 0. -1.
         11    1    3    3    0    0  0.52957898863E+01 -0.23554719740E+02  0.87420969481E+01  0.25676730163E+02  0.51100000000E-03 0. -1.
        -11    1    3    3    0    0  0.11556006461E+02  0.15973230952E+01 -0.11855332770E+02  0.16632547662E+02  0.51100000000E-03 0.  1.
        -12    1    3    3    0    0 -0.13559538767E+02 -0.97582549759E+01  0.31089476765E+01  0.16992650982E+02  0.00000000000E+00 0.  1.
</event>
<event>
 7    1  0.7819001E-012  0.5930196E+02  0.7816164E-02  0.1266605E+00
        -11   -1    0    0    0    0  0.00000000000E+00  0.00000000000E+00  0.45593999997E+02  0.45594000000E+02  0.51100000000E-03 0.  1.
         11   -1    0    0    0    0 -0.00000000000E+00 -0.00000000000E+00 -0.45593999997E+02  0.45594000000E+02  0.51100000000E-03 0. -1.
    9900012    2    1    2    0    0 -0.19789204430E+02 -0.24778364423E+02  0.33375961220E+01  0.59301960683E+02  0.50000030374E+02 0.  0.
         12    1    1    2    0    0  0.19789204430E+02  0.24778364423E+02 -0.33375961220E+01  0.31886039317E+02  0.00000000000E+00 0. -1.
         11    1    3    3    0    0  0.11007648082E+02 -0.47120138963E+00 -0.67247506012E+01  0.12907851020E+02  0.51100000000E-03 0. -1.
        -11    1    3    3    0    0 -0.29400873877E+02 -0.25375680727E+02  0.28178884833E+01  0.38939402318E+02  0.51100000000E-03 0.  1.
         12    1    3    3    0    0 -0.13959786346E+01  0.10685176935E+01  0.72444582399E+01  0.74547073450E+01  0.00000000000E+00 0. -1.
</event>
<event>
 7    1  0.7819001E-012  0.5930195E+02  0.7816164E-02  0.1266605E+00
        -11   -1    0    0    0    0  0.00000000000E+00  0.00000000000E+00  0.45593999997E+02  0.45594000000E+02  0.51100000000E-03 0. -1.
         11   -1    0    0    0    0 -0.00000000000E+00 -0.00000000000E+00 -0.45593999997E+02  0.45594000000E+02  0.51100000000E-03 0.  1.
    9900012    2    1    2    0    0 -0.32579924408E+01 -0.28754932691E+02 -0.13388786828E+02  0.59301948480E+02  0.50000008120E+02 0.  0.
         12    1    1    2    0    0  0.32579924408E+01  0.28754932691E+02  0.13388786828E+02  0.31886051520E+02  0.00000000000E+00 0. -1.
         11    1    3    3    0    0 -0.22722885980E+02 -0.15615857509E+02 -0.31540744609E+00  0.27573248541E+02  0.51100000000E-03 0. -1.
        -11    1    3    3    0    0  0.16094624024E+02 -0.12294110013E+02 -0.17031188367E+02  0.26462113312E+02  0.51100000000E-03 0.  1.
         12    1    3    3    0    0  0.33702695156E+01 -0.84496516914E+00  0.39578089848E+01  0.52665866275E+01  0.00000000000E+00 0. -1.
</event>
<event>
 7    1  0.7819001E-012  0.5930194E+02  0.7816164E-02  0.1266605E+00
        -11   -1    0    0    0    0  0.00000000000E+00  0.00000000000E+00  0.45593999997E+02  0.45594000000E+02  0.51100000000E-03 0.  1.
         11   -1    0    0    0    0 -0.00000000000E+00 -0.00000000000E+00 -0.45593999997E+02  0.45594000000E+02  0.51100000000E-03 0. -1.
    9900012    2    1    2    0    0 -0.24185689738E+02  0.20707659004E+02  0.17222360161E+01  0.59301939936E+02  0.49999992538E+02 0.  0.
         12    1    1    2    0    0  0.24185689738E+02 -0.20707659004E+02 -0.17222360161E+01  0.31886060064E+02  0.00000000000E+00 0. -1.
         11    1    3    3    0    0 -0.12636808681E+02  0.19402706872E+01 -0.21324038824E+02  0.24862988879E+02  0.51100000000E-03 0. -1.
        -11    1    3    3    0    0 -0.80438107384E+00  0.87562196856E+01  0.15755506332E+02  0.18043125897E+02  0.51100000000E-03 0.  1.
         12    1    3    3    0    0 -0.10744499983E+02  0.10011168631E+02  0.72907685076E+01  0.16395825160E+02  0.00000000000E+00 0. -1.
</event>
<event>
 7    1  0.7819001E-012  0.5930194E+02  0.7816164E-02  0.1266605E+00
        -11   -1    0    0    0    0  0.00000000000E+00  0.00000000000E+00  0.45593999997E+02  0.45594000000E+02  0.51100000000E-03 0.  1.
         11   -1    0    0    0    0 -0.00000000000E+00 -0.00000000000E+00 -0.45593999997E+02  0.45594000000E+02  0.51100000000E-03 0. -1.
    9900012    2    1    2    0    0 -0.82414073190E+01 -0.30262375949E+02 -0.57435974569E+01  0.59301935577E+02  0.49999984588E+02 0.  0.
         12    1    1    2    0    0  0.82414073190E+01  0.30262375949E+02  0.57435974569E+01  0.31886064423E+02  0.00000000000E+00 0. -1.
         11    1    3    3    0    0  0.67490654840E+01 -0.57083417206E+01 -0.13591969259E+02  0.16213472136E+02  0.51100000000E-03 0. -1.
        -11    1    3    3    0    0 -0.13182195667E+02 -0.12957632541E+02  0.19276712623E+02  0.26706968631E+02  0.51100000000E-03 0.  1.
        -12    1    3    3    0    0 -0.18082771362E+01 -0.11596401687E+02 -0.11428340820E+02  0.16381494809E+02  0.00000000000E+00 0.  1.
</event>
<event>
 7    1  0.7819001E-012  0.5930192E+02  0.7816164E-02  0.1266605E+00
        -11   -1    0    0    0    0  0.00000000000E+00  0.00000000000E+00  0.45593999997E+02  0.45594000000E+02  0.51100000000E-03 0.  1.
         11   -1    0    0    0    0 -0.00000000000E+00 -0.00000000000E+00 -0.45593999997E+02  0.45594000000E+02  0.51100000000E-03 0. -1.
    9900012    2    1    2    0    0 -0.21759332137E+02  0.18463715445E+02  0.14224804516E+02  0.59301915471E+02  0.49999947919E+02 0.  0.
         12    1    1    2    0    0  0.21759332137E+02 -0.18463715445E+02 -0.14224804516E+02  0.31886084529E+02  0.00000000000E+00 0. -1.
         11    1    3    3    0    0 -0.74747011947E+01  0.13671939067E+02 -0.11122497103E+00  0.15582215730E+02  0.51100000000E-03 0. -1.
        -11    1    3    3    0    0  0.94432188327E+01 -0.26667712769E+01 -0.60780275669E+01  0.11542463789E+02  0.51100000000E-03 0.  1.
        -12    1    3    3    0    0 -0.23727849775E+02  0.74585476549E+01  0.20414057054E+02  0.32177235952E+02  0.00000000000E+00 0.  1.
</event>
<event>
 7    1  0.7819001E-012  0.5930190E+02  0.7816164E-02  0.1266605E+00
        -11   -1    0    0    0    0  0.00000000000E+00  0.00000000000E+00  0.45593999997E+02  0.45594000000E+02  0.51100000000E-03 0.  1.
         11   -1    0    0    0    0 -0.00000000000E+00 -0.00000000000E+00 -0.45593999997E+02  0.45594000000E+02  0.51100000000E-03 0. -1.
    9900012    2    1    2    0    0  0.12741495379E+02 -0.49462936549E+01  0.28808192261E+02  0.59301898533E+02  0.49999917028E+02 0.  0.
         12    1    1    2    0    0 -0.12741495379E+02  0.49462936549E+01 -0.28808192261E+02  0.31886101467E+02  0.00000000000E+00 0. -1.
         11    1    3    3    0    0  0.84248435965E+01 -0.51034934370E+01 -0.37019902229E+01  0.10522754713E+02  0.51100000000E-03 0. -1.
        -11    1    3    3    0    0 -0.39627992954E+01  0.15575123530E+02  0.25034004810E+02  0.29748775577E+02  0.51100000000E-03 0.  1.
        -12    1    3    3    0    0  0.82794510780E+01 -0.15417923748E+02  0.74761776742E+01  0.19030368243E+02  0.00000000000E+00 0.  1.
</event>
<event>
 7    1  0.7819001E-012  0.5930206E+02  0.7816164E-02  0.1266604E+00
        -11   -1    0    0    0    0  0.00000000000E+00  0.00000000000E+00  0.45593999997E+02  0.45594000000E+02  0.51100000000E-03 0.  1.
         11   -1    0    0    0    0 -0.00000000000E+00 -0.00000000000E+00 -0.45593999997E+02  0.45594000000E+02  0.51100000000E-03 0. -1.
    9900012    2    1    2    0    0  0.25181939270E+02  0.18891240293E+02  0.50699078932E+01  0.59302062798E+02  0.50000216608E+02 0.  0.
         12    1    1    2    0    0 -0.25181939270E+02 -0.18891240293E+02 -0.50699078932E+01  0.31885937202E+02  0.00000000000E+00 0. -1.
         11    1    3    3    0    0  0.12315346740E+02 -0.27858320853E+01 -0.15554512356E+02  0.20034257676E+02  0.51100000000E-03 0. -1.
        -11    1    3    3    0    0  0.10285554011E+02 -0.11635303166E+01  0.76661090963E+01  0.12880825014E+02  0.51100000000E-03 0.  1.
         12    1    3    3    0    0  0.25810385193E+01  0.22840602695E+02  0.12958311153E+02  0.26386980108E+02  0.00000000000E+00 0. -1.
</event>
<event>
 7    1  0.7819001E-012  0.5930194E+02  0.7816164E-02  0.1266605E+00
        -11   -1    0    0    0    0  0.00000000000E+00  0.00000000000E+00  0.45593999997E+02  0.45594000000E+02  0.51100000000E-03 0.  1.
         11   -1    0    0    0    0 -0.00000000000E+00 -0.00000000000E+00 -0.45593999997E+02  0.45594000000E+02  0.51100000000E-03 0. -1.
    9900012    2    1    2    0    0 -0.16382077984E+02 -0.13180396025E+02  0.23971347900E+02  0.59301939745E+02  0.49999992189E+02 0.  0.
         12    1    1    2    0    0  0.16382077984E+02  0.13180396025E+02 -0.23971347900E+02  0.31886060255E+02  0.00000000000E+00 0. -1.
         11    1    3    3    0    0 -0.11236494375E+02  0.13861943617E+01 -0.12568996671E+02  0.16916264902E+02  0.51100000000E-03 0. -1.
        -11    1    3    3    0    0 -0.96325245787E+01 -0.13726290949E+02  0.26556639726E+02  0.31407828750E+02  0.51100000000E-03 0.  1.
         12    1    3    3    0    0  0.44869409698E+01 -0.84029943707E+00  0.99837048448E+01  0.10977846093E+02  0.00000000000E+00 0. -1.
</event>
<event>
 7    1  0.7819001E-012  0.5930192E+02  0.7816164E-02  0.1266605E+00
        -11   -1    0    0    0    0  0.00000000000E+00  0.00000000000E+00  0.45593999997E+02  0.45594000000E+02  0.51100000000E-03 0.  1.
         11   -1    0    0    0    0 -0.00000000000E+00 -0.00000000000E+00 -0.45593999997E+02  0.45594000000E+02  0.51100000000E-03 0. -1.
    9900012    2    1    2    0    0 -0.79156843411E+01 -0.15405077533E+02  0.26772138818E+02  0.59301923269E+02  0.49999962141E+02 0.  0.
         12    1    1    2    0    0  0.79156843411E+01  0.15405077533E+02 -0.26772138818E+02  0.31886076731E+02  0.00000000000E+00 0. -1.
         11    1    3    3    0    0  0.28846600356E+01 -0.70763082806E+01 -0.14042581457E+02  0.15987166623E+02  0.51100000000E-03 0. -1.
        -11    1    3    3    0    0 -0.35316310575E+01 -0.57446132693E+01  0.17346634304E+02  0.18611252550E+02  0.51100000000E-03 0.  1.
         12    1    3    3    0    0 -0.72687133192E+01 -0.25841559836E+01  0.23468085971E+02  0.24703504096E+02  0.00000000000E+00 0. -1.
</event>
<event>
 7    1  0.7819001E-012  0.5930194E+02  0.7816164E-02  0.1266605E+00
        -11   -1    0    0    0    0  0.00000000000E+00  0.00000000000E+00  0.45593999997E+02  0.45594000000E+02  0.51100000000E-03 0.  1.
         11   -1    0    0    0    0 -0.00000000000E+00 -0.00000000000E+00 -0.45593999997E+02  0.45594000000E+02  0.51100000000E-03 0. -1.
    9900012    2    1    2    0    0  0.97120252280E+01 -0.30002515898E+02  0.47165853134E+01  0.59301943937E+02  0.49999999835E+02 0.  0.
         12    1    1    2    0    0 -0.97120252280E+01  0.30002515898E+02 -0.47165853134E+01  0.31886056063E+02  0.00000000000E+00 0. -1.
         11    1    3    3    0    0  0.12027761773E+02 -0.71452497216E+01 -0.15673062086E+02  0.21008724908E+02  0.51100000000E-03 0. -1.
        -11    1    3    3    0    0  0.42789085204E+01 -0.13417637326E+02  0.22541027341E+02  0.26578938342E+02  0.51100000000E-03 0.  1.
        -12    1    3    3    0    0 -0.65946450654E+01 -0.94396288495E+01 -0.21513799420E+01  0.11714280687E+02  0.00000000000E+00 0.  1.
</event>
<event>
 7    1  0.7819001E-012  0.5930193E+02  0.7816164E-02  0.1266605E+00
        -11   -1    0    0    0    0  0.00000000000E+00  0.00000000000E+00  0.45593999997E+02  0.45594000000E+02  0.51100000000E-03 0.  1.
         11   -1    0    0    0    0 -0.00000000000E+00 -0.00000000000E+00 -0.45593999997E+02  0.45594000000E+02  0.51100000000E-03 0. -1.
    9900012    2    1    2    0    0 -0.15447196192E+02 -0.27705983664E+02  0.32378718707E+01  0.59301933839E+02  0.49999981418E+02 0.  0.
         12    1    1    2    0    0  0.15447196192E+02  0.27705983664E+02 -0.32378718707E+01  0.31886066161E+02  0.00000000000E+00 0. -1.
         11    1    3    3    0    0 -0.69510149308E+01  0.36055370795E+01 -0.65302237505E+01  0.10196093796E+02  0.51100000000E-03 0. -1.
        -11    1    3    3    0    0 -0.14293090144E+02 -0.37206040708E+02  0.80506456440E+01  0.40661957486E+02  0.51100000000E-03 0.  1.
        -12    1    3    3    0    0  0.57969088829E+01  0.58945199651E+01  0.17174499772E+01  0.84438825572E+01  0.00000000000E+00 0.  1.
</event>
<event>
 7    1  0.7819001E-012  0.5930195E+02  0.7816164E-02  0.1266605E+00
        -11   -1    0    0    0    0  0.00000000000E+00  0.00000000000E+00  0.45593999997E+02  0.45594000000E+02  0.51100000000E-03 0. -1.
         11   -1    0    0    0    0 -0.00000000000E+00 -0.00000000000E+00 -0.45593999997E+02  0.45594000000E+02  0.51100000000E-03 0.  1.
    9900012    2    1    2    0    0 -0.16858811437E+02  0.20292209344E+02 -0.17908847850E+02  0.59301951101E+02  0.50000012899E+02 0.  0.
         12    1    1    2    0    0  0.16858811437E+02 -0.20292209344E+02  0.17908847850E+02  0.31886048899E+02  0.00000000000E+00 0. -1.
         11    1    3    3    0    0 -0.24693637043E+01  0.13178745665E+02 -0.98661347126E+01  0.16646852820E+02  0.51100000000E-03 0. -1.
        -11    1    3    3    0    0  0.94721817165E+01  0.43164390897E+00  0.86034922402E+01  0.12803461326E+02  0.51100000000E-03 0.  1.
        -12    1    3    3    0    0 -0.23861629449E+02  0.66818197701E+01 -0.16646205377E+02  0.29851636955E+02  0.00000000000E+00 0.  1.
</event>
<event>
 7    1  0.7819001E-012  0.5930199E+02  0.7816164E-02  0.1266605E+00
        -11   -1    0    0    0    0  0.00000000000E+00  0.00000000000E+00  0.45593999997E+02  0.45594000000E+02  0.51100000000E-03 0. -1.
         11   -1    0    0    0    0 -0.00000000000E+00 -0.00000000000E+00 -0.45593999997E+02  0.45594000000E+02  0.51100000000E-03 0.  1.
    9900012    2    1    2    0    0  0.26100456175E+02 -0.14436241981E+02 -0.11272913209E+02  0.59301992610E+02  0.50000088602E+02 0.  0.
         12    1    1    2    0    0 -0.26100456175E+02  0.14436241981E+02  0.11272913209E+02  0.31886007390E+02  0.00000000000E+00 0. -1.
         11    1    3    3    0    0  0.23231087766E+02 -0.16879301769E+02 -0.18793013982E+02  0.34318677740E+02  0.51100000000E-03 0.  1.
        -11    1    3    3    0    0 -0.98444745775E+01  0.45848392478E+01  0.44063936825E+01  0.11719673041E+02  0.51100000000E-03 0. -1.
         12    1    3    3    0    0  0.12713842986E+02 -0.21417794601E+01  0.31137070901E+01  0.13263641829E+02  0.00000000000E+00 0. -1.
</event>
<event>
 7    1  0.7819001E-012  0.5930190E+02  0.7816164E-02  0.1266605E+00
        -11   -1    0    0    0    0  0.00000000000E+00  0.00000000000E+00  0.45593999997E+02  0.45594000000E+02  0.51100000000E-03 0.  1.
         11   -1    0    0    0    0 -0.00000000000E+00 -0.00000000000E+00 -0.45593999997E+02  0.45594000000E+02  0.51100000000E-03 0. -1.
    9900012    2    1    2    0    0 -0.23788908423E+02 -0.18395338544E+02  0.10602959033E+02  0.59301899825E+02  0.49999919385E+02 0.  0.
         12    1    1    2    0    0  0.23788908423E+02  0.18395338544E+02 -0.10602959033E+02  0.31886100175E+02  0.00000000000E+00 0. -1.
         11    1    3    3    0    0 -0.51741380427E+01 -0.21866111476E+02 -0.59326203356E+01  0.23239933732E+02  0.51100000000E-03 0. -1.
        -11    1    3    3    0    0 -0.23844610381E+02  0.20751966580E+00  0.17815891103E+02  0.29765995442E+02  0.51100000000E-03 0.  1.
         12    1    3    3    0    0  0.52298400002E+01  0.32632532662E+01 -0.12803117341E+01  0.62959706514E+01  0.00000000000E+00 0. -1.
</event>
<event>
 7    1  0.7819001E-012  0.5930192E+02  0.7816164E-02  0.1266605E+00
        -11   -1    0    0    0    0  0.00000000000E+00  0.00000000000E+00  0.45593999997E+02  0.45594000000E+02  0.51100000000E-03 0. -1.
         11   -1    0    0    0    0 -0.00000000000E+00 -0.00000000000E+00 -0.45593999997E+02  0.45594000000E+02  0.51100000000E-03 0.  1.
    9900012    2    1    2    0    0 -0.23543445356E+02  0.21400618334E+02  0.21075103893E+01  0.59301923346E+02  0.49999962282E+02 0.  0.
         12    1    1    2    0    0  0.23543445356E+02 -0.21400618334E+02 -0.21075103893E+01  0.31886076654E+02  0.00000000000E+00 0. -1.
         11    1    3    3    0    0 -0.21314335396E+02  0.20729781895E+02 -0.96349630492E+01  0.31254715868E+02  0.51100000000E-03 0.  1.
        -11    1    3    3    0    0 -0.16219792102E+01 -0.11174259535E+02  0.11596588294E+02  0.16185665047E+02  0.51100000000E-03 0. -1.
         12    1    3    3    0    0 -0.60713075043E+00  0.11845095974E+02  0.14588514486E+00  0.11861542431E+02  0.00000000000E+00 0. -1.
</event>
<event>
 7    1  0.7819001E-012  0.5930205E+02  0.7816164E-02  0.1266604E+00
        -11   -1    0    0    0    0  0.00000000000E+00  0.00000000000E+00  0.45593999997E+02  0.45594000000E+02  0.51100000000E-03 0. -1.
         11   -1    0    0    0    0 -0.00000000000E+00 -0.00000000000E+00 -0.45593999997E+02  0.45594000000E+02  0.51100000000E-03 0.  1.
    9900012    2    1    2    0    0 -0.99528837628E+01  0.29450826696E+02 -0.70924511724E+01  0.59302047734E+02  0.50000189135E+02 0.  0.
         12    1    1    2    0    0  0.99528837628E+01 -0.29450826696E+02  0.70924511724E+01  0.31885952266E+02  0.00000000000E+00 0. -1.
         11    1    3    3    0    0 -0.11032480983E+02 -0.66448877855E+01  0.68132691393E+01  0.14570202708E+02  0.51100000000E-03 0. -1.
        -11    1    3    3    0    0  0.60159948586E+01  0.21117717146E+02  0.23499779418E+01  0.22083309720E+02  0.51100000000E-03 0.  1.
        -12    1    3    3    0    0 -0.49363976387E+01  0.14977997335E+02 -0.16255698254E+02  0.22648535307E+02  0.00000000000E+00 0.  1.
</event>
<event>
 7    1  0.7819001E-012  0.5930194E+02  0.7816164E-02  0.1266605E+00
        -11   -1    0    0    0    0  0.00000000000E+00  0.00000000000E+00  0.45593999997E+02  0.45594000000E+02  0.51100000000E-03 0.  1.
         11   -1    0    0    0    0 -0.00000000000E+00 -0.00000000000E+00 -0.45593999997E+02  0.45594000000E+02  0.51100000000E-03 0. -1.
    9900012    2    1    2    0    0  0.50929508586E+01 -0.15549285625E+02  0.27367902886E+02  0.59301944423E+02  0.50000000721E+02 0.  0.
         12    1    1    2    0    0 -0.50929508586E+01  0.15549285625E+02 -0.27367902886E+02  0.31886055577E+02  0.00000000000E+00 0. -1.
         11    1    3    3    0    0  0.20936558888E+02 -0.11029823955E+02  0.17285776681E+02  0.29305197325E+02  0.51100000000E-03 0.  1.
        -11    1    3    3    0    0 -0.11264955412E+02 -0.70206913358E+01 -0.48868274245E+01  0.14144624767E+02  0.51100000000E-03 0. -1.
        -12    1    3    3    0    0 -0.45786526176E+01  0.25012296658E+01  0.14968953629E+02  0.15852122331E+02  0.00000000000E+00 0.  1.
</event>
<event>
 7    1  0.7819001E-012  0.5930194E+02  0.7816164E-02  0.1266605E+00
        -11   -1    0    0    0    0  0.00000000000E+00  0.00000000000E+00  0.45593999997E+02  0.45594000000E+02  0.51100000000E-03 0.  1.
         11   -1    0    0    0    0 -0.00000000000E+00 -0.00000000000E+00 -0.45593999997E+02  0.45594000000E+02  0.51100000000E-03 0. -1.
    9900012    2    1    2    0    0 -0.54458126262E+01 -0.28382451484E+02  0.13472200701E+02  0.59301943187E+02  0.49999998466E+02 0.  0.
         12    1    1    2    0    0  0.54458126262E+01  0.28382451484E+02 -0.13472200701E+02  0.31886056813E+02  0.00000000000E+00 0. -1.
         11    1    3    3    0    0  0.15215838075E+02  0.34364535377E+01  0.62609897669E+00  0.15611628404E+02  0.51100000000E-03 0. -1.
        -11    1    3    3    0    0 -0.11763071580E+02 -0.29576234692E+02  0.13313056106E+02  0.34501608291E+02  0.51100000000E-03 0.  1.
         12    1    3    3    0    0 -0.88985791215E+01 -0.22426703296E+01 -0.46695438135E+00  0.91887064913E+01  0.00000000000E+00 0. -1.
</event>
<event>
 7    1  0.7819001E-012  0.5930195E+02  0.7816164E-02  0.1266605E+00
        -11   -1    0    0    0    0  0.00000000000E+00  0.00000000000E+00  0.45593999997E+02  0.45594000000E+02  0.51100000000E-03 0.  1.
         11   -1    0    0    0    0 -0.00000000000E+00 -0.00000000000E+00 -0.45593999997E+02  0.45594000000E+02  0.51100000000E-03 0. -1.
    9900012    2    1    2    0    0  0.26035169460E+02  0.15640837984E+02  0.97084774309E+01  0.59301946690E+02  0.50000004855E+02 0.  0.
         12    1    1    2    0    0 -0.26035169460E+02 -0.15640837984E+02 -0.97084774309E+01  0.31886053310E+02  0.00000000000E+00 0. -1.
         11    1    3    3    0    0  0.16691299341E+01 -0.15868178877E+02  0.84522710844E+01  0.18056189586E+02  0.51100000000E-03 0. -1.
        -11    1    3    3    0    0  0.14675727402E+02  0.12583922155E+02 -0.29961671363E+01  0.19562951959E+02  0.51100000000E-03 0.  1.
         12    1    3    3    0    0  0.96903121238E+01  0.18925094707E+02  0.42523734828E+01  0.21682805145E+02  0.00000000000E+00 0. -1.
</event>
<event>
 7    1  0.7819001E-012  0.5930195E+02  0.7816164E-02  0.1266605E+00
        -11   -1    0    0    0    0  0.00000000000E+00  0.00000000000E+00  0.45593999997E+02  0.45594000000E+02  0.51100000000E-03 0. -1.
         11   -1    0    0    0    0 -0.00000000000E+00 -0.00000000000E+00 -0.45593999997E+02  0.45594000000E+02  0.51100000000E-03 0.  1.
    9900012    2    1    2    0    0  0.10696300527E+02 -0.13711370709E+02 -0.26726538178E+02  0.59301947020E+02  0.50000005457E+02 0.  0.
         12    1    1    2    0    0 -0.10696300527E+02  0.13711370709E+02  0.26726538178E+02  0.31886052980E+02  0.00000000000E+00 0. -1.
         11    1    3    3    0    0  0.16398557151E+02 -0.78888755636E+01 -0.15265678716E+01  0.18261364791E+02  0.51100000000E-03 0. -1.
        -11    1    3    3    0    0 -0.22318716239E+01 -0.46707069829E+01 -0.32482093914E+02  0.32891992642E+02  0.51100000000E-03 0.  1.
        -12    1    3    3    0    0 -0.34703849999E+01 -0.11517881622E+01  0.72821236082E+01  0.81485895873E+01  0.00000000000E+00 0.  1.
</event>
<event>
 7    1  0.7819001E-012  0.5930190E+02  0.7816164E-02  0.1266605E+00
        -11   -1    0    0    0    0  0.00000000000E+00  0.00000000000E+00  0.45593999997E+02  0.45594000000E+02  0.51100000000E-03 0. -1.
         11   -1    0    0    0    0 -0.00000000000E+00 -0.00000000000E+00 -0.45593999997E+02  0.45594000000E+02  0.51100000000E-03 0.  1.
    9900012    2    1    2    0    0 -0.56788068044E+01 -0.64913598848E+00 -0.31369617353E+02  0.59301904015E+02  0.49999927027E+02 0.  0.
         12    1    1    2    0    0  0.56788068044E+01  0.64913598848E+00  0.31369617353E+02  0.31886095985E+02  0.00000000000E+00 0. -1.
         11    1    3    3    0    0 -0.19475072077E+02  0.76326703033E+01  0.17404055320E+00  0.20918087358E+02  0.51100000000E-03 0. -1.
        -11    1    3    3    0    0 -0.52380199665E-01 -0.68018439613E+01 -0.16685205032E+02  0.18018432012E+02  0.51100000000E-03 0.  1.
         12    1    3    3    0    0  0.13848645472E+02 -0.14799623306E+01 -0.14858452874E+02  0.20365384645E+02  0.00000000000E+00 0. -1.
</event>
<event>
 7    1  0.7819001E-012  0.5930194E+02  0.7816164E-02  0.1266605E+00
        -11   -1    0    0    0    0  0.00000000000E+00  0.00000000000E+00  0.45593999997E+02  0.45594000000E+02  0.51100000000E-03 0. -1.
         11   -1    0    0    0    0 -0.00000000000E+00 -0.00000000000E+00 -0.45593999997E+02  0.45594000000E+02  0.51100000000E-03 0.  1.
    9900012    2    1    2    0    0  0.24124296224E+02 -0.18922067680E+02  0.87575578714E+01  0.59301935122E+02  0.49999983757E+02 0.  0.
         12    1    1    2    0    0 -0.24124296224E+02  0.18922067680E+02 -0.87575578714E+01  0.31886064878E+02  0.00000000000E+00 0. -1.
         11    1    3    3    0    0  0.28925316827E+02  0.13291301490E+01  0.25036026630E+01  0.29063870476E+02  0.51100000000E-03 0. -1.
        -11    1    3    3    0    0 -0.11621885154E+02 -0.19484189844E+02  0.54041163239E+01  0.23321799714E+02  0.51100000000E-03 0.  1.
        -12    1    3    3    0    0  0.68208645504E+01 -0.76700798477E+00  0.84983888453E+00  0.69162649308E+01  0.00000000000E+00 0.  1.
</event>
<event>
 7    1  0.7819001E-012  0.5930196E+02  0.7816164E-02  0.1266605E+00
        -11   -1    0    0    0    0  0.00000000000E+00  0.00000000000E+00  0.45593999997E+02  0.45594000000E+02  0.51100000000E-03 0. -1.
         11   -1    0    0    0    0 -0.00000000000E+00 -0.00000000000E+00 -0.45593999997E+02  0.45594000000E+02  0.51100000000E-03 0.  1.
    9900012    2    1    2    0    0  0.20019524991E+02  0.74314883113E+01 -0.23679341616E+02  0.59301958873E+02  0.50000027074E+02 0.  0.
         12    1    1    2    0    0 -0.20019524991E+02 -0.74314883113E+01  0.23679341616E+02  0.31886041127E+02  0.00000000000E+00 0. -1.
         11    1    3    3    0    0  0.21746673480E+01  0.76701497343E+01  0.13385569450E+02  0.15579917997E+02  0.51100000000E-03 0. -1.
        -11    1    3    3    0    0  0.27356077815E+01 -0.37342696300E-01 -0.22728839623E+02  0.22892904912E+02  0.51100000000E-03 0.  1.
        -12    1    3    3    0    0  0.15109249861E+02 -0.20131872667E+00 -0.14336071443E+02  0.20829135964E+02  0.00000000000E+00 0.  1.
</event>
<event>
 7    1  0.7819001E-012  0.5930194E+02  0.7816164E-02  0.1266605E+00
        -11   -1    0    0    0    0  0.00000000000E+00  0.00000000000E+00  0.45593999997E+02  0.45594000000E+02  0.51100000000E-03 0. -1.
         11   -1    0    0    0    0 -0.00000000000E+00 -0.00000000000E+00 -0.45593999997E+02  0.45594000000E+02  0.51100000000E-03 0.  1.
    9900012    2    1    2    0    0 -0.25384536850E+02  0.18506591514E+02 -0.54636928903E+01  0.59301943791E+02  0.49999999569E+02 0.  0.
         12    1    1    2    0    0  0.25384536850E+02 -0.18506591514E+02  0.54636928903E+01  0.31886056209E+02  0.00000000000E+00 0. -1.
         11    1    3    3    0    0 -0.44970548563E+00 -0.41996702093E+01  0.71708008759E+01  0.83222503179E+01  0.51100000000E-03 0. -1.
        -11    1    3    3    0    0 -0.66274482516E+01  0.24632500450E+02 -0.18665715742E+02  0.31608418074E+02  0.51100000000E-03 0.  1.
        -12    1    3    3    0    0 -0.18307383112E+02 -0.19262387266E+01  0.60312219757E+01  0.19371275399E+02  0.00000000000E+00 0.  1.
</event>
<event>
 7    1  0.7819001E-012  0.5930194E+02  0.7816164E-02  0.1266605E+00
        -11   -1    0    0    0    0  0.00000000000E+00  0.00000000000E+00  0.45593999997E+02  0.45594000000E+02  0.51100000000E-03 0.  1.
         11   -1    0    0    0    0 -0.00000000000E+00 -0.00000000000E+00 -0.45593999997E+02  0.45594000000E+02  0.51100000000E-03 0. -1.
    9900012    2    1    2    0    0  0.76430655748E+01  0.30783770521E+02  0.32655444625E+01  0.59301940985E+02  0.49999994451E+02 0.  0.
         12    1    1    2    0    0 -0.76430655748E+01 -0.30783770521E+02 -0.32655444625E+01  0.31886059015E+02  0.00000000000E+00 0. -1.
         11    1    3    3    0    0 -0.96688150229E+01  0.22533066313E+00 -0.88237383832E+01  0.13091795796E+02  0.51100000000E-03 0. -1.
        -11    1    3    3    0    0  0.42366894334E+01  0.29038003072E+02  0.14651628797E+02  0.32799777231E+02  0.51100000000E-03 0.  1.
        -12    1    3    3    0    0  0.13075191164E+02  0.15204367859E+01 -0.25623459510E+01  0.13410367958E+02  0.00000000000E+00 0.  1.
</event>
<event>
 7    1  0.7819001E-012  0.5930191E+02  0.7816164E-02  0.1266605E+00
        -11   -1    0    0    0    0  0.00000000000E+00  0.00000000000E+00  0.45593999997E+02  0.45594000000E+02  0.51100000000E-03 0. -1.
         11   -1    0    0    0    0 -0.00000000000E+00 -0.00000000000E+00 -0.45593999997E+02  0.45594000000E+02  0.51100000000E-03 0.  1.
    9900012    2    1    2    0    0  0.14790405345E+02 -0.24857198762E+02 -0.13419625393E+02  0.59301909518E+02  0.49999937062E+02 0.  0.
         12    1    1    2    0    0 -0.14790405345E+02  0.24857198762E+02  0.13419625393E+02  0.31886090482E+02  0.00000000000E+00 0. -1.
         11    1    3    3    0    0  0.19841544722E+02 -0.21373350360E+02  0.87693870728E+01  0.30453393119E+02  0.51100000000E-03 0. -1.
        -11    1    3    3    0    0  0.27047243060E+00 -0.71619468103E+01 -0.21105751071E+02  0.22289445170E+02  0.51100000000E-03 0.  1.
        -12    1    3    3    0    0 -0.53216118079E+01  0.36780984080E+01 -0.10832613947E+01  0.65590712287E+01  0.00000000000E+00 0.  1.
</event>
<event>
 7    1  0.7819001E-012  0.5930198E+02  0.7816164E-02  0.1266605E+00
        -11   -1    0    0    0    0  0.00000000000E+00  0.00000000000E+00  0.45593999997E+02  0.45594000000E+02  0.51100000000E-03 0.  1.
         11   -1    0    0    0    0 -0.00000000000E+00 -0.00000000000E+00 -0.45593999997E+02  0.45594000000E+02  0.51100000000E-03 0. -1.
    9900012    2    1    2    0    0  0.20999626459E+02 -0.22308521799E+02  0.88353825370E+01  0.59301977344E+02  0.50000060760E+02 0.  0.
         12    1    1    2    0    0 -0.20999626459E+02  0.22308521799E+02 -0.88353825370E+01  0.31886022656E+02  0.00000000000E+00 0. -1.
         11    1    3    3    0    0 -0.42972510933E+01 -0.11732979545E+02  0.21845900751E+02  0.25166894045E+02  0.51100000000E-03 0. -1.
        -11    1    3    3    0    0  0.98556365507E+00  0.19293018476E+01 -0.53061957414E+01  0.57314269467E+01  0.51100000000E-03 0.  1.
         12    1    3    3    0    0  0.24311313897E+02 -0.12504844101E+02 -0.77043224727E+01  0.28403656352E+02  0.00000000000E+00 0. -1.
</event>
<event>
 7    1  0.7819001E-012  0.5930196E+02  0.7816164E-02  0.1266605E+00
        -11   -1    0    0    0    0  0.00000000000E+00  0.00000000000E+00  0.45593999997E+02  0.45594000000E+02  0.51100000000E-03 0.  1.
         11   -1    0    0    0    0 -0.00000000000E+00 -0.00000000000E+00 -0.45593999997E+02  0.45594000000E+02  0.51100000000E-03 0. -1.
    9900012    2    1    2    0    0  0.20506721364E+02 -0.20827613815E+02  0.12743796844E+02  0.59301961106E+02  0.50000031147E+02 0.  0.
         12    1    1    2    0    0 -0.20506721364E+02  0.20827613815E+02 -0.12743796844E+02  0.31886038894E+02  0.00000000000E+00 0. -1.
         11    1    3    3    0    0  0.33796992652E+00 -0.11323619709E+02  0.20004039372E+02  0.22989131746E+02  0.51100000000E-03 0. -1.
        -11    1    3    3    0    0  0.14734678776E+02 -0.59495694590E+01 -0.17845305119E+02  0.23894833132E+02  0.51100000000E-03 0.  1.
        -12    1    3    3    0    0  0.54340726621E+01 -0.35544246474E+01  0.10585062591E+02  0.12417996229E+02  0.00000000000E+00 0.  1.
</event>
<event>
 7    1  0.7819001E-012  0.5930183E+02  0.7816164E-02  0.1266605E+00
        -11   -1    0    0    0    0  0.00000000000E+00  0.00000000000E+00  0.45593999997E+02  0.45594000000E+02  0.51100000000E-03 0.  1.
         11   -1    0    0    0    0 -0.00000000000E+00 -0.00000000000E+00 -0.45593999997E+02  0.45594000000E+02  0.51100000000E-03 0. -1.
    9900012    2    1    2    0    0 -0.28509982482E+02 -0.13594230248E+02  0.43709763652E+01  0.59301833226E+02  0.49999797924E+02 0.  0.
         12    1    1    2    0    0  0.28509982482E+02  0.13594230248E+02 -0.43709763652E+01  0.31886166774E+02  0.00000000000E+00 0. -1.
         11    1    3    3    0    0 -0.73395004578E+01 -0.61254790459E+01 -0.81079680195E+01  0.12535106947E+02  0.51100000000E-03 0. -1.
        -11    1    3    3    0    0  0.58423929558E+01 -0.14853565464E+02  0.95737174198E+01  0.18612308507E+02  0.51100000000E-03 0.  1.
        -12    1    3    3    0    0 -0.27012874980E+02  0.73848142624E+01  0.29052269649E+01  0.28154417772E+02  0.00000000000E+00 0.  1.
</event>
<event>
 7    1  0.7819001E-012  0.5930195E+02  0.7816164E-02  0.1266605E+00
        -11   -1    0    0    0    0  0.00000000000E+00  0.00000000000E+00  0.45593999997E+02  0.45594000000E+02  0.51100000000E-03 0.  1.
         11   -1    0    0    0    0 -0.00000000000E+00 -0.00000000000E+00 -0.45593999997E+02  0.45594000000E+02  0.51100000000E-03 0. -1.
    9900012    2    1    2    0    0  0.30746530684E+02 -0.75539221001E+01  0.37827854182E+01  0.59301947348E+02  0.50000006056E+02 0.  0.
         12    1    1    2    0    0 -0.30746530684E+02  0.75539221001E+01 -0.37827854182E+01  0.31886052652E+02  0.00000000000E+00 0. -1.
         11    1    3    3    0    0 -0.61820215904E+01  0.13302404934E+02  0.24006286815E+01  0.14863861756E+02  0.51100000000E-03 0. -1.
        -11    1    3    3    0    0  0.32307478780E+02 -0.22273928531E+02  0.29610368036E+01  0.39353129692E+02  0.51100000000E-03 0.  1.
         12    1    3    3    0    0  0.46210734945E+01  0.14176014966E+01 -0.15788800669E+01  0.50849559006E+01  0.00000000000E+00 0. -1.
</event>
<event>
 7    1  0.7819001E-012  0.5930201E+02  0.7816164E-02  0.1266605E+00
        -11   -1    0    0    0    0  0.00000000000E+00  0.00000000000E+00  0.45593999997E+02  0.45594000000E+02  0.51100000000E-03 0.  1.
         11   -1    0    0    0    0 -0.00000000000E+00 -0.00000000000E+00 -0.45593999997E+02  0.45594000000E+02  0.51100000000E-03 0. -1.
    9900012    2    1    2    0    0 -0.29356772271E+01 -0.10991097287E+02  0.29787480930E+02  0.59302008710E+02  0.50000117965E+02 0.  0.
         12    1    1    2    0    0  0.29356772271E+01  0.10991097287E+02 -0.29787480930E+02  0.31885991290E+02  0.00000000000E+00 0. -1.
         11    1    3    3    0    0 -0.10873260624E+02 -0.82942228854E+01 -0.65845495098E+01  0.15178215389E+02  0.51100000000E-03 0. -1.
        -11    1    3    3    0    0  0.27619123060E+01 -0.10800609724E+02  0.31355492583E+02  0.33278344991E+02  0.51100000000E-03 0.  1.
        -12    1    3    3    0    0  0.51756710911E+01  0.81037353222E+01  0.50165378572E+01  0.10845448330E+02  0.00000000000E+00 0.  1.
</event>
<event>
 7    1  0.7819001E-012  0.5930200E+02  0.7816164E-02  0.1266605E+00
        -11   -1    0    0    0    0  0.00000000000E+00  0.00000000000E+00  0.45593999997E+02  0.45594000000E+02  0.51100000000E-03 0. -1.
         11   -1    0    0    0    0 -0.00000000000E+00 -0.00000000000E+00 -0.45593999997E+02  0.45594000000E+02  0.51100000000E-03 0.  1.
    9900012    2    1    2    0    0 -0.17248031234E+01  0.18786297478E+02 -0.25706360866E+02  0.59302001384E+02  0.50000104604E+02 0.  0.
         12    1    1    2    0    0  0.17248031234E+01 -0.18786297478E+02  0.25706360866E+02  0.31885998616E+02  0.00000000000E+00 0. -1.
         11    1    3    3    0    0  0.18700760130E+02  0.62709246067E+01  0.10268238386E+01  0.19750880798E+02  0.51100000000E-03 0. -1.
        -11    1    3    3    0    0 -0.50996947856E+01  0.12831516880E+02 -0.12115193147E+02  0.18369339062E+02  0.51100000000E-03 0.  1.
         12    1    3    3    0    0 -0.15325868468E+02 -0.31614400859E+00 -0.14617991558E+02  0.21181781524E+02  0.00000000000E+00 0. -1.
</event>
<event>
 7    1  0.7819001E-012  0.5930191E+02  0.7816164E-02  0.1266605E+00
        -11   -1    0    0    0    0  0.00000000000E+00  0.00000000000E+00  0.45593999997E+02  0.45594000000E+02  0.51100000000E-03 0. -1.
         11   -1    0    0    0    0 -0.00000000000E+00 -0.00000000000E+00 -0.45593999997E+02  0.45594000000E+02  0.51100000000E-03 0.  1.
    9900012    2    1    2    0    0  0.11124021815E+02  0.16901395230E+02 -0.24643892550E+02  0.59301914287E+02  0.49999945761E+02 0.  0.
         12    1    1    2    0    0 -0.11124021815E+02 -0.16901395230E+02  0.24643892550E+02  0.31886085713E+02  0.00000000000E+00 0. -1.
         11    1    3    3    0    0  0.13885052126E+02  0.20842592909E+02 -0.86971716435E+00  0.25059225047E+02  0.51100000000E-03 0. -1.
        -11    1    3    3    0    0 -0.11308190686E+01  0.27033138367E+01 -0.26657707746E+02  0.26818278096E+02  0.51100000000E-03 0.  1.
        -12    1    3    3    0    0 -0.16302112432E+01 -0.66445115153E+01  0.28835323609E+01  0.74244111451E+01  0.00000000000E+00 0.  1.
</event>
<event>
 7    1  0.7819001E-012  0.5930197E+02  0.7816164E-02  0.1266605E+00
        -11   -1    0    0    0    0  0.00000000000E+00  0.00000000000E+00  0.45593999997E+02  0.45594000000E+02  0.51100000000E-03 0. -1.
         11   -1    0    0    0    0 -0.00000000000E+00 -0.00000000000E+00 -0.45593999997E+02  0.45594000000E+02  0.51100000000E-03 0.  1.
    9900012    2    1    2    0    0  0.24234123736E+02  0.18773564237E+02 -0.87737978442E+01  0.59301968638E+02  0.50000044882E+02 0.  0.
         12    1    1    2    0    0 -0.24234123736E+02 -0.18773564237E+02  0.87737978442E+01  0.31886031362E+02  0.00000000000E+00 0. -1.
         11    1    3    3    0    0  0.17049322490E+02  0.11496491720E+02  0.12005665227E+02  0.23811440885E+02  0.51100000000E-03 0. -1.
        -11    1    3    3    0    0  0.15298117748E+02  0.47482115487E+01 -0.21668036191E+02  0.26945903440E+02  0.51100000000E-03 0.  1.
         12    1    3    3    0    0 -0.81133165014E+01  0.25288609691E+01  0.88857312039E+00  0.85446243126E+01  0.00000000000E+00 0. -1.
</event>
<event>
 7    1  0.7819001E-012  0.5930195E+02  0.7816164E-02  0.1266605E+00
        -11   -1    0    0    0    0  0.00000000000E+00  0.00000000000E+00  0.45593999997E+02  0.45594000000E+02  0.51100000000E-03 0.  1.
         11   -1    0    0    0    0 -0.00000000000E+00 -0.00000000000E+00 -0.45593999997E+02  0.45594000000E+02  0.51100000000E-03 0. -1.
    9900012    2    1    2    0    0  0.30757465606E+01  0.29744342147E+02  0.11069519587E+02  0.59301947085E+02  0.50000005575E+02 0.  0.
         12    1    1    2    0    0 -0.30757465606E+01 -0.29744342147E+02 -0.11069519587E+02  0.31886052915E+02  0.00000000000E+00 0. -1.
         11    1    3    3    0    0 -0.75989270952E+01  0.48389967248E+01  0.77602755766E+01  0.11890393584E+02  0.51100000000E-03 0. -1.
        -11    1    3    3    0    0  0.15544426717E+02  0.33600723900E+02  0.38086746040E+00  0.37024085523E+02  0.51100000000E-03 0.  1.
        -12    1    3    3    0    0 -0.48697530616E+01 -0.86953784779E+01  0.29283765497E+01  0.10387467977E+02  0.00000000000E+00 0.  1.
</event>
<event>
 7    1  0.7819001E-012  0.5930189E+02  0.7816164E-02  0.1266605E+00
        -11   -1    0    0    0    0  0.00000000000E+00  0.00000000000E+00  0.45593999997E+02  0.45594000000E+02  0.51100000000E-03 0.  1.
         11   -1    0    0    0    0 -0.00000000000E+00 -0.00000000000E+00 -0.45593999997E+02  0.45594000000E+02  0.51100000000E-03 0. -1.
    9900012    2    1    2    0    0 -0.54139505881E+01 -0.39830798724E+01  0.31169668041E+02  0.59301890296E+02  0.49999902007E+02 0.  0.
         12    1    1    2    0    0  0.54139505881E+01  0.39830798724E+01 -0.31169668041E+02  0.31886109704E+02  0.00000000000E+00 0. -1.
         11    1    3    3    0    0  0.67266827354E+01  0.15115395154E+02  0.87216339305E+01  0.18702682427E+02  0.51100000000E-03 0. -1.
        -11    1    3    3    0    0 -0.76713219777E+01 -0.13098790331E+02 -0.17412735949E+01  0.15279382285E+02  0.51100000000E-03 0.  1.
         12    1    3    3    0    0 -0.44693113458E+01 -0.59996846949E+01  0.24189307706E+02  0.25319825584E+02  0.00000000000E+00 0. -1.
</event>
<event>
 7    1  0.7819001E-012  0.5930194E+02  0.7816164E-02  0.1266605E+00
        -11   -1    0    0    0    0  0.00000000000E+00  0.00000000000E+00  0.45593999997E+02  0.45594000000E+02  0.51100000000E-03 0.  1.
         11   -1    0    0    0    0 -0.00000000000E+00 -0.00000000000E+00 -0.45593999997E+02  0.45594000000E+02  0.51100000000E-03 0. -1.
    9900012    2    1    2    0    0 -0.55225084788E+01  0.24008605320E+02  0.20243761969E+02  0.59301935208E+02  0.49999983914E+02 0.  0.
         12    1    1    2    0    0  0.55225084788E+01 -0.24008605320E+02 -0.20243761969E+02  0.31886064792E+02  0.00000000000E+00 0. -1.
         11    1    3    3    0    0  0.55936012986E+01 -0.63745644917E+00 -0.12022234626E+02  0.13275121539E+02  0.51100000000E-03 0. -1.
        -11    1    3    3    0    0  0.50237750843E+01  0.75002997563E+01  0.11586672548E+02  0.14688219549E+02  0.51100000000E-03 0.  1.
         12    1    3    3    0    0 -0.16139884862E+02  0.17145762013E+02  0.20679324046E+02  0.31338594119E+02  0.00000000000E+00 0. -1.
</event>
<event>
 7    1  0.7819001E-012  0.5930195E+02  0.7816164E-02  0.1266605E+00
        -11   -1    0    0    0    0  0.00000000000E+00  0.00000000000E+00  0.45593999997E+02  0.45594000000E+02  0.51100000000E-03 0.  1.
         11   -1    0    0    0    0 -0.00000000000E+00 -0.00000000000E+00 -0.45593999997E+02  0.45594000000E+02  0.51100000000E-03 0. -1.
    9900012    2    1    2    0    0 -0.62866213883E+01 -0.26811394981E+02  0.16073200623E+02  0.59301948385E+02  0.50000007947E+02 0.  0.
         12    1    1    2    0    0  0.62866213883E+01  0.26811394981E+02 -0.16073200623E+02  0.31886051615E+02  0.00000000000E+00 0. -1.
         11    1    3    3    0    0  0.30054171627E+01  0.61973481714E+01  0.31707144905E+01  0.75824196218E+01  0.51100000000E-03 0. -1.
        -11    1    3    3    0    0  0.16597301208E+01 -0.36600605446E+02  0.15698049725E+02  0.39859600957E+02  0.51100000000E-03 0.  1.
        -12    1    3    3    0    0 -0.10951768672E+02  0.35918622932E+01 -0.27955635925E+01  0.11859927806E+02  0.00000000000E+00 0.  1.
</event>
<event>
 7    1  0.7819001E-012  0.5930192E+02  0.7816164E-02  0.1266605E+00
        -11   -1    0    0    0    0  0.00000000000E+00  0.00000000000E+00  0.45593999997E+02  0.45594000000E+02  0.51100000000E-03 0.  1.
         11   -1    0    0    0    0 -0.00000000000E+00 -0.00000000000E+00 -0.45593999997E+02  0.45594000000E+02  0.51100000000E-03 0. -1.
    9900012    2    1    2    0    0 -0.25455472448E+02  0.19191677842E+02 -0.64835896677E+00  0.59301922391E+02  0.49999960539E+02 0.  0.
         12    1    1    2    0    0  0.25455472448E+02 -0.19191677842E+02  0.64835896677E+00  0.31886077609E+02  0.00000000000E+00 0. -1.
         11    1    3    3    0    0 -0.17715419511E+02 -0.94676321356E+01 -0.38092497309E+01  0.20444621065E+02  0.51100000000E-03 0. -1.
        -11    1    3    3    0    0  0.84040542488E-01  0.10797553263E+02 -0.10489562001E+02  0.15054073553E+02  0.51100000000E-03 0.  1.
         12    1    3    3    0    0 -0.78240934797E+01  0.17861756715E+02  0.13650452766E+02  0.23803227773E+02  0.00000000000E+00 0. -1.
</event>
<event>
 7    1  0.7819001E-012  0.5930191E+02  0.7816164E-02  0.1266605E+00
        -11   -1    0    0    0    0  0.00000000000E+00  0.00000000000E+00  0.45593999997E+02  0.45594000000E+02  0.51100000000E-03 0.  1.
         11   -1    0    0    0    0 -0.00000000000E+00 -0.00000000000E+00 -0.45593999997E+02  0.45594000000E+02  0.51100000000E-03 0. -1.
    9900012    2    1    2    0    0  0.74161626102E+01 -0.24118831997E+02 -0.19493729090E+02  0.59301905875E+02  0.49999930418E+02 0.  0.
         12    1    1    2    0    0 -0.74161626102E+01  0.24118831997E+02  0.19493729090E+02  0.31886094125E+02  0.00000000000E+00 0. -1.
         11    1    3    3    0    0  0.61011815377E+01 -0.33124267024E+02 -0.20110901156E+02  0.39228686284E+02  0.51100000000E-03 0. -1.
        -11    1    3    3    0    0 -0.71725472377E+01  0.62441739198E+01  0.42761717894E+01  0.10426926069E+02  0.51100000000E-03 0.  1.
        -12    1    3    3    0    0  0.84875283102E+01  0.27612611075E+01 -0.36589997231E+01  0.96462935211E+01  0.00000000000E+00 0.  1.
</event>
<event>
 7    1  0.7819001E-012  0.5930194E+02  0.7816164E-02  0.1266605E+00
        -11   -1    0    0    0    0  0.00000000000E+00  0.00000000000E+00  0.45593999997E+02  0.45594000000E+02  0.51100000000E-03 0.  1.
         11   -1    0    0    0    0 -0.00000000000E+00 -0.00000000000E+00 -0.45593999997E+02  0.45594000000E+02  0.51100000000E-03 0. -1.
    9900012    2    1    2    0    0 -0.28029180104E+02 -0.10389789091E+02 -0.11096772277E+02  0.59301937063E+02  0.49999987298E+02 0.  0.
         12    1    1    2    0    0  0.28029180104E+02  0.10389789091E+02  0.11096772277E+02  0.31886062937E+02  0.00000000000E+00 0. -1.
         11    1    3    3    0    0 -0.26458898490E+00 -0.12424664934E+02 -0.74016808634E+01  0.14464687550E+02  0.51100000000E-03 0. -1.
        -11    1    3    3    0    0 -0.35230256494E+02 -0.33921010689E+00 -0.76630262238E+01  0.36055623796E+02  0.51100000000E-03 0.  1.
        -12    1    3    3    0    0  0.74656653744E+01  0.23740859496E+01  0.39679348107E+01  0.87816257174E+01  0.00000000000E+00 0.  1.
</event>
<event>
 7    1  0.7819001E-012  0.5930204E+02  0.7816164E-02  0.1266604E+00
        -11   -1    0    0    0    0  0.00000000000E+00  0.00000000000E+00  0.45593999997E+02  0.45594000000E+02  0.51100000000E-03 0.  1.
         11   -1    0    0    0    0 -0.00000000000E+00 -0.00000000000E+00 -0.45593999997E+02  0.45594000000E+02  0.51100000000E-03 0. -1.
    9900012    2    1    2    0    0  0.52916755162E+01 -0.16131438175E+02  0.26990544254E+02  0.59302037469E+02  0.50000170415E+02 0.  0.
         12    1    1    2    0    0 -0.52916755162E+01  0.16131438175E+02 -0.26990544254E+02  0.31885962531E+02  0.00000000000E+00 0. -1.
         11    1    3    3    0    0  0.49983303979E+01  0.63701938755E+00 -0.98335898927E+01  0.11049370611E+02  0.51100000000E-03 0. -1.
        -11    1    3    3    0    0  0.26488351630E+01 -0.11180318726E+02  0.39851452331E+02  0.41474740598E+02  0.51100000000E-03 0.  1.
        -12    1    3    3    0    0 -0.23554900447E+01 -0.55881388362E+01 -0.30273181839E+01  0.67779262603E+01  0.00000000000E+00 0.  1.
</event>
<event>
 7    1  0.7819001E-012  0.5930199E+02  0.7816164E-02  0.1266605E+00
        -11   -1    0    0    0    0  0.00000000000E+00  0.00000000000E+00  0.45593999997E+02  0.45594000000E+02  0.51100000000E-03 0.  1.
         11   -1    0    0    0    0 -0.00000000000E+00 -0.00000000000E+00 -0.45593999997E+02  0.45594000000E+02  0.51100000000E-03 0. -1.
    9900012    2    1    2    0    0 -0.17196517079E+02  0.12827895503E+02 -0.23589036586E+02  0.59301988181E+02  0.50000080525E+02 0.  0.
         12    1    1    2    0    0  0.17196517079E+02 -0.12827895503E+02  0.23589036586E+02  0.31886011819E+02  0.00000000000E+00 0. -1.
         11    1    3    3    0    0  0.42242074445E+01 -0.50082627074E+01 -0.24754767891E+02  0.25607130989E+02  0.51100000000E-03 0. -1.
        -11    1    3    3    0    0 -0.93145586930E+01  0.19044253765E+02  0.29288676422E+01  0.21401468899E+02  0.51100000000E-03 0.  1.
         12    1    3    3    0    0 -0.12106165830E+02 -0.12080955545E+01 -0.17631363373E+01  0.12293388293E+02  0.00000000000E+00 0. -1.
</event>
<event>
 7    1  0.7819001E-012  0.5930198E+02  0.7816164E-02  0.1266605E+00
        -11   -1    0    0    0    0  0.00000000000E+00  0.00000000000E+00  0.45593999997E+02  0.45594000000E+02  0.51100000000E-03 0.  1.
         11   -1    0    0    0    0 -0.00000000000E+00 -0.00000000000E+00 -0.45593999997E+02  0.45594000000E+02  0.51100000000E-03 0. -1.
    9900012    2    1    2    0    0 -0.24159299139E+01  0.31733810427E+02  0.19614125805E+01  0.59301975147E+02  0.50000056755E+02 0.  0.
         12    1    1    2    0    0  0.24159299139E+01 -0.31733810427E+02 -0.19614125805E+01  0.31886024853E+02  0.00000000000E+00 0. -1.
         11    1    3    3    0    0 -0.16586947650E+02 -0.31460442008E+01 -0.55861892840E+01  0.17782855154E+02  0.51100000000E-03 0. -1.
        -11    1    3    3    0    0 -0.18994506008E+01  0.13232612835E+02 -0.51746010298E+00  0.13378255501E+02  0.51100000000E-03 0.  1.
         12    1    3    3    0    0  0.16070468337E+02  0.21647241793E+02  0.80650619676E+01  0.28140864492E+02  0.00000000000E+00 0. -1.
</event>
<event>
 7    1  0.7819001E-012  0.5930196E+02  0.7816164E-02  0.1266605E+00
        -11   -1    0    0    0    0  0.00000000000E+00  0.00000000000E+00  0.45593999997E+02  0.45594000000E+02  0.51100000000E-03 0.  1.
         11   -1    0    0    0    0 -0.00000000000E+00 -0.00000000000E+00 -0.45593999997E+02  0.45594000000E+02  0.51100000000E-03 0. -1.
    9900012    2    1    2    0    0 -0.15690637063E+02 -0.73753710108E+01  0.26760560732E+02  0.59301956036E+02  0.50000021899E+02 0.  0.
         12    1    1    2    0    0  0.15690637063E+02  0.73753710108E+01 -0.26760560732E+02  0.31886043964E+02  0.00000000000E+00 0. -1.
         11    1    3    3    0    0  0.62378962339E+01 -0.15267453212E+02 -0.25585852770E+01  0.16689902213E+02  0.51100000000E-03 0. -1.
        -11    1    3    3    0    0 -0.12081216966E+02 -0.29194192884E+01  0.24042852306E+02  0.27065431082E+02  0.51100000000E-03 0.  1.
        -12    1    3    3    0    0 -0.98473163312E+01  0.10811501490E+02  0.52762937029E+01  0.15546622740E+02  0.00000000000E+00 0.  1.
</event>
<event>
 7    1  0.7819001E-012  0.5930196E+02  0.7816164E-02  0.1266605E+00
        -11   -1    0    0    0    0  0.00000000000E+00  0.00000000000E+00  0.45593999997E+02  0.45594000000E+02  0.51100000000E-03 0.  1.
         11   -1    0    0    0    0 -0.00000000000E+00 -0.00000000000E+00 -0.45593999997E+02  0.45594000000E+02  0.51100000000E-03 0. -1.
    9900012    2    1    2    0    0  0.88700270032E+01  0.30489988188E+02 -0.28987966876E+01  0.59301956329E+02  0.50000022435E+02 0.  0.
         12    1    1    2    0    0 -0.88700270032E+01 -0.30489988188E+02  0.28987966876E+01  0.31886043671E+02  0.00000000000E+00 0. -1.
         11    1    3    3    0    0 -0.12601439502E+02  0.15172516145E+02 -0.16047911958E+02  0.25427091894E+02  0.51100000000E-03 0. -1.
        -11    1    3    3    0    0  0.45075118790E+01  0.13361993670E+02  0.68087486717E+01  0.15659489038E+02  0.51100000000E-03 0.  1.
         12    1    3    3    0    0  0.16963954627E+02  0.19554783725E+01  0.63403665991E+01  0.18215375397E+02  0.00000000000E+00 0. -1.
</event>
<event>
 7    1  0.7819001E-012  0.5930199E+02  0.7816164E-02  0.1266605E+00
        -11   -1    0    0    0    0  0.00000000000E+00  0.00000000000E+00  0.45593999997E+02  0.45594000000E+02  0.51100000000E-03 0.  1.
         11   -1    0    0    0    0 -0.00000000000E+00 -0.00000000000E+00 -0.45593999997E+02  0.45594000000E+02  0.51100000000E-03 0. -1.
    9900012    2    1    2    0    0 -0.13505339644E+02 -0.20955230905E+01  0.28808548874E+02  0.59301985760E+02  0.50000076109E+02 0.  0.
         12    1    1    2    0    0  0.13505339644E+02  0.20955230905E+01 -0.28808548874E+02  0.31886014240E+02  0.00000000000E+00 0. -1.
         11    1    3    3    0    0 -0.18385232085E+02  0.21327063432E+01 -0.16431823577E+01  0.18581314369E+02  0.51100000000E-03 0. -1.
        -11    1    3    3    0    0  0.11213110581E+02 -0.12216540455E+02  0.21515105615E+02  0.27163900300E+02  0.51100000000E-03 0.  1.
        -12    1    3    3    0    0 -0.63332181400E+01  0.79883110217E+01  0.89366256163E+01  0.13556771090E+02  0.00000000000E+00 0.  1.
</event>
<event>
 7    1  0.7819001E-012  0.5930194E+02  0.7816164E-02  0.1266605E+00
        -11   -1    0    0    0    0  0.00000000000E+00  0.00000000000E+00  0.45593999997E+02  0.45594000000E+02  0.51100000000E-03 0. -1.
         11   -1    0    0    0    0 -0.00000000000E+00 -0.00000000000E+00 -0.45593999997E+02  0.45594000000E+02  0.51100000000E-03 0.  1.
    9900012    2    1    2    0    0  0.76173991863E+01 -0.30954079841E+02  0.73556304637E+00  0.59301939061E+02  0.49999990942E+02 0.  0.
         12    1    1    2    0    0 -0.76173991863E+01  0.30954079841E+02 -0.73556304637E+00  0.31886060939E+02  0.00000000000E+00 0. -1.
         11    1    3    3    0    0 -0.18597705117E+02 -0.42736736617E+01  0.37783180302E+01  0.19452881781E+02  0.51100000000E-03 0. -1.
        -11    1    3    3    0    0  0.12557651611E+02 -0.13938152014E+02 -0.81954997276E+01  0.20472735812E+02  0.51100000000E-03 0.  1.
        -12    1    3    3    0    0  0.13657452692E+02 -0.12742254165E+02  0.51527447437E+01  0.19376321469E+02  0.00000000000E+00 0.  1.
</event>
<event>
 7    1  0.7819001E-012  0.5930194E+02  0.7816164E-02  0.1266605E+00
        -11   -1    0    0    0    0  0.00000000000E+00  0.00000000000E+00  0.45593999997E+02  0.45594000000E+02  0.51100000000E-03 0.  1.
         11   -1    0    0    0    0 -0.00000000000E+00 -0.00000000000E+00 -0.45593999997E+02  0.45594000000E+02  0.51100000000E-03 0. -1.
    9900012    2    1    2    0    0 -0.18874257273E+02  0.32751509114E+01  0.25490318378E+02  0.59301944551E+02  0.50000000954E+02 0.  0.
         12    1    1    2    0    0  0.18874257273E+02 -0.32751509114E+01 -0.25490318378E+02  0.31886055449E+02  0.00000000000E+00 0. -1.
         11    1    3    3    0    0  0.67320041371E+01 -0.88453985366E+01  0.27296039130E+01  0.11446033931E+02  0.51100000000E-03 0. -1.
        -11    1    3    3    0    0 -0.21580270504E+02  0.22237792673E+02  0.14636870676E+02  0.34270475361E+02  0.51100000000E-03 0.  1.
        -12    1    3    3    0    0 -0.40259909059E+01 -0.10117243225E+02  0.81238437889E+01  0.13585435258E+02  0.00000000000E+00 0.  1.
</event>
<event>
 7    1  0.7819001E-012  0.5930193E+02  0.7816164E-02  0.1266605E+00
        -11   -1    0    0    0    0  0.00000000000E+00  0.00000000000E+00  0.45593999997E+02  0.45594000000E+02  0.51100000000E-03 0. -1.
         11   -1    0    0    0    0 -0.00000000000E+00 -0.00000000000E+00 -0.45593999997E+02  0.45594000000E+02  0.51100000000E-03 0.  1.
    9900012    2    1    2    0    0 -0.17372872895E+02 -0.26680469079E+02  0.17484727084E+01  0.59301932514E+02  0.49999979002E+02 0.  0.
         12    1    1    2    0    0  0.17372872895E+02  0.26680469079E+02 -0.17484727084E+01  0.31886067486E+02  0.00000000000E+00 0. -1.
         11    1    3    3    0    0  0.51013671649E+01  0.59622576811E+01  0.14095252970E+02  0.16132223038E+02  0.51100000000E-03 0. -1.
        -11    1    3    3    0    0 -0.10632820123E+02 -0.18966320490E+02 -0.12496459473E+02  0.25078669748E+02  0.51100000000E-03 0.  1.
        -12    1    3    3    0    0 -0.11841419936E+02 -0.13676406270E+02  0.14967921184E+00  0.18091039728E+02  0.00000000000E+00 0.  1.
</event>
<event>
 7    1  0.7819001E-012  0.5930163E+02  0.7816164E-02  0.1266606E+00
        -11   -1    0    0    0    0  0.00000000000E+00  0.00000000000E+00  0.45593999997E+02  0.45594000000E+02  0.51100000000E-03 0. -1.
         11   -1    0    0    0    0 -0.00000000000E+00 -0.00000000000E+00 -0.45593999997E+02  0.45594000000E+02  0.51100000000E-03 0.  1.
    9900012    2    1    2    0    0 -0.16566048983E+02 -0.53428702183E+01 -0.26716293090E+02  0.59301630537E+02  0.49999428264E+02 0.  0.
         12    1    1    2    0    0  0.16566048983E+02  0.53428702183E+01  0.26716293090E+02  0.31886369463E+02  0.00000000000E+00 0. -1.
         11    1    3    3    0    0 -0.11351369790E+02 -0.17977935882E+01  0.12390068142E+02  0.16899687770E+02  0.51100000000E-03 0. -1.
        -11    1    3    3    0    0 -0.61296346841E+01  0.45960981999E+01 -0.24313891882E+02  0.25492388644E+02  0.51100000000E-03 0.  1.
         12    1    3    3    0    0  0.91495549099E+00 -0.81411748300E+01 -0.14792469350E+02  0.16909554123E+02  0.00000000000E+00 0. -1.
</event>
<event>
 7    1  0.7819001E-012  0.5930197E+02  0.7816164E-02  0.1266605E+00
        -11   -1    0    0    0    0  0.00000000000E+00  0.00000000000E+00  0.45593999997E+02  0.45594000000E+02  0.51100000000E-03 0. -1.
         11   -1    0    0    0    0 -0.00000000000E+00 -0.00000000000E+00 -0.45593999997E+02  0.45594000000E+02  0.51100000000E-03 0.  1.
    9900012    2    1    2    0    0  0.15524269241E+02 -0.27753818274E+02 -0.23326436954E+01  0.59301974991E+02  0.50000056470E+02 0.  0.
         12    1    1    2    0    0 -0.15524269241E+02  0.27753818274E+02  0.23326436954E+01  0.31886025009E+02  0.00000000000E+00 0. -1.
         11    1    3    3    0    0  0.16871539628E+02 -0.17547410143E+02  0.88561346095E+01  0.25903505026E+02  0.51100000000E-03 0. -1.
        -11    1    3    3    0    0  0.12464526485E+01  0.72779832354E+01 -0.13682420667E+02  0.15547711078E+02  0.51100000000E-03 0.  1.
         12    1    3    3    0    0 -0.25937230352E+01 -0.17484391366E+02  0.24936423625E+01  0.17850758888E+02  0.00000000000E+00 0. -1.
</event>
<event>
 7    1  0.7819001E-012  0.5930188E+02  0.7816164E-02  0.1266605E+00
        -11   -1    0    0    0    0  0.00000000000E+00  0.00000000000E+00  0.45593999997E+02  0.45594000000E+02  0.51100000000E-03 0.  1.
         11   -1    0    0    0    0 -0.00000000000E+00 -0.00000000000E+00 -0.45593999997E+02  0.45594000000E+02  0.51100000000E-03 0. -1.
    9900012    2    1    2    0    0 -0.52681753493E+01 -0.29922551414E+02  0.96753124428E+01  0.59301883500E+02  0.49999889611E+02 0.  0.
         12    1    1    2    0    0  0.52681753493E+01  0.29922551414E+02 -0.96753124428E+01  0.31886116500E+02  0.00000000000E+00 0. -1.
         11    1    3    3    0    0  0.19886588622E+01 -0.26311078316E+02 -0.41919388782E+01  0.26717034979E+02  0.51100000000E-03 0. -1.
        -11    1    3    3    0    0 -0.15918446745E+02  0.54024309333E+01  0.96974125560E+01  0.19406777612E+02  0.51100000000E-03 0.  1.
         12    1    3    3    0    0  0.86616125331E+01 -0.90139040305E+01  0.41698387650E+01  0.13178070909E+02  0.00000000000E+00 0. -1.
</event>
<event>
 7    1  0.7819001E-012  0.5930175E+02  0.7816164E-02  0.1266605E+00
        -11   -1    0    0    0    0  0.00000000000E+00  0.00000000000E+00  0.45593999997E+02  0.45594000000E+02  0.51100000000E-03 0.  1.
         11   -1    0    0    0    0 -0.00000000000E+00 -0.00000000000E+00 -0.45593999997E+02  0.45594000000E+02  0.51100000000E-03 0. -1.
    9900012    2    1    2    0    0 -0.30279953036E+02  0.34780239171E+01  0.93680623988E+01  0.59301752191E+02  0.49999650134E+02 0.  0.
         12    1    1    2    0    0  0.30279953036E+02 -0.34780239171E+01 -0.93680623988E+01  0.31886247809E+02  0.00000000000E+00 0. -1.
         11    1    3    3    0    0  0.63984024203E+01  0.13221393807E+02  0.12597833932E+02  0.19350716466E+02  0.51100000000E-03 0. -1.
        -11    1    3    3    0    0 -0.78864623902E+01 -0.49559535623E-01  0.38211563918E+01  0.87635598709E+01  0.51100000000E-03 0.  1.
         12    1    3    3    0    0 -0.28791893066E+02 -0.96938103543E+01 -0.70509279247E+01  0.31187475854E+02  0.00000000000E+00 0. -1.
</event>
<event>
 7    1  0.7819001E-012  0.5930195E+02  0.7816164E-02  0.1266605E+00
        -11   -1    0    0    0    0  0.00000000000E+00  0.00000000000E+00  0.45593999997E+02  0.45594000000E+02  0.51100000000E-03 0. -1.
         11   -1    0    0    0    0 -0.00000000000E+00 -0.00000000000E+00 -0.45593999997E+02  0.45594000000E+02  0.51100000000E-03 0.  1.
    9900012    2    1    2    0    0 -0.31712970241E+02  0.33175632411E+01  0.36433946793E-01  0.59301952349E+02  0.50000015176E+02 0.  0.
         12    1    1    2    0    0  0.31712970241E+02 -0.33175632411E+01 -0.36433946793E-01  0.31886047651E+02  0.00000000000E+00 0. -1.
         11    1    3    3    0    0 -0.40027252934E+02  0.42101566845E+01 -0.86023608533E+01  0.41157101566E+02  0.51100000000E-03 0.  1.
        -11    1    3    3    0    0  0.14902685773E+00  0.28054248599E+01  0.87402275771E+01  0.91806424617E+01  0.51100000000E-03 0. -1.
         12    1    3    3    0    0  0.81652558353E+01 -0.36980183033E+01 -0.10143277701E+00  0.89642083217E+01  0.00000000000E+00 0. -1.
</event>
<event>
 7    1  0.7819001E-012  0.5930198E+02  0.7816164E-02  0.1266605E+00
        -11   -1    0    0    0    0  0.00000000000E+00  0.00000000000E+00  0.45593999997E+02  0.45594000000E+02  0.51100000000E-03 0.  1.
         11   -1    0    0    0    0 -0.00000000000E+00 -0.00000000000E+00 -0.45593999997E+02  0.45594000000E+02  0.51100000000E-03 0. -1.
    9900012    2    1    2    0    0 -0.10108080494E+02 -0.17541019276E+02  0.24634474623E+02  0.59301984437E+02  0.50000073697E+02 0.  0.
         12    1    1    2    0    0  0.10108080494E+02  0.17541019276E+02 -0.24634474623E+02  0.31886015563E+02  0.00000000000E+00 0. -1.
         11    1    3    3    0    0  0.70524751562E+01 -0.21603098177E+02  0.26561895786E+02  0.34956624046E+02  0.51100000000E-03 0. -1.
        -11    1    3    3    0    0 -0.11887797613E+02 -0.23194598159E+01 -0.76102753327E+01  0.14304402009E+02  0.51100000000E-03 0.  1.
         12    1    3    3    0    0 -0.52727580376E+01  0.63815387170E+01  0.56828541702E+01  0.10040958382E+02  0.00000000000E+00 0. -1.
</event>
<event>
 7    1  0.7819001E-012  0.5930192E+02  0.7816164E-02  0.1266605E+00
        -11   -1    0    0    0    0  0.00000000000E+00  0.00000000000E+00  0.45593999997E+02  0.45594000000E+02  0.51100000000E-03 0. -1.
         11   -1    0    0    0    0 -0.00000000000E+00 -0.00000000000E+00 -0.45593999997E+02  0.45594000000E+02  0.51100000000E-03 0.  1.
    9900012    2    1    2    0    0 -0.17137052809E+01  0.17773215802E+02 -0.26417755839E+02  0.59301924523E+02  0.49999964429E+02 0.  0.
         12    1    1    2    0    0  0.17137052809E+01 -0.17773215802E+02  0.26417755839E+02  0.31886075477E+02  0.00000000000E+00 0. -1.
         11    1    3    3    0    0 -0.22524935834E+02  0.20616142018E+02 -0.16261573929E+02  0.34595329641E+02  0.51100000000E-03 0. -1.
        -11    1    3    3    0    0  0.18929685197E+02 -0.43414505118E+01 -0.67994592597E+01  0.20577021667E+02  0.51100000000E-03 0.  1.
         12    1    3    3    0    0  0.18815453569E+01  0.14985242955E+01 -0.33567226508E+01  0.41295732162E+01  0.00000000000E+00 0. -1.
</event>
<event>
 7    1  0.7819001E-012  0.5930194E+02  0.7816164E-02  0.1266605E+00
        -11   -1    0    0    0    0  0.00000000000E+00  0.00000000000E+00  0.45593999997E+02  0.45594000000E+02  0.51100000000E-03 0.  1.
         11   -1    0    0    0    0 -0.00000000000E+00 -0.00000000000E+00 -0.45593999997E+02  0.45594000000E+02  0.51100000000E-03 0. -1.
    9900012    2    1    2    0    0  0.28493808165E+02  0.13390073869E+02  0.50526682320E+01  0.59301942887E+02  0.49999997919E+02 0.  0.
         12    1    1    2    0    0 -0.28493808165E+02 -0.13390073869E+02 -0.50526682320E+01  0.31886057113E+02  0.00000000000E+00 0. -1.
         11    1    3    3    0    0 -0.63889130900E+01 -0.76672003847E+01 -0.90192031699E+01  0.13451773054E+02  0.51100000000E-03 0. -1.
        -11    1    3    3    0    0  0.23812360981E+02  0.53297052793E+01  0.76101480443E+01  0.25560685581E+02  0.51100000000E-03 0.  1.
         12    1    3    3    0    0  0.11070360274E+02  0.15727568974E+02  0.64617233576E+01  0.20289484251E+02  0.00000000000E+00 0. -1.
</event>
<event>
 7    1  0.7819001E-012  0.5930190E+02  0.7816164E-02  0.1266605E+00
        -11   -1    0    0    0    0  0.00000000000E+00  0.00000000000E+00  0.45593999997E+02  0.45594000000E+02  0.51100000000E-03 0. -1.
         11   -1    0    0    0    0 -0.00000000000E+00 -0.00000000000E+00 -0.45593999997E+02  0.45594000000E+02  0.51100000000E-03 0.  1.
    9900012    2    1    2    0    0  0.75644652217E+01 -0.12363700655E+02 -0.28401433941E+02  0.59301895222E+02  0.49999910991E+02 0.  0.
         12    1    1    2    0    0 -0.75644652217E+01  0.12363700655E+02  0.28401433941E+02  0.31886104778E+02  0.00000000000E+00 0. -1.
         11    1    3    3    0    0  0.34438478228E+01  0.10024308197E+02  0.43775033456E+01  0.11467753854E+02  0.51100000000E-03 0. -1.
        -11    1    3    3    0    0 -0.31438097392E+00 -0.23064545212E+02 -0.10922485304E+02  0.25522005539E+02  0.51100000000E-03 0.  1.
         12    1    3    3    0    0  0.44349983729E+01  0.67653636002E+00 -0.21856451983E+02  0.22312135830E+02  0.00000000000E+00 0. -1.
</event>
<event>
 7    1  0.7819001E-012  0.5930189E+02  0.7816164E-02  0.1266605E+00
        -11   -1    0    0    0    0  0.00000000000E+00  0.00000000000E+00  0.45593999997E+02  0.45594000000E+02  0.51100000000E-03 0. -1.
         11   -1    0    0    0    0 -0.00000000000E+00 -0.00000000000E+00 -0.45593999997E+02  0.45594000000E+02  0.51100000000E-03 0.  1.
    9900012    2    1    2    0    0 -0.35230540412E+01  0.21758972416E+02 -0.23040386222E+02  0.59301887229E+02  0.49999896413E+02 0.  0.
         12    1    1    2    0    0  0.35230540412E+01 -0.21758972416E+02  0.23040386222E+02  0.31886112771E+02  0.00000000000E+00 0. -1.
         11    1    3    3    0    0 -0.13018016210E+02  0.26796719710E+02 -0.41408155858E+01  0.30077887014E+02  0.51100000000E-03 0. -1.
        -11    1    3    3    0    0  0.97433914219E+00 -0.76176335237E+01 -0.18813921590E+02  0.20320957731E+02  0.51100000000E-03 0.  1.
         12    1    3    3    0    0  0.85206230263E+01  0.25798862297E+01 -0.85649046599E-01  0.89030424841E+01  0.00000000000E+00 0. -1.
</event>
<event>
 7    1  0.7819001E-012  0.5930214E+02  0.7816164E-02  0.1266604E+00
        -11   -1    0    0    0    0  0.00000000000E+00  0.00000000000E+00  0.45593999997E+02  0.45594000000E+02  0.51100000000E-03 0. -1.
         11   -1    0    0    0    0 -0.00000000000E+00 -0.00000000000E+00 -0.45593999997E+02  0.45594000000E+02  0.51100000000E-03 0.  1.
    9900012    2    1    2    0    0 -0.11772162359E+02  0.26489807155E+02 -0.13282113188E+02  0.59302137609E+02  0.50000353044E+02 0.  0.
         12    1    1    2    0    0  0.11772162359E+02 -0.26489807155E+02  0.13282113188E+02  0.31885862391E+02  0.00000000000E+00 0. -1.
         11    1    3    3    0    0 -0.51200274490E+01  0.26615462038E+02 -0.17610756598E+02  0.32322379998E+02  0.51100000000E-03 0.  1.
        -11    1    3    3    0    0 -0.13529865731E+02 -0.66574444436E+01 -0.25097920685E+01  0.15286526410E+02  0.51100000000E-03 0. -1.
         12    1    3    3    0    0  0.68777308209E+01  0.65317895606E+01  0.68384354785E+01  0.11693231200E+02  0.00000000000E+00 0. -1.
</event>
<event>
 7    1  0.7819001E-012  0.5930192E+02  0.7816164E-02  0.1266605E+00
        -11   -1    0    0    0    0  0.00000000000E+00  0.00000000000E+00  0.45593999997E+02  0.45594000000E+02  0.51100000000E-03 0.  1.
         11   -1    0    0    0    0 -0.00000000000E+00 -0.00000000000E+00 -0.45593999997E+02  0.45594000000E+02  0.51100000000E-03 0. -1.
    9900012    2    1    2    0    0  0.16322906838E+01 -0.14782121886E+02  0.28205432940E+02  0.59301922354E+02  0.49999960472E+02 0.  0.
         12    1    1    2    0    0 -0.16322906838E+01  0.14782121886E+02 -0.28205432940E+02  0.31886077646E+02  0.00000000000E+00 0. -1.
         11    1    3    3    0    0 -0.83049218683E+01 -0.27940596060E+01  0.36335892128E+01  0.94858561632E+01  0.51100000000E-03 0. -1.
        -11    1    3    3    0    0  0.24097059498E+02 -0.14525732289E+02  0.20663641788E+02  0.34909186000E+02  0.51100000000E-03 0.  1.
        -12    1    3    3    0    0 -0.14159846946E+02  0.25376700097E+01  0.39082019389E+01  0.14906880190E+02  0.00000000000E+00 0.  1.
</event>
<event>
 7    1  0.7819001E-012  0.5930194E+02  0.7816164E-02  0.1266605E+00
        -11   -1    0    0    0    0  0.00000000000E+00  0.00000000000E+00  0.45593999997E+02  0.45594000000E+02  0.51100000000E-03 0.  1.
         11   -1    0    0    0    0 -0.00000000000E+00 -0.00000000000E+00 -0.45593999997E+02  0.45594000000E+02  0.51100000000E-03 0. -1.
    9900012    2    1    2    0    0  0.15457294116E+02 -0.23243674708E+02  0.15411838624E+02  0.59301935252E+02  0.49999983996E+02 0.  0.
         12    1    1    2    0    0 -0.15457294116E+02  0.23243674708E+02 -0.15411838624E+02  0.31886064748E+02  0.00000000000E+00 0. -1.
         11    1    3    3    0    0 -0.62573536103E+01 -0.46016162187E+00  0.11495557834E+02  0.13096338156E+02  0.51100000000E-03 0. -1.
        -11    1    3    3    0    0  0.24166013281E+02 -0.14181576192E+02  0.15144131930E+02  0.31850557819E+02  0.51100000000E-03 0.  1.
         12    1    3    3    0    0 -0.24513655545E+01 -0.86019368939E+01 -0.11227851141E+02  0.14355039277E+02  0.00000000000E+00 0. -1.
</event>
<event>
 7    1  0.7819001E-012  0.5930195E+02  0.7816164E-02  0.1266605E+00
        -11   -1    0    0    0    0  0.00000000000E+00  0.00000000000E+00  0.45593999997E+02  0.45594000000E+02  0.51100000000E-03 0.  1.
         11   -1    0    0    0    0 -0.00000000000E+00 -0.00000000000E+00 -0.45593999997E+02  0.45594000000E+02  0.51100000000E-03 0. -1.
    9900012    2    1    2    0    0  0.50578835849E+01  0.21282058314E+02  0.23199390580E+02  0.59301954216E+02  0.50000018582E+02 0.  0.
         12    1    1    2    0    0 -0.50578835849E+01 -0.21282058314E+02 -0.23199390580E+02  0.31886045784E+02  0.00000000000E+00 0. -1.
         11    1    3    3    0    0  0.74662721772E+01  0.42859586601E+01 -0.87817085063E+01  0.12297685409E+02  0.51100000000E-03 0. -1.
        -11    1    3    3    0    0 -0.12553268157E+01 -0.34962518862E+01  0.25075157784E+02  0.25348829575E+02  0.51100000000E-03 0.  1.
         12    1    3    3    0    0 -0.11530617766E+01  0.20492351540E+02  0.69059413026E+01  0.21655439233E+02  0.00000000000E+00 0. -1.
</event>
<event>
 7    1  0.7819001E-012  0.5930192E+02  0.7816164E-02  0.1266605E+00
        -11   -1    0    0    0    0  0.00000000000E+00  0.00000000000E+00  0.45593999997E+02  0.45594000000E+02  0.51100000000E-03 0.  1.
         11   -1    0    0    0    0 -0.00000000000E+00 -0.00000000000E+00 -0.45593999997E+02  0.45594000000E+02  0.51100000000E-03 0. -1.
    9900012    2    1    2    0    0  0.90424401248E+01 -0.21811384057E+02  0.21429415161E+02  0.59301921031E+02  0.49999958060E+02 0.  0.
         12    1    1    2    0    0 -0.90424401248E+01  0.21811384057E+02 -0.21429415161E+02  0.31886078969E+02  0.00000000000E+00 0. -1.
         11    1    3    3    0    0  0.34285876976E+01 -0.36493943883E+01 -0.83806981584E-01  0.50080252469E+01  0.51100000000E-03 0. -1.
        -11    1    3    3    0    0  0.36603662931E+01 -0.20130972811E+02  0.34990698113E+02  0.40533977135E+02  0.51100000000E-03 0.  1.
        -12    1    3    3    0    0  0.19534861341E+01  0.19689831424E+01 -0.13477475971E+02  0.13759918649E+02  0.00000000000E+00 0.  1.
</event>
<event>
 7    1  0.7819001E-012  0.5930194E+02  0.7816164E-02  0.1266605E+00
        -11   -1    0    0    0    0  0.00000000000E+00  0.00000000000E+00  0.45593999997E+02  0.45594000000E+02  0.51100000000E-03 0. -1.
         11   -1    0    0    0    0 -0.00000000000E+00 -0.00000000000E+00 -0.45593999997E+02  0.45594000000E+02  0.51100000000E-03 0.  1.
    9900012    2    1    2    0    0  0.21712832766E+02  0.35521160989E+01 -0.23079342157E+02  0.59301942390E+02  0.49999997013E+02 0.  0.
         12    1    1    2    0    0 -0.21712832766E+02 -0.35521160989E+01  0.23079342157E+02  0.31886057610E+02  0.00000000000E+00 0. -1.
         11    1    3    3    0    0  0.74051919856E+01 -0.21810760317E+02 -0.47262327792E+01  0.23513472957E+02  0.51100000000E-03 0. -1.
        -11    1    3    3    0    0  0.14873332919E+02  0.24040421278E+02 -0.14701204989E+02  0.31863510726E+02  0.51100000000E-03 0.  1.
         12    1    3    3    0    0 -0.56569213844E+00  0.13224551378E+01 -0.36519043885E+01  0.39249587067E+01  0.00000000000E+00 0. -1.
</event>
<event>
 7    1  0.7819001E-012  0.5930196E+02  0.7816164E-02  0.1266605E+00
        -11   -1    0    0    0    0  0.00000000000E+00  0.00000000000E+00  0.45593999997E+02  0.45594000000E+02  0.51100000000E-03 0. -1.
         11   -1    0    0    0    0 -0.00000000000E+00 -0.00000000000E+00 -0.45593999997E+02  0.45594000000E+02  0.51100000000E-03 0.  1.
    9900012    2    1    2    0    0 -0.15566221449E+01  0.24213697734E+01 -0.31755839079E+02  0.59301961995E+02  0.50000032768E+02 0.  0.
         12    1    1    2    0    0  0.15566221449E+01 -0.24213697734E+01  0.31755839079E+02  0.31886038005E+02  0.00000000000E+00 0. -1.
         11    1    3    3    0    0  0.57067077857E+01  0.19584251634E+02 -0.12900514640E+02  0.24135714285E+02  0.51100000000E-03 0. -1.
        -11    1    3    3    0    0 -0.15565957404E+02 -0.12803927980E+02 -0.11181165339E+02  0.23049035994E+02  0.51100000000E-03 0.  1.
        -12    1    3    3    0    0  0.83026274738E+01 -0.43589538800E+01 -0.76741590997E+01  0.12117211717E+02  0.00000000000E+00 0.  1.
</event>
<event>
 7    1  0.7819001E-012  0.5930195E+02  0.7816164E-02  0.1266605E+00
        -11   -1    0    0    0    0  0.00000000000E+00  0.00000000000E+00  0.45593999997E+02  0.45594000000E+02  0.51100000000E-03 0.  1.
         11   -1    0    0    0    0 -0.00000000000E+00 -0.00000000000E+00 -0.45593999997E+02  0.45594000000E+02  0.51100000000E-03 0. -1.
    9900012    2    1    2    0    0 -0.42384848885E+00 -0.81944423017E+01  0.30812204062E+02  0.59301945817E+02  0.50000003263E+02 0.  0.
         12    1    1    2    0    0  0.42384848885E+00  0.81944423017E+01 -0.30812204062E+02  0.31886054183E+02  0.00000000000E+00 0. -1.
         11    1    3    3    0    0  0.20041123821E+02  0.22035959153E+01  0.14719660371E+02  0.24963390809E+02  0.51100000000E-03 0. -1.
        -11    1    3    3    0    0 -0.79511008784E+01 -0.13769544367E+02  0.14050074653E+02  0.21218505020E+02  0.51100000000E-03 0.  1.
         12    1    3    3    0    0 -0.12513871432E+02  0.33715061498E+01  0.20424690387E+01  0.13120049989E+02  0.00000000000E+00 0. -1.
</event>
<event>
 7    1  0.7819001E-012  0.5930193E+02  0.7816164E-02  0.1266605E+00
        -11   -1    0    0    0    0  0.00000000000E+00  0.00000000000E+00  0.45593999997E+02  0.45594000000E+02  0.51100000000E-03 0.  1.
         11   -1    0    0    0    0 -0.00000000000E+00 -0.00000000000E+00 -0.45593999997E+02  0.45594000000E+02  0.51100000000E-03 0. -1.
    9900012    2    1    2    0    0 -0.29001756153E+02 -0.47942211851E+01 -0.12354545499E+02  0.59301933902E+02  0.49999981533E+02 0.  0.
         12    1    1    2    0    0  0.29001756153E+02  0.47942211851E+01  0.12354545499E+02  0.31886066098E+02  0.00000000000E+00 0. -1.
         11    1    3    3    0    0  0.56450675149E+01  0.87199725817E+00 -0.75463446511E+01  0.94643797642E+01  0.51100000000E-03 0. -1.
        -11    1    3    3    0    0 -0.36012418102E+02 -0.15041754505E+02  0.39259347341E+00  0.39029511476E+02  0.51100000000E-03 0.  1.
        -12    1    3    3    0    0  0.13655944348E+01  0.93755360614E+01 -0.52007943217E+01  0.10808042662E+02  0.00000000000E+00 0.  1.
</event>
<event>
 7    1  0.7819001E-012  0.5930195E+02  0.7816164E-02  0.1266605E+00
        -11   -1    0    0    0    0  0.00000000000E+00  0.00000000000E+00  0.45593999997E+02  0.45594000000E+02  0.51100000000E-03 0. -1.
         11   -1    0    0    0    0 -0.00000000000E+00 -0.00000000000E+00 -0.45593999997E+02  0.45594000000E+02  0.51100000000E-03 0.  1.
    9900012    2    1    2    0    0  0.28207068466E+02  0.21021516516E+01 -0.14719460383E+02  0.59301948708E+02  0.50000008536E+02 0.  0.
         12    1    1    2    0    0 -0.28207068466E+02 -0.21021516516E+01  0.14719460383E+02  0.31886051292E+02  0.00000000000E+00 0. -1.
         11    1    3    3    0    0  0.11396665629E+01  0.31959530707E+01 -0.15173521605E+02  0.15548270452E+02  0.51100000000E-03 0. -1.
        -11    1    3    3    0    0  0.86206833595E+01  0.15267553628E+02  0.59055393846E+01  0.18501074862E+02  0.51100000000E-03 0.  1.
        -12    1    3    3    0    0  0.18446718543E+02 -0.16361355047E+02 -0.54514781631E+01  0.25252603394E+02  0.00000000000E+00 0.  1.
</event>
<event>
 7    1  0.7819001E-012  0.5930194E+02  0.7816164E-02  0.1266605E+00
        -11   -1    0    0    0    0  0.00000000000E+00  0.00000000000E+00  0.45593999997E+02  0.45594000000E+02  0.51100000000E-03 0.  1.
         11   -1    0    0    0    0 -0.00000000000E+00 -0.00000000000E+00 -0.45593999997E+02  0.45594000000E+02  0.51100000000E-03 0. -1.
    9900012    2    1    2    0    0 -0.85742617771E+00  0.31634883949E+02  0.39012359962E+01  0.59301941849E+02  0.49999996026E+02 0.  0.
         12    1    1    2    0    0  0.85742617771E+00 -0.31634883949E+02 -0.39012359962E+01  0.31886058151E+02  0.00000000000E+00 0. -1.
         11    1    3    3    0    0 -0.49400631507E+01 -0.32209863800E+01 -0.17023320517E+00  0.58998268448E+01  0.51100000000E-03 0. -1.
        -11    1    3    3    0    0  0.16122030521E+02  0.23807249484E+02 -0.11370725588E+02  0.30919223741E+02  0.51100000000E-03 0.  1.
        -12    1    3    3    0    0 -0.12039393548E+02  0.11048620846E+02  0.15442194790E+02  0.22482891263E+02  0.00000000000E+00 0.  1.
</event>
<event>
 7    1  0.7819001E-012  0.5930194E+02  0.7816164E-02  0.1266605E+00
        -11   -1    0    0    0    0  0.00000000000E+00  0.00000000000E+00  0.45593999997E+02  0.45594000000E+02  0.51100000000E-03 0. -1.
         11   -1    0    0    0    0 -0.00000000000E+00 -0.00000000000E+00 -0.45593999997E+02  0.45594000000E+02  0.51100000000E-03 0.  1.
    9900012    2    1    2    0    0 -0.21763397119E+02 -0.20795161944E+02 -0.10518398632E+02  0.59301938402E+02  0.49999989739E+02 0.  0.
         12    1    1    2    0    0  0.21763397119E+02  0.20795161944E+02  0.10518398632E+02  0.31886061598E+02  0.00000000000E+00 0. -1.
         11    1    3    3    0    0 -0.36170037810E+01 -0.36609602458E+01 -0.18409284409E+02  0.19115101333E+02  0.51100000000E-03 0. -1.
        -11    1    3    3    0    0 -0.13406688068E+01  0.57129654901E+01  0.10160969346E+02  0.11733740488E+02  0.51100000000E-03 0.  1.
        -12    1    3    3    0    0 -0.16805724532E+02 -0.22847167189E+02 -0.22700835695E+01  0.28453096580E+02  0.00000000000E+00 0.  1.
</event>
<event>
 7    1  0.7819001E-012  0.5930195E+02  0.7816164E-02  0.1266605E+00
        -11   -1    0    0    0    0  0.00000000000E+00  0.00000000000E+00  0.45593999997E+02  0.45594000000E+02  0.51100000000E-03 0. -1.
         11   -1    0    0    0    0 -0.00000000000E+00 -0.00000000000E+00 -0.45593999997E+02  0.45594000000E+02  0.51100000000E-03 0.  1.
    9900012    2    1    2    0    0  0.18822740422E+02  0.22401135624E+02 -0.12673354734E+02  0.59301947337E+02  0.50000006035E+02 0.  0.
         12    1    1    2    0    0 -0.18822740422E+02 -0.22401135624E+02  0.12673354734E+02  0.31886052663E+02  0.00000000000E+00 0. -1.
         11    1    3    3    0    0  0.13669868691E+02 -0.51762132261E+01 -0.13432539728E+02  0.19851740911E+02  0.51100000000E-03 0. -1.
        -11    1    3    3    0    0 -0.65647176307E+01  0.26401194715E+02  0.32946323954E+01  0.27403890286E+02  0.51100000000E-03 0.  1.
        -12    1    3    3    0    0  0.11717589362E+02  0.11761541350E+01 -0.25354474022E+01  0.12046316140E+02  0.00000000000E+00 0.  1.
</event>
<event>
 7    1  0.7819001E-012  0.5930200E+02  0.7816164E-02  0.1266605E+00
        -11   -1    0    0    0    0  0.00000000000E+00  0.00000000000E+00  0.45593999997E+02  0.45594000000E+02  0.51100000000E-03 0.  1.
         11   -1    0    0    0    0 -0.00000000000E+00 -0.00000000000E+00 -0.45593999997E+02  0.45594000000E+02  0.51100000000E-03 0. -1.
    9900012    2    1    2    0    0 -0.17321357803E+02  0.20277505220E+02  0.17478854252E+02  0.59301999936E+02  0.50000101964E+02 0.  0.
         12    1    1    2    0    0  0.17321357803E+02 -0.20277505220E+02 -0.17478854252E+02  0.31886000064E+02  0.00000000000E+00 0. -1.
         11    1    3    3    0    0 -0.10746398116E+02 -0.71694130879E+01 -0.92785772572E+01  0.15905268079E+02  0.51100000000E-03 0. -1.
        -11    1    3    3    0    0 -0.12110431492E+02  0.18217640696E+02  0.11467791450E+02  0.24699296031E+02  0.51100000000E-03 0.  1.
         12    1    3    3    0    0  0.55354718044E+01  0.92292776124E+01  0.15289640059E+02  0.18697435826E+02  0.00000000000E+00 0. -1.
</event>
<event>
 7    1  0.7819001E-012  0.5930205E+02  0.7816164E-02  0.1266604E+00
        -11   -1    0    0    0    0  0.00000000000E+00  0.00000000000E+00  0.45593999997E+02  0.45594000000E+02  0.51100000000E-03 0.  1.
         11   -1    0    0    0    0 -0.00000000000E+00 -0.00000000000E+00 -0.45593999997E+02  0.45594000000E+02  0.51100000000E-03 0. -1.
    9900012    2    1    2    0    0  0.34382101591E+01 -0.13035437131E+02  0.28895841371E+02  0.59302053897E+02  0.50000200375E+02 0.  0.
         12    1    1    2    0    0 -0.34382101591E+01  0.13035437131E+02 -0.28895841371E+02  0.31885946103E+02  0.00000000000E+00 0. -1.
         11    1    3    3    0    0 -0.21491854538E+00  0.90304055722E+01  0.72426274567E+01  0.11577999288E+02  0.51100000000E-03 0. -1.
        -11    1    3    3    0    0  0.17436715541E+02 -0.17611522989E+02  0.43568702425E+01  0.25163209442E+02  0.51100000000E-03 0.  1.
        -12    1    3    3    0    0 -0.13783586837E+02 -0.44543197140E+01  0.17296343672E+02  0.22560845167E+02  0.00000000000E+00 0.  1.
</event>
<event>
 7    1  0.7819001E-012  0.5930193E+02  0.7816164E-02  0.1266605E+00
        -11   -1    0    0    0    0  0.00000000000E+00  0.00000000000E+00  0.45593999997E+02  0.45594000000E+02  0.51100000000E-03 0. -1.
         11   -1    0    0    0    0 -0.00000000000E+00 -0.00000000000E+00 -0.45593999997E+02  0.45594000000E+02  0.51100000000E-03 0.  1.
    9900012    2    1    2    0    0  0.14469927508E-01  0.16036440704E+02 -0.27559999314E+02  0.59301934046E+02  0.49999981795E+02 0.  0.
         12    1    1    2    0    0 -0.14469927508E-01 -0.16036440704E+02  0.27559999314E+02  0.31886065954E+02  0.00000000000E+00 0. -1.
         11    1    3    3    0    0  0.36769522430E+01 -0.14858278533E+02  0.11016572883E+01  0.15346076625E+02  0.51100000000E-03 0. -1.
        -11    1    3    3    0    0  0.14259924328E+00  0.10613405390E+02 -0.17573493266E+02  0.20530279451E+02  0.51100000000E-03 0.  1.
         12    1    3    3    0    0 -0.38050815587E+01  0.20281313846E+02 -0.11088163337E+02  0.23425577969E+02  0.00000000000E+00 0. -1.
</event>
<event>
 7    1  0.7819001E-012  0.5930199E+02  0.7816164E-02  0.1266605E+00
        -11   -1    0    0    0    0  0.00000000000E+00  0.00000000000E+00  0.45593999997E+02  0.45594000000E+02  0.51100000000E-03 0. -1.
         11   -1    0    0    0    0 -0.00000000000E+00 -0.00000000000E+00 -0.45593999997E+02  0.45594000000E+02  0.51100000000E-03 0.  1.
    9900012    2    1    2    0    0 -0.10549730735E+02 -0.12463331957E+02 -0.27387698589E+02  0.59301992159E+02  0.50000087780E+02 0.  0.
         12    1    1    2    0    0  0.10549730735E+02  0.12463331957E+02  0.27387698589E+02  0.31886007841E+02  0.00000000000E+00 0. -1.
         11    1    3    3    0    0 -0.39075311326E+01  0.52753659105E+01 -0.13274701581E+02  0.14809320962E+02  0.51100000000E-03 0. -1.
        -11    1    3    3    0    0 -0.10124799788E+02 -0.28801620668E+02 -0.90933770072E+01  0.31854896476E+02  0.51100000000E-03 0.  1.
        -12    1    3    3    0    0  0.34826001851E+01  0.11062922801E+02 -0.50196200008E+01  0.12637774721E+02  0.00000000000E+00 0.  1.
</event>
<event>
 7    1  0.7819001E-012  0.5930188E+02  0.7816164E-02  0.1266605E+00
        -11   -1    0    0    0    0  0.00000000000E+00  0.00000000000E+00  0.45593999997E+02  0.45594000000E+02  0.51100000000E-03 0. -1.
         11   -1    0    0    0    0 -0.00000000000E+00 -0.00000000000E+00 -0.45593999997E+02  0.45594000000E+02  0.51100000000E-03 0.  1.
    9900012    2    1    2    0    0 -0.22836527185E+02  0.80941821224E+01 -0.20729251747E+02  0.59301880197E+02  0.49999883589E+02 0.  0.
         12    1    1    2    0    0  0.22836527185E+02 -0.80941821224E+01  0.20729251747E+02  0.31886119803E+02  0.00000000000E+00 0. -1.
         11    1    3    3    0    0  0.12036827861E+01  0.14079143542E+02  0.80967921083E+01  0.16285858216E+02  0.51100000000E-03 0. -1.
        -11    1    3    3    0    0 -0.37124948794E+01 -0.10211869706E+02 -0.12785623229E+02  0.16779066206E+02  0.51100000000E-03 0.  1.
        -12    1    3    3    0    0 -0.20327715091E+02  0.42269082858E+01 -0.16040420626E+02  0.26236955775E+02  0.00000000000E+00 0.  1.
</event>
<event>
 7    1  0.7819001E-012  0.5930193E+02  0.7816164E-02  0.1266605E+00
        -11   -1    0    0    0    0  0.00000000000E+00  0.00000000000E+00  0.45593999997E+02  0.45594000000E+02  0.51100000000E-03 0.  1.
         11   -1    0    0    0    0 -0.00000000000E+00 -0.00000000000E+00 -0.45593999997E+02  0.45594000000E+02  0.51100000000E-03 0. -1.
    9900012    2    1    2    0    0  0.11218006971E+02  0.40413534523E+01  0.29572710023E+02  0.59301931001E+02  0.49999976242E+02 0.  0.
         12    1    1    2    0    0 -0.11218006971E+02 -0.40413534523E+01 -0.29572710023E+02  0.31886068999E+02  0.00000000000E+00 0. -1.
         11    1    3    3    0    0  0.17767722747E+02  0.13924928959E+02 -0.37383343971E+01  0.22881668699E+02  0.51100000000E-03 0. -1.
        -11    1    3    3    0    0  0.93831572371E+00 -0.58811133189E+01  0.17313679667E+02  0.18309326425E+02  0.51100000000E-03 0.  1.
         12    1    3    3    0    0 -0.74880314993E+01 -0.40024621876E+01  0.15997364753E+02  0.18110935877E+02  0.00000000000E+00 0. -1.
</event>
<event>
 7    1  0.9606854E-012  0.5930194E+02  0.7816164E-02  0.1266605E+00
        -11   -1    0    0    0    0  0.00000000000E+00  0.00000000000E+00  0.45593999997E+02  0.45594000000E+02  0.51100000000E-03 0. -1.
         11   -1    0    0    0    0 -0.00000000000E+00 -0.00000000000E+00 -0.45593999997E+02  0.45594000000E+02  0.51100000000E-03 0.  1.
    9900012    2    1    2    0    0  0.91484368190E+01  0.25922461241E+02 -0.16157123741E+02  0.59301944417E+02  0.50000000710E+02 0.  0.
         12    1    1    2    0    0 -0.91484368190E+01 -0.25922461241E+02  0.16157123741E+02  0.31886055583E+02  0.00000000000E+00 0. -1.
         11    1    3    3    0    0  0.46656224410E+01  0.77388615242E+01  0.13919233358E+02  0.16595272459E+02  0.51100000000E-03 0. -1.
        -11    1    3    3    0    0  0.98835534225E+01  0.20076551291E+02 -0.15993317945E+02  0.27505249665E+02  0.51100000000E-03 0.  1.
         12    1    3    3    0    0 -0.54007390446E+01 -0.18929515743E+01 -0.14083039155E+02  0.15201422293E+02  0.00000000000E+00 0. -1.
</event>
<event>
 7    1  0.7819001E-012  0.5930196E+02  0.7816164E-02  0.1266605E+00
        -11   -1    0    0    0    0  0.00000000000E+00  0.00000000000E+00  0.45593999997E+02  0.45594000000E+02  0.51100000000E-03 0. -1.
         11   -1    0    0    0    0 -0.00000000000E+00 -0.00000000000E+00 -0.45593999997E+02  0.45594000000E+02  0.51100000000E-03 0.  1.
    9900012    2    1    2    0    0 -0.25951725063E+01  0.31647096056E+02 -0.29062184828E+01  0.59301957364E+02  0.50000024322E+02 0.  0.
         12    1    1    2    0    0  0.25951725063E+01 -0.31647096056E+02  0.29062184828E+01  0.31886042636E+02  0.00000000000E+00 0. -1.
         11    1    3    3    0    0  0.48987523625E+01 -0.46277478841E+01  0.12134909587E+01  0.68473634163E+01  0.51100000000E-03 0. -1.
        -11    1    3    3    0    0 -0.88179659782E+01  0.42183114423E+02  0.28902790082E+01  0.43191728137E+02  0.51100000000E-03 0.  1.
        -12    1    3    3    0    0  0.13240411095E+01 -0.59082704830E+01 -0.70099884497E+01  0.92628658106E+01  0.00000000000E+00 0.  1.
</event>
<event>
 7    1  0.7819001E-012  0.5930197E+02  0.7816164E-02  0.1266605E+00
        -11   -1    0    0    0    0  0.00000000000E+00  0.00000000000E+00  0.45593999997E+02  0.45594000000E+02  0.51100000000E-03 0. -1.
         11   -1    0    0    0    0 -0.00000000000E+00 -0.00000000000E+00 -0.45593999997E+02  0.45594000000E+02  0.51100000000E-03 0.  1.
    9900012    2    1    2    0    0 -0.22625363181E+02  0.15741368833E+02 -0.16031887287E+02  0.59301966038E+02  0.50000040142E+02 0.  0.
         12    1    1    2    0    0  0.22625363181E+02 -0.15741368833E+02  0.16031887287E+02  0.31886033962E+02  0.00000000000E+00 0. -1.
         11    1    3    3    0    0 -0.14622460048E+02  0.37033743798E+01 -0.17040531793E+02  0.22757659012E+02  0.51100000000E-03 0.  1.
        -11    1    3    3    0    0  0.16859054160E+01 -0.32626163685E+01  0.13859536349E+02  0.14337841216E+02  0.51100000000E-03 0. -1.
        -12    1    3    3    0    0 -0.96888085484E+01  0.15300610822E+02 -0.12850891844E+02  0.22206465810E+02  0.00000000000E+00 0.  1.
</event>
<event>
 7    1  0.7819001E-012  0.5930195E+02  0.7816164E-02  0.1266605E+00
        -11   -1    0    0    0    0  0.00000000000E+00  0.00000000000E+00  0.45593999997E+02  0.45594000000E+02  0.51100000000E-03 0.  1.
         11   -1    0    0    0    0 -0.00000000000E+00 -0.00000000000E+00 -0.45593999997E+02  0.45594000000E+02  0.51100000000E-03 0. -1.
    9900012    2    1    2    0    0  0.14874079479E+02 -0.11615228590E+02  0.25701531613E+02  0.59301945011E+02  0.50000001793E+02 0.  0.
         12    1    1    2    0    0 -0.14874079479E+02  0.11615228590E+02 -0.25701531613E+02  0.31886054989E+02  0.00000000000E+00 0. -1.
         11    1    3    3    0    0 -0.55995466221E+01  0.13978658927E+02 -0.13947334361E+01  0.15122933227E+02  0.51100000000E-03 0. -1.
        -11    1    3    3    0    0  0.20799806678E+01 -0.10979817240E+02  0.64471339318E+01  0.12901482179E+02  0.51100000000E-03 0.  1.
         12    1    3    3    0    0  0.18393645433E+02 -0.14614070276E+02  0.20649131117E+02  0.31277529606E+02  0.00000000000E+00 0. -1.
</event>
<event>
 7    1  0.7819001E-012  0.5930197E+02  0.7816164E-02  0.1266605E+00
        -11   -1    0    0    0    0  0.00000000000E+00  0.00000000000E+00  0.45593999997E+02  0.45594000000E+02  0.51100000000E-03 0. -1.
         11   -1    0    0    0    0 -0.00000000000E+00 -0.00000000000E+00 -0.45593999997E+02  0.45594000000E+02  0.51100000000E-03 0.  1.
    9900012    2    1    2    0    0 -0.89838055137E+01 -0.30513060937E+02 -0.22279039047E+01  0.59301965360E+02  0.50000038905E+02 0.  0.
         12    1    1    2    0    0  0.89838055137E+01  0.30513060937E+02  0.22279039047E+01  0.31886034640E+02  0.00000000000E+00 0. -1.
         11    1    3    3    0    0  0.11746808637E+02 -0.32921731660E+01  0.15791898831E+02  0.19955199479E+02  0.51100000000E-03 0.  1.
        -11    1    3    3    0    0 -0.20791715665E+01 -0.16766494764E+01 -0.38575307003E+01  0.46919773268E+01  0.51100000000E-03 0. -1.
         12    1    3    3    0    0 -0.18651442585E+02 -0.25544238294E+02 -0.14162272035E+02  0.34654788554E+02  0.00000000000E+00 0. -1.
</event>
<event>
 7    1  0.7819001E-012  0.5930195E+02  0.7816164E-02  0.1266605E+00
        -11   -1    0    0    0    0  0.00000000000E+00  0.00000000000E+00  0.45593999997E+02  0.45594000000E+02  0.51100000000E-03 0. -1.
         11   -1    0    0    0    0 -0.00000000000E+00 -0.00000000000E+00 -0.45593999997E+02  0.45594000000E+02  0.51100000000E-03 0.  1.
    9900012    2    1    2    0    0  0.51468924930E+01 -0.28651394641E+02 -0.13012581957E+02  0.59301949658E+02  0.50000010269E+02 0.  0.
         12    1    1    2    0    0 -0.51468924930E+01  0.28651394641E+02  0.13012581957E+02  0.31886050342E+02  0.00000000000E+00 0. -1.
         11    1    3    3    0    0 -0.95030156567E+01 -0.15026142434E+02 -0.17211079218E+02  0.24744969411E+02  0.51100000000E-03 0. -1.
        -11    1    3    3    0    0  0.44136683445E+01  0.62843117408E+01  0.88235519125E+01  0.11697354869E+02  0.51100000000E-03 0.  1.
        -12    1    3    3    0    0  0.10236239805E+02 -0.19909563947E+02 -0.46250546513E+01  0.22859625379E+02  0.00000000000E+00 0.  1.
</event>
<event>
 7    1  0.7819001E-012  0.5930197E+02  0.7816164E-02  0.1266605E+00
        -11   -1    0    0    0    0  0.00000000000E+00  0.00000000000E+00  0.45593999997E+02  0.45594000000E+02  0.51100000000E-03 0.  1.
         11   -1    0    0    0    0 -0.00000000000E+00 -0.00000000000E+00 -0.45593999997E+02  0.45594000000E+02  0.51100000000E-03 0. -1.
    9900012    2    1    2    0    0  0.22034787108E+02 -0.22529937773E+02  0.48568276576E+01  0.59301973063E+02  0.50000052953E+02 0.  0.
         12    1    1    2    0    0 -0.22034787108E+02  0.22529937773E+02 -0.48568276576E+01  0.31886026937E+02  0.00000000000E+00 0. -1.
         11    1    3    3    0    0  0.78563537047E+01  0.59421816971E+01 -0.10573155459E+02  0.14450724323E+02  0.51100000000E-03 0. -1.
        -11    1    3    3    0    0 -0.45693324090E+01 -0.19573951185E+02  0.21529459851E+01  0.20215180937E+02  0.51100000000E-03 0.  1.
         12    1    3    3    0    0  0.18747765812E+02 -0.88981682847E+01  0.13277037131E+02  0.24636067802E+02  0.00000000000E+00 0. -1.
</event>
<event>
 7    1  0.7819001E-012  0.5930195E+02  0.7816164E-02  0.1266605E+00
        -11   -1    0    0    0    0  0.00000000000E+00  0.00000000000E+00  0.45593999997E+02  0.45594000000E+02  0.51100000000E-03 0. -1.
         11   -1    0    0    0    0 -0.00000000000E+00 -0.00000000000E+00 -0.45593999997E+02  0.45594000000E+02  0.51100000000E-03 0.  1.
    9900012    2    1    2    0    0 -0.17587318914E+02  0.26296634832E+02 -0.39866904066E+01  0.59301945204E+02  0.50000002145E+02 0.  0.
         12    1    1    2    0    0  0.17587318914E+02 -0.26296634832E+02  0.39866904066E+01  0.31886054796E+02  0.00000000000E+00 0. -1.
         11    1    3    3    0    0 -0.13826999363E+02  0.12514218837E+02  0.15977015197E+02  0.24557210741E+02  0.51100000000E-03 0. -1.
        -11    1    3    3    0    0 -0.12114462453E+02  0.10588946577E+02 -0.20166512662E+02  0.25798725228E+02  0.51100000000E-03 0.  1.
         12    1    3    3    0    0  0.83541429020E+01  0.31934694171E+01  0.20280705831E+00  0.89460092358E+01  0.00000000000E+00 0. -1.
</event>
<event>
 7    1  0.7819001E-012  0.5930196E+02  0.7816164E-02  0.1266605E+00
        -11   -1    0    0    0    0  0.00000000000E+00  0.00000000000E+00  0.45593999997E+02  0.45594000000E+02  0.51100000000E-03 0.  1.
         11   -1    0    0    0    0 -0.00000000000E+00 -0.00000000000E+00 -0.45593999997E+02  0.45594000000E+02  0.51100000000E-03 0. -1.
    9900012    2    1    2    0    0 -0.17384186834E+02  0.21011299865E+02  0.16523772954E+02  0.59301956870E+02  0.50000023421E+02 0.  0.
         12    1    1    2    0    0  0.17384186834E+02 -0.21011299865E+02 -0.16523772954E+02  0.31886043130E+02  0.00000000000E+00 0. -1.
         11    1    3    3    0    0 -0.30050421250E+02  0.66191095445E+01 -0.41461700280E+01  0.31048851100E+02  0.51100000000E-03 0. -1.
        -11    1    3    3    0    0  0.34748670476E+01  0.28640883208E+01  0.43831820326E+01  0.62841059746E+01  0.51100000000E-03 0.  1.
         12    1    3    3    0    0  0.91913673683E+01  0.11528101999E+02  0.16286760949E+02  0.21968999796E+02  0.00000000000E+00 0. -1.
</event>
<event>
 7    1  0.7819001E-012  0.5930199E+02  0.7816164E-02  0.1266605E+00
        -11   -1    0    0    0    0  0.00000000000E+00  0.00000000000E+00  0.45593999997E+02  0.45594000000E+02  0.51100000000E-03 0.  1.
         11   -1    0    0    0    0 -0.00000000000E+00 -0.00000000000E+00 -0.45593999997E+02  0.45594000000E+02  0.51100000000E-03 0. -1.
    9900012    2    1    2    0    0  0.82821393447E+01 -0.30241827284E+02  0.57927524212E+01  0.59301985351E+02  0.50000075363E+02 0.  0.
         12    1    1    2    0    0 -0.82821393447E+01  0.30241827284E+02 -0.57927524212E+01  0.31886014649E+02  0.00000000000E+00 0. -1.
         11    1    3    3    0    0  0.79382527118E+01 -0.96930852666E+01 -0.17278556328E+02  0.21342920773E+02  0.51100000000E-03 0. -1.
        -11    1    3    3    0    0  0.85138633839E+01 -0.55949510686E+00  0.59746135169E+01  0.10416089066E+02  0.51100000000E-03 0.  1.
         12    1    3    3    0    0 -0.81699767510E+01 -0.19989246910E+02  0.17096695232E+02  0.27542975511E+02  0.00000000000E+00 0. -1.
</event>
<event>
 7    1  0.8939972E-012  0.5930196E+02  0.7816164E-02  0.1266605E+00
        -11   -1    0    0    0    0  0.00000000000E+00  0.00000000000E+00  0.45593999997E+02  0.45594000000E+02  0.51100000000E-03 0. -1.
         11   -1    0    0    0    0 -0.00000000000E+00 -0.00000000000E+00 -0.45593999997E+02  0.45594000000E+02  0.51100000000E-03 0.  1.
    9900012    2    1    2    0    0 -0.14315899408E+02  0.53547443548E+01 -0.27983946184E+02  0.59301960626E+02  0.50000030271E+02 0.  0.
         12    1    1    2    0    0  0.14315899408E+02 -0.53547443548E+01  0.27983946184E+02  0.31886039374E+02  0.00000000000E+00 0. -1.
         11    1    3    3    0    0  0.54469318110E+01  0.18066993458E+02 -0.18668040514E+02  0.26543945744E+02  0.51100000000E-03 0. -1.
        -11    1    3    3    0    0 -0.15342987755E+02 -0.53086578181E+01 -0.15263084202E+02  0.22283421208E+02  0.51100000000E-03 0.  1.
         12    1    3    3    0    0 -0.44198434632E+01 -0.74035912848E+01  0.59471785324E+01  0.10474593675E+02  0.00000000000E+00 0. -1.
</event>
<event>
 7    1  0.7819001E-012  0.5930195E+02  0.7816164E-02  0.1266605E+00
        -11   -1    0    0    0    0  0.00000000000E+00  0.00000000000E+00  0.45593999997E+02  0.45594000000E+02  0.51100000000E-03 0.  1.
         11   -1    0    0    0    0 -0.00000000000E+00 -0.00000000000E+00 -0.45593999997E+02  0.45594000000E+02  0.51100000000E-03 0. -1.
    9900012    2    1    2    0    0  0.16631395826E+02  0.13298768998E+02  0.23733090350E+02  0.59301950362E+02  0.50000011552E+02 0.  0.
         12    1    1    2    0    0 -0.16631395826E+02 -0.13298768998E+02 -0.23733090350E+02  0.31886049638E+02  0.00000000000E+00 0. -1.
         11    1    3    3    0    0  0.19259396146E+01  0.53715759163E+01  0.20167696671E+01  0.60523079379E+01  0.51100000000E-03 0. -1.
        -11    1    3    3    0    0  0.59964734558E+01 -0.18085967740E+02  0.13848886801E+01  0.19104393210E+02  0.51100000000E-03 0.  1.
        -12    1    3    3    0    0  0.87089827555E+01  0.26013160822E+02  0.20331432002E+02  0.34145249214E+02  0.00000000000E+00 0.  1.
</event>
<event>
 7    1  0.7819001E-012  0.5930195E+02  0.7816164E-02  0.1266605E+00
        -11   -1    0    0    0    0  0.00000000000E+00  0.00000000000E+00  0.45593999997E+02  0.45594000000E+02  0.51100000000E-03 0.  1.
         11   -1    0    0    0    0 -0.00000000000E+00 -0.00000000000E+00 -0.45593999997E+02  0.45594000000E+02  0.51100000000E-03 0. -1.
    9900012    2    1    2    0    0 -0.21432642737E+02  0.23278161098E+02  0.39356671948E+01  0.59301946072E+02  0.50000003729E+02 0.  0.
         12    1    1    2    0    0  0.21432642737E+02 -0.23278161098E+02 -0.39356671948E+01  0.31886053928E+02  0.00000000000E+00 0. -1.
         11    1    3    3    0    0 -0.10118159285E+02  0.99605853490E+01 -0.12037241493E+02  0.18614123424E+02  0.51100000000E-03 0. -1.
        -11    1    3    3    0    0 -0.60875862780E+01  0.19625402621E+02  0.22310077852E+02  0.30330755162E+02  0.51100000000E-03 0.  1.
         12    1    3    3    0    0 -0.52268971746E+01 -0.63078268711E+01 -0.63371691634E+01  0.10357067486E+02  0.00000000000E+00 0. -1.
</event>
<event>
 7    1  0.7819001E-012  0.5930200E+02  0.7816164E-02  0.1266605E+00
        -11   -1    0    0    0    0  0.00000000000E+00  0.00000000000E+00  0.45593999997E+02  0.45594000000E+02  0.51100000000E-03 0.  1.
         11   -1    0    0    0    0 -0.00000000000E+00 -0.00000000000E+00 -0.45593999997E+02  0.45594000000E+02  0.51100000000E-03 0. -1.
    9900012    2    1    2    0    0  0.52759614554E+01  0.21377472083E+02  0.23062634440E+02  0.59301996970E+02  0.50000096553E+02 0.  0.
         12    1    1    2    0    0 -0.52759614554E+01 -0.21377472083E+02 -0.23062634440E+02  0.31886003030E+02  0.00000000000E+00 0. -1.
         11    1    3    3    0    0  0.89481787446E+01 -0.14514143946E+02  0.11459102500E+02  0.20543643973E+02  0.51100000000E-03 0. -1.
        -11    1    3    3    0    0 -0.23552572505E+00  0.31005603217E+02  0.96519948448E+01  0.32474049762E+02  0.51100000000E-03 0.  1.
        -12    1    3    3    0    0 -0.34366915642E+01  0.48860128122E+01  0.19515370951E+01  0.62843032344E+01  0.00000000000E+00 0.  1.
</event>
<event>
 7    1  0.7819001E-012  0.5930198E+02  0.7816164E-02  0.1266605E+00
        -11   -1    0    0    0    0  0.00000000000E+00  0.00000000000E+00  0.45593999997E+02  0.45594000000E+02  0.51100000000E-03 0.  1.
         11   -1    0    0    0    0 -0.00000000000E+00 -0.00000000000E+00 -0.45593999997E+02  0.45594000000E+02  0.51100000000E-03 0. -1.
    9900012    2    1    2    0    0  0.22223856317E+02 -0.16861346080E+02 -0.15443887184E+02  0.59301977473E+02  0.50000060996E+02 0.  0.
         12    1    1    2    0    0 -0.22223856317E+02  0.16861346080E+02  0.15443887184E+02  0.31886022527E+02  0.00000000000E+00 0. -1.
         11    1    3    3    0    0  0.15211688364E+02 -0.13698604044E+01 -0.24626456725E+02  0.28978170258E+02  0.51100000000E-03 0. -1.
        -11    1    3    3    0    0  0.13152842901E+02 -0.17119988747E+02  0.10221257754E+02  0.23886510867E+02  0.51100000000E-03 0.  1.
        -12    1    3    3    0    0 -0.61406749481E+01  0.16285030706E+01 -0.10386882131E+01  0.64372963481E+01  0.00000000000E+00 0.  1.
</event>
<event>
 7    1  0.7819001E-012  0.5930209E+02  0.7816164E-02  0.1266604E+00
        -11   -1    0    0    0    0  0.00000000000E+00  0.00000000000E+00  0.45593999997E+02  0.45594000000E+02  0.51100000000E-03 0.  1.
         11   -1    0    0    0    0 -0.00000000000E+00 -0.00000000000E+00 -0.45593999997E+02  0.45594000000E+02  0.51100000000E-03 0. -1.
    9900012    2    1    2    0    0 -0.26778066483E+00  0.27132400505E+02 -0.16747307026E+02  0.59302091572E+02  0.50000269085E+02 0.  0.
         12    1    1    2    0    0  0.26778066483E+00 -0.27132400505E+02  0.16747307026E+02  0.31885908428E+02  0.00000000000E+00 0. -1.
         11    1    3    3    0    0  0.10135552239E+02  0.20341254915E+02 -0.23557028114E+02  0.32732699927E+02  0.51100000000E-03 0. -1.
        -11    1    3    3    0    0 -0.29888768898E+01  0.48554150753E+00  0.14091880533E+02  0.14413543382E+02  0.51100000000E-03 0.  1.
         12    1    3    3    0    0 -0.74144560136E+01  0.63056040821E+01 -0.72821594448E+01  0.12155848263E+02  0.00000000000E+00 0. -1.
</event>
<event>
 7    1  0.7819001E-012  0.5930195E+02  0.7816164E-02  0.1266605E+00
        -11   -1    0    0    0    0  0.00000000000E+00  0.00000000000E+00  0.45593999997E+02  0.45594000000E+02  0.51100000000E-03 0.  1.
         11   -1    0    0    0    0 -0.00000000000E+00 -0.00000000000E+00 -0.45593999997E+02  0.45594000000E+02  0.51100000000E-03 0. -1.
    9900012    2    1    2    0    0 -0.77730607732E+01 -0.17581880790E+02  0.25439672998E+02  0.59301953394E+02  0.50000017083E+02 0.  0.
         12    1    1    2    0    0  0.77730607732E+01  0.17581880790E+02 -0.25439672998E+02  0.31886046606E+02  0.00000000000E+00 0. -1.
         11    1    3    3    0    0 -0.87205219294E+00 -0.21137626547E+02 -0.16311083583E+01  0.21218394044E+02  0.51100000000E-03 0. -1.
        -11    1    3    3    0    0  0.32509942730E+01 -0.27275131305E+01  0.25720617523E+02  0.26068342059E+02  0.51100000000E-03 0.  1.
        -12    1    3    3    0    0 -0.10152002853E+02  0.62832588881E+01  0.13501638329E+01  0.12015217292E+02  0.00000000000E+00 0.  1.
</event>
<event>
 7    1  0.7819001E-012  0.5930194E+02  0.7816164E-02  0.1266605E+00
        -11   -1    0    0    0    0  0.00000000000E+00  0.00000000000E+00  0.45593999997E+02  0.45594000000E+02  0.51100000000E-03 0. -1.
         11   -1    0    0    0    0 -0.00000000000E+00 -0.00000000000E+00 -0.45593999997E+02  0.45594000000E+02  0.51100000000E-03 0.  1.
    9900012    2    1    2    0    0  0.10825087487E+02  0.68031448210E+01 -0.29210533486E+02  0.59301944033E+02  0.50000000010E+02 0.  0.
         12    1    1    2    0    0 -0.10825087487E+02 -0.68031448210E+01  0.29210533486E+02  0.31886055967E+02  0.00000000000E+00 0. -1.
         11    1    3    3    0    0 -0.21060118554E+01  0.57489800355E+01 -0.14566141429E+01  0.62934714114E+01  0.51100000000E-03 0. -1.
        -11    1    3    3    0    0 -0.68726107268E+01 -0.58306741123E+01 -0.30554378672E+02  0.31855919311E+02  0.51100000000E-03 0.  1.
        -12    1    3    3    0    0  0.19803710069E+02  0.68848388978E+01  0.28004593288E+01  0.21152553311E+02  0.00000000000E+00 0.  1.
</event>
<event>
 7    1  0.7819001E-012  0.5930196E+02  0.7816164E-02  0.1266605E+00
        -11   -1    0    0    0    0  0.00000000000E+00  0.00000000000E+00  0.45593999997E+02  0.45594000000E+02  0.51100000000E-03 0. -1.
         11   -1    0    0    0    0 -0.00000000000E+00 -0.00000000000E+00 -0.45593999997E+02  0.45594000000E+02  0.51100000000E-03 0.  1.
    9900012    2    1    2    0    0 -0.27767107347E+02  0.34551413244E+01 -0.15289506051E+02  0.59301964699E+02  0.50000037699E+02 0.  0.
         12    1    1    2    0    0  0.27767107347E+02 -0.34551413244E+01  0.15289506051E+02  0.31886035301E+02  0.00000000000E+00 0. -1.
         11    1    3    3    0    0 -0.13749116124E+02 -0.22088036646E+02 -0.36244775496E+01  0.26268924508E+02  0.51100000000E-03 0. -1.
        -11    1    3    3    0    0 -0.13380368362E+02  0.26500795957E+02 -0.10788410376E+02  0.31586646586E+02  0.51100000000E-03 0.  1.
         12    1    3    3    0    0 -0.63762286049E+00 -0.95761798639E+00 -0.87661812483E+00  0.14463936037E+01  0.00000000000E+00 0. -1.
</event>
<event>
 7    1  0.7819001E-012  0.5930193E+02  0.7816164E-02  0.1266605E+00
        -11   -1    0    0    0    0  0.00000000000E+00  0.00000000000E+00  0.45593999997E+02  0.45594000000E+02  0.51100000000E-03 0.  1.
         11   -1    0    0    0    0 -0.00000000000E+00 -0.00000000000E+00 -0.45593999997E+02  0.45594000000E+02  0.51100000000E-03 0. -1.
    9900012    2    1    2    0    0  0.20706057986E+02 -0.79679710834E+01  0.22901793352E+02  0.59301928758E+02  0.49999972151E+02 0.  0.
         12    1    1    2    0    0 -0.20706057986E+02  0.79679710834E+01 -0.22901793352E+02  0.31886071242E+02  0.00000000000E+00 0. -1.
         11    1    3    3    0    0  0.22281949532E+01  0.50125722773E+01  0.26158651744E+02  0.26727622321E+02  0.51100000000E-03 0. -1.
        -11    1    3    3    0    0 -0.43973672735E+00 -0.11744476410E+02 -0.63613409105E+01  0.13363859958E+02  0.51100000000E-03 0.  1.
        -12    1    3    3    0    0  0.18917599761E+02 -0.12360669506E+01  0.31044825187E+01  0.19210446479E+02  0.00000000000E+00 0.  1.
</event>
<event>
 7    1  0.7819001E-012  0.5930196E+02  0.7816164E-02  0.1266605E+00
        -11   -1    0    0    0    0  0.00000000000E+00  0.00000000000E+00  0.45593999997E+02  0.45594000000E+02  0.51100000000E-03 0.  1.
         11   -1    0    0    0    0 -0.00000000000E+00 -0.00000000000E+00 -0.45593999997E+02  0.45594000000E+02  0.51100000000E-03 0. -1.
    9900012    2    1    2    0    0 -0.20044494604E+02  0.24156763814E+02 -0.56025753010E+01  0.59301955217E+02  0.50000020407E+02 0.  0.
         12    1    1    2    0    0  0.20044494604E+02 -0.24156763814E+02  0.56025753010E+01  0.31886044783E+02  0.00000000000E+00 0. -1.
         11    1    3    3    0    0  0.16980317773E+00 -0.10055744886E+02 -0.72908120984E+01  0.12421866995E+02  0.51100000000E-03 0. -1.
        -11    1    3    3    0    0 -0.25343196953E+02  0.23224473704E+02  0.37529663261E+01  0.34579452962E+02  0.51100000000E-03 0.  1.
         12    1    3    3    0    0  0.51288991717E+01  0.10988034995E+02 -0.20647295287E+01  0.12300635260E+02  0.00000000000E+00 0. -1.
</event>
<event>
 7    1  0.7819001E-012  0.5930194E+02  0.7816164E-02  0.1266605E+00
        -11   -1    0    0    0    0  0.00000000000E+00  0.00000000000E+00  0.45593999997E+02  0.45594000000E+02  0.51100000000E-03 0.  1.
         11   -1    0    0    0    0 -0.00000000000E+00 -0.00000000000E+00 -0.45593999997E+02  0.45594000000E+02  0.51100000000E-03 0. -1.
    9900012    2    1    2    0    0  0.10073512014E+02 -0.16845721947E+02  0.25128997607E+02  0.59301944852E+02  0.50000001503E+02 0.  0.
         12    1    1    2    0    0 -0.10073512014E+02  0.16845721947E+02 -0.25128997607E+02  0.31886055148E+02  0.00000000000E+00 0. -1.
         11    1    3    3    0    0 -0.16210456195E+01  0.18949217089E+01  0.44380247668E+01  0.50906366277E+01  0.51100000000E-03 0. -1.
        -11    1    3    3    0    0  0.37601279932E+01 -0.30367563977E+02  0.24974752296E+02  0.39497667740E+02  0.51100000000E-03 0.  1.
        -12    1    3    3    0    0  0.79344296400E+01  0.11626920321E+02 -0.42837794562E+01  0.14713640484E+02  0.00000000000E+00 0.  1.
</event>
<event>
 7    1  0.7819001E-012  0.5930193E+02  0.7816164E-02  0.1266605E+00
        -11   -1    0    0    0    0  0.00000000000E+00  0.00000000000E+00  0.45593999997E+02  0.45594000000E+02  0.51100000000E-03 0.  1.
         11   -1    0    0    0    0 -0.00000000000E+00 -0.00000000000E+00 -0.45593999997E+02  0.45594000000E+02  0.51100000000E-03 0. -1.
    9900012    2    1    2    0    0 -0.26890600776E+01 -0.12931692867E+02  0.29021743656E+02  0.59301932049E+02  0.49999978154E+02 0.  0.
         12    1    1    2    0    0  0.26890600776E+01  0.12931692867E+02 -0.29021743656E+02  0.31886067951E+02  0.00000000000E+00 0. -1.
         11    1    3    3    0    0 -0.77606826228E+01  0.20111793972E+01  0.41404844441E+01  0.90231174786E+01  0.51100000000E-03 0. -1.
        -11    1    3    3    0    0  0.43492595691E+01 -0.28875931487E+02  0.20412950567E+02  0.35628977380E+02  0.51100000000E-03 0.  1.
        -12    1    3    3    0    0  0.72236297614E+00  0.13933059222E+02  0.44683086453E+01  0.14649837191E+02  0.00000000000E+00 0.  1.
</event>
<event>
 7    1  0.7819001E-012  0.5930189E+02  0.7816164E-02  0.1266605E+00
        -11   -1    0    0    0    0  0.00000000000E+00  0.00000000000E+00  0.45593999997E+02  0.45594000000E+02  0.51100000000E-03 0.  1.
         11   -1    0    0    0    0 -0.00000000000E+00 -0.00000000000E+00 -0.45593999997E+02  0.45594000000E+02  0.51100000000E-03 0. -1.
    9900012    2    1    2    0    0 -0.62500132894E+01 -0.29832854755E+02  0.93628081644E+01  0.59301889142E+02  0.49999899901E+02 0.  0.
         12    1    1    2    0    0  0.62500132894E+01  0.29832854755E+02 -0.93628081644E+01  0.31886110858E+02  0.00000000000E+00 0. -1.
         11    1    3    3    0    0 -0.70798755486E+01  0.31673466286E+01 -0.12792805542E+02  0.14960367520E+02  0.51100000000E-03 0. -1.
        -11    1    3    3    0    0 -0.77675031852E+01 -0.14343400253E+02  0.36992114828E+01  0.16725770607E+02  0.51100000000E-03 0.  1.
         12    1    3    3    0    0  0.85973654444E+01 -0.18656801131E+02  0.18456402224E+02  0.27615751014E+02  0.00000000000E+00 0. -1.
</event>
<event>
 7    1  0.7819001E-012  0.5930195E+02  0.7816164E-02  0.1266605E+00
        -11   -1    0    0    0    0  0.00000000000E+00  0.00000000000E+00  0.45593999997E+02  0.45594000000E+02  0.51100000000E-03 0.  1.
         11   -1    0    0    0    0 -0.00000000000E+00 -0.00000000000E+00 -0.45593999997E+02  0.45594000000E+02  0.51100000000E-03 0. -1.
    9900012    2    1    2    0    0 -0.10731605200E+02 -0.26358536609E+02  0.14379861681E+02  0.59301949378E+02  0.50000009757E+02 0.  0.
         12    1    1    2    0    0  0.10731605200E+02  0.26358536609E+02 -0.14379861681E+02  0.31886050622E+02  0.00000000000E+00 0. -1.
         11    1    3    3    0    0  0.70139810652E+01 -0.15919829564E+02 -0.14565605101E+01  0.17457332915E+02  0.51100000000E-03 0. -1.
        -11    1    3    3    0    0 -0.15814968950E+02 -0.61741026285E+01  0.25772005783E+02  0.30861449553E+02  0.51100000000E-03 0.  1.
         12    1    3    3    0    0 -0.19306173157E+01 -0.42646044161E+01 -0.99355835922E+01  0.10983166910E+02  0.00000000000E+00 0. -1.
</event>
<event>
 7    1  0.7819001E-012  0.5930193E+02  0.7816164E-02  0.1266605E+00
        -11   -1    0    0    0    0  0.00000000000E+00  0.00000000000E+00  0.45593999997E+02  0.45594000000E+02  0.51100000000E-03 0.  1.
         11   -1    0    0    0    0 -0.00000000000E+00 -0.00000000000E+00 -0.45593999997E+02  0.45594000000E+02  0.51100000000E-03 0. -1.
    9900012    2    1    2    0    0 -0.65690708473E+01 -0.13798746953E+02  0.27985056428E+02  0.59301929490E+02  0.49999973487E+02 0.  0.
         12    1    1    2    0    0  0.65690708473E+01  0.13798746953E+02 -0.27985056428E+02  0.31886070510E+02  0.00000000000E+00 0. -1.
         11    1    3    3    0    0 -0.23019096179E+02 -0.18459224207E+02  0.54952155116E+01  0.30013649245E+02  0.51100000000E-03 0. -1.
        -11    1    3    3    0    0  0.54181408992E+00  0.17130448529E+01  0.56801090337E+01  0.59574931030E+01  0.51100000000E-03 0.  1.
         12    1    3    3    0    0  0.15908211242E+02  0.29474324011E+01  0.16809731883E+02  0.23330787142E+02  0.00000000000E+00 0. -1.
</event>
<event>
 7    1  0.7819001E-012  0.5930202E+02  0.7816164E-02  0.1266604E+00
        -11   -1    0    0    0    0  0.00000000000E+00  0.00000000000E+00  0.45593999997E+02  0.45594000000E+02  0.51100000000E-03 0.  1.
         11   -1    0    0    0    0 -0.00000000000E+00 -0.00000000000E+00 -0.45593999997E+02  0.45594000000E+02  0.51100000000E-03 0. -1.
    9900012    2    1    2    0    0  0.76842059638E+01 -0.11729676179E+02  0.28637093704E+02  0.59302024080E+02  0.50000145996E+02 0.  0.
         12    1    1    2    0    0 -0.76842059638E+01  0.11729676179E+02 -0.28637093704E+02  0.31885975920E+02  0.00000000000E+00 0. -1.
         11    1    3    3    0    0  0.16520528666E+02 -0.23219845086E+02  0.50490828065E+01  0.28941014334E+02  0.51100000000E-03 0. -1.
        -11    1    3    3    0    0 -0.29177722435E+00  0.10472759067E+02  0.13842608193E+02  0.17360346144E+02  0.51100000000E-03 0.  1.
         12    1    3    3    0    0 -0.85445454778E+01  0.10174098401E+01  0.97454027048E+01  0.13000663602E+02  0.00000000000E+00 0. -1.
</event>
<event>
 7    1  0.7819001E-012  0.5930193E+02  0.7816164E-02  0.1266605E+00
        -11   -1    0    0    0    0  0.00000000000E+00  0.00000000000E+00  0.45593999997E+02  0.45594000000E+02  0.51100000000E-03 0.  1.
         11   -1    0    0    0    0 -0.00000000000E+00 -0.00000000000E+00 -0.45593999997E+02  0.45594000000E+02  0.51100000000E-03 0. -1.
    9900012    2    1    2    0    0  0.27287848783E+02  0.62531521945E+01  0.15264094758E+02  0.59301934198E+02  0.49999982072E+02 0.  0.
         12    1    1    2    0    0 -0.27287848783E+02 -0.62531521945E+01 -0.15264094758E+02  0.31886065802E+02  0.00000000000E+00 0. -1.
         11    1    3    3    0    0  0.25918715674E+01  0.57747043295E+01 -0.12944018609E+02  0.14408769077E+02  0.51100000000E-03 0. -1.
        -11    1    3    3    0    0  0.26131259376E+02 -0.27426236016E+01  0.13062970892E+02  0.29342902202E+02  0.51100000000E-03 0.  1.
         12    1    3    3    0    0 -0.14352821605E+01  0.32210714666E+01  0.15145142474E+02  0.15550262919E+02  0.00000000000E+00 0. -1.
</event>
<event>
 7    1  0.7819001E-012  0.5930195E+02  0.7816164E-02  0.1266605E+00
        -11   -1    0    0    0    0  0.00000000000E+00  0.00000000000E+00  0.45593999997E+02  0.45594000000E+02  0.51100000000E-03 0.  1.
         11   -1    0    0    0    0 -0.00000000000E+00 -0.00000000000E+00 -0.45593999997E+02  0.45594000000E+02  0.51100000000E-03 0. -1.
    9900012    2    1    2    0    0  0.24157927960E+02 -0.12917425016E+02  0.16317319533E+02  0.59301948675E+02  0.50000008476E+02 0.  0.
         12    1    1    2    0    0 -0.24157927960E+02  0.12917425016E+02 -0.16317319533E+02  0.31886051325E+02  0.00000000000E+00 0. -1.
         11    1    3    3    0    0  0.19307611502E+02 -0.47800475880E+01 -0.10197217171E+01  0.19916640015E+02  0.51100000000E-03 0. -1.
        -11    1    3    3    0    0 -0.13505033865E+02  0.30071858426E+01  0.57297720160E+01  0.14975292785E+02  0.51100000000E-03 0.  1.
        -12    1    3    3    0    0  0.18355350322E+02 -0.11144563270E+02  0.11607269234E+02  0.24410015875E+02  0.00000000000E+00 0.  1.
</event>
<event>
 7    1  0.7819001E-012  0.5930193E+02  0.7816164E-02  0.1266605E+00
        -11   -1    0    0    0    0  0.00000000000E+00  0.00000000000E+00  0.45593999997E+02  0.45594000000E+02  0.51100000000E-03 0. -1.
         11   -1    0    0    0    0 -0.00000000000E+00 -0.00000000000E+00 -0.45593999997E+02  0.45594000000E+02  0.51100000000E-03 0.  1.
    9900012    2    1    2    0    0 -0.31860393696E+02  0.34433634178E+00  0.12321206809E+01  0.59301931328E+02  0.49999976839E+02 0.  0.
         12    1    1    2    0    0  0.31860393696E+02 -0.34433634178E+00 -0.12321206809E+01  0.31886068672E+02  0.00000000000E+00 0. -1.
         11    1    3    3    0    0 -0.35680822935E+02  0.91465183978E+01  0.87822912110E+01  0.37866985136E+02  0.51100000000E-03 0. -1.
        -11    1    3    3    0    0  0.91602970933E+01 -0.65545462938E+01  0.77703619968E+00  0.11290567101E+02  0.51100000000E-03 0.  1.
         12    1    3    3    0    0 -0.53398678538E+01 -0.22476357622E+01 -0.83272067298E+01  0.10144379091E+02  0.00000000000E+00 0. -1.
</event>
<event>
 7    1  0.7819001E-012  0.5930198E+02  0.7816164E-02  0.1266605E+00
        -11   -1    0    0    0    0  0.00000000000E+00  0.00000000000E+00  0.45593999997E+02  0.45594000000E+02  0.51100000000E-03 0.  1.
         11   -1    0    0    0    0 -0.00000000000E+00 -0.00000000000E+00 -0.45593999997E+02  0.45594000000E+02  0.51100000000E-03 0. -1.
    9900012    2    1    2    0    0  0.22018237194E+01  0.27726884599E+02  0.15591339462E+02  0.59301983889E+02  0.50000072697E+02 0.  0.
         12    1    1    2    0    0 -0.22018237194E+01 -0.27726884599E+02 -0.15591339462E+02  0.31886016111E+02  0.00000000000E+00 0. -1.
         11    1    3    3    0    0 -0.98136056514E+01  0.13765759983E+02 -0.10823532904E+02  0.20073661066E+02  0.51100000000E-03 0. -1.
        -11    1    3    3    0    0 -0.41513684224E+01 -0.27005537197E+01  0.87563313085E+01  0.10059830437E+02  0.51100000000E-03 0.  1.
         12    1    3    3    0    0  0.16166797793E+02  0.16661678335E+02  0.17658541057E+02  0.29168492386E+02  0.00000000000E+00 0. -1.
</event>
<event>
 7    1  0.7819001E-012  0.5930195E+02  0.7816164E-02  0.1266605E+00
        -11   -1    0    0    0    0  0.00000000000E+00  0.00000000000E+00  0.45593999997E+02  0.45594000000E+02  0.51100000000E-03 0.  1.
         11   -1    0    0    0    0 -0.00000000000E+00 -0.00000000000E+00 -0.45593999997E+02  0.45594000000E+02  0.51100000000E-03 0. -1.
    9900012    2    1    2    0    0  0.18287871429E+02 -0.21924687362E+02 -0.14197960024E+02  0.59301949348E+02  0.50000009703E+02 0.  0.
         12    1    1    2    0    0 -0.18287871429E+02  0.21924687362E+02  0.14197960024E+02  0.31886050652E+02  0.00000000000E+00 0. -1.
         11    1    3    3    0    0 -0.76644791731E+01  0.22824398622E+01  0.75890861220E+01  0.11024881004E+02  0.51100000000E-03 0. -1.
        -11    1    3    3    0    0  0.67448463554E+01 -0.15709178814E+02 -0.21241338338E+02  0.27266567551E+02  0.51100000000E-03 0.  1.
         12    1    3    3    0    0  0.19207504247E+02 -0.84979484102E+01 -0.54570780797E+00  0.21010500794E+02  0.00000000000E+00 0. -1.
</event>
<event>
 7    1  0.7819001E-012  0.5930189E+02  0.7816164E-02  0.1266605E+00
        -11   -1    0    0    0    0  0.00000000000E+00  0.00000000000E+00  0.45593999997E+02  0.45594000000E+02  0.51100000000E-03 0. -1.
         11   -1    0    0    0    0 -0.00000000000E+00 -0.00000000000E+00 -0.45593999997E+02  0.45594000000E+02  0.51100000000E-03 0.  1.
    9900012    2    1    2    0    0  0.13064854546E+02 -0.25439026743E+02 -0.14102821085E+02  0.59301889097E+02  0.49999899820E+02 0.  0.
         12    1    1    2    0    0 -0.13064854546E+02  0.25439026743E+02  0.14102821085E+02  0.31886110903E+02  0.00000000000E+00 0. -1.
         11    1    3    3    0    0  0.83465565979E+01 -0.56599973124E+01 -0.19808508094E+01  0.10277370617E+02  0.51100000000E-03 0. -1.
        -11    1    3    3    0    0 -0.10246095422E+02  0.97349142622E+01 -0.60844006508E+01  0.15387363602E+02  0.51100000000E-03 0.  1.
        -12    1    3    3    0    0  0.14964393370E+02 -0.29513943693E+02 -0.60375696250E+01  0.33637154877E+02  0.00000000000E+00 0.  1.
</event>
<event>
 7    1  0.7819001E-012  0.5930194E+02  0.7816164E-02  0.1266605E+00
        -11   -1    0    0    0    0  0.00000000000E+00  0.00000000000E+00  0.45593999997E+02  0.45594000000E+02  0.51100000000E-03 0. -1.
         11   -1    0    0    0    0 -0.00000000000E+00 -0.00000000000E+00 -0.45593999997E+02  0.45594000000E+02  0.51100000000E-03 0.  1.
    9900012    2    1    2    0    0  0.22901198829E+02 -0.66991904561E+01 -0.21151285274E+02  0.59301938322E+02  0.49999989594E+02 0.  0.
         12    1    1    2    0    0 -0.22901198829E+02  0.66991904561E+01  0.21151285274E+02  0.31886061678E+02  0.00000000000E+00 0. -1.
         11    1    3    3    0    0  0.25986712591E+02 -0.16530777187E+02 -0.15784279100E+02  0.34608081320E+02  0.51100000000E-03 0. -1.
        -11    1    3    3    0    0  0.53528872768E+01  0.98141256355E+01 -0.10059261178E+02  0.15038590356E+02  0.51100000000E-03 0.  1.
         12    1    3    3    0    0 -0.84384010390E+01  0.17461095742E-01  0.46922550033E+01  0.96552666458E+01  0.00000000000E+00 0. -1.
</event>
<event>
 7    1  0.7819001E-012  0.5930193E+02  0.7816164E-02  0.1266605E+00
        -11   -1    0    0    0    0  0.00000000000E+00  0.00000000000E+00  0.45593999997E+02  0.45594000000E+02  0.51100000000E-03 0.  1.
         11   -1    0    0    0    0 -0.00000000000E+00 -0.00000000000E+00 -0.45593999997E+02  0.45594000000E+02  0.51100000000E-03 0. -1.
    9900012    2    1    2    0    0 -0.20820201929E+02  0.53557507055E+01  0.23549020748E+02  0.59301933260E+02  0.49999980362E+02 0.  0.
         12    1    1    2    0    0  0.20820201929E+02 -0.53557507055E+01 -0.23549020748E+02  0.31886066740E+02  0.00000000000E+00 0. -1.
         11    1    3    3    0    0  0.30693826671E+01  0.13643459589E+02 -0.23983306839E+01  0.14188625369E+02  0.51100000000E-03 0. -1.
        -11    1    3    3    0    0 -0.19962868550E+02 -0.13228265298E+02  0.67143847994E+01  0.24871390935E+02  0.51100000000E-03 0.  1.
        -12    1    3    3    0    0 -0.39267160462E+01  0.49405564143E+01  0.19232966632E+02  0.20241916956E+02  0.00000000000E+00 0.  1.
</event>
<event>
 7    1  0.7819001E-012  0.5930193E+02  0.7816164E-02  0.1266605E+00
        -11   -1    0    0    0    0  0.00000000000E+00  0.00000000000E+00  0.45593999997E+02  0.45594000000E+02  0.51100000000E-03 0.  1.
         11   -1    0    0    0    0 -0.00000000000E+00 -0.00000000000E+00 -0.45593999997E+02  0.45594000000E+02  0.51100000000E-03 0. -1.
    9900012    2    1    2    0    0  0.17916320485E+02 -0.17642550635E+02  0.19607833482E+02  0.59301933035E+02  0.49999979953E+02 0.  0.
         12    1    1    2    0    0 -0.17916320485E+02  0.17642550635E+02 -0.19607833482E+02  0.31886066965E+02  0.00000000000E+00 0. -1.
         11    1    3    3    0    0 -0.11620025580E+01 -0.22434766149E+02  0.26595556602E+02  0.34813684283E+02  0.51100000000E-03 0. -1.
        -11    1    3    3    0    0  0.12686637491E+02  0.90476812938E+01 -0.61950909389E+01  0.16768734586E+02  0.51100000000E-03 0.  1.
        -12    1    3    3    0    0  0.63916855517E+01 -0.42554657789E+01 -0.79263218108E+00  0.77195141662E+01  0.00000000000E+00 0.  1.
</event>
<event>
 7    1  0.7819001E-012  0.5930192E+02  0.7816164E-02  0.1266605E+00
        -11   -1    0    0    0    0  0.00000000000E+00  0.00000000000E+00  0.45593999997E+02  0.45594000000E+02  0.51100000000E-03 0.  1.
         11   -1    0    0    0    0 -0.00000000000E+00 -0.00000000000E+00 -0.45593999997E+02  0.45594000000E+02  0.51100000000E-03 0. -1.
    9900012    2    1    2    0    0  0.30499330216E+02 -0.65954276402E+01 -0.65584606912E+01  0.59301918146E+02  0.49999952798E+02 0.  0.
         12    1    1    2    0    0 -0.30499330216E+02  0.65954276402E+01  0.65584606912E+01  0.31886081854E+02  0.00000000000E+00 0. -1.
         11    1    3    3    0    0 -0.44550357974E+01  0.10450331482E+02  0.75857295645E+01  0.13660163445E+02  0.51100000000E-03 0. -1.
        -11    1    3    3    0    0  0.23131468275E+02 -0.78132640867E+01  0.85269004907E+00  0.24430288595E+02  0.51100000000E-03 0.  1.
         12    1    3    3    0    0  0.11822897738E+02 -0.92324950358E+01 -0.14996880305E+02  0.21211466107E+02  0.00000000000E+00 0. -1.
</event>
<event>
 7    1  0.7819001E-012  0.5930192E+02  0.7816164E-02  0.1266605E+00
        -11   -1    0    0    0    0  0.00000000000E+00  0.00000000000E+00  0.45593999997E+02  0.45594000000E+02  0.51100000000E-03 0.  1.
         11   -1    0    0    0    0 -0.00000000000E+00 -0.00000000000E+00 -0.45593999997E+02  0.45594000000E+02  0.51100000000E-03 0. -1.
    9900012    2    1    2    0    0 -0.28990062762E+02 -0.72735157035E+01  0.11108303254E+02  0.59301918855E+02  0.49999954091E+02 0.  0.
         12    1    1    2    0    0  0.28990062762E+02  0.72735157035E+01 -0.11108303254E+02  0.31886081145E+02  0.00000000000E+00 0. -1.
         11    1    3    3    0    0 -0.62368729154E+01 -0.55381442868E+01 -0.13019371357E+02  0.15462006878E+02  0.51100000000E-03 0. -1.
        -11    1    3    3    0    0 -0.97824935886E+00  0.10725782648E+02  0.11488769335E+02  0.15747736546E+02  0.51100000000E-03 0.  1.
         12    1    3    3    0    0 -0.21774940487E+02 -0.12461154065E+02  0.12638905276E+02  0.28092175431E+02  0.00000000000E+00 0. -1.
</event>
<event>
 7    1  0.7819001E-012  0.5930190E+02  0.7816164E-02  0.1266605E+00
        -11   -1    0    0    0    0  0.00000000000E+00  0.00000000000E+00  0.45593999997E+02  0.45594000000E+02  0.51100000000E-03 0.  1.
         11   -1    0    0    0    0 -0.00000000000E+00 -0.00000000000E+00 -0.45593999997E+02  0.45594000000E+02  0.51100000000E-03 0. -1.
    9900012    2    1    2    0    0 -0.18299877383E+02 -0.19707341610E+02  0.17130636045E+02  0.59301897747E+02  0.49999915595E+02 0.  0.
         12    1    1    2    0    0  0.18299877383E+02  0.19707341610E+02 -0.17130636045E+02  0.31886102253E+02  0.00000000000E+00 0. -1.
         11    1    3    3    0    0  0.97919439259E+01 -0.57434729285E+01 -0.72988251349E+01  0.13496017773E+02  0.51100000000E-03 0.  1.
        -11    1    3    3    0    0 -0.12563040003E+02  0.55539484314E+01  0.73713833257E+01  0.15588893793E+02  0.51100000000E-03 0. -1.
        -12    1    3    3    0    0 -0.15528781306E+02 -0.19517817113E+02  0.17058077855E+02  0.30216986180E+02  0.00000000000E+00 0.  1.
</event>
<event>
 7    1  0.7819001E-012  0.5930192E+02  0.7816164E-02  0.1266605E+00
        -11   -1    0    0    0    0  0.00000000000E+00  0.00000000000E+00  0.45593999997E+02  0.45594000000E+02  0.51100000000E-03 0.  1.
         11   -1    0    0    0    0 -0.00000000000E+00 -0.00000000000E+00 -0.45593999997E+02  0.45594000000E+02  0.51100000000E-03 0. -1.
    9900012    2    1    2    0    0 -0.25377858731E+02  0.36100128100E+01  0.18964545726E+02  0.59301923088E+02  0.49999961811E+02 0.  0.
         12    1    1    2    0    0  0.25377858731E+02 -0.36100128100E+01 -0.18964545726E+02  0.31886076912E+02  0.00000000000E+00 0. -1.
         11    1    3    3    0    0  0.36708110586E+01 -0.12428515479E+02 -0.79167634985E+01  0.15186111925E+02  0.51100000000E-03 0. -1.
        -11    1    3    3    0    0 -0.25068236932E+02  0.11663693933E+02  0.26322173892E+02  0.38174796630E+02  0.51100000000E-03 0.  1.
         12    1    3    3    0    0 -0.39804328573E+01  0.43748343556E+01  0.55913533182E+00  0.59410145337E+01  0.00000000000E+00 0. -1.
</event>
<event>
 7    1  0.7819001E-012  0.5930187E+02  0.7816164E-02  0.1266605E+00
        -11   -1    0    0    0    0  0.00000000000E+00  0.00000000000E+00  0.45593999997E+02  0.45594000000E+02  0.51100000000E-03 0.  1.
         11   -1    0    0    0    0 -0.00000000000E+00 -0.00000000000E+00 -0.45593999997E+02  0.45594000000E+02  0.51100000000E-03 0. -1.
    9900012    2    1    2    0    0  0.10335828774E+02  0.19873750228E+02  0.22692063682E+02  0.59301873569E+02  0.49999871501E+02 0.  0.
         12    1    1    2    0    0 -0.10335828774E+02 -0.19873750228E+02 -0.22692063682E+02  0.31886126431E+02  0.00000000000E+00 0. -1.
         11    1    3    3    0    0 -0.33482659865E+01  0.36122317501E+01  0.72732374471E+01  0.87840245079E+01  0.51100000000E-03 0. -1.
        -11    1    3    3    0    0  0.16924342895E+02 -0.94161083688E+01  0.15225949086E+02  0.24635868263E+02  0.51100000000E-03 0.  1.
        -12    1    3    3    0    0 -0.32402481343E+01  0.25677626847E+02  0.19287714947E+00  0.25881980799E+02  0.00000000000E+00 0.  1.
</event>
<event>
 7    1  0.7819001E-012  0.5930194E+02  0.7816164E-02  0.1266605E+00
        -11   -1    0    0    0    0  0.00000000000E+00  0.00000000000E+00  0.45593999997E+02  0.45594000000E+02  0.51100000000E-03 0.  1.
         11   -1    0    0    0    0 -0.00000000000E+00 -0.00000000000E+00 -0.45593999997E+02  0.45594000000E+02  0.51100000000E-03 0. -1.
    9900012    2    1    2    0    0  0.10846326552E+01 -0.95086712074E+01  0.30415941430E+02  0.59301941147E+02  0.49999994746E+02 0.  0.
         12    1    1    2    0    0 -0.10846326552E+01  0.95086712074E+01 -0.30415941430E+02  0.31886058853E+02  0.00000000000E+00 0. -1.
         11    1    3    3    0    0 -0.15242391691E+02  0.10533376875E+02  0.13055665536E+02  0.22665677482E+02  0.51100000000E-03 0. -1.
        -11    1    3    3    0    0  0.18311334762E+02 -0.84494905847E+01  0.83797856380E+01  0.21838490779E+02  0.51100000000E-03 0.  1.
         12    1    3    3    0    0 -0.19843104151E+01 -0.11592557498E+02  0.89804902554E+01  0.14797772886E+02  0.00000000000E+00 0. -1.
</event>
<event>
 7    1  0.7819001E-012  0.5930195E+02  0.7816164E-02  0.1266605E+00
        -11   -1    0    0    0    0  0.00000000000E+00  0.00000000000E+00  0.45593999997E+02  0.45594000000E+02  0.51100000000E-03 0.  1.
         11   -1    0    0    0    0 -0.00000000000E+00 -0.00000000000E+00 -0.45593999997E+02  0.45594000000E+02  0.51100000000E-03 0. -1.
    9900012    2    1    2    0    0  0.40182891660E+01  0.77568784816E+01  0.30666009138E+02  0.59301954023E+02  0.50000018228E+02 0.  0.
         12    1    1    2    0    0 -0.40182891660E+01 -0.77568784816E+01 -0.30666009138E+02  0.31886045977E+02  0.00000000000E+00 0. -1.
         11    1    3    3    0    0  0.32802046564E+01 -0.82273615918E+01 -0.24436345311E+01  0.91880667897E+01  0.51100000000E-03 0. -1.
        -11    1    3    3    0    0  0.10856708348E+02  0.59972060804E+01  0.33673986233E+02  0.35885539511E+02  0.51100000000E-03 0.  1.
        -12    1    3    3    0    0 -0.10118623838E+02  0.99870339930E+01 -0.56434256405E+00  0.14228347722E+02  0.00000000000E+00 0.  1.
</event>
<event>
 7    1  0.7819001E-012  0.5930195E+02  0.7816164E-02  0.1266605E+00
        -11   -1    0    0    0    0  0.00000000000E+00  0.00000000000E+00  0.45593999997E+02  0.45594000000E+02  0.51100000000E-03 0.  1.
         11   -1    0    0    0    0 -0.00000000000E+00 -0.00000000000E+00 -0.45593999997E+02  0.45594000000E+02  0.51100000000E-03 0. -1.
    9900012    2    1    2    0    0 -0.11147661108E+01  0.29385528526E+02 -0.12327528364E+02  0.59301953744E+02  0.50000017721E+02 0.  0.
         12    1    1    2    0    0  0.11147661108E+01 -0.29385528526E+02  0.12327528364E+02  0.31886046256E+02  0.00000000000E+00 0. -1.
         11    1    3    3    0    0  0.35923874579E+01 -0.99599831596E+01 -0.66004769652E+01  0.12476890984E+02  0.51100000000E-03 0. -1.
        -11    1    3    3    0    0 -0.14379275892E+02  0.20928178664E+02 -0.56934165026E+01  0.26022437033E+02  0.51100000000E-03 0.  1.
        -12    1    3    3    0    0  0.96721223234E+01  0.18417333022E+02 -0.33634895997E-01  0.20802625728E+02  0.00000000000E+00 0.  1.
</event>
<event>
 7    1  0.7819001E-012  0.5930194E+02  0.7816164E-02  0.1266605E+00
        -11   -1    0    0    0    0  0.00000000000E+00  0.00000000000E+00  0.45593999997E+02  0.45594000000E+02  0.51100000000E-03 0. -1.
         11   -1    0    0    0    0 -0.00000000000E+00 -0.00000000000E+00 -0.45593999997E+02  0.45594000000E+02  0.51100000000E-03 0.  1.
    9900012    2    1    2    0    0 -0.12423896801E+02  0.26334668574E+02 -0.12994338115E+02  0.59301940292E+02  0.49999993187E+02 0.  0.
         12    1    1    2    0    0  0.12423896801E+02 -0.26334668574E+02  0.12994338115E+02  0.31886059708E+02  0.00000000000E+00 0. -1.
         11    1    3    3    0    0 -0.11343264402E+02  0.12965407421E+02  0.12615944282E+02  0.21352599075E+02  0.51100000000E-03 0. -1.
        -11    1    3    3    0    0  0.77566856603E+01 -0.31191760494E+01 -0.12755072180E+02  0.15250813036E+02  0.51100000000E-03 0.  1.
        -12    1    3    3    0    0 -0.88373180591E+01  0.16488437203E+02 -0.12855210217E+02  0.22698528181E+02  0.00000000000E+00 0.  1.
</event>
<event>
 7    1  0.7819001E-012  0.5930194E+02  0.7816164E-02  0.1266605E+00
        -11   -1    0    0    0    0  0.00000000000E+00  0.00000000000E+00  0.45593999997E+02  0.45594000000E+02  0.51100000000E-03 0. -1.
         11   -1    0    0    0    0 -0.00000000000E+00 -0.00000000000E+00 -0.45593999997E+02  0.45594000000E+02  0.51100000000E-03 0.  1.
    9900012    2    1    2    0    0 -0.21233481833E+02 -0.12618928613E+02 -0.20164889519E+02  0.59301939104E+02  0.49999991021E+02 0.  0.
         12    1    1    2    0    0  0.21233481833E+02  0.12618928613E+02  0.20164889519E+02  0.31886060896E+02  0.00000000000E+00 0. -1.
         11    1    3    3    0    0 -0.74493375331E+01 -0.18370032636E+02 -0.24859148921E+02  0.31795094182E+02  0.51100000000E-03 0. -1.
        -11    1    3    3    0    0 -0.15923761030E+02 -0.39134723763E+01 -0.34105996956E+00  0.16401150982E+02  0.51100000000E-03 0.  1.
         12    1    3    3    0    0  0.21396167295E+01  0.96645763986E+01  0.50353193717E+01  0.11105693940E+02  0.00000000000E+00 0. -1.
</event>
<event>
 7    1  0.7819001E-012  0.5930194E+02  0.7816164E-02  0.1266605E+00
        -11   -1    0    0    0    0  0.00000000000E+00  0.00000000000E+00  0.45593999997E+02  0.45594000000E+02  0.51100000000E-03 0.  1.
         11   -1    0    0    0    0 -0.00000000000E+00 -0.00000000000E+00 -0.45593999997E+02  0.45594000000E+02  0.51100000000E-03 0. -1.
    9900012    2    1    2    0    0  0.38141945984E+01 -0.19947179008E+02  0.24582160453E+02  0.59301942806E+02  0.49999997772E+02 0.  0.
         12    1    1    2    0    0 -0.38141945984E+01  0.19947179008E+02 -0.24582160453E+02  0.31886057194E+02  0.00000000000E+00 0. -1.
         11    1    3    3    0    0 -0.44350347856E+01  0.14506940501E+00 -0.29700404059E+01  0.53396365939E+01  0.51100000000E-03 0. -1.
        -11    1    3    3    0    0  0.18143784659E+02 -0.26067563894E+02  0.10674869536E+02  0.33506232987E+02  0.51100000000E-03 0.  1.
        -12    1    3    3    0    0 -0.98945552751E+01  0.59753154808E+01  0.16877331324E+02  0.20456073225E+02  0.00000000000E+00 0.  1.
</event>
<event>
 7    1  0.7819001E-012  0.5930195E+02  0.7816164E-02  0.1266605E+00
        -11   -1    0    0    0    0  0.00000000000E+00  0.00000000000E+00  0.45593999997E+02  0.45594000000E+02  0.51100000000E-03 0.  1.
         11   -1    0    0    0    0 -0.00000000000E+00 -0.00000000000E+00 -0.45593999997E+02  0.45594000000E+02  0.51100000000E-03 0. -1.
    9900012    2    1    2    0    0 -0.46245601015E+01  0.31296056432E+02 -0.39863068749E+01  0.59301947456E+02  0.50000006252E+02 0.  0.
         12    1    1    2    0    0  0.46245601015E+01 -0.31296056432E+02  0.39863068749E+01  0.31886052544E+02  0.00000000000E+00 0. -1.
         11    1    3    3    0    0  0.18861913973E+01  0.26847752429E+02 -0.11561293323E+02  0.29292030180E+02  0.51100000000E-03 0. -1.
        -11    1    3    3    0    0  0.72820955372E+01  0.73397102740E+01  0.11417073011E+02  0.15402915916E+02  0.51100000000E-03 0.  1.
         12    1    3    3    0    0 -0.13792847036E+02 -0.28914062711E+01 -0.38420865632E+01  0.14607001360E+02  0.00000000000E+00 0. -1.
</event>
<event>
 7    1  0.7819001E-012  0.5930192E+02  0.7816164E-02  0.1266605E+00
        -11   -1    0    0    0    0  0.00000000000E+00  0.00000000000E+00  0.45593999997E+02  0.45594000000E+02  0.51100000000E-03 0.  1.
         11   -1    0    0    0    0 -0.00000000000E+00 -0.00000000000E+00 -0.45593999997E+02  0.45594000000E+02  0.51100000000E-03 0. -1.
    9900012    2    1    2    0    0 -0.65502946350E+01 -0.11568227756E+01  0.31184571295E+02  0.59301920191E+02  0.49999956527E+02 0.  0.
         12    1    1    2    0    0  0.65502946350E+01  0.11568227756E+01 -0.31184571295E+02  0.31886079809E+02  0.00000000000E+00 0. -1.
         11    1    3    3    0    0 -0.20957018315E+02 -0.86592152019E+01  0.21710856677E+02  0.31393310155E+02  0.51100000000E-03 0. -1.
        -11    1    3    3    0    0  0.17271664844E+02 -0.13704869225E+00  0.95756748826E+01  0.19748993355E+02  0.51100000000E-03 0.  1.
         12    1    3    3    0    0 -0.28649411639E+01  0.76394411186E+01 -0.10196026446E+00  0.81596166805E+01  0.00000000000E+00 0. -1.
</event>
<event>
 7    1  0.7819001E-012  0.5930194E+02  0.7816164E-02  0.1266605E+00
        -11   -1    0    0    0    0  0.00000000000E+00  0.00000000000E+00  0.45593999997E+02  0.45594000000E+02  0.51100000000E-03 0.  1.
         11   -1    0    0    0    0 -0.00000000000E+00 -0.00000000000E+00 -0.45593999997E+02  0.45594000000E+02  0.51100000000E-03 0. -1.
    9900012    2    1    2    0    0 -0.28832243150E+02  0.35847673708E+01  0.13136678178E+02  0.59301935399E+02  0.49999984264E+02 0.  0.
         12    1    1    2    0    0  0.28832243150E+02 -0.35847673708E+01 -0.13136678178E+02  0.31886064601E+02  0.00000000000E+00 0. -1.
         11    1    3    3    0    0  0.50795032348E+01  0.73535655478E+01 -0.89140678121E+01  0.12622871488E+02  0.51100000000E-03 0. -1.
        -11    1    3    3    0    0 -0.93861734752E+01 -0.88598013629E+01  0.16629346487E+02  0.21050688767E+02  0.51100000000E-03 0.  1.
         12    1    3    3    0    0 -0.24525572910E+02  0.50910031860E+01  0.54213995029E+01  0.25628375145E+02  0.00000000000E+00 0. -1.
</event>
<event>
 7    1  0.7819001E-012  0.5930195E+02  0.7816164E-02  0.1266605E+00
        -11   -1    0    0    0    0  0.00000000000E+00  0.00000000000E+00  0.45593999997E+02  0.45594000000E+02  0.51100000000E-03 0.  1.
         11   -1    0    0    0    0 -0.00000000000E+00 -0.00000000000E+00 -0.45593999997E+02  0.45594000000E+02  0.51100000000E-03 0. -1.
    9900012    2    1    2    0    0  0.19143575399E+02 -0.15913882617E+02  0.19924656248E+02  0.59301951866E+02  0.50000014296E+02 0.  0.
         12    1    1    2    0    0 -0.19143575399E+02  0.15913882617E+02 -0.19924656248E+02  0.31886048134E+02  0.00000000000E+00 0. -1.
         11    1    3    3    0    0 -0.15172439721E+02 -0.10853156792E+01 -0.24469605081E-01  0.15211227309E+02  0.51100000000E-03 0. -1.
        -11    1    3    3    0    0  0.11767390771E+02 -0.63051675129E+01  0.13826079999E+02  0.19219446176E+02  0.51100000000E-03 0.  1.
         12    1    3    3    0    0  0.22548624349E+02 -0.85233994248E+01  0.61230458540E+01  0.24871278381E+02  0.00000000000E+00 0. -1.
</event>
<event>
 7    1  0.7819001E-012  0.5930193E+02  0.7816164E-02  0.1266605E+00
        -11   -1    0    0    0    0  0.00000000000E+00  0.00000000000E+00  0.45593999997E+02  0.45594000000E+02  0.51100000000E-03 0. -1.
         11   -1    0    0    0    0 -0.00000000000E+00 -0.00000000000E+00 -0.45593999997E+02  0.45594000000E+02  0.51100000000E-03 0.  1.
    9900012    2    1    2    0    0  0.32576240999E+01 -0.24870265951E+02 -0.19687037157E+02  0.59301926625E+02  0.49999968262E+02 0.  0.
         12    1    1    2    0    0 -0.32576240999E+01  0.24870265951E+02  0.19687037157E+02  0.31886073375E+02  0.00000000000E+00 0. -1.
         11    1    3    3    0    0 -0.10932734290E+02 -0.28854875379E+02 -0.77216753518E+01  0.31808061599E+02  0.51100000000E-03 0. -1.
        -11    1    3    3    0    0  0.12905947094E+02 -0.59987593113E+01 -0.95601804817E+01  0.17144842804E+02  0.51100000000E-03 0.  1.
        -12    1    3    3    0    0  0.12844112961E+01  0.99833687391E+01 -0.24051813235E+01  0.10349022222E+02  0.00000000000E+00 0.  1.
</event>
<event>
 7    1  0.7819001E-012  0.5930194E+02  0.7816164E-02  0.1266605E+00
        -11   -1    0    0    0    0  0.00000000000E+00  0.00000000000E+00  0.45593999997E+02  0.45594000000E+02  0.51100000000E-03 0.  1.
         11   -1    0    0    0    0 -0.00000000000E+00 -0.00000000000E+00 -0.45593999997E+02  0.45594000000E+02  0.51100000000E-03 0. -1.
    9900012    2    1    2    0    0  0.19859998823E+02  0.22071877688E+02  0.11624690063E+02  0.59301941025E+02  0.49999994523E+02 0.  0.
         12    1    1    2    0    0 -0.19859998823E+02 -0.22071877688E+02 -0.11624690063E+02  0.31886058975E+02  0.00000000000E+00 0. -1.
         11    1    3    3    0    0  0.27481690961E+02 -0.28037757979E+01  0.36481260835E+01  0.27864194246E+02  0.51100000000E-03 0. -1.
        -11    1    3    3    0    0 -0.29356785396E+00  0.81456522625E+01  0.10179614071E+02  0.13040796592E+02  0.51100000000E-03 0.  1.
         12    1    3    3    0    0 -0.73281242842E+01  0.16730001224E+02 -0.22030500907E+01  0.18396950187E+02  0.00000000000E+00 0. -1.
</event>
<event>
 7    1  0.7819001E-012  0.5930196E+02  0.7816164E-02  0.1266605E+00
        -11   -1    0    0    0    0  0.00000000000E+00  0.00000000000E+00  0.45593999997E+02  0.45594000000E+02  0.51100000000E-03 0. -1.
         11   -1    0    0    0    0 -0.00000000000E+00 -0.00000000000E+00 -0.45593999997E+02  0.45594000000E+02  0.51100000000E-03 0.  1.
    9900012    2    1    2    0    0  0.13355600597E+00  0.26277796097E+02 -0.18060421781E+02  0.59301964815E+02  0.50000037911E+02 0.  0.
         12    1    1    2    0    0 -0.13355600597E+00 -0.26277796097E+02  0.18060421781E+02  0.31886035185E+02  0.00000000000E+00 0. -1.
         11    1    3    3    0    0 -0.30915658820E+01  0.22234132087E+02  0.71865771842E+01  0.23570347922E+02  0.51100000000E-03 0. -1.
        -11    1    3    3    0    0  0.13295500024E+01 -0.81271122862E+01 -0.21237030300E+02  0.22777820649E+02  0.51100000000E-03 0.  1.
        -12    1    3    3    0    0  0.18955718856E+01  0.12170776296E+02 -0.40099686657E+01  0.12953796244E+02  0.00000000000E+00 0.  1.
</event>
<event>
 7    1  0.7819001E-012  0.5930195E+02  0.7816164E-02  0.1266605E+00
        -11   -1    0    0    0    0  0.00000000000E+00  0.00000000000E+00  0.45593999997E+02  0.45594000000E+02  0.51100000000E-03 0.  1.
         11   -1    0    0    0    0 -0.00000000000E+00 -0.00000000000E+00 -0.45593999997E+02  0.45594000000E+02  0.51100000000E-03 0. -1.
    9900012    2    1    2    0    0 -0.16897415380E+02 -0.74686463074E+01  0.25988781726E+02  0.59301951330E+02  0.50000013318E+02 0.  0.
         12    1    1    2    0    0  0.16897415380E+02  0.74686463074E+01 -0.25988781726E+02  0.31886048670E+02  0.00000000000E+00 0. -1.
         11    1    3    3    0    0 -0.12285957600E+02 -0.21223419484E+02  0.14844574231E+02  0.28666002042E+02  0.51100000000E-03 0.  1.
        -11    1    3    3    0    0 -0.41192262981E+01  0.17573200337E+02 -0.81939417909E+00  0.18068115631E+02  0.51100000000E-03 0. -1.
        -12    1    3    3    0    0 -0.49223148205E+00 -0.38184271602E+01  0.11963601674E+02  0.12567833657E+02  0.00000000000E+00 0.  1.
</event>
<event>
 7    1  0.7819001E-012  0.5930194E+02  0.7816164E-02  0.1266605E+00
        -11   -1    0    0    0    0  0.00000000000E+00  0.00000000000E+00  0.45593999997E+02  0.45594000000E+02  0.51100000000E-03 0. -1.
         11   -1    0    0    0    0 -0.00000000000E+00 -0.00000000000E+00 -0.45593999997E+02  0.45594000000E+02  0.51100000000E-03 0.  1.
    9900012    2    1    2    0    0  0.20001319188E+02 -0.69843016862E+01  0.23830394054E+02  0.59301938467E+02  0.49999989859E+02 0.  0.
         12    1    1    2    0    0 -0.20001319188E+02  0.69843016862E+01 -0.23830394054E+02  0.31886061533E+02  0.00000000000E+00 0. -1.
         11    1    3    3    0    0 -0.39721643774E+01  0.17669621984E+01  0.99324429302E+01  0.10842216935E+02  0.51100000000E-03 0. -1.
        -11    1    3    3    0    0  0.29806397386E+02  0.40755216006E+01  0.22319477879E+01  0.30166418294E+02  0.51100000000E-03 0.  1.
        -12    1    3    3    0    0 -0.58329138212E+01 -0.12826785485E+02  0.11666003336E+02  0.18293303238E+02  0.00000000000E+00 0.  1.
</event>
<event>
 7    1  0.7819001E-012  0.5930195E+02  0.7816164E-02  0.1266605E+00
        -11   -1    0    0    0    0  0.00000000000E+00  0.00000000000E+00  0.45593999997E+02  0.45594000000E+02  0.51100000000E-03 0.  1.
         11   -1    0    0    0    0 -0.00000000000E+00 -0.00000000000E+00 -0.45593999997E+02  0.45594000000E+02  0.51100000000E-03 0. -1.
    9900012    2    1    2    0    0  0.17737295313E+02 -0.10868636530E+02  0.24165710944E+02  0.59301945204E+02  0.50000002145E+02 0.  0.
         12    1    1    2    0    0 -0.17737295313E+02  0.10868636530E+02 -0.24165710944E+02  0.31886054796E+02  0.00000000000E+00 0. -1.
         11    1    3    3    0    0  0.11004295094E+02 -0.11161420657E+02 -0.94884720671E+01  0.18322197576E+02  0.51100000000E-03 0. -1.
        -11    1    3    3    0    0  0.10727205601E+01  0.91908000136E+01  0.26923284279E+02  0.28469014224E+02  0.51100000000E-03 0.  1.
        -12    1    3    3    0    0  0.56602796589E+01 -0.88980158869E+01  0.67308987324E+01  0.12510733403E+02  0.00000000000E+00 0.  1.
</event>
<event>
 7    1  0.7819001E-012  0.5930196E+02  0.7816164E-02  0.1266605E+00
        -11   -1    0    0    0    0  0.00000000000E+00  0.00000000000E+00  0.45593999997E+02  0.45594000000E+02  0.51100000000E-03 0.  1.
         11   -1    0    0    0    0 -0.00000000000E+00 -0.00000000000E+00 -0.45593999997E+02  0.45594000000E+02  0.51100000000E-03 0. -1.
    9900012    2    1    2    0    0  0.53398859962E+01  0.67962073976E+01  0.30692293134E+02  0.59301957986E+02  0.50000025457E+02 0.  0.
         12    1    1    2    0    0 -0.53398859962E+01 -0.67962073976E+01 -0.30692293134E+02  0.31886042014E+02  0.00000000000E+00 0. -1.
         11    1    3    3    0    0  0.36449733095E+01  0.24839642555E+02  0.25787056396E+01  0.25237737532E+02  0.51100000000E-03 0. -1.
        -11    1    3    3    0    0  0.25085588113E+01 -0.21491615033E+01  0.43089678846E+01  0.54294536529E+01  0.51100000000E-03 0.  1.
         12    1    3    3    0    0 -0.81364612457E+00 -0.15894273654E+02  0.23804619610E+02  0.28634766802E+02  0.00000000000E+00 0. -1.
</event>
<event>
 7    1  0.7819001E-012  0.5930193E+02  0.7816164E-02  0.1266605E+00
        -11   -1    0    0    0    0  0.00000000000E+00  0.00000000000E+00  0.45593999997E+02  0.45594000000E+02  0.51100000000E-03 0. -1.
         11   -1    0    0    0    0 -0.00000000000E+00 -0.00000000000E+00 -0.45593999997E+02  0.45594000000E+02  0.51100000000E-03 0.  1.
    9900012    2    1    2    0    0 -0.20328954758E+02 -0.17272881795E+02 -0.17467179019E+02  0.59301934236E+02  0.49999982142E+02 0.  0.
         12    1    1    2    0    0  0.20328954758E+02  0.17272881795E+02  0.17467179019E+02  0.31886065764E+02  0.00000000000E+00 0. -1.
         11    1    3    3    0    0  0.11143014682E+02 -0.41583245294E+01 -0.11600603280E+02  0.16614223900E+02  0.51100000000E-03 0. -1.
        -11    1    3    3    0    0 -0.35343266943E+02 -0.11098948615E+02 -0.24156850302E+01  0.37123694764E+02  0.51100000000E-03 0.  1.
        -12    1    3    3    0    0  0.38712975031E+01 -0.20156086509E+01 -0.34508907088E+01  0.55640155711E+01  0.00000000000E+00 0.  1.
</event>
<event>
 7    1  0.7819001E-012  0.5930198E+02  0.7816164E-02  0.1266605E+00
        -11   -1    0    0    0    0  0.00000000000E+00  0.00000000000E+00  0.45593999997E+02  0.45594000000E+02  0.51100000000E-03 0.  1.
         11   -1    0    0    0    0 -0.00000000000E+00 -0.00000000000E+00 -0.45593999997E+02  0.45594000000E+02  0.51100000000E-03 0. -1.
    9900012    2    1    2    0    0  0.27365554103E+02  0.18451790777E+00 -0.16364915891E+02  0.59301983153E+02  0.50000071355E+02 0.  0.
         12    1    1    2    0    0 -0.27365554103E+02 -0.18451790777E+00  0.16364915891E+02  0.31886016847E+02  0.00000000000E+00 0. -1.
         11    1    3    3    0    0  0.28155180501E+01 -0.13107773390E+02 -0.15530051366E+02  0.20516416862E+02  0.51100000000E-03 0.  1.
        -11    1    3    3    0    0  0.16503411660E+02 -0.61972395696E+01  0.71729899742E+00  0.17643210955E+02  0.51100000000E-03 0. -1.
        -12    1    3    3    0    0  0.80466243932E+01  0.19489530867E+02 -0.15521635220E+01  0.21142355336E+02  0.00000000000E+00 0.  1.
</event>
<event>
 7    1  0.7819001E-012  0.5930194E+02  0.7816164E-02  0.1266605E+00
        -11   -1    0    0    0    0  0.00000000000E+00  0.00000000000E+00  0.45593999997E+02  0.45594000000E+02  0.51100000000E-03 0. -1.
         11   -1    0    0    0    0 -0.00000000000E+00 -0.00000000000E+00 -0.45593999997E+02  0.45594000000E+02  0.51100000000E-03 0.  1.
    9900012    2    1    2    0    0  0.26258223624E+02 -0.16889972952E+02 -0.64773064846E+01  0.59301937316E+02  0.49999987759E+02 0.  0.
         12    1    1    2    0    0 -0.26258223624E+02  0.16889972952E+02  0.64773064846E+01  0.31886062684E+02  0.00000000000E+00 0. -1.
         11    1    3    3    0    0 -0.60973176228E+01 -0.10748250500E+02  0.65664379763E+01  0.13993579920E+02  0.51100000000E-03 0. -1.
        -11    1    3    3    0    0  0.25943262257E+02 -0.14788244854E+02 -0.16352890786E+02  0.34046469416E+02  0.51100000000E-03 0.  1.
        -12    1    3    3    0    0  0.64122789898E+01  0.86465224017E+01  0.33091463248E+01  0.11261887980E+02  0.00000000000E+00 0.  1.
</event>
<event>
 7    1  0.7819001E-012  0.5930195E+02  0.7816164E-02  0.1266605E+00
        -11   -1    0    0    0    0  0.00000000000E+00  0.00000000000E+00  0.45593999997E+02  0.45594000000E+02  0.51100000000E-03 0.  1.
         11   -1    0    0    0    0 -0.00000000000E+00 -0.00000000000E+00 -0.45593999997E+02  0.45594000000E+02  0.51100000000E-03 0. -1.
    9900012    2    1    2    0    0 -0.21204537044E+01  0.11760067599E+02  0.29562216468E+02  0.59301950443E+02  0.50000011699E+02 0.  0.
         12    1    1    2    0    0  0.21204537044E+01 -0.11760067599E+02 -0.29562216468E+02  0.31886049557E+02  0.00000000000E+00 0. -1.
         11    1    3    3    0    0  0.11610815684E+02  0.22694922480E+01  0.25288708300E+02  0.27919176272E+02  0.51100000000E-03 0.  1.
        -11    1    3    3    0    0 -0.16598461794E+02  0.15407941517E+02 -0.14100735459E+01  0.22691450007E+02  0.51100000000E-03 0. -1.
         12    1    3    3    0    0  0.28671924057E+01 -0.59173661659E+01  0.56835817140E+01  0.86913241645E+01  0.00000000000E+00 0. -1.
</event>
<event>
 7    1  0.7819001E-012  0.5930194E+02  0.7816164E-02  0.1266605E+00
        -11   -1    0    0    0    0  0.00000000000E+00  0.00000000000E+00  0.45593999997E+02  0.45594000000E+02  0.51100000000E-03 0. -1.
         11   -1    0    0    0    0 -0.00000000000E+00 -0.00000000000E+00 -0.45593999997E+02  0.45594000000E+02  0.51100000000E-03 0.  1.
    9900012    2    1    2    0    0  0.28215138610E+02  0.90884000029E+01 -0.11748514830E+02  0.59301942513E+02  0.49999997237E+02 0.  0.
         12    1    1    2    0    0 -0.28215138610E+02 -0.90884000029E+01  0.11748514830E+02  0.31886057487E+02  0.00000000000E+00 0. -1.
         11    1    3    3    0    0  0.36478889388E+02  0.13763032556E+02  0.36840836136E+01  0.39162519179E+02  0.51100000000E-03 0. -1.
        -11    1    3    3    0    0  0.13247410742E+00 -0.45020260524E+01 -0.46698380856E+01  0.64879253982E+01  0.51100000000E-03 0.  1.
         12    1    3    3    0    0 -0.83962248861E+01 -0.17260650033E+00 -0.10762760358E+02  0.13651497935E+02  0.00000000000E+00 0. -1.
</event>
<event>
 7    1  0.7819001E-012  0.5930196E+02  0.7816164E-02  0.1266605E+00
        -11   -1    0    0    0    0  0.00000000000E+00  0.00000000000E+00  0.45593999997E+02  0.45594000000E+02  0.51100000000E-03 0. -1.
         11   -1    0    0    0    0 -0.00000000000E+00 -0.00000000000E+00 -0.45593999997E+02  0.45594000000E+02  0.51100000000E-03 0.  1.
    9900012    2    1    2    0    0  0.20792934811E+02  0.24165088617E+02  0.64934418227E+00  0.59301963969E+02  0.50000036367E+02 0.  0.
         12    1    1    2    0    0 -0.20792934811E+02 -0.24165088617E+02 -0.64934418227E+00  0.31886036031E+02  0.00000000000E+00 0. -1.
         11    1    3    3    0    0  0.23475423762E+02  0.11854819225E+02 -0.34174954146E+01  0.26520021396E+02  0.51100000000E-03 0. -1.
        -11    1    3    3    0    0 -0.69970343761E+01 -0.77760439792E+01  0.61459758452E+01  0.12132533510E+02  0.51100000000E-03 0.  1.
         12    1    3    3    0    0  0.43145454247E+01  0.20086313372E+02 -0.20791362483E+01  0.20649409063E+02  0.00000000000E+00 0. -1.
</event>
<event>
 7    1  0.7819001E-012  0.5930195E+02  0.7816164E-02  0.1266605E+00
        -11   -1    0    0    0    0  0.00000000000E+00  0.00000000000E+00  0.45593999997E+02  0.45594000000E+02  0.51100000000E-03 0.  1.
         11   -1    0    0    0    0 -0.00000000000E+00 -0.00000000000E+00 -0.45593999997E+02  0.45594000000E+02  0.51100000000E-03 0. -1.
    9900012    2    1    2    0    0  0.28166287851E+02  0.67067855395E+01  0.13356624374E+02  0.59301950413E+02  0.50000011646E+02 0.  0.
         12    1    1    2    0    0 -0.28166287851E+02 -0.67067855395E+01 -0.13356624374E+02  0.31886049587E+02  0.00000000000E+00 0. -1.
         11    1    3    3    0    0 -0.22836694156E+01  0.12002610549E+02  0.11070121745E+02  0.16487128364E+02  0.51100000000E-03 0. -1.
        -11    1    3    3    0    0  0.20696956875E+02 -0.96042354000E+01  0.14162467748E+02  0.26854810639E+02  0.51100000000E-03 0.  1.
         12    1    3    3    0    0  0.97530003911E+01  0.43084103907E+01 -0.11875965118E+02  0.15960011410E+02  0.00000000000E+00 0. -1.
</event>
<event>
 7    1  0.7819001E-012  0.5930193E+02  0.7816164E-02  0.1266605E+00
        -11   -1    0    0    0    0  0.00000000000E+00  0.00000000000E+00  0.45593999997E+02  0.45594000000E+02  0.51100000000E-03 0.  1.
         11   -1    0    0    0    0 -0.00000000000E+00 -0.00000000000E+00 -0.45593999997E+02  0.45594000000E+02  0.51100000000E-03 0. -1.
    9900012    2    1    2    0    0 -0.22621012206E+02 -0.20539620568E+02  0.91178525713E+01  0.59301930286E+02  0.49999974938E+02 0.  0.
         12    1    1    2    0    0  0.22621012206E+02  0.20539620568E+02 -0.91178525713E+01  0.31886069714E+02  0.00000000000E+00 0. -1.
         11    1    3    3    0    0 -0.21508596818E+01  0.12082257636E+01 -0.17088869853E+02  0.17266020966E+02  0.51100000000E-03 0. -1.
        -11    1    3    3    0    0 -0.22075828088E+02 -0.17933928869E+02  0.20845174480E+02  0.35263143505E+02  0.51100000000E-03 0.  1.
        -12    1    3    3    0    0  0.16056755644E+01 -0.38139174627E+01  0.53615479439E+01  0.67727658151E+01  0.00000000000E+00 0.  1.
</event>
<event>
 7    1  0.7819001E-012  0.5930194E+02  0.7816164E-02  0.1266605E+00
        -11   -1    0    0    0    0  0.00000000000E+00  0.00000000000E+00  0.45593999997E+02  0.45594000000E+02  0.51100000000E-03 0. -1.
         11   -1    0    0    0    0 -0.00000000000E+00 -0.00000000000E+00 -0.45593999997E+02  0.45594000000E+02  0.51100000000E-03 0.  1.
    9900012    2    1    2    0    0  0.24932371041E+02 -0.50809858350E+01 -0.19216697820E+02  0.59301936933E+02  0.49999987061E+02 0.  0.
         12    1    1    2    0    0 -0.24932371041E+02  0.50809858350E+01  0.19216697820E+02  0.31886063067E+02  0.00000000000E+00 0. -1.
         11    1    3    3    0    0 -0.17596507169E+00 -0.88426980113E+01  0.11282025724E+02  0.14335563349E+02  0.51100000000E-03 0. -1.
        -11    1    3    3    0    0  0.27159657674E+02  0.36477653570E+01 -0.19146283733E+02  0.33429528536E+02  0.51100000000E-03 0.  1.
         12    1    3    3    0    0 -0.20513215607E+01  0.11394681919E+00 -0.11352439811E+02  0.11536845049E+02  0.00000000000E+00 0. -1.
</event>
<event>
 7    1  0.7819001E-012  0.5930195E+02  0.7816164E-02  0.1266605E+00
        -11   -1    0    0    0    0  0.00000000000E+00  0.00000000000E+00  0.45593999997E+02  0.45594000000E+02  0.51100000000E-03 0.  1.
         11   -1    0    0    0    0 -0.00000000000E+00 -0.00000000000E+00 -0.45593999997E+02  0.45594000000E+02  0.51100000000E-03 0. -1.
    9900012    2    1    2    0    0  0.60567670508E+01 -0.24192520634E+02  0.19868511929E+02  0.59301949006E+02  0.50000009078E+02 0.  0.
         12    1    1    2    0    0 -0.60567670508E+01  0.24192520634E+02 -0.19868511929E+02  0.31886050994E+02  0.00000000000E+00 0. -1.
         11    1    3    3    0    0  0.17214622600E+01  0.29654674615E+01 -0.19266086591E+01  0.39330968414E+01  0.51100000000E-03 0. -1.
        -11    1    3    3    0    0  0.10280377029E+02 -0.29770779937E+02 -0.11557050188E+01  0.31516997704E+02  0.51100000000E-03 0.  1.
        -12    1    3    3    0    0 -0.59450722383E+01  0.26127918417E+01  0.22950825607E+02  0.23851854460E+02  0.00000000000E+00 0.  1.
</event>
<event>
 7    1  0.7819001E-012  0.5930194E+02  0.7816164E-02  0.1266605E+00
        -11   -1    0    0    0    0  0.00000000000E+00  0.00000000000E+00  0.45593999997E+02  0.45594000000E+02  0.51100000000E-03 0. -1.
         11   -1    0    0    0    0 -0.00000000000E+00 -0.00000000000E+00 -0.45593999997E+02  0.45594000000E+02  0.51100000000E-03 0.  1.
    9900012    2    1    2    0    0 -0.21898674489E+02 -0.98807393196E+01 -0.20965206115E+02  0.59301940016E+02  0.49999992683E+02 0.  0.
         12    1    1    2    0    0  0.21898674489E+02  0.98807393196E+01  0.20965206115E+02  0.31886059984E+02  0.00000000000E+00 0. -1.
         11    1    3    3    0    0 -0.12846419237E+02  0.13147003091E+02 -0.68316640735E+01  0.19609839667E+02  0.51100000000E-03 0. -1.
        -11    1    3    3    0    0  0.29945933118E+01 -0.16586000788E+02 -0.18806803560E+02  0.25253888248E+02  0.51100000000E-03 0.  1.
        -12    1    3    3    0    0 -0.12046848564E+02 -0.64417416224E+01  0.46732615184E+01  0.14438212101E+02  0.00000000000E+00 0.  1.
</event>
<event>
 7    1  0.7819001E-012  0.5930196E+02  0.7816164E-02  0.1266605E+00
        -11   -1    0    0    0    0  0.00000000000E+00  0.00000000000E+00  0.45593999997E+02  0.45594000000E+02  0.51100000000E-03 0. -1.
         11   -1    0    0    0    0 -0.00000000000E+00 -0.00000000000E+00 -0.45593999997E+02  0.45594000000E+02  0.51100000000E-03 0.  1.
    9900012    2    1    2    0    0  0.10300640248E+02  0.29662846823E+02 -0.55436584175E+01  0.59301955720E+02  0.50000021324E+02 0.  0.
         12    1    1    2    0    0 -0.10300640248E+02 -0.29662846823E+02  0.55436584175E+01  0.31886044280E+02  0.00000000000E+00 0. -1.
         11    1    3    3    0    0 -0.19461100827E+01  0.24289661371E+02  0.19248711366E+02  0.31052985098E+02  0.51100000000E-03 0. -1.
        -11    1    3    3    0    0  0.90492789305E+01  0.29148483487E+01 -0.17408057984E+02  0.19834976004E+02  0.51100000000E-03 0.  1.
         12    1    3    3    0    0  0.31974713998E+01  0.24583371042E+01 -0.73843117998E+01  0.84139946177E+01  0.00000000000E+00 0. -1.
</event>
<event>
 7    1  0.7819001E-012  0.5930192E+02  0.7816164E-02  0.1266605E+00
        -11   -1    0    0    0    0  0.00000000000E+00  0.00000000000E+00  0.45593999997E+02  0.45594000000E+02  0.51100000000E-03 0.  1.
         11   -1    0    0    0    0 -0.00000000000E+00 -0.00000000000E+00 -0.45593999997E+02  0.45594000000E+02  0.51100000000E-03 0. -1.
    9900012    2    1    2    0    0  0.85749865586E+01  0.28222744411E+02 -0.12110684651E+02  0.59301915586E+02  0.49999948128E+02 0.  0.
         12    1    1    2    0    0 -0.85749865586E+01 -0.28222744411E+02  0.12110684651E+02  0.31886084414E+02  0.00000000000E+00 0. -1.
         11    1    3    3    0    0  0.15861740353E+02  0.29184953963E+02 -0.59192289830E+01  0.33740089166E+02  0.51100000000E-03 0.  1.
        -11    1    3    3    0    0 -0.45384962565E+01 -0.74851634373E+01 -0.13044654621E+02  0.15709507771E+02  0.51100000000E-03 0. -1.
        -12    1    3    3    0    0 -0.27482575383E+01  0.65229538848E+01  0.68531989530E+01  0.98523186494E+01  0.00000000000E+00 0.  1.
</event>
<event>
 7    1  0.7819001E-012  0.5930194E+02  0.7816164E-02  0.1266605E+00
        -11   -1    0    0    0    0  0.00000000000E+00  0.00000000000E+00  0.45593999997E+02  0.45594000000E+02  0.51100000000E-03 0.  1.
         11   -1    0    0    0    0 -0.00000000000E+00 -0.00000000000E+00 -0.45593999997E+02  0.45594000000E+02  0.51100000000E-03 0. -1.
    9900012    2    1    2    0    0  0.25418396155E+02  0.17887846732E+02  0.71169661261E+01  0.59301935165E+02  0.49999983837E+02 0.  0.
         12    1    1    2    0    0 -0.25418396155E+02 -0.17887846732E+02 -0.71169661261E+01  0.31886064835E+02  0.00000000000E+00 0. -1.
         11    1    3    3    0    0  0.13150506820E+01 -0.94993506404E+00 -0.85795926145E+01  0.87316175257E+01  0.51100000000E-03 0. -1.
        -11    1    3    3    0    0  0.18355203716E+02  0.22507871332E+02  0.25485639776E+02  0.38639818975E+02  0.51100000000E-03 0.  1.
        -12    1    3    3    0    0  0.57481417574E+01 -0.36700895357E+01 -0.97890810358E+01  0.11930498665E+02  0.00000000000E+00 0.  1.
</event>
<event>
 7    1  0.7819001E-012  0.5930193E+02  0.7816164E-02  0.1266605E+00
        -11   -1    0    0    0    0  0.00000000000E+00  0.00000000000E+00  0.45593999997E+02  0.45594000000E+02  0.51100000000E-03 0.  1.
         11   -1    0    0    0    0 -0.00000000000E+00 -0.00000000000E+00 -0.45593999997E+02  0.45594000000E+02  0.51100000000E-03 0. -1.
    9900012    2    1    2    0    0  0.10381430095E+02 -0.13351089983E+02  0.27031381012E+02  0.59301933232E+02  0.49999980311E+02 0.  0.
         12    1    1    2    0    0 -0.10381430095E+02  0.13351089983E+02 -0.27031381012E+02  0.31886066768E+02  0.00000000000E+00 0. -1.
         11    1    3    3    0    0  0.14411778003E+01  0.89872726091E+01 -0.57067506398E+01  0.10743140394E+02  0.51100000000E-03 0. -1.
        -11    1    3    3    0    0  0.91399095031E+01 -0.50468614484E+01  0.29060854951E+02  0.30879476144E+02  0.51100000000E-03 0.  1.
        -12    1    3    3    0    0 -0.19965720844E+00 -0.17291501144E+02  0.36772767005E+01  0.17679316693E+02  0.00000000000E+00 0.  1.
</event>
<event>
 7    1  0.7819001E-012  0.5930196E+02  0.7816164E-02  0.1266605E+00
        -11   -1    0    0    0    0  0.00000000000E+00  0.00000000000E+00  0.45593999997E+02  0.45594000000E+02  0.51100000000E-03 0.  1.
         11   -1    0    0    0    0 -0.00000000000E+00 -0.00000000000E+00 -0.45593999997E+02  0.45594000000E+02  0.51100000000E-03 0. -1.
    9900012    2    1    2    0    0 -0.98624391025E+01  0.30312294623E+02  0.78510033776E+00  0.59301963982E+02  0.50000036392E+02 0.  0.
         12    1    1    2    0    0  0.98624391025E+01 -0.30312294623E+02 -0.78510033776E+00  0.31886036018E+02  0.00000000000E+00 0. -1.
         11    1    3    3    0    0 -0.89484897181E+01  0.33716459908E+02 -0.95328207200E+00  0.34896760364E+02  0.51100000000E-03 0. -1.
        -11    1    3    3    0    0 -0.78595212840E+01 -0.79971609150E+01  0.81784392312E+01  0.13878527517E+02  0.51100000000E-03 0.  1.
         12    1    3    3    0    0  0.69455718997E+01  0.45929956305E+01 -0.64400568214E+01  0.10526676101E+02  0.00000000000E+00 0. -1.
</event>
<event>
 7    1  0.7819001E-012  0.5930194E+02  0.7816164E-02  0.1266605E+00
        -11   -1    0    0    0    0  0.00000000000E+00  0.00000000000E+00  0.45593999997E+02  0.45594000000E+02  0.51100000000E-03 0.  1.
         11   -1    0    0    0    0 -0.00000000000E+00 -0.00000000000E+00 -0.45593999997E+02  0.45594000000E+02  0.51100000000E-03 0. -1.
    9900012    2    1    2    0    0  0.83816062575E+01 -0.30129992022E+02  0.62171388479E+01  0.59301944143E+02  0.50000000210E+02 0.  0.
         12    1    1    2    0    0 -0.83816062575E+01  0.30129992022E+02 -0.62171388479E+01  0.31886055857E+02  0.00000000000E+00 0. -1.
         11    1    3    3    0    0 -0.71556811744E+01 -0.34157106369E+02 -0.50885494808E+01  0.35267620060E+02  0.51100000000E-03 0.  1.
        -11    1    3    3    0    0 -0.34657702413E+00 -0.34868540931E+00  0.69841085247E+01  0.70013905257E+01  0.51100000000E-03 0. -1.
         12    1    3    3    0    0  0.15883864456E+02  0.43757997570E+01  0.43215798040E+01  0.17032933558E+02  0.00000000000E+00 0. -1.
</event>
<event>
 7    1  0.7819001E-012  0.5930196E+02  0.7816164E-02  0.1266605E+00
        -11   -1    0    0    0    0  0.00000000000E+00  0.00000000000E+00  0.45593999997E+02  0.45594000000E+02  0.51100000000E-03 0.  1.
         11   -1    0    0    0    0 -0.00000000000E+00 -0.00000000000E+00 -0.45593999997E+02  0.45594000000E+02  0.51100000000E-03 0. -1.
    9900012    2    1    2    0    0 -0.46558321791E+01 -0.92831307232E+01  0.30147412983E+02  0.59301956049E+02  0.50000021923E+02 0.  0.
         12    1    1    2    0    0  0.46558321791E+01  0.92831307232E+01 -0.30147412983E+02  0.31886043951E+02  0.00000000000E+00 0. -1.
         11    1    3    3    0    0  0.66134742975E+01  0.94385426462E+00  0.80666992041E+00  0.67290132841E+01  0.51100000000E-03 0.  1.
        -11    1    3    3    0    0 -0.13134618592E+02 -0.11777882965E+02 -0.48498609291E+01  0.18296389916E+02  0.51100000000E-03 0. -1.
        -12    1    3    3    0    0  0.18653121153E+01  0.15508979767E+01  0.34190603992E+02  0.34276552848E+02  0.00000000000E+00 0.  1.
</event>
<event>
 7    1  0.7819001E-012  0.5930195E+02  0.7816164E-02  0.1266605E+00
        -11   -1    0    0    0    0  0.00000000000E+00  0.00000000000E+00  0.45593999997E+02  0.45594000000E+02  0.51100000000E-03 0.  1.
         11   -1    0    0    0    0 -0.00000000000E+00 -0.00000000000E+00 -0.45593999997E+02  0.45594000000E+02  0.51100000000E-03 0. -1.
    9900012    2    1    2    0    0 -0.41955512177E+01 -0.28202895691E+02  0.14272852989E+02  0.59301948068E+02  0.50000007368E+02 0.  0.
         12    1    1    2    0    0  0.41955512177E+01  0.28202895691E+02 -0.14272852989E+02  0.31886051932E+02  0.00000000000E+00 0. -1.
         11    1    3    3    0    0 -0.12561723004E+02 -0.22863832277E+02 -0.30094571333E+01  0.26260398773E+02  0.51100000000E-03 0. -1.
        -11    1    3    3    0    0  0.43027725250E+01 -0.13541678623E+02  0.19002588480E+02  0.23727395149E+02  0.51100000000E-03 0.  1.
         12    1    3    3    0    0  0.40633992617E+01  0.82026152087E+01 -0.17202783584E+01  0.93141541458E+01  0.00000000000E+00 0. -1.
</event>
<event>
 7    1  0.7819001E-012  0.5930200E+02  0.7816164E-02  0.1266605E+00
        -11   -1    0    0    0    0  0.00000000000E+00  0.00000000000E+00  0.45593999997E+02  0.45594000000E+02  0.51100000000E-03 0. -1.
         11   -1    0    0    0    0 -0.00000000000E+00 -0.00000000000E+00 -0.45593999997E+02  0.45594000000E+02  0.51100000000E-03 0.  1.
    9900012    2    1    2    0    0  0.13774877739E+02 -0.20308684500E+01 -0.28685283085E+02  0.59301997600E+02  0.50000097703E+02 0.  0.
         12    1    1    2    0    0 -0.13774877739E+02  0.20308684500E+01  0.28685283085E+02  0.31886002400E+02  0.00000000000E+00 0. -1.
         11    1    3    3    0    0  0.31773841093E+01 -0.71106915979E+01  0.12103318508E+02  0.14392637839E+02  0.51100000000E-03 0. -1.
        -11    1    3    3    0    0  0.10936786372E+01 -0.11450138394E+01 -0.26986284126E+02  0.27032697254E+02  0.51100000000E-03 0.  1.
         12    1    3    3    0    0  0.95038149928E+01  0.62248369874E+01 -0.13802317467E+02  0.17876662507E+02  0.00000000000E+00 0. -1.
</event>
<event>
 7    1  0.7819001E-012  0.5930196E+02  0.7816164E-02  0.1266605E+00
        -11   -1    0    0    0    0  0.00000000000E+00  0.00000000000E+00  0.45593999997E+02  0.45594000000E+02  0.51100000000E-03 0. -1.
         11   -1    0    0    0    0 -0.00000000000E+00 -0.00000000000E+00 -0.45593999997E+02  0.45594000000E+02  0.51100000000E-03 0.  1.
    9900012    2    1    2    0    0  0.24063149827E+02 -0.41076334843E+01 -0.20513698079E+02  0.59301958519E+02  0.50000026429E+02 0.  0.
         12    1    1    2    0    0 -0.24063149827E+02  0.41076334843E+01  0.20513698079E+02  0.31886041481E+02  0.00000000000E+00 0. -1.
         11    1    3    3    0    0 -0.10049273685E+02 -0.44665029192E+01  0.73438940096E+01  0.13223854560E+02  0.51100000000E-03 0. -1.
        -11    1    3    3    0    0  0.29184966430E+02  0.27129402484E+01 -0.16896861931E+02  0.33832325573E+02  0.51100000000E-03 0.  1.
         12    1    3    3    0    0  0.49274570820E+01 -0.23540708134E+01 -0.10960730158E+02  0.12245778386E+02  0.00000000000E+00 0. -1.
</event>
<event>
 7    1  0.7819001E-012  0.5930197E+02  0.7816164E-02  0.1266605E+00
        -11   -1    0    0    0    0  0.00000000000E+00  0.00000000000E+00  0.45593999997E+02  0.45594000000E+02  0.51100000000E-03 0.  1.
         11   -1    0    0    0    0 -0.00000000000E+00 -0.00000000000E+00 -0.45593999997E+02  0.45594000000E+02  0.51100000000E-03 0. -1.
    9900012    2    1    2    0    0  0.10470655975E+02 -0.28369722767E+02  0.10111542271E+02  0.59301967109E+02  0.50000042095E+02 0.  0.
         12    1    1    2    0    0 -0.10470655975E+02  0.28369722767E+02 -0.10111542271E+02  0.31886032891E+02  0.00000000000E+00 0. -1.
         11    1    3    3    0    0  0.99600095141E+01 -0.39899485743E+01 -0.44872598083E+01  0.11630003439E+02  0.51100000000E-03 0. -1.
        -11    1    3    3    0    0 -0.13431551212E+02 -0.25256107626E+02  0.16968512001E+01  0.28655834391E+02  0.51100000000E-03 0.  1.
        -12    1    3    3    0    0  0.13942197674E+02  0.87633343390E+00  0.12901950880E+02  0.19016129279E+02  0.00000000000E+00 0.  1.
</event>
<event>
 7    1  0.7819001E-012  0.5930188E+02  0.7816164E-02  0.1266605E+00
        -11   -1    0    0    0    0  0.00000000000E+00  0.00000000000E+00  0.45593999997E+02  0.45594000000E+02  0.51100000000E-03 0.  1.
         11   -1    0    0    0    0 -0.00000000000E+00 -0.00000000000E+00 -0.45593999997E+02  0.45594000000E+02  0.51100000000E-03 0. -1.
    9900012    2    1    2    0    0 -0.24473413867E+02  0.19763860526E+02 -0.52121416101E+01  0.59301880929E+02  0.49999884924E+02 0.  0.
         12    1    1    2    0    0  0.24473413867E+02 -0.19763860526E+02  0.52121416101E+01  0.31886119071E+02  0.00000000000E+00 0. -1.
         11    1    3    3    0    0 -0.31649975583E+02 -0.73770045186E+00  0.44891303589E+01  0.31975263064E+02  0.51100000000E-03 0. -1.
        -11    1    3    3    0    0  0.37283608709E+01  0.17109578993E+02 -0.12081295862E+01  0.17552719033E+02  0.51100000000E-03 0.  1.
         12    1    3    3    0    0  0.34482008446E+01  0.33919819850E+01 -0.84931423828E+01  0.97738988323E+01  0.00000000000E+00 0. -1.
</event>
<event>
 7    1  0.7819001E-012  0.5930192E+02  0.7816164E-02  0.1266605E+00
        -11   -1    0    0    0    0  0.00000000000E+00  0.00000000000E+00  0.45593999997E+02  0.45594000000E+02  0.51100000000E-03 0.  1.
         11   -1    0    0    0    0 -0.00000000000E+00 -0.00000000000E+00 -0.45593999997E+02  0.45594000000E+02  0.51100000000E-03 0. -1.
    9900012    2    1    2    0    0 -0.10429076181E+02 -0.20206889956E+02  0.22352590285E+02  0.59301916450E+02  0.49999949706E+02 0.  0.
         12    1    1    2    0    0  0.10429076181E+02  0.20206889956E+02 -0.22352590285E+02  0.31886083550E+02  0.00000000000E+00 0. -1.
         11    1    3    3    0    0  0.11228245177E+02 -0.14485123289E+02  0.20595454248E+02  0.27569276784E+02  0.51100000000E-03 0. -1.
        -11    1    3    3    0    0 -0.18236856722E+01 -0.95396053812E+01 -0.43353331467E+01  0.10636024352E+02  0.51100000000E-03 0.  1.
         12    1    3    3    0    0 -0.19833635686E+02  0.38178387137E+01  0.60924691830E+01  0.21096615314E+02  0.00000000000E+00 0. -1.
</event>
<event>
 7    1  0.7819001E-012  0.5930194E+02  0.7816164E-02  0.1266605E+00
        -11   -1    0    0    0    0  0.00000000000E+00  0.00000000000E+00  0.45593999997E+02  0.45594000000E+02  0.51100000000E-03 0.  1.
         11   -1    0    0    0    0 -0.00000000000E+00 -0.00000000000E+00 -0.45593999997E+02  0.45594000000E+02  0.51100000000E-03 0. -1.
    9900012    2    1    2    0    0 -0.13048018079E+02 -0.28057650006E+02  0.76966450723E+01  0.59301939644E+02  0.49999992005E+02 0.  0.
         12    1    1    2    0    0  0.13048018079E+02  0.28057650006E+02 -0.76966450723E+01  0.31886060356E+02  0.00000000000E+00 0. -1.
         11    1    3    3    0    0  0.83035041223E+01 -0.61363467554E+01 -0.84633108987E+01  0.13350302013E+02  0.51100000000E-03 0. -1.
        -11    1    3    3    0    0 -0.21576931495E+02 -0.28767568608E+02  0.15175928749E+02  0.39031343687E+02  0.51100000000E-03 0.  1.
         12    1    3    3    0    0  0.22540929385E+00  0.68462653571E+01  0.98402722158E+00  0.69202939433E+01  0.00000000000E+00 0. -1.
</event>
<event>
 7    1  0.7819001E-012  0.5930194E+02  0.7816164E-02  0.1266605E+00
        -11   -1    0    0    0    0  0.00000000000E+00  0.00000000000E+00  0.45593999997E+02  0.45594000000E+02  0.51100000000E-03 0. -1.
         11   -1    0    0    0    0 -0.00000000000E+00 -0.00000000000E+00 -0.45593999997E+02  0.45594000000E+02  0.51100000000E-03 0.  1.
    9900012    2    1    2    0    0  0.63334357172E+01  0.30228142805E+02 -0.79289311611E+01  0.59301937609E+02  0.49999988294E+02 0.  0.
         12    1    1    2    0    0 -0.63334357172E+01 -0.30228142805E+02  0.79289311611E+01  0.31886062391E+02  0.00000000000E+00 0. -1.
         11    1    3    3    0    0  0.10866669474E+02  0.10310417674E+02 -0.18661480832E+02  0.23929899397E+02  0.51100000000E-03 0.  1.
        -11    1    3    3    0    0 -0.37019420333E+01  0.23999961631E+02  0.15678513954E+02  0.28905333992E+02  0.51100000000E-03 0. -1.
         12    1    3    3    0    0 -0.83129172384E+00 -0.40822364995E+01 -0.49459642837E+01  0.64667042196E+01  0.00000000000E+00 0. -1.
</event>
<event>
 7    1  0.7819001E-012  0.5930196E+02  0.7816164E-02  0.1266605E+00
        -11   -1    0    0    0    0  0.00000000000E+00  0.00000000000E+00  0.45593999997E+02  0.45594000000E+02  0.51100000000E-03 0. -1.
         11   -1    0    0    0    0 -0.00000000000E+00 -0.00000000000E+00 -0.45593999997E+02  0.45594000000E+02  0.51100000000E-03 0.  1.
    9900012    2    1    2    0    0  0.82117878585E+01 -0.20249216489E+02 -0.23221876203E+02  0.59301956616E+02  0.50000022959E+02 0.  0.
         12    1    1    2    0    0 -0.82117878585E+01  0.20249216489E+02  0.23221876203E+02  0.31886043384E+02  0.00000000000E+00 0. -1.
         11    1    3    3    0    0  0.10427250653E+02 -0.38552002285E+01  0.27707735912E+01  0.11457194749E+02  0.51100000000E-03 0. -1.
        -11    1    3    3    0    0 -0.16441269092E+02  0.11870908470E+01 -0.56480438605E+01  0.17424836118E+02  0.51100000000E-03 0.  1.
        -12    1    3    3    0    0  0.14225806298E+02 -0.17581107108E+02 -0.20344605934E+02  0.30419925749E+02  0.00000000000E+00 0.  1.
</event>
<event>
 7    1  0.7819001E-012  0.5930198E+02  0.7816164E-02  0.1266605E+00
        -11   -1    0    0    0    0  0.00000000000E+00  0.00000000000E+00  0.45593999997E+02  0.45594000000E+02  0.51100000000E-03 0. -1.
         11   -1    0    0    0    0 -0.00000000000E+00 -0.00000000000E+00 -0.45593999997E+02  0.45594000000E+02  0.51100000000E-03 0.  1.
    9900012    2    1    2    0    0 -0.15610369888E+01  0.22780562671E+02 -0.22255956776E+02  0.59301976665E+02  0.50000059522E+02 0.  0.
         12    1    1    2    0    0  0.15610369888E+01 -0.22780562671E+02  0.22255956776E+02  0.31886023335E+02  0.00000000000E+00 0. -1.
         11    1    3    3    0    0 -0.42599012866E+01 -0.51198253795E+01  0.73883512115E+01  0.99472159308E+01  0.51100000000E-03 0. -1.
        -11    1    3    3    0    0  0.14497812879E+02  0.14277705749E+02 -0.99210304027E+01  0.22637718618E+02  0.51100000000E-03 0.  1.
        -12    1    3    3    0    0 -0.11798948581E+02  0.13622682301E+02 -0.19723277585E+02  0.26717042116E+02  0.00000000000E+00 0.  1.
</event>
<event>
 7    1  0.7819001E-012  0.5930196E+02  0.7816164E-02  0.1266605E+00
        -11   -1    0    0    0    0  0.00000000000E+00  0.00000000000E+00  0.45593999997E+02  0.45594000000E+02  0.51100000000E-03 0.  1.
         11   -1    0    0    0    0 -0.00000000000E+00 -0.00000000000E+00 -0.45593999997E+02  0.45594000000E+02  0.51100000000E-03 0. -1.
    9900012    2    1    2    0    0  0.14543830074E+02  0.27027824477E+02  0.86425287115E+01  0.59301959297E+02  0.50000027848E+02 0.  0.
         12    1    1    2    0    0 -0.14543830074E+02 -0.27027824477E+02 -0.86425287115E+01  0.31886040703E+02  0.00000000000E+00 0. -1.
         11    1    3    3    0    0  0.63418382529E+01 -0.38273294172E+01 -0.14877209409E+02  0.16619227508E+02  0.51100000000E-03 0. -1.
        -11    1    3    3    0    0  0.70284332324E+01  0.24250646706E+02  0.25299235863E+02  0.35742748563E+02  0.51100000000E-03 0.  1.
         12    1    3    3    0    0  0.11735585891E+01  0.66045071883E+01 -0.17794977429E+01  0.69399832261E+01  0.00000000000E+00 0. -1.
</event>
<event>
 7    1  0.7819001E-012  0.5930195E+02  0.7816164E-02  0.1266605E+00
        -11   -1    0    0    0    0  0.00000000000E+00  0.00000000000E+00  0.45593999997E+02  0.45594000000E+02  0.51100000000E-03 0.  1.
         11   -1    0    0    0    0 -0.00000000000E+00 -0.00000000000E+00 -0.45593999997E+02  0.45594000000E+02  0.51100000000E-03 0. -1.
    9900012    2    1    2    0    0  0.12850768307E+02  0.15643724879E+02  0.24634363179E+02  0.59301949392E+02  0.50000009783E+02 0.  0.
         12    1    1    2    0    0 -0.12850768307E+02 -0.15643724879E+02 -0.24634363179E+02  0.31886050608E+02  0.00000000000E+00 0. -1.
         11    1    3    3    0    0  0.21348616314E+02  0.14259381848E+01 -0.52244630079E+00  0.21402562197E+02  0.51100000000E-03 0. -1.
        -11    1    3    3    0    0 -0.42005834518E+01  0.13833853162E+02  0.23004692585E+01  0.14639417806E+02  0.51100000000E-03 0.  1.
        -12    1    3    3    0    0 -0.42972645549E+01  0.38393353194E+00  0.22856340221E+02  0.23259969388E+02  0.00000000000E+00 0.  1.
</event>
<event>
 7    1  0.7819001E-012  0.5930194E+02  0.7816164E-02  0.1266605E+00
        -11   -1    0    0    0    0  0.00000000000E+00  0.00000000000E+00  0.45593999997E+02  0.45594000000E+02  0.51100000000E-03 0. -1.
         11   -1    0    0    0    0 -0.00000000000E+00 -0.00000000000E+00 -0.45593999997E+02  0.45594000000E+02  0.51100000000E-03 0.  1.
    9900012    2    1    2    0    0 -0.19978701535E+02  0.23372193956E+02 -0.84446960982E+01  0.59301939448E+02  0.49999991647E+02 0.  0.
         12    1    1    2    0    0  0.19978701535E+02 -0.23372193956E+02  0.84446960982E+01  0.31886060552E+02  0.00000000000E+00 0. -1.
         11    1    3    3    0    0 -0.79552343813E+01 -0.72757215915E+01  0.32409936715E+01  0.11257260723E+02  0.51100000000E-03 0. -1.
        -11    1    3    3    0    0  0.90187533642E+01  0.16069799178E+02 -0.12775103211E+02  0.22422747829E+02  0.51100000000E-03 0.  1.
        -12    1    3    3    0    0 -0.21042220518E+02  0.14578116370E+02  0.10894134410E+01  0.25621930896E+02  0.00000000000E+00 0.  1.
</event>
<event>
 7    1  0.7819001E-012  0.5930218E+02  0.7816164E-02  0.1266604E+00
        -11   -1    0    0    0    0  0.00000000000E+00  0.00000000000E+00  0.45593999997E+02  0.45594000000E+02  0.51100000000E-03 0. -1.
         11   -1    0    0    0    0 -0.00000000000E+00 -0.00000000000E+00 -0.45593999997E+02  0.45594000000E+02  0.51100000000E-03 0.  1.
    9900012    2    1    2    0    0  0.25927953307E+01 -0.23921113563E+02 -0.20922796944E+02  0.59302177231E+02  0.50000425305E+02 0.  0.
         12    1    1    2    0    0 -0.25927953307E+01  0.23921113563E+02  0.20922796944E+02  0.31885822769E+02  0.00000000000E+00 0. -1.
         11    1    3    3    0    0  0.65871790487E+01  0.87799350152E+01  0.16588343489E+01  0.11100897187E+02  0.51100000000E-03 0. -1.
        -11    1    3    3    0    0  0.86500383003E+00 -0.15978744952E+02 -0.25928111035E+02  0.30468597998E+02  0.51100000000E-03 0.  1.
        -12    1    3    3    0    0 -0.48593875481E+01 -0.16722303626E+02  0.33464797419E+01  0.17732682046E+02  0.00000000000E+00 0.  1.
</event>
<event>
 7    1  0.7819001E-012  0.5930193E+02  0.7816164E-02  0.1266605E+00
        -11   -1    0    0    0    0  0.00000000000E+00  0.00000000000E+00  0.45593999997E+02  0.45594000000E+02  0.51100000000E-03 0.  1.
         11   -1    0    0    0    0 -0.00000000000E+00 -0.00000000000E+00 -0.45593999997E+02  0.45594000000E+02  0.51100000000E-03 0. -1.
    9900012    2    1    2    0    0 -0.23802077889E+01 -0.11013790063E+02  0.29828719765E+02  0.59301929632E+02  0.49999973746E+02 0.  0.
         12    1    1    2    0    0  0.23802077889E+01  0.11013790063E+02 -0.29828719765E+02  0.31886070368E+02  0.00000000000E+00 0. -1.
         11    1    3    3    0    0  0.25736668335E+01 -0.76670658164E+01  0.62942929558E+00  0.81119566506E+01  0.51100000000E-03 0. -1.
        -11    1    3    3    0    0  0.42328883114E+01 -0.43852071334E+01  0.37964195495E+02  0.38450325420E+02  0.51100000000E-03 0.  1.
        -12    1    3    3    0    0 -0.91867629337E+01  0.10384828868E+01 -0.87649050253E+01  0.12739647562E+02  0.00000000000E+00 0.  1.
</event>
<event>
 7    1  0.7819001E-012  0.5930195E+02  0.7816164E-02  0.1266605E+00
        -11   -1    0    0    0    0  0.00000000000E+00  0.00000000000E+00  0.45593999997E+02  0.45594000000E+02  0.51100000000E-03 0.  1.
         11   -1    0    0    0    0 -0.00000000000E+00 -0.00000000000E+00 -0.45593999997E+02  0.45594000000E+02  0.51100000000E-03 0. -1.
    9900012    2    1    2    0    0  0.17754325447E+02  0.22662808358E+02  0.13707713847E+02  0.59301947035E+02  0.50000005485E+02 0.  0.
         12    1    1    2    0    0 -0.17754325447E+02 -0.22662808358E+02 -0.13707713847E+02  0.31886052965E+02  0.00000000000E+00 0. -1.
         11    1    3    3    0    0  0.14292602636E+02 -0.27305898967E+01 -0.10501557904E+02  0.17944841319E+02  0.51100000000E-03 0. -1.
        -11    1    3    3    0    0  0.51160369618E+01  0.52072037603E+01  0.19130819628E+02  0.20476256130E+02  0.51100000000E-03 0.  1.
         12    1    3    3    0    0 -0.16543141506E+01  0.20186194494E+02  0.50784521233E+01  0.20880849586E+02  0.00000000000E+00 0. -1.
</event>
<event>
 7    1  0.7819001E-012  0.5930195E+02  0.7816164E-02  0.1266605E+00
        -11   -1    0    0    0    0  0.00000000000E+00  0.00000000000E+00  0.45593999997E+02  0.45594000000E+02  0.51100000000E-03 0. -1.
         11   -1    0    0    0    0 -0.00000000000E+00 -0.00000000000E+00 -0.45593999997E+02  0.45594000000E+02  0.51100000000E-03 0.  1.
    9900012    2    1    2    0    0 -0.84215204529E+01  0.27855229600E+02  0.13033972673E+02  0.59301948716E+02  0.50000008551E+02 0.  0.
         12    1    1    2    0    0  0.84215204529E+01 -0.27855229600E+02 -0.13033972673E+02  0.31886051284E+02  0.00000000000E+00 0. -1.
         11    1    3    3    0    0  0.61724851345E+01  0.25019367244E+02  0.11861494776E+02  0.28368351531E+02  0.51100000000E-03 0. -1.
        -11    1    3    3    0    0 -0.15114080071E+02  0.78985647819E+01  0.10699710912E+02  0.20132226799E+02  0.51100000000E-03 0.  1.
        -12    1    3    3    0    0  0.52007448389E+00 -0.50627024256E+01 -0.95272330142E+01  0.10801370386E+02  0.00000000000E+00 0.  1.
</event>
<event>
 7    1  0.7819001E-012  0.5930192E+02  0.7816164E-02  0.1266605E+00
        -11   -1    0    0    0    0  0.00000000000E+00  0.00000000000E+00  0.45593999997E+02  0.45594000000E+02  0.51100000000E-03 0. -1.
         11   -1    0    0    0    0 -0.00000000000E+00 -0.00000000000E+00 -0.45593999997E+02  0.45594000000E+02  0.51100000000E-03 0.  1.
    9900012    2    1    2    0    0 -0.21365795593E+02  0.23612940831E+02 -0.16290554933E+01  0.59301921254E+02  0.49999958466E+02 0.  0.
         12    1    1    2    0    0  0.21365795593E+02 -0.23612940831E+02  0.16290554933E+01  0.31886078746E+02  0.00000000000E+00 0. -1.
         11    1    3    3    0    0 -0.68452617518E+01  0.88369566612E+00  0.17068853489E+02  0.18411525905E+02  0.51100000000E-03 0. -1.
        -11    1    3    3    0    0 -0.90703176908E+01  0.26235822245E+02 -0.89156268737E+01  0.29156087438E+02  0.51100000000E-03 0.  1.
         12    1    3    3    0    0 -0.54502161500E+01 -0.35065770802E+01 -0.97822821082E+01  0.11734307911E+02  0.00000000000E+00 0. -1.
</event>
<event>
 7    1  0.7819001E-012  0.5930193E+02  0.7816164E-02  0.1266605E+00
        -11   -1    0    0    0    0  0.00000000000E+00  0.00000000000E+00  0.45593999997E+02  0.45594000000E+02  0.51100000000E-03 0.  1.
         11   -1    0    0    0    0 -0.00000000000E+00 -0.00000000000E+00 -0.45593999997E+02  0.45594000000E+02  0.51100000000E-03 0. -1.
    9900012    2    1    2    0    0  0.12922747841E+01 -0.31724400948E+02  0.29349888525E+01  0.59301925466E+02  0.49999966147E+02 0.  0.
         12    1    1    2    0    0 -0.12922747841E+01  0.31724400948E+02 -0.29349888525E+01  0.31886074534E+02  0.00000000000E+00 0. -1.
         11    1    3    3    0    0  0.66320855951E+01 -0.17665119022E+02 -0.17998660290E+02  0.26076670836E+02  0.51100000000E-03 0. -1.
        -11    1    3    3    0    0  0.64186675672E+01  0.35611482672E+00  0.92265155711E+01  0.11245207911E+02  0.51100000000E-03 0.  1.
         12    1    3    3    0    0 -0.11758478378E+02 -0.14415396754E+02  0.11707133571E+02  0.21980046719E+02  0.00000000000E+00 0. -1.
</event>
<event>
 7    1  0.7819001E-012  0.5930183E+02  0.7816164E-02  0.1266605E+00
        -11   -1    0    0    0    0  0.00000000000E+00  0.00000000000E+00  0.45593999997E+02  0.45594000000E+02  0.51100000000E-03 0.  1.
         11   -1    0    0    0    0 -0.00000000000E+00 -0.00000000000E+00 -0.45593999997E+02  0.45594000000E+02  0.51100000000E-03 0. -1.
    9900012    2    1    2    0    0 -0.21974928680E+02  0.83814223248E+01  0.21530953583E+02  0.59301832265E+02  0.49999796170E+02 0.  0.
         12    1    1    2    0    0  0.21974928680E+02 -0.83814223248E+01 -0.21530953583E+02  0.31886167735E+02  0.00000000000E+00 0. -1.
         11    1    3    3    0    0 -0.32177197858E+01  0.23980359272E+02  0.79833921275E+01  0.25478341813E+02  0.51100000000E-03 0. -1.
        -11    1    3    3    0    0 -0.20595000642E+02 -0.12108671025E+02  0.16380431914E+02  0.28967093665E+02  0.51100000000E-03 0.  1.
        -12    1    3    3    0    0  0.18377917478E+01 -0.34902659218E+01 -0.28328704589E+01  0.48563967868E+01  0.00000000000E+00 0.  1.
</event>
<event>
 7    1  0.8871735E-012  0.5930194E+02  0.7816164E-02  0.1266605E+00
        -11   -1    0    0    0    0  0.00000000000E+00  0.00000000000E+00  0.45593999997E+02  0.45594000000E+02  0.51100000000E-03 0.  1.
         11   -1    0    0    0    0 -0.00000000000E+00 -0.00000000000E+00 -0.45593999997E+02  0.45594000000E+02  0.51100000000E-03 0. -1.
    9900012    2    1    2    0    0  0.17900617628E+02 -0.23934909892E+02 -0.11108941296E+02  0.59301943490E+02  0.49999999019E+02 0.  0.
         12    1    1    2    0    0 -0.17900617628E+02  0.23934909892E+02  0.11108941296E+02  0.31886056510E+02  0.00000000000E+00 0. -1.
         11    1    3    3    0    0  0.91421122631E+01  0.30013263700E+01  0.14569029109E+02  0.17459747594E+02  0.51100000000E-03 0. -1.
        -11    1    3    3    0    0  0.11687656610E+02 -0.16569865315E+02 -0.94664825918E+01  0.22378025975E+02  0.51100000000E-03 0.  1.
         12    1    3    3    0    0 -0.29291512449E+01 -0.10366370947E+02 -0.16211487813E+02  0.19464169922E+02  0.00000000000E+00 0. -1.
</event>
<event>
 7    1  0.7819001E-012  0.5930191E+02  0.7816164E-02  0.1266605E+00
        -11   -1    0    0    0    0  0.00000000000E+00  0.00000000000E+00  0.45593999997E+02  0.45594000000E+02  0.51100000000E-03 0.  1.
         11   -1    0    0    0    0 -0.00000000000E+00 -0.00000000000E+00 -0.45593999997E+02  0.45594000000E+02  0.51100000000E-03 0. -1.
    9900012    2    1    2    0    0 -0.18274613183E+02  0.27562361308E+01  0.25983924459E+02  0.59301911264E+02  0.49999940246E+02 0.  0.
         12    1    1    2    0    0  0.18274613183E+02 -0.27562361308E+01 -0.25983924459E+02  0.31886088736E+02  0.00000000000E+00 0. -1.
         11    1    3    3    0    0  0.57048428099E+01 -0.59249789779E+01  0.48840473584E+00  0.82394870484E+01  0.51100000000E-03 0. -1.
        -11    1    3    3    0    0 -0.11488946765E+02  0.12181927188E+02  0.32323483186E+02  0.36403335195E+02  0.51100000000E-03 0.  1.
        -12    1    3    3    0    0 -0.12490509228E+02 -0.35007120795E+01 -0.68279634631E+01  0.14659089020E+02  0.00000000000E+00 0.  1.
</event>
<event>
 7    1  0.7819001E-012  0.5930192E+02  0.7816164E-02  0.1266605E+00
        -11   -1    0    0    0    0  0.00000000000E+00  0.00000000000E+00  0.45593999997E+02  0.45594000000E+02  0.51100000000E-03 0.  1.
         11   -1    0    0    0    0 -0.00000000000E+00 -0.00000000000E+00 -0.45593999997E+02  0.45594000000E+02  0.51100000000E-03 0. -1.
    9900012    2    1    2    0    0 -0.24567919996E+02  0.16267597375E+02  0.12186254386E+02  0.59301918189E+02  0.49999952877E+02 0.  0.
         12    1    1    2    0    0  0.24567919996E+02 -0.16267597375E+02 -0.12186254386E+02  0.31886081811E+02  0.00000000000E+00 0. -1.
         11    1    3    3    0    0 -0.25407686737E+02  0.40476871777E+01 -0.28963228909E+01  0.25890596814E+02  0.51100000000E-03 0. -1.
        -11    1    3    3    0    0  0.64282939984E+01 -0.24687280825E+01  0.16253396617E+02  0.17651925786E+02  0.51100000000E-03 0.  1.
        -12    1    3    3    0    0 -0.55885272568E+01  0.14688638280E+02 -0.11708193404E+01  0.15759395590E+02  0.00000000000E+00 0.  1.
</event>
<event>
 7    1  0.7819001E-012  0.5930195E+02  0.7816164E-02  0.1266605E+00
        -11   -1    0    0    0    0  0.00000000000E+00  0.00000000000E+00  0.45593999997E+02  0.45594000000E+02  0.51100000000E-03 0. -1.
         11   -1    0    0    0    0 -0.00000000000E+00 -0.00000000000E+00 -0.45593999997E+02  0.45594000000E+02  0.51100000000E-03 0.  1.
    9900012    2    1    2    0    0 -0.96925566089E+01  0.13031274613E+01 -0.30349241331E+02  0.59301949066E+02  0.50000009188E+02 0.  0.
         12    1    1    2    0    0  0.96925566089E+01 -0.13031274613E+01  0.30349241331E+02  0.31886050934E+02  0.00000000000E+00 0. -1.
         11    1    3    3    0    0 -0.21348209070E+02 -0.70042591663E+01 -0.13381059412E+02  0.26150686955E+02  0.51100000000E-03 0. -1.
        -11    1    3    3    0    0  0.14086056707E+02 -0.33354427269E+01 -0.15432025332E+02  0.21158676183E+02  0.51100000000E-03 0.  1.
         12    1    3    3    0    0 -0.24304042461E+01  0.11642829355E+02 -0.15361565872E+01  0.11992585928E+02  0.00000000000E+00 0. -1.
</event>
<event>
 7    1  0.7819001E-012  0.5930198E+02  0.7816164E-02  0.1266605E+00
        -11   -1    0    0    0    0  0.00000000000E+00  0.00000000000E+00  0.45593999997E+02  0.45594000000E+02  0.51100000000E-03 0.  1.
         11   -1    0    0    0    0 -0.00000000000E+00 -0.00000000000E+00 -0.45593999997E+02  0.45594000000E+02  0.51100000000E-03 0. -1.
    9900012    2    1    2    0    0  0.10141736500E+02 -0.13284177821E+02  0.27154995625E+02  0.59301984460E+02  0.50000073739E+02 0.  0.
         12    1    1    2    0    0 -0.10141736500E+02  0.13284177821E+02 -0.27154995625E+02  0.31886015540E+02  0.00000000000E+00 0. -1.
         11    1    3    3    0    0  0.70146248836E+01 -0.96406981827E+00 -0.11916347263E+02  0.13861231014E+02  0.51100000000E-03 0. -1.
        -11    1    3    3    0    0  0.22888618600E+01 -0.60586168183E+01  0.38562894218E+02  0.39102973507E+02  0.51100000000E-03 0.  1.
        -12    1    3    3    0    0  0.83824975627E+00 -0.62614911840E+01  0.50844866972E+00  0.63377799387E+01  0.00000000000E+00 0.  1.
</event>
<event>
 7    1  0.7819001E-012  0.5930194E+02  0.7816164E-02  0.1266605E+00
        -11   -1    0    0    0    0  0.00000000000E+00  0.00000000000E+00  0.45593999997E+02  0.45594000000E+02  0.51100000000E-03 0. -1.
         11   -1    0    0    0    0 -0.00000000000E+00 -0.00000000000E+00 -0.45593999997E+02  0.45594000000E+02  0.51100000000E-03 0.  1.
    9900012    2    1    2    0    0  0.13425297015E+02  0.71825772324E+01 -0.28015938815E+02  0.59301939670E+02  0.49999992053E+02 0.  0.
         12    1    1    2    0    0 -0.13425297015E+02 -0.71825772324E+01  0.28015938815E+02  0.31886060330E+02  0.00000000000E+00 0. -1.
         11    1    3    3    0    0  0.38011913739E+01  0.21067633341E+01 -0.18623775792E+01  0.47282087640E+01  0.51100000000E-03 0. -1.
        -11    1    3    3    0    0 -0.45536001171E+01 -0.59308659999E+01  0.11006424072E+02  0.13306081942E+02  0.51100000000E-03 0.  1.
        -12    1    3    3    0    0  0.14177705758E+02  0.11006679898E+02 -0.37159985308E+02  0.41267648964E+02  0.00000000000E+00 0.  1.
</event>
<event>
 7    1  0.7819001E-012  0.5930193E+02  0.7816164E-02  0.1266605E+00
        -11   -1    0    0    0    0  0.00000000000E+00  0.00000000000E+00  0.45593999997E+02  0.45594000000E+02  0.51100000000E-03 0. -1.
         11   -1    0    0    0    0 -0.00000000000E+00 -0.00000000000E+00 -0.45593999997E+02  0.45594000000E+02  0.51100000000E-03 0.  1.
    9900012    2    1    2    0    0  0.25998322529E+02  0.19142277722E+01  0.18361485427E+02  0.59301934244E+02  0.49999982158E+02 0.  0.
         12    1    1    2    0    0 -0.25998322529E+02 -0.19142277722E+01 -0.18361485427E+02  0.31886065756E+02  0.00000000000E+00 0. -1.
         11    1    3    3    0    0 -0.51035251117E+01 -0.65639234109E+01  0.36491321159E+01  0.90800454057E+01  0.51100000000E-03 0. -1.
        -11    1    3    3    0    0  0.17572541172E+02 -0.84777141690E+00  0.25196004215E+02  0.30730303420E+02  0.51100000000E-03 0.  1.
        -12    1    3    3    0    0  0.13529306468E+02  0.93259226000E+01 -0.10483650904E+02  0.19491585419E+02  0.00000000000E+00 0.  1.
</event>
<event>
 7    1  0.7819001E-012  0.5930194E+02  0.7816164E-02  0.1266605E+00
        -11   -1    0    0    0    0  0.00000000000E+00  0.00000000000E+00  0.45593999997E+02  0.45594000000E+02  0.51100000000E-03 0.  1.
         11   -1    0    0    0    0 -0.00000000000E+00 -0.00000000000E+00 -0.45593999997E+02  0.45594000000E+02  0.51100000000E-03 0. -1.
    9900012    2    1    2    0    0 -0.20708716088E+02 -0.23863456908E+02 -0.42901458974E+01  0.59301939575E+02  0.49999991880E+02 0.  0.
         12    1    1    2    0    0  0.20708716088E+02  0.23863456908E+02  0.42901458974E+01  0.31886060425E+02  0.00000000000E+00 0. -1.
         11    1    3    3    0    0 -0.12139849197E+01 -0.23615551623E+02  0.46904552429E+01  0.24107434714E+02  0.51100000000E-03 0. -1.
        -11    1    3    3    0    0 -0.12647562186E+02  0.13054440762E+02 -0.91880820143E+00  0.18199545644E+02  0.51100000000E-03 0.  1.
        -12    1    3    3    0    0 -0.68471689819E+01 -0.13302346047E+02 -0.80617929389E+01  0.16994959218E+02  0.00000000000E+00 0.  1.
</event>
<event>
 7    1  0.7819001E-012  0.5930194E+02  0.7816164E-02  0.1266605E+00
        -11   -1    0    0    0    0  0.00000000000E+00  0.00000000000E+00  0.45593999997E+02  0.45594000000E+02  0.51100000000E-03 0. -1.
         11   -1    0    0    0    0 -0.00000000000E+00 -0.00000000000E+00 -0.45593999997E+02  0.45594000000E+02  0.51100000000E-03 0.  1.
    9900012    2    1    2    0    0 -0.19608971240E+02 -0.71935390621E+01 -0.24092776037E+02  0.59301943259E+02  0.49999998598E+02 0.  0.
         12    1    1    2    0    0  0.19608971240E+02  0.71935390621E+01  0.24092776037E+02  0.31886056741E+02  0.00000000000E+00 0. -1.
         11    1    3    3    0    0 -0.81929621290E+01  0.66614680737E+01  0.12530726378E+02  0.16386545981E+02  0.51100000000E-03 0. -1.
        -11    1    3    3    0    0 -0.10210767736E+02 -0.15526486404E+02 -0.25218796413E+02  0.31326015556E+02  0.51100000000E-03 0.  1.
         12    1    3    3    0    0 -0.12052413745E+01  0.16714792681E+01 -0.11404706002E+02  0.11589381722E+02  0.00000000000E+00 0. -1.
</event>
<event>
 7    1  0.7819001E-012  0.5930194E+02  0.7816164E-02  0.1266605E+00
        -11   -1    0    0    0    0  0.00000000000E+00  0.00000000000E+00  0.45593999997E+02  0.45594000000E+02  0.51100000000E-03 0. -1.
         11   -1    0    0    0    0 -0.00000000000E+00 -0.00000000000E+00 -0.45593999997E+02  0.45594000000E+02  0.51100000000E-03 0.  1.
    9900012    2    1    2    0    0 -0.20507626129E+02  0.20094567390E+02 -0.13869625222E+02  0.59301939223E+02  0.49999991238E+02 0.  0.
         12    1    1    2    0    0  0.20507626129E+02 -0.20094567390E+02  0.13869625222E+02  0.31886060777E+02  0.00000000000E+00 0. -1.
         11    1    3    3    0    0 -0.22278601990E+02  0.68543444332E+01  0.96390328083E+01  0.25223582180E+02  0.51100000000E-03 0. -1.
        -11    1    3    3    0    0 -0.75623103354E+01 -0.75177567434E-01 -0.11897326686E+02  0.14097537793E+02  0.51100000000E-03 0.  1.
         12    1    3    3    0    0  0.93332861963E+01  0.13315400524E+02 -0.11611331344E+02  0.19980819251E+02  0.00000000000E+00 0. -1.
</event>
<event>
 7    1  0.7819001E-012  0.5930193E+02  0.7816164E-02  0.1266605E+00
        -11   -1    0    0    0    0  0.00000000000E+00  0.00000000000E+00  0.45593999997E+02  0.45594000000E+02  0.51100000000E-03 0.  1.
         11   -1    0    0    0    0 -0.00000000000E+00 -0.00000000000E+00 -0.45593999997E+02  0.45594000000E+02  0.51100000000E-03 0. -1.
    9900012    2    1    2    0    0  0.30324393081E+02 -0.47980986802E+01  0.86099274308E+01  0.59301930674E+02  0.49999975646E+02 0.  0.
         12    1    1    2    0    0 -0.30324393081E+02  0.47980986802E+01 -0.86099274308E+01  0.31886069326E+02  0.00000000000E+00 0. -1.
         11    1    3    3    0    0  0.25393140758E+02 -0.10397071610E+02 -0.25314736064E+01  0.27555744492E+02  0.51100000000E-03 0. -1.
        -11    1    3    3    0    0 -0.78384111335E+01  0.46008203903E+01  0.15707893783E+02  0.18147896978E+02  0.51100000000E-03 0.  1.
         12    1    3    3    0    0  0.12769663457E+02  0.99815253967E+00 -0.45664927457E+01  0.13598289204E+02  0.00000000000E+00 0. -1.
</event>
<event>
 7    1  0.7819001E-012  0.5930193E+02  0.7816164E-02  0.1266605E+00
        -11   -1    0    0    0    0  0.00000000000E+00  0.00000000000E+00  0.45593999997E+02  0.45594000000E+02  0.51100000000E-03 0.  1.
         11   -1    0    0    0    0 -0.00000000000E+00 -0.00000000000E+00 -0.45593999997E+02  0.45594000000E+02  0.51100000000E-03 0. -1.
    9900012    2    1    2    0    0  0.10608927568E+02 -0.10344879742E+02  0.28233944503E+02  0.59301929323E+02  0.49999973182E+02 0.  0.
         12    1    1    2    0    0 -0.10608927568E+02  0.10344879742E+02 -0.28233944503E+02  0.31886070677E+02  0.00000000000E+00 0. -1.
         11    1    3    3    0    0 -0.34830315783E+01  0.79015758460E+01 -0.40750876185E+01  0.95484422387E+01  0.51100000000E-03 0. -1.
        -11    1    3    3    0    0 -0.62267227951E+00 -0.21992207622E+02  0.23533811779E+02  0.32216225942E+02  0.51100000000E-03 0.  1.
        -12    1    3    3    0    0  0.14714631426E+02  0.37457520342E+01  0.87752203429E+01  0.17537261142E+02  0.00000000000E+00 0.  1.
</event>
<event>
 7    1  0.9156503E-012  0.5930195E+02  0.7816164E-02  0.1266605E+00
        -11   -1    0    0    0    0  0.00000000000E+00  0.00000000000E+00  0.45593999997E+02  0.45594000000E+02  0.51100000000E-03 0. -1.
         11   -1    0    0    0    0 -0.00000000000E+00 -0.00000000000E+00 -0.45593999997E+02  0.45594000000E+02  0.51100000000E-03 0.  1.
    9900012    2    1    2    0    0  0.55141806742E-01 -0.19334906110E+02 -0.25355046394E+02  0.59301952698E+02  0.50000015813E+02 0.  0.
         12    1    1    2    0    0 -0.55141806742E-01  0.19334906110E+02  0.25355046394E+02  0.31886047302E+02  0.00000000000E+00 0. -1.
         11    1    3    3    0    0  0.44988769580E+01  0.11982220302E+02 -0.88531333765E+01  0.15562501987E+02  0.51100000000E-03 0. -1.
        -11    1    3    3    0    0  0.62508262594E+01 -0.20492567817E+02 -0.18608526673E+02  0.28377727708E+02  0.51100000000E-03 0.  1.
         12    1    3    3    0    0 -0.10694561411E+02 -0.10824558595E+02  0.21066136553E+01  0.15361723003E+02  0.00000000000E+00 0. -1.
</event>
<event>
 7    1  0.7819001E-012  0.5930188E+02  0.7816164E-02  0.1266605E+00
        -11   -1    0    0    0    0  0.00000000000E+00  0.00000000000E+00  0.45593999997E+02  0.45594000000E+02  0.51100000000E-03 0.  1.
         11   -1    0    0    0    0 -0.00000000000E+00 -0.00000000000E+00 -0.45593999997E+02  0.45594000000E+02  0.51100000000E-03 0. -1.
    9900012    2    1    2    0    0 -0.11886226474E+02 -0.11967758506E+02  0.27059469449E+02  0.59301882169E+02  0.49999887185E+02 0.  0.
         12    1    1    2    0    0  0.11886226474E+02  0.11967758506E+02 -0.27059469449E+02  0.31886117831E+02  0.00000000000E+00 0. -1.
         11    1    3    3    0    0  0.11432209752E+02  0.23218124505E+01  0.27941756657E+02  0.30279167726E+02  0.51100000000E-03 0. -1.
        -11    1    3    3    0    0 -0.12441095631E+02 -0.22609282320E+01  0.10608823891E+01  0.12689291890E+02  0.51100000000E-03 0.  1.
         12    1    3    3    0    0 -0.10877340595E+02 -0.12028642725E+02 -0.19431695967E+01  0.16333422553E+02  0.00000000000E+00 0. -1.
</event>
<event>
 7    1  0.7819001E-012  0.5930192E+02  0.7816164E-02  0.1266605E+00
        -11   -1    0    0    0    0  0.00000000000E+00  0.00000000000E+00  0.45593999997E+02  0.45594000000E+02  0.51100000000E-03 0. -1.
         11   -1    0    0    0    0 -0.00000000000E+00 -0.00000000000E+00 -0.45593999997E+02  0.45594000000E+02  0.51100000000E-03 0.  1.
    9900012    2    1    2    0    0  0.31446536900E+02  0.31977583213E+01  0.41966406012E+01  0.59301919438E+02  0.49999955155E+02 0.  0.
         12    1    1    2    0    0 -0.31446536900E+02 -0.31977583213E+01 -0.41966406012E+01  0.31886080562E+02  0.00000000000E+00 0. -1.
         11    1    3    3    0    0  0.17838807846E+02 -0.56628430300E+01  0.22303259808E+02  0.29115738954E+02  0.51100000000E-03 0. -1.
        -11    1    3    3    0    0  0.13103957942E+02  0.13845009722E+02 -0.13305508269E+02  0.23247248407E+02  0.51100000000E-03 0.  1.
         12    1    3    3    0    0  0.50377111146E+00 -0.49844083703E+01 -0.48011109378E+01  0.69389320772E+01  0.00000000000E+00 0. -1.
</event>
<event>
 7    1  0.7819001E-012  0.5930198E+02  0.7816164E-02  0.1266605E+00
        -11   -1    0    0    0    0  0.00000000000E+00  0.00000000000E+00  0.45593999997E+02  0.45594000000E+02  0.51100000000E-03 0.  1.
         11   -1    0    0    0    0 -0.00000000000E+00 -0.00000000000E+00 -0.45593999997E+02  0.45594000000E+02  0.51100000000E-03 0. -1.
    9900012    2    1    2    0    0 -0.30727648605E+02 -0.54547565102E+01  0.65402992739E+01  0.59301979992E+02  0.50000065590E+02 0.  0.
         12    1    1    2    0    0  0.30727648605E+02  0.54547565102E+01 -0.65402992739E+01  0.31886020008E+02  0.00000000000E+00 0. -1.
         11    1    3    3    0    0  0.36998141381E+01 -0.11145406742E+02 -0.49334534256E+01  0.12737648098E+02  0.51100000000E-03 0. -1.
        -11    1    3    3    0    0 -0.21153815988E+02 -0.68538966674E+01  0.16421131120E+02  0.27642600781E+02  0.51100000000E-03 0.  1.
        -12    1    3    3    0    0 -0.13273646755E+02  0.12544546900E+02 -0.49473784208E+01  0.18921731113E+02  0.00000000000E+00 0.  1.
</event>
<event>
 7    1  0.7819001E-012  0.5930196E+02  0.7816164E-02  0.1266605E+00
        -11   -1    0    0    0    0  0.00000000000E+00  0.00000000000E+00  0.45593999997E+02  0.45594000000E+02  0.51100000000E-03 0.  1.
         11   -1    0    0    0    0 -0.00000000000E+00 -0.00000000000E+00 -0.45593999997E+02  0.45594000000E+02  0.51100000000E-03 0. -1.
    9900012    2    1    2    0    0  0.84804623378E+01  0.15544704319E+02  0.26517228394E+02  0.59301961119E+02  0.50000031170E+02 0.  0.
         12    1    1    2    0    0 -0.84804623378E+01 -0.15544704319E+02 -0.26517228394E+02  0.31886038881E+02  0.00000000000E+00 0. -1.
         11    1    3    3    0    0 -0.19603513371E+00 -0.43299129690E+01 -0.90055161238E+01  0.99942932221E+01  0.51100000000E-03 0. -1.
        -11    1    3    3    0    0  0.10126692700E+02  0.23622656242E+02  0.36978598176E+02  0.45033282318E+02  0.51100000000E-03 0.  1.
        -12    1    3    3    0    0 -0.14501952286E+01 -0.37480389544E+01 -0.14558536583E+01  0.42743855792E+01  0.00000000000E+00 0.  1.
</event>
<event>
 7    1  0.7819001E-012  0.5930192E+02  0.7816164E-02  0.1266605E+00
        -11   -1    0    0    0    0  0.00000000000E+00  0.00000000000E+00  0.45593999997E+02  0.45594000000E+02  0.51100000000E-03 0.  1.
         11   -1    0    0    0    0 -0.00000000000E+00 -0.00000000000E+00 -0.45593999997E+02  0.45594000000E+02  0.51100000000E-03 0. -1.
    9900012    2    1    2    0    0 -0.22033288626E+01  0.67027914900E+00  0.31802804010E+02  0.59301917219E+02  0.49999951107E+02 0.  0.
         12    1    1    2    0    0  0.22033288626E+01 -0.67027914900E+00 -0.31802804010E+02  0.31886082781E+02  0.00000000000E+00 0. -1.
         11    1    3    3    0    0  0.10852072712E+02 -0.12483539910E+02  0.15573593156E+02  0.22718781985E+02  0.51100000000E-03 0. -1.
        -11    1    3    3    0    0 -0.19779744214E+02  0.15794633054E+02  0.14436620153E+02  0.29139744614E+02  0.51100000000E-03 0.  1.
        -12    1    3    3    0    0  0.67243426396E+01 -0.26408139944E+01  0.17925907005E+01  0.74433906190E+01  0.00000000000E+00 0.  1.
</event>
<event>
 7    1  0.7819001E-012  0.5930192E+02  0.7816164E-02  0.1266605E+00
        -11   -1    0    0    0    0  0.00000000000E+00  0.00000000000E+00  0.45593999997E+02  0.45594000000E+02  0.51100000000E-03 0.  1.
         11   -1    0    0    0    0 -0.00000000000E+00 -0.00000000000E+00 -0.45593999997E+02  0.45594000000E+02  0.51100000000E-03 0. -1.
    9900012    2    1    2    0    0  0.25671557557E+02  0.13297856639E+01  0.18865977673E+02  0.59301916658E+02  0.49999950085E+02 0.  0.
         12    1    1    2    0    0 -0.25671557557E+02 -0.13297856639E+01 -0.18865977673E+02  0.31886083342E+02  0.00000000000E+00 0. -1.
         11    1    3    3    0    0  0.10311428172E+02 -0.18998343410E+02  0.55369997080E+01  0.22314142809E+02  0.51100000000E-03 0. -1.
        -11    1    3    3    0    0  0.31428915749E+01  0.20773971009E+02  0.13100981752E+02  0.24760277907E+02  0.51100000000E-03 0.  1.
        -12    1    3    3    0    0  0.12217237810E+02 -0.44584193450E+00  0.22799621281E+00  0.12227495942E+02  0.00000000000E+00 0.  1.
</event>
<event>
 7    1  0.7819001E-012  0.5930194E+02  0.7816164E-02  0.1266605E+00
        -11   -1    0    0    0    0  0.00000000000E+00  0.00000000000E+00  0.45593999997E+02  0.45594000000E+02  0.51100000000E-03 0. -1.
         11   -1    0    0    0    0 -0.00000000000E+00 -0.00000000000E+00 -0.45593999997E+02  0.45594000000E+02  0.51100000000E-03 0.  1.
    9900012    2    1    2    0    0  0.18195464417E+02  0.69500808198E+01 -0.25245634051E+02  0.59301943684E+02  0.49999999373E+02 0.  0.
         12    1    1    2    0    0 -0.18195464417E+02 -0.69500808198E+01  0.25245634051E+02  0.31886056316E+02  0.00000000000E+00 0. -1.
         11    1    3    3    0    0  0.14963177244E+01  0.16056120654E+02 -0.43552750881E+00  0.16131573440E+02  0.51100000000E-03 0. -1.
        -11    1    3    3    0    0  0.39564984896E+01 -0.57740221935E+01 -0.28616662067E+02  0.29460253915E+02  0.51100000000E-03 0.  1.
        -12    1    3    3    0    0  0.12742648203E+02 -0.33320176407E+01  0.38065555247E+01  0.13710116329E+02  0.00000000000E+00 0.  1.
</event>
<event>
 7    1  0.7819001E-012  0.5930197E+02  0.7816164E-02  0.1266605E+00
        -11   -1    0    0    0    0  0.00000000000E+00  0.00000000000E+00  0.45593999997E+02  0.45594000000E+02  0.51100000000E-03 0. -1.
         11   -1    0    0    0    0 -0.00000000000E+00 -0.00000000000E+00 -0.45593999997E+02  0.45594000000E+02  0.51100000000E-03 0.  1.
    9900012    2    1    2    0    0  0.12470999736E+02 -0.15238583793E+02 -0.25079452382E+02  0.59301965405E+02  0.50000038986E+02 0.  0.
         12    1    1    2    0    0 -0.12470999736E+02  0.15238583793E+02  0.25079452382E+02  0.31886034595E+02  0.00000000000E+00 0. -1.
         11    1    3    3    0    0  0.93029540642E+01 -0.17380451282E+02  0.82734809830E+01  0.21379324800E+02  0.51100000000E-03 0. -1.
        -11    1    3    3    0    0 -0.28101222476E+01  0.75163199807E+01 -0.80213239005E+01  0.11346078198E+02  0.51100000000E-03 0.  1.
         12    1    3    3    0    0  0.59781679195E+01 -0.53744524920E+01 -0.25331609464E+02  0.26576562406E+02  0.00000000000E+00 0. -1.
</event>
<event>
 7    1  0.7819001E-012  0.5930194E+02  0.7816164E-02  0.1266605E+00
        -11   -1    0    0    0    0  0.00000000000E+00  0.00000000000E+00  0.45593999997E+02  0.45594000000E+02  0.51100000000E-03 0.  1.
         11   -1    0    0    0    0 -0.00000000000E+00 -0.00000000000E+00 -0.45593999997E+02  0.45594000000E+02  0.51100000000E-03 0. -1.
    9900012    2    1    2    0    0 -0.14750967578E+02 -0.26120076961E+02  0.10810696195E+02  0.59301943217E+02  0.49999998522E+02 0.  0.
         12    1    1    2    0    0  0.14750967578E+02  0.26120076961E+02 -0.10810696195E+02  0.31886056783E+02  0.00000000000E+00 0. -1.
         11    1    3    3    0    0  0.15445853263E+01 -0.19401822587E+02 -0.85569358880E+00  0.19482009016E+02  0.51100000000E-03 0. -1.
        -11    1    3    3    0    0 -0.16402975259E+02  0.32716677053E+01  0.20518387022E+02  0.26471977886E+02  0.51100000000E-03 0.  1.
        -12    1    3    3    0    0  0.10742235495E+00 -0.99899220793E+01 -0.88519972380E+01  0.13347956316E+02  0.00000000000E+00 0.  1.
</event>
<event>
 7    1  0.7819001E-012  0.5930196E+02  0.7816164E-02  0.1266605E+00
        -11   -1    0    0    0    0  0.00000000000E+00  0.00000000000E+00  0.45593999997E+02  0.45594000000E+02  0.51100000000E-03 0.  1.
         11   -1    0    0    0    0 -0.00000000000E+00 -0.00000000000E+00 -0.45593999997E+02  0.45594000000E+02  0.51100000000E-03 0. -1.
    9900012    2    1    2    0    0  0.18881096802E+02 -0.24224053899E+02  0.85684836524E+01  0.59301960487E+02  0.50000030017E+02 0.  0.
         12    1    1    2    0    0 -0.18881096802E+02  0.24224053899E+02 -0.85684836524E+01  0.31886039513E+02  0.00000000000E+00 0. -1.
         11    1    3    3    0    0  0.68445527216E+01 -0.33435450004E+02  0.28017891060E+01  0.34243645270E+02  0.51100000000E-03 0. -1.
        -11    1    3    3    0    0  0.10487231516E+02  0.41064622167E+01  0.12264386150E+02  0.16651132835E+02  0.51100000000E-03 0.  1.
         12    1    3    3    0    0  0.15493125642E+01  0.51049338879E+01 -0.64976916034E+01  0.84071823814E+01  0.00000000000E+00 0. -1.
</event>
<event>
 7    1  0.7819001E-012  0.5930190E+02  0.7816164E-02  0.1266605E+00
        -11   -1    0    0    0    0  0.00000000000E+00  0.00000000000E+00  0.45593999997E+02  0.45594000000E+02  0.51100000000E-03 0.  1.
         11   -1    0    0    0    0 -0.00000000000E+00 -0.00000000000E+00 -0.45593999997E+02  0.45594000000E+02  0.51100000000E-03 0. -1.
    9900012    2    1    2    0    0  0.58976321234E+01 -0.28827465493E+02 -0.12284886755E+02  0.59301901555E+02  0.49999922540E+02 0.  0.
         12    1    1    2    0    0 -0.58976321234E+01  0.28827465493E+02  0.12284886755E+02  0.31886098445E+02  0.00000000000E+00 0. -1.
         11    1    3    3    0    0 -0.11472380623E+01 -0.30707862812E+02 -0.76345680873E+01  0.31663474600E+02  0.51100000000E-03 0. -1.
        -11    1    3    3    0    0  0.15883521580E+02  0.64855905954E+01 -0.16793080545E+01  0.17238596780E+02  0.51100000000E-03 0.  1.
         12    1    3    3    0    0 -0.88386513944E+01 -0.46051932773E+01 -0.29710106137E+01  0.10399830175E+02  0.00000000000E+00 0. -1.
</event>
<event>
 7    1  0.7819001E-012  0.5930196E+02  0.7816164E-02  0.1266605E+00
        -11   -1    0    0    0    0  0.00000000000E+00  0.00000000000E+00  0.45593999997E+02  0.45594000000E+02  0.51100000000E-03 0. -1.
         11   -1    0    0    0    0 -0.00000000000E+00 -0.00000000000E+00 -0.45593999997E+02  0.45594000000E+02  0.51100000000E-03 0.  1.
    9900012    2    1    2    0    0  0.78076489386E+01 -0.13735612784E+02 -0.27696449909E+02  0.59301956375E+02  0.50000022519E+02 0.  0.
         12    1    1    2    0    0 -0.78076489386E+01  0.13735612784E+02  0.27696449909E+02  0.31886043625E+02  0.00000000000E+00 0. -1.
         11    1    3    3    0    0 -0.43276905728E+01  0.52692953208E+01  0.41096559498E+01  0.79613850026E+01  0.51100000000E-03 0. -1.
        -11    1    3    3    0    0  0.20104936743E+02 -0.23343203725E+02 -0.21276572104E+02  0.37440701948E+02  0.51100000000E-03 0.  1.
         12    1    3    3    0    0 -0.79695972317E+01  0.43382956207E+01 -0.10529533755E+02  0.13899869425E+02  0.00000000000E+00 0. -1.
</event>
<event>
 7    1  0.7819001E-012  0.5930195E+02  0.7816164E-02  0.1266605E+00
        -11   -1    0    0    0    0  0.00000000000E+00  0.00000000000E+00  0.45593999997E+02  0.45594000000E+02  0.51100000000E-03 0.  1.
         11   -1    0    0    0    0 -0.00000000000E+00 -0.00000000000E+00 -0.45593999997E+02  0.45594000000E+02  0.51100000000E-03 0. -1.
    9900012    2    1    2    0    0  0.24079918479E+02 -0.46603516304E+01  0.20375449671E+02  0.59301948182E+02  0.50000007576E+02 0.  0.
         12    1    1    2    0    0 -0.24079918479E+02  0.46603516304E+01 -0.20375449671E+02  0.31886051818E+02  0.00000000000E+00 0. -1.
         11    1    3    3    0    0  0.21737739325E+02  0.13438938014E+02 -0.43278510597E+00  0.25560157847E+02  0.51100000000E-03 0. -1.
        -11    1    3    3    0    0  0.10617571621E+02 -0.78204219984E+01  0.84461382121E+01  0.15659791771E+02  0.51100000000E-03 0.  1.
         12    1    3    3    0    0 -0.82753924680E+01 -0.10278867646E+02  0.12362096565E+02  0.18081998564E+02  0.00000000000E+00 0. -1.
</event>
<event>
 7    1  0.7819001E-012  0.5930184E+02  0.7816164E-02  0.1266605E+00
        -11   -1    0    0    0    0  0.00000000000E+00  0.00000000000E+00  0.45593999997E+02  0.45594000000E+02  0.51100000000E-03 0. -1.
         11   -1    0    0    0    0 -0.00000000000E+00 -0.00000000000E+00 -0.45593999997E+02  0.45594000000E+02  0.51100000000E-03 0.  1.
    9900012    2    1    2    0    0  0.29876308378E+02  0.50522990734E+01 -0.99301382498E+01  0.59301840402E+02  0.49999811011E+02 0.  0.
         12    1    1    2    0    0 -0.29876308378E+02 -0.50522990734E+01  0.99301382498E+01  0.31886159598E+02  0.00000000000E+00 0. -1.
         11    1    3    3    0    0  0.98286703032E+01  0.86276248323E+01  0.65456543442E+01  0.14624782434E+02  0.51100000000E-03 0. -1.
        -11    1    3    3    0    0  0.18224331965E+02 -0.87407077410E+01 -0.26455447673E+02  0.33292896528E+02  0.51100000000E-03 0.  1.
        -12    1    3    3    0    0  0.18233061106E+01  0.51653819821E+01  0.99796550794E+01  0.11384161440E+02  0.00000000000E+00 0.  1.
</event>
<event>
 7    1  0.7819001E-012  0.5930193E+02  0.7816164E-02  0.1266605E+00
        -11   -1    0    0    0    0  0.00000000000E+00  0.00000000000E+00  0.45593999997E+02  0.45594000000E+02  0.51100000000E-03 0.  1.
         11   -1    0    0    0    0 -0.00000000000E+00 -0.00000000000E+00 -0.45593999997E+02  0.45594000000E+02  0.51100000000E-03 0. -1.
    9900012    2    1    2    0    0  0.35478998676E+01  0.23045418128E+02  0.21749544278E+02  0.59301928332E+02  0.49999971374E+02 0.  0.
         12    1    1    2    0    0 -0.35478998676E+01 -0.23045418128E+02 -0.21749544278E+02  0.31886071668E+02  0.00000000000E+00 0. -1.
         11    1    3    3    0    0 -0.47406489904E+01 -0.31156123120E+01  0.21438308698E+02  0.22176155506E+02  0.51100000000E-03 0.  1.
        -11    1    3    3    0    0  0.97251881942E+01  0.22008964966E+02  0.10330327238E+02  0.26185673286E+02  0.51100000000E-03 0. -1.
         12    1    3    3    0    0 -0.14366393361E+01  0.41520654731E+01 -0.10019091659E+02  0.10940099540E+02  0.00000000000E+00 0. -1.
</event>
<event>
 7    1  0.7819001E-012  0.5930194E+02  0.7816164E-02  0.1266605E+00
        -11   -1    0    0    0    0  0.00000000000E+00  0.00000000000E+00  0.45593999997E+02  0.45594000000E+02  0.51100000000E-03 0.  1.
         11   -1    0    0    0    0 -0.00000000000E+00 -0.00000000000E+00 -0.45593999997E+02  0.45594000000E+02  0.51100000000E-03 0. -1.
    9900012    2    1    2    0    0 -0.78437446380E+01 -0.19430489235E+02  0.24034403348E+02  0.59301940567E+02  0.49999993689E+02 0.  0.
         12    1    1    2    0    0  0.78437446380E+01  0.19430489235E+02 -0.24034403348E+02  0.31886059433E+02  0.00000000000E+00 0. -1.
         11    1    3    3    0    0 -0.20402773359E+02 -0.43591351165E+00  0.10378170970E+02  0.22894750802E+02  0.51100000000E-03 0. -1.
        -11    1    3    3    0    0  0.13915031691E+02 -0.69193423293E+01 -0.29622036007E+01  0.15820241960E+02  0.51100000000E-03 0.  1.
         12    1    3    3    0    0 -0.13560029698E+01 -0.12075233394E+02  0.16618435979E+02  0.20586947806E+02  0.00000000000E+00 0. -1.
</event>
<event>
 7    1  0.7819001E-012  0.5930198E+02  0.7816164E-02  0.1266605E+00
        -11   -1    0    0    0    0  0.00000000000E+00  0.00000000000E+00  0.45593999997E+02  0.45594000000E+02  0.51100000000E-03 0.  1.
         11   -1    0    0    0    0 -0.00000000000E+00 -0.00000000000E+00 -0.45593999997E+02  0.45594000000E+02  0.51100000000E-03 0. -1.
    9900012    2    1    2    0    0  0.27917189804E+01  0.21341518654E+02  0.23525820417E+02  0.59301978931E+02  0.50000063655E+02 0.  0.
         12    1    1    2    0    0 -0.27917189804E+01 -0.21341518654E+02 -0.23525820417E+02  0.31886021069E+02  0.00000000000E+00 0. -1.
         11    1    3    3    0    0  0.18032230795E+02  0.15621985275E+02  0.11169034332E+02  0.26343027532E+02  0.51100000000E-03 0. -1.
        -11    1    3    3    0    0 -0.16133624383E+02 -0.30296267515E+01  0.16466742211E+02  0.23251367127E+02  0.51100000000E-03 0.  1.
        -12    1    3    3    0    0  0.89311256851E+00  0.87491601302E+01 -0.41099561254E+01  0.97075842719E+01  0.00000000000E+00 0.  1.
</event>
<event>
 7    1  0.7819001E-012  0.5930195E+02  0.7816164E-02  0.1266605E+00
        -11   -1    0    0    0    0  0.00000000000E+00  0.00000000000E+00  0.45593999997E+02  0.45594000000E+02  0.51100000000E-03 0.  1.
         11   -1    0    0    0    0 -0.00000000000E+00 -0.00000000000E+00 -0.45593999997E+02  0.45594000000E+02  0.51100000000E-03 0. -1.
    9900012    2    1    2    0    0 -0.17790767137E+02 -0.26156159907E+02 -0.40080026539E+01  0.59301950046E+02  0.50000010975E+02 0.  0.
         12    1    1    2    0    0  0.17790767137E+02  0.26156159907E+02  0.40080026539E+01  0.31886049954E+02  0.00000000000E+00 0. -1.
         11    1    3    3    0    0 -0.19875254076E+02 -0.20179230244E+00 -0.48666485987E+01  0.20463399365E+02  0.51100000000E-03 0. -1.
        -11    1    3    3    0    0 -0.86935263863E+01 -0.24939971557E+02  0.56348125500E+01  0.27006123288E+02  0.51100000000E-03 0.  1.
        -12    1    3    3    0    0  0.10778013325E+02 -0.10143960473E+01 -0.47761666052E+01  0.11832427393E+02  0.00000000000E+00 0.  1.
</event>
<event>
 7    1  0.7819001E-012  0.5930190E+02  0.7816164E-02  0.1266605E+00
        -11   -1    0    0    0    0  0.00000000000E+00  0.00000000000E+00  0.45593999997E+02  0.45594000000E+02  0.51100000000E-03 0. -1.
         11   -1    0    0    0    0 -0.00000000000E+00 -0.00000000000E+00 -0.45593999997E+02  0.45594000000E+02  0.51100000000E-03 0.  1.
    9900012    2    1    2    0    0 -0.27971177023E+02 -0.14399602459E+02  0.51950068519E+01  0.59301899717E+02  0.49999919189E+02 0.  0.
         12    1    1    2    0    0  0.27971177023E+02  0.14399602459E+02 -0.51950068519E+01  0.31886100283E+02  0.00000000000E+00 0. -1.
         11    1    3    3    0    0 -0.53414722400E+01 -0.22459010393E+02  0.15052365593E+02  0.27559248606E+02  0.51100000000E-03 0. -1.
        -11    1    3    3    0    0 -0.21924852733E+02  0.43485524997E+00 -0.44695753642E+01  0.22380021686E+02  0.51100000000E-03 0.  1.
         12    1    3    3    0    0 -0.70485205030E+00  0.76245526840E+01 -0.53877833773E+01  0.93626294258E+01  0.00000000000E+00 0. -1.
</event>
<event>
 7    1  0.7819001E-012  0.5930194E+02  0.7816164E-02  0.1266605E+00
        -11   -1    0    0    0    0  0.00000000000E+00  0.00000000000E+00  0.45593999997E+02  0.45594000000E+02  0.51100000000E-03 0.  1.
         11   -1    0    0    0    0 -0.00000000000E+00 -0.00000000000E+00 -0.45593999997E+02  0.45594000000E+02  0.51100000000E-03 0. -1.
    9900012    2    1    2    0    0 -0.28434416474E+02 -0.42592119806E+01  0.13786364311E+02  0.59301940855E+02  0.49999994213E+02 0.  0.
         12    1    1    2    0    0  0.28434416474E+02  0.42592119806E+01 -0.13786364311E+02  0.31886059145E+02  0.00000000000E+00 0. -1.
         11    1    3    3    0    0  0.11175688856E+02  0.46781681915E+01 -0.64432715346E+01  0.13722136399E+02  0.51100000000E-03 0. -1.
        -11    1    3    3    0    0 -0.18833952995E+02 -0.36980179496E+01  0.71827253517E+01  0.20493527415E+02  0.51100000000E-03 0.  1.
         12    1    3    3    0    0 -0.20776152335E+02 -0.52393622225E+01  0.13046910494E+02  0.25086277041E+02  0.00000000000E+00 0. -1.
</event>
<event>
 7    1  0.7819001E-012  0.5930195E+02  0.7816164E-02  0.1266605E+00
        -11   -1    0    0    0    0  0.00000000000E+00  0.00000000000E+00  0.45593999997E+02  0.45594000000E+02  0.51100000000E-03 0. -1.
         11   -1    0    0    0    0 -0.00000000000E+00 -0.00000000000E+00 -0.45593999997E+02  0.45594000000E+02  0.51100000000E-03 0.  1.
    9900012    2    1    2    0    0  0.26014543821E+00  0.29155332880E+02  0.12908105375E+02  0.59301948263E+02  0.50000007725E+02 0.  0.
         12    1    1    2    0    0 -0.26014543821E+00 -0.29155332880E+02 -0.12908105375E+02  0.31886051737E+02  0.00000000000E+00 0. -1.
         11    1    3    3    0    0  0.11436584194E+02  0.14772749352E+01 -0.38476458588E+01  0.12156569342E+02  0.51100000000E-03 0. -1.
        -11    1    3    3    0    0 -0.16459415931E+02  0.28357214290E+02  0.36399703851E+01  0.32989291593E+02  0.51100000000E-03 0.  1.
        -12    1    3    3    0    0  0.52829771759E+01 -0.67915634569E+00  0.13115780849E+02  0.14156087329E+02  0.00000000000E+00 0.  1.
</event>
<event>
 7    1  0.7819001E-012  0.5930194E+02  0.7816164E-02  0.1266605E+00
        -11   -1    0    0    0    0  0.00000000000E+00  0.00000000000E+00  0.45593999997E+02  0.45594000000E+02  0.51100000000E-03 0.  1.
         11   -1    0    0    0    0 -0.00000000000E+00 -0.00000000000E+00 -0.45593999997E+02  0.45594000000E+02  0.51100000000E-03 0. -1.
    9900012    2    1    2    0    0 -0.18732479138E+02 -0.25779503623E+02  0.11101007962E+01  0.59301938696E+02  0.49999990277E+02 0.  0.
         12    1    1    2    0    0  0.18732479138E+02  0.25779503623E+02 -0.11101007962E+01  0.31886061304E+02  0.00000000000E+00 0. -1.
         11    1    3    3    0    0  0.11247199780E+02  0.16841129551E+01 -0.45905150931E+01  0.12264117107E+02  0.51100000000E-03 0. -1.
        -11    1    3    3    0    0 -0.16546412629E+02 -0.25230199300E+02 -0.38332553240E+01  0.30414479681E+02  0.51100000000E-03 0.  1.
        -12    1    3    3    0    0 -0.13433266288E+02 -0.22334172780E+01  0.95338712133E+01  0.16623341909E+02  0.00000000000E+00 0.  1.
</event>
<event>
 7    1  0.7819001E-012  0.5930194E+02  0.7816164E-02  0.1266605E+00
        -11   -1    0    0    0    0  0.00000000000E+00  0.00000000000E+00  0.45593999997E+02  0.45594000000E+02  0.51100000000E-03 0.  1.
         11   -1    0    0    0    0 -0.00000000000E+00 -0.00000000000E+00 -0.45593999997E+02  0.45594000000E+02  0.51100000000E-03 0. -1.
    9900012    2    1    2    0    0  0.11623326822E+02  0.20505295066E+02  0.21474448144E+02  0.59301940738E+02  0.49999994001E+02 0.  0.
         12    1    1    2    0    0 -0.11623326822E+02 -0.20505295066E+02 -0.21474448144E+02  0.31886059262E+02  0.00000000000E+00 0. -1.
         11    1    3    3    0    0  0.94829505802E+01  0.23812007614E+01 -0.94010324675E+01  0.13563770880E+02  0.51100000000E-03 0. -1.
        -11    1    3    3    0    0 -0.97065054741E+01  0.48840508736E+01  0.24605184803E+02  0.26897682445E+02  0.51100000000E-03 0.  1.
         12    1    3    3    0    0  0.11846881716E+02  0.13240043431E+02  0.62702958084E+01  0.18840487413E+02  0.00000000000E+00 0. -1.
</event>
<event>
 7    1  0.7819001E-012  0.5930196E+02  0.7816164E-02  0.1266605E+00
        -11   -1    0    0    0    0  0.00000000000E+00  0.00000000000E+00  0.45593999997E+02  0.45594000000E+02  0.51100000000E-03 0. -1.
         11   -1    0    0    0    0 -0.00000000000E+00 -0.00000000000E+00 -0.45593999997E+02  0.45594000000E+02  0.51100000000E-03 0.  1.
    9900012    2    1    2    0    0 -0.41089819694E+01  0.29693807467E+02 -0.10868018995E+02  0.59301956476E+02  0.50000022703E+02 0.  0.
         12    1    1    2    0    0  0.41089819694E+01 -0.29693807467E+02  0.10868018995E+02  0.31886043524E+02  0.00000000000E+00 0. -1.
         11    1    3    3    0    0 -0.66282247030E+01 -0.11869967575E+02 -0.13720645844E+01  0.13664261942E+02  0.51100000000E-03 0. -1.
        -11    1    3    3    0    0 -0.48257752888E+01  0.20220744172E+02 -0.99819695542E+01  0.23060926227E+02  0.51100000000E-03 0.  1.
        -12    1    3    3    0    0  0.73450180224E+01  0.21343030870E+02  0.48601514347E+00  0.22576768307E+02  0.00000000000E+00 0.  1.
</event>
<event>
 7    1  0.7819001E-012  0.5930197E+02  0.7816164E-02  0.1266605E+00
        -11   -1    0    0    0    0  0.00000000000E+00  0.00000000000E+00  0.45593999997E+02  0.45594000000E+02  0.51100000000E-03 0. -1.
         11   -1    0    0    0    0 -0.00000000000E+00 -0.00000000000E+00 -0.45593999997E+02  0.45594000000E+02  0.51100000000E-03 0.  1.
    9900012    2    1    2    0    0 -0.16434072703E+02 -0.23722291328E+02  0.13560716402E+02  0.59301970445E+02  0.50000048178E+02 0.  0.
         12    1    1    2    0    0  0.16434072703E+02  0.23722291328E+02 -0.13560716402E+02  0.31886029555E+02  0.00000000000E+00 0. -1.
         11    1    3    3    0    0  0.44284603770E+01 -0.16407391618E+02 -0.90449704600E+01  0.19251629850E+02  0.51100000000E-03 0.  1.
        -11    1    3    3    0    0 -0.21314248099E+02 -0.13853588982E+02  0.13361691104E+02  0.28718528673E+02  0.51100000000E-03 0. -1.
        -12    1    3    3    0    0  0.45171501857E+00  0.65386892721E+01  0.92439957581E+01  0.11331811922E+02  0.00000000000E+00 0.  1.
</event>
<event>
 7    1  0.7819001E-012  0.5930192E+02  0.7816164E-02  0.1266605E+00
        -11   -1    0    0    0    0  0.00000000000E+00  0.00000000000E+00  0.45593999997E+02  0.45594000000E+02  0.51100000000E-03 0. -1.
         11   -1    0    0    0    0 -0.00000000000E+00 -0.00000000000E+00 -0.45593999997E+02  0.45594000000E+02  0.51100000000E-03 0.  1.
    9900012    2    1    2    0    0  0.48415722557E+01  0.59057411500E+01 -0.30958093394E+02  0.59301919228E+02  0.49999954770E+02 0.  0.
         12    1    1    2    0    0 -0.48415722557E+01 -0.59057411500E+01  0.30958093394E+02  0.31886080772E+02  0.00000000000E+00 0. -1.
         11    1    3    3    0    0 -0.11534579880E+02  0.16090568120E+02  0.97650216983E+00  0.19821868534E+02  0.51100000000E-03 0. -1.
        -11    1    3    3    0    0  0.17889253694E+02 -0.86932013999E+01 -0.23525074018E+02  0.30806269753E+02  0.51100000000E-03 0.  1.
         12    1    3    3    0    0 -0.15131015579E+01 -0.14916255700E+01 -0.84095215460E+01  0.86737809402E+01  0.00000000000E+00 0. -1.
</event>
<event>
 7    1  0.7819001E-012  0.5930194E+02  0.7816164E-02  0.1266605E+00
        -11   -1    0    0    0    0  0.00000000000E+00  0.00000000000E+00  0.45593999997E+02  0.45594000000E+02  0.51100000000E-03 0.  1.
         11   -1    0    0    0    0 -0.00000000000E+00 -0.00000000000E+00 -0.45593999997E+02  0.45594000000E+02  0.51100000000E-03 0. -1.
    9900012    2    1    2    0    0 -0.22615768362E+02  0.14631133215E+02  0.17063930334E+02  0.59301941037E+02  0.49999994545E+02 0.  0.
         12    1    1    2    0    0  0.22615768362E+02 -0.14631133215E+02 -0.17063930334E+02  0.31886058963E+02  0.00000000000E+00 0. -1.
         11    1    3    3    0    0  0.13713814851E+02  0.25193876647E+01  0.19295982698E+01  0.14076199122E+02  0.51100000000E-03 0. -1.
        -11    1    3    3    0    0 -0.51365235297E+01  0.10128205104E+02  0.36990445598E+01  0.11943506332E+02  0.51100000000E-03 0.  1.
         12    1    3    3    0    0 -0.31193059683E+02  0.19835404463E+01  0.11435287505E+02  0.33282235583E+02  0.00000000000E+00 0. -1.
</event>
<event>
 7    1  0.7819001E-012  0.5930194E+02  0.7816164E-02  0.1266605E+00
        -11   -1    0    0    0    0  0.00000000000E+00  0.00000000000E+00  0.45593999997E+02  0.45594000000E+02  0.51100000000E-03 0.  1.
         11   -1    0    0    0    0 -0.00000000000E+00 -0.00000000000E+00 -0.45593999997E+02  0.45594000000E+02  0.51100000000E-03 0. -1.
    9900012    2    1    2    0    0  0.11263333540E+02  0.21748278419E+02  0.20417407975E+02  0.59301939643E+02  0.49999992004E+02 0.  0.
         12    1    1    2    0    0 -0.11263333540E+02 -0.21748278419E+02 -0.20417407975E+02  0.31886060357E+02  0.00000000000E+00 0. -1.
         11    1    3    3    0    0  0.77831863750E+01  0.22391870163E+02  0.11292413128E+02  0.26258187943E+02  0.51100000000E-03 0.  1.
        -11    1    3    3    0    0  0.91949781436E+01 -0.13785122750E+02  0.10704046536E+01  0.16604908873E+02  0.51100000000E-03 0. -1.
         12    1    3    3    0    0 -0.57148309784E+01  0.13141531007E+02  0.80545901937E+01  0.16438842827E+02  0.00000000000E+00 0. -1.
</event>
<event>
 7    1  0.7819001E-012  0.5930193E+02  0.7816164E-02  0.1266605E+00
        -11   -1    0    0    0    0  0.00000000000E+00  0.00000000000E+00  0.45593999997E+02  0.45594000000E+02  0.51100000000E-03 0. -1.
         11   -1    0    0    0    0 -0.00000000000E+00 -0.00000000000E+00 -0.45593999997E+02  0.45594000000E+02  0.51100000000E-03 0.  1.
    9900012    2    1    2    0    0 -0.12803031172E+02 -0.28837445141E+02 -0.46049286443E+01  0.59301933807E+02  0.49999981359E+02 0.  0.
         12    1    1    2    0    0  0.12803031172E+02  0.28837445141E+02  0.46049286443E+01  0.31886066193E+02  0.00000000000E+00 0. -1.
         11    1    3    3    0    0  0.89469401858E+01  0.15785656909E+01  0.53733936753E+01  0.10555234160E+02  0.51100000000E-03 0. -1.
        -11    1    3    3    0    0 -0.15356467469E+02 -0.33784785870E+02 -0.14913549832E+02  0.39995584984E+02  0.51100000000E-03 0.  1.
        -12    1    3    3    0    0 -0.63935038888E+01  0.33687750374E+01  0.49352275123E+01  0.87511146619E+01  0.00000000000E+00 0.  1.
</event>
<event>
 7    1  0.7819001E-012  0.5930197E+02  0.7816164E-02  0.1266605E+00
        -11   -1    0    0    0    0  0.00000000000E+00  0.00000000000E+00  0.45593999997E+02  0.45594000000E+02  0.51100000000E-03 0.  1.
         11   -1    0    0    0    0 -0.00000000000E+00 -0.00000000000E+00 -0.45593999997E+02  0.45594000000E+02  0.51100000000E-03 0. -1.
    9900012    2    1    2    0    0 -0.28660424516E+02 -0.16212998989E+01 -0.13880585934E+02  0.59301965240E+02  0.50000038687E+02 0.  0.
         12    1    1    2    0    0  0.28660424516E+02  0.16212998989E+01  0.13880585934E+02  0.31886034760E+02  0.00000000000E+00 0. -1.
         11    1    3    3    0    0 -0.18468884969E+02  0.51653461208E+01 -0.76087117409E+01  0.20631844493E+02  0.51100000000E-03 0. -1.
        -11    1    3    3    0    0  0.66886020285E+01 -0.17110185297E+02 -0.29395485373E+01  0.18604751648E+02  0.51100000000E-03 0.  1.
        -12    1    3    3    0    0 -0.16880141576E+02  0.10323539278E+02 -0.33323256561E+01  0.20065369100E+02  0.00000000000E+00 0.  1.
</event>
<event>
 7    1  0.7819001E-012  0.5930195E+02  0.7816164E-02  0.1266605E+00
        -11   -1    0    0    0    0  0.00000000000E+00  0.00000000000E+00  0.45593999997E+02  0.45594000000E+02  0.51100000000E-03 0.  1.
         11   -1    0    0    0    0 -0.00000000000E+00 -0.00000000000E+00 -0.45593999997E+02  0.45594000000E+02  0.51100000000E-03 0. -1.
    9900012    2    1    2    0    0 -0.15411773983E+02 -0.22076770413E+02  0.17082559727E+02  0.59301946371E+02  0.50000004274E+02 0.  0.
         12    1    1    2    0    0  0.15411773983E+02  0.22076770413E+02 -0.17082559727E+02  0.31886053629E+02  0.00000000000E+00 0. -1.
         11    1    3    3    0    0  0.12537822072E+02 -0.17820989345E+02  0.16778881740E+01  0.21854060321E+02  0.51100000000E-03 0. -1.
        -11    1    3    3    0    0 -0.94059256463E+01 -0.10620108532E+02  0.90972625049E+01  0.16852843316E+02  0.51100000000E-03 0.  1.
         12    1    3    3    0    0 -0.18543670409E+02  0.63643274632E+01  0.63074090484E+01  0.20595042734E+02  0.00000000000E+00 0. -1.
</event>
<event>
 7    1  0.7819001E-012  0.5930194E+02  0.7816164E-02  0.1266605E+00
        -11   -1    0    0    0    0  0.00000000000E+00  0.00000000000E+00  0.45593999997E+02  0.45594000000E+02  0.51100000000E-03 0.  1.
         11   -1    0    0    0    0 -0.00000000000E+00 -0.00000000000E+00 -0.45593999997E+02  0.45594000000E+02  0.51100000000E-03 0. -1.
    9900012    2    1    2    0    0 -0.22859780627E+02  0.12964525840E+02 -0.18057476185E+02  0.59301938049E+02  0.49999989096E+02 0.  0.
         12    1    1    2    0    0  0.22859780627E+02 -0.12964525840E+02  0.18057476185E+02  0.31886061951E+02  0.00000000000E+00 0. -1.
         11    1    3    3    0    0 -0.28044203657E+02 -0.57698397688E+01 -0.15549793283E+02  0.32581658662E+02  0.51100000000E-03 0. -1.
        -11    1    3    3    0    0 -0.21515361953E+00  0.20728838607E+02 -0.92536181560E+00  0.20750598445E+02  0.51100000000E-03 0.  1.
        -12    1    3    3    0    0  0.53995766499E+01 -0.19944729974E+01 -0.15823210861E+01  0.59696809424E+01  0.00000000000E+00 0.  1.
</event>
<event>
 7    1  0.7819001E-012  0.5930204E+02  0.7816164E-02  0.1266604E+00
        -11   -1    0    0    0    0  0.00000000000E+00  0.00000000000E+00  0.45593999997E+02  0.45594000000E+02  0.51100000000E-03 0. -1.
         11   -1    0    0    0    0 -0.00000000000E+00 -0.00000000000E+00 -0.45593999997E+02  0.45594000000E+02  0.51100000000E-03 0.  1.
    9900012    2    1    2    0    0 -0.67109693093E+01  0.19001502997E+02 -0.24710730233E+02  0.59302040490E+02  0.50000175923E+02 0.  0.
         12    1    1    2    0    0  0.67109693093E+01 -0.19001502997E+02  0.24710730233E+02  0.31885959510E+02  0.00000000000E+00 0. -1.
         11    1    3    3    0    0 -0.14156687609E+02  0.29536259804E+02 -0.17754149180E+02  0.37256036566E+02  0.51100000000E-03 0. -1.
        -11    1    3    3    0    0  0.24662992535E+00 -0.48280074291E+01 -0.10995061759E+02  0.12010906102E+02  0.51100000000E-03 0.  1.
         12    1    3    3    0    0  0.71990883748E+01 -0.57067493771E+01  0.40384807054E+01  0.10035097822E+02  0.00000000000E+00 0. -1.
</event>
<event>
 7    1  0.7819001E-012  0.5930193E+02  0.7816164E-02  0.1266605E+00
        -11   -1    0    0    0    0  0.00000000000E+00  0.00000000000E+00  0.45593999997E+02  0.45594000000E+02  0.51100000000E-03 0. -1.
         11   -1    0    0    0    0 -0.00000000000E+00 -0.00000000000E+00 -0.45593999997E+02  0.45594000000E+02  0.51100000000E-03 0.  1.
    9900012    2    1    2    0    0  0.22628666825E+02 -0.16279790371E+02  0.15480090344E+02  0.59301931979E+02  0.49999978025E+02 0.  0.
         12    1    1    2    0    0 -0.22628666825E+02  0.16279790371E+02 -0.15480090344E+02  0.31886068021E+02  0.00000000000E+00 0. -1.
         11    1    3    3    0    0  0.14938549698E+02  0.59782337032E+01  0.78389745218E+01  0.17898297883E+02  0.51100000000E-03 0.  1.
        -11    1    3    3    0    0  0.13969450736E+02 -0.27266779838E+02  0.11197666923E+02  0.32619175057E+02  0.51100000000E-03 0. -1.
         12    1    3    3    0    0 -0.62793336088E+01  0.50087557639E+01 -0.35565511008E+01  0.87844590388E+01  0.00000000000E+00 0. -1.
</event>
<event>
 7    1  0.7819001E-012  0.5930199E+02  0.7816164E-02  0.1266605E+00
        -11   -1    0    0    0    0  0.00000000000E+00  0.00000000000E+00  0.45593999997E+02  0.45594000000E+02  0.51100000000E-03 0.  1.
         11   -1    0    0    0    0 -0.00000000000E+00 -0.00000000000E+00 -0.45593999997E+02  0.45594000000E+02  0.51100000000E-03 0. -1.
    9900012    2    1    2    0    0  0.27988861152E+02  0.13420514260E+02 -0.72959611473E+01  0.59301990519E+02  0.50000084789E+02 0.  0.
         12    1    1    2    0    0 -0.27988861152E+02 -0.13420514260E+02  0.72959611473E+01  0.31886009481E+02  0.00000000000E+00 0. -1.
         11    1    3    3    0    0  0.27475281172E+02  0.58584465089E+01 -0.10291374712E+02  0.29918637414E+02  0.51100000000E-03 0. -1.
        -11    1    3    3    0    0 -0.25023699963E+01  0.33324720058E+01  0.15389962582E+02  0.15944220702E+02  0.51100000000E-03 0.  1.
         12    1    3    3    0    0  0.30159499759E+01  0.42295957449E+01 -0.12394549017E+02  0.13439132403E+02  0.00000000000E+00 0. -1.
</event>
<event>
 7    1  0.7819001E-012  0.5930194E+02  0.7816164E-02  0.1266605E+00
        -11   -1    0    0    0    0  0.00000000000E+00  0.00000000000E+00  0.45593999997E+02  0.45594000000E+02  0.51100000000E-03 0.  1.
         11   -1    0    0    0    0 -0.00000000000E+00 -0.00000000000E+00 -0.45593999997E+02  0.45594000000E+02  0.51100000000E-03 0. -1.
    9900012    2    1    2    0    0 -0.15989469516E+02  0.25639714544E+02  0.10181489551E+02  0.59301939930E+02  0.49999992527E+02 0.  0.
         12    1    1    2    0    0  0.15989469516E+02 -0.25639714544E+02 -0.10181489551E+02  0.31886060070E+02  0.00000000000E+00 0. -1.
         11    1    3    3    0    0 -0.21900732070E+02  0.41687178173E-01  0.47226387180E+01  0.22404176390E+02  0.51100000000E-03 0. -1.
        -11    1    3    3    0    0  0.11401080916E+02  0.14009404882E+02  0.12785058627E+02  0.22129297222E+02  0.51100000000E-03 0.  1.
        -12    1    3    3    0    0 -0.54898183622E+01  0.11588622484E+02 -0.73262077941E+01  0.14768466318E+02  0.00000000000E+00 0.  1.
</event>
<event>
 7    1  0.7819001E-012  0.5930195E+02  0.7816164E-02  0.1266605E+00
        -11   -1    0    0    0    0  0.00000000000E+00  0.00000000000E+00  0.45593999997E+02  0.45594000000E+02  0.51100000000E-03 0. -1.
         11   -1    0    0    0    0 -0.00000000000E+00 -0.00000000000E+00 -0.45593999997E+02  0.45594000000E+02  0.51100000000E-03 0.  1.
    9900012    2    1    2    0    0  0.22469879387E+02 -0.19850323159E+01 -0.22536286929E+02  0.59301951930E+02  0.50000014412E+02 0.  0.
         12    1    1    2    0    0 -0.22469879387E+02  0.19850323159E+01  0.22536286929E+02  0.31886048070E+02  0.00000000000E+00 0. -1.
         11    1    3    3    0    0 -0.66748352792E+01  0.62321513844E+01  0.39572532926E+01  0.99525369010E+01  0.51100000000E-03 0. -1.
        -11    1    3    3    0    0  0.15671079683E+02 -0.17995047506E+02 -0.21090983208E+02  0.31847041403E+02  0.51100000000E-03 0.  1.
        -12    1    3    3    0    0  0.13473634983E+02  0.97778638056E+01 -0.54025570141E+01  0.17502373626E+02  0.00000000000E+00 0.  1.
</event>
<event>
 7    1  0.7819001E-012  0.5930191E+02  0.7816164E-02  0.1266605E+00
        -11   -1    0    0    0    0  0.00000000000E+00  0.00000000000E+00  0.45593999997E+02  0.45594000000E+02  0.51100000000E-03 0.  1.
         11   -1    0    0    0    0 -0.00000000000E+00 -0.00000000000E+00 -0.45593999997E+02  0.45594000000E+02  0.51100000000E-03 0. -1.
    9900012    2    1    2    0    0  0.59192077684E+01  0.24804223279E+02  0.19142524155E+02  0.59301909865E+02  0.49999937695E+02 0.  0.
         12    1    1    2    0    0 -0.59192077684E+01 -0.24804223279E+02 -0.19142524155E+02  0.31886090135E+02  0.00000000000E+00 0. -1.
         11    1    3    3    0    0 -0.12863249007E+02 -0.82645764566E+01  0.10560024623E+02  0.18581725413E+02  0.51100000000E-03 0. -1.
        -11    1    3    3    0    0  0.26831460113E+01  0.10309797364E+02  0.71016224698E+01  0.12803290052E+02  0.51100000000E-03 0.  1.
         12    1    3    3    0    0  0.16099310764E+02  0.22759002371E+02  0.14808770627E+01  0.27916894399E+02  0.00000000000E+00 0. -1.
</event>
<event>
 7    1  0.1138588E-011  0.5930195E+02  0.7816164E-02  0.1266605E+00
        -11   -1    0    0    0    0  0.00000000000E+00  0.00000000000E+00  0.45593999997E+02  0.45594000000E+02  0.51100000000E-03 0. -1.
         11   -1    0    0    0    0 -0.00000000000E+00 -0.00000000000E+00 -0.45593999997E+02  0.45594000000E+02  0.51100000000E-03 0.  1.
    9900012    2    1    2    0    0 -0.19492970370E+02  0.80494077001E+01 -0.23915500106E+02  0.59301952840E+02  0.50000016072E+02 0.  0.
         12    1    1    2    0    0  0.19492970370E+02 -0.80494077001E+01  0.23915500106E+02  0.31886047160E+02  0.00000000000E+00 0. -1.
         11    1    3    3    0    0  0.10277340940E+02  0.44136852657E+01  0.15846941707E+01  0.11296707941E+02  0.51100000000E-03 0. -1.
        -11    1    3    3    0    0 -0.15503715335E+02  0.17755816942E+01 -0.29236667389E+02  0.33140618579E+02  0.51100000000E-03 0.  1.
         12    1    3    3    0    0 -0.14266595976E+02  0.18601407402E+01  0.37364731124E+01  0.14864626320E+02  0.00000000000E+00 0. -1.
</event>
<event>
 7    1  0.7819001E-012  0.5930192E+02  0.7816164E-02  0.1266605E+00
        -11   -1    0    0    0    0  0.00000000000E+00  0.00000000000E+00  0.45593999997E+02  0.45594000000E+02  0.51100000000E-03 0.  1.
         11   -1    0    0    0    0 -0.00000000000E+00 -0.00000000000E+00 -0.45593999997E+02  0.45594000000E+02  0.51100000000E-03 0. -1.
    9900012    2    1    2    0    0  0.84384279388E+01 -0.20869803151E+02  0.22582435686E+02  0.59301919162E+02  0.49999954652E+02 0.  0.
         12    1    1    2    0    0 -0.84384279388E+01  0.20869803151E+02 -0.22582435686E+02  0.31886080838E+02  0.00000000000E+00 0. -1.
         11    1    3    3    0    0  0.21818586899E+02 -0.18079064135E+02  0.90202184452E+01  0.29736637929E+02  0.51100000000E-03 0.  1.
        -11    1    3    3    0    0 -0.14982225179E+02 -0.20168863798E+01 -0.75665748705E+00  0.15136295214E+02  0.51100000000E-03 0. -1.
        -12    1    3    3    0    0  0.16020662183E+01 -0.77385263661E+00  0.14318874728E+02  0.14428986019E+02  0.00000000000E+00 0.  1.
</event>
<event>
 7    1  0.7819001E-012  0.5930194E+02  0.7816164E-02  0.1266605E+00
        -11   -1    0    0    0    0  0.00000000000E+00  0.00000000000E+00  0.45593999997E+02  0.45594000000E+02  0.51100000000E-03 0.  1.
         11   -1    0    0    0    0 -0.00000000000E+00 -0.00000000000E+00 -0.45593999997E+02  0.45594000000E+02  0.51100000000E-03 0. -1.
    9900012    2    1    2    0    0 -0.24080509413E+02 -0.74327225635E+00  0.20887735884E+02  0.59301938819E+02  0.49999990501E+02 0.  0.
         12    1    1    2    0    0  0.24080509413E+02  0.74327225635E+00 -0.20887735884E+02  0.31886061181E+02  0.00000000000E+00 0. -1.
         11    1    3    3    0    0 -0.12426060873E+02 -0.25848400627E+01  0.28846537703E+02  0.31515252255E+02  0.51100000000E-03 0. -1.
        -11    1    3    3    0    0 -0.15219495953E+02 -0.70226834354E+01 -0.70682903424E+01  0.18190983160E+02  0.51100000000E-03 0.  1.
         12    1    3    3    0    0  0.35650474126E+01  0.88642512417E+01 -0.89051147679E+00  0.95957034041E+01  0.00000000000E+00 0. -1.
</event>
<event>
 7    1  0.7819001E-012  0.5930196E+02  0.7816164E-02  0.1266605E+00
        -11   -1    0    0    0    0  0.00000000000E+00  0.00000000000E+00  0.45593999997E+02  0.45594000000E+02  0.51100000000E-03 0. -1.
         11   -1    0    0    0    0 -0.00000000000E+00 -0.00000000000E+00 -0.45593999997E+02  0.45594000000E+02  0.51100000000E-03 0.  1.
    9900012    2    1    2    0    0  0.22023022011E+02 -0.23041046737E+02  0.90331447415E+00  0.59301963710E+02  0.50000035895E+02 0.  0.
         12    1    1    2    0    0 -0.22023022011E+02  0.23041046737E+02 -0.90331447415E+00  0.31886036290E+02  0.00000000000E+00 0. -1.
         11    1    3    3    0    0  0.20194363424E+01  0.64999855648E+01 -0.12630799441E+02  0.14347997431E+02  0.51100000000E-03 0. -1.
        -11    1    3    3    0    0  0.17738786007E+02 -0.78199877948E+01  0.12548596773E+02  0.23092943063E+02  0.51100000000E-03 0.  1.
        -12    1    3    3    0    0  0.22647996622E+01 -0.21721044507E+02  0.98551714279E+00  0.21861023216E+02  0.00000000000E+00 0.  1.
</event>
<event>
 7    1  0.7819001E-012  0.5930196E+02  0.7816164E-02  0.1266605E+00
        -11   -1    0    0    0    0  0.00000000000E+00  0.00000000000E+00  0.45593999997E+02  0.45594000000E+02  0.51100000000E-03 0.  1.
         11   -1    0    0    0    0 -0.00000000000E+00 -0.00000000000E+00 -0.45593999997E+02  0.45594000000E+02  0.51100000000E-03 0. -1.
    9900012    2    1    2    0    0  0.28685363835E+02  0.12479978338E+02  0.61741267995E+01  0.59301956040E+02  0.50000021908E+02 0.  0.
         12    1    1    2    0    0 -0.28685363835E+02 -0.12479978338E+02 -0.61741267995E+01  0.31886043960E+02  0.00000000000E+00 0. -1.
         11    1    3    3    0    0  0.19727532369E+02  0.92449427772E+01 -0.18529291331E+02  0.28600334575E+02  0.51100000000E-03 0. -1.
        -11    1    3    3    0    0  0.14933284984E+01 -0.58343157483E+01  0.53134510076E+01  0.80313157158E+01  0.51100000000E-03 0.  1.
         12    1    3    3    0    0  0.74645029680E+01  0.90693513093E+01  0.19389967123E+02  0.22670305749E+02  0.00000000000E+00 0. -1.
</event>
<event>
 7    1  0.7819001E-012  0.5930200E+02  0.7816164E-02  0.1266605E+00
        -11   -1    0    0    0    0  0.00000000000E+00  0.00000000000E+00  0.45593999997E+02  0.45594000000E+02  0.51100000000E-03 0.  1.
         11   -1    0    0    0    0 -0.00000000000E+00 -0.00000000000E+00 -0.45593999997E+02  0.45594000000E+02  0.51100000000E-03 0. -1.
    9900012    2    1    2    0    0  0.25503871678E+02 -0.12695829228E+02  0.14320812102E+02  0.59301996651E+02  0.50000095971E+02 0.  0.
         12    1    1    2    0    0 -0.25503871678E+02  0.12695829228E+02 -0.14320812102E+02  0.31886003349E+02  0.00000000000E+00 0. -1.
         11    1    3    3    0    0 -0.67971274688E+01 -0.16314240258E+02 -0.17673680875E+01  0.17761727597E+02  0.51100000000E-03 0. -1.
        -11    1    3    3    0    0  0.86967134338E+01  0.10115366300E+02  0.88573402349E+01  0.16012680483E+02  0.51100000000E-03 0.  1.
         12    1    3    3    0    0  0.23604285713E+02 -0.64969552711E+01  0.72308399543E+01  0.25527588571E+02  0.00000000000E+00 0. -1.
</event>
<event>
 7    1  0.7819001E-012  0.5930181E+02  0.7816164E-02  0.1266605E+00
        -11   -1    0    0    0    0  0.00000000000E+00  0.00000000000E+00  0.45593999997E+02  0.45594000000E+02  0.51100000000E-03 0. -1.
         11   -1    0    0    0    0 -0.00000000000E+00 -0.00000000000E+00 -0.45593999997E+02  0.45594000000E+02  0.51100000000E-03 0.  1.
    9900012    2    1    2    0    0 -0.29975459811E+02 -0.10731794941E+02 -0.17405376906E+01  0.59301810435E+02  0.49999756358E+02 0.  0.
         12    1    1    2    0    0  0.29975459811E+02  0.10731794941E+02  0.17405376906E+01  0.31886189565E+02  0.00000000000E+00 0. -1.
         11    1    3    3    0    0 -0.16816387191E+02  0.17448986219E+02  0.11318114903E+01  0.24259822665E+02  0.51100000000E-03 0. -1.
        -11    1    3    3    0    0 -0.12742289768E+02 -0.15592635004E+02  0.42386340398E+01  0.20578198019E+02  0.51100000000E-03 0.  1.
         12    1    3    3    0    0 -0.41678285193E+00 -0.12588146156E+02 -0.71109832206E+01  0.14463789751E+02  0.00000000000E+00 0. -1.
</event>
<event>
 7    1  0.7819001E-012  0.5930200E+02  0.7816164E-02  0.1266605E+00
        -11   -1    0    0    0    0  0.00000000000E+00  0.00000000000E+00  0.45593999997E+02  0.45594000000E+02  0.51100000000E-03 0.  1.
         11   -1    0    0    0    0 -0.00000000000E+00 -0.00000000000E+00 -0.45593999997E+02  0.45594000000E+02  0.51100000000E-03 0. -1.
    9900012    2    1    2    0    0  0.20354364336E+02  0.21013570549E+02  0.12682536625E+02  0.59301999467E+02  0.50000101109E+02 0.  0.
         12    1    1    2    0    0 -0.20354364336E+02 -0.21013570549E+02 -0.12682536625E+02  0.31886000533E+02  0.00000000000E+00 0. -1.
         11    1    3    3    0    0  0.63327131057E+01  0.14417300441E+02 -0.46096245524E+01  0.16407633774E+02  0.51100000000E-03 0. -1.
        -11    1    3    3    0    0  0.15275312646E+02  0.14497616867E+01  0.27444861486E+02  0.31442923014E+02  0.51100000000E-03 0.  1.
        -12    1    3    3    0    0 -0.12536614160E+01  0.51465084205E+01 -0.10152700309E+02  0.11451442679E+02  0.00000000000E+00 0.  1.
</event>
<event>
 7    1  0.7819001E-012  0.5930196E+02  0.7816164E-02  0.1266605E+00
        -11   -1    0    0    0    0  0.00000000000E+00  0.00000000000E+00  0.45593999997E+02  0.45594000000E+02  0.51100000000E-03 0. -1.
         11   -1    0    0    0    0 -0.00000000000E+00 -0.00000000000E+00 -0.45593999997E+02  0.45594000000E+02  0.51100000000E-03 0.  1.
    9900012    2    1    2    0    0 -0.66853759961E+01  0.31121596243E+02 -0.18631610778E+01  0.59301962709E+02  0.50000034070E+02 0.  0.
         12    1    1    2    0    0  0.66853759961E+01 -0.31121596243E+02  0.18631610778E+01  0.31886037291E+02  0.00000000000E+00 0. -1.
         11    1    3    3    0    0  0.13364166623E+02  0.11764924290E+02 -0.11414508861E+02  0.21149595879E+02  0.51100000000E-03 0.  1.
        -11    1    3    3    0    0 -0.15763713018E+02 -0.13209312775E+01  0.42545890125E+01  0.16381118261E+02  0.51100000000E-03 0. -1.
         12    1    3    3    0    0 -0.42858296007E+01  0.20677603231E+02  0.52967587707E+01  0.21771248568E+02  0.00000000000E+00 0. -1.
</event>
<event>
 7    1  0.7819001E-012  0.5930193E+02  0.7816164E-02  0.1266605E+00
        -11   -1    0    0    0    0  0.00000000000E+00  0.00000000000E+00  0.45593999997E+02  0.45594000000E+02  0.51100000000E-03 0.  1.
         11   -1    0    0    0    0 -0.00000000000E+00 -0.00000000000E+00 -0.45593999997E+02  0.45594000000E+02  0.51100000000E-03 0. -1.
    9900012    2    1    2    0    0 -0.30360674752E+02  0.62946166714E+01  0.74383098237E+01  0.59301933710E+02  0.49999981182E+02 0.  0.
         12    1    1    2    0    0  0.30360674752E+02 -0.62946166714E+01 -0.74383098237E+01  0.31886066290E+02  0.00000000000E+00 0. -1.
         11    1    3    3    0    0 -0.17350045736E+02 -0.18695011720E+02 -0.66508373337E+01  0.26358322931E+02  0.51100000000E-03 0. -1.
        -11    1    3    3    0    0 -0.63048938429E+01  0.34511228128E+01  0.40759258862E+01  0.82628752339E+01  0.51100000000E-03 0.  1.
         12    1    3    3    0    0 -0.67057351736E+01  0.21538505579E+02  0.10013221271E+02  0.24680735544E+02  0.00000000000E+00 0. -1.
</event>
<event>
 7    1  0.7819001E-012  0.5930195E+02  0.7816164E-02  0.1266605E+00
        -11   -1    0    0    0    0  0.00000000000E+00  0.00000000000E+00  0.45593999997E+02  0.45594000000E+02  0.51100000000E-03 0.  1.
         11   -1    0    0    0    0 -0.00000000000E+00 -0.00000000000E+00 -0.45593999997E+02  0.45594000000E+02  0.51100000000E-03 0. -1.
    9900012    2    1    2    0    0  0.44907448760E+01  0.31404641320E+02  0.32096756701E+01  0.59301948130E+02  0.50000007481E+02 0.  0.
         12    1    1    2    0    0 -0.44907448760E+01 -0.31404641320E+02 -0.32096756701E+01  0.31886051870E+02  0.00000000000E+00 0. -1.
         11    1    3    3    0    0 -0.99708736593E+01 -0.53764352221E+01  0.16397208830E+01  0.11446093747E+02  0.51100000000E-03 0. -1.
        -11    1    3    3    0    0  0.67155097837E+01  0.26663389188E+02  0.13293331782E+02  0.30540908054E+02  0.51100000000E-03 0.  1.
         12    1    3    3    0    0  0.77461087516E+01  0.10117687354E+02 -0.11723376995E+02  0.17314946328E+02  0.00000000000E+00 0. -1.
</event>
<event>
 7    1  0.7819001E-012  0.5930194E+02  0.7816164E-02  0.1266605E+00
        -11   -1    0    0    0    0  0.00000000000E+00  0.00000000000E+00  0.45593999997E+02  0.45594000000E+02  0.51100000000E-03 0.  1.
         11   -1    0    0    0    0 -0.00000000000E+00 -0.00000000000E+00 -0.45593999997E+02  0.45594000000E+02  0.51100000000E-03 0. -1.
    9900012    2    1    2    0    0 -0.23640251102E+02 -0.21392426634E+02 -0.47287304276E+00  0.59301937239E+02  0.49999987619E+02 0.  0.
         12    1    1    2    0    0  0.23640251102E+02  0.21392426634E+02  0.47287304276E+00  0.31886062761E+02  0.00000000000E+00 0. -1.
         11    1    3    3    0    0  0.23653617294E+01  0.12544326918E+02  0.40352514386E+00  0.12771762085E+02  0.51100000000E-03 0. -1.
        -11    1    3    3    0    0 -0.56667384433E+01 -0.22297372577E+02 -0.18139037944E+01  0.23077586435E+02  0.51100000000E-03 0.  1.
         12    1    3    3    0    0 -0.20338874389E+02 -0.11639380975E+02  0.93750560782E+00  0.23452588719E+02  0.00000000000E+00 0. -1.
</event>
<event>
 7    1  0.7819001E-012  0.5930192E+02  0.7816164E-02  0.1266605E+00
        -11   -1    0    0    0    0  0.00000000000E+00  0.00000000000E+00  0.45593999997E+02  0.45594000000E+02  0.51100000000E-03 0. -1.
         11   -1    0    0    0    0 -0.00000000000E+00 -0.00000000000E+00 -0.45593999997E+02  0.45594000000E+02  0.51100000000E-03 0.  1.
    9900012    2    1    2    0    0 -0.27594362310E+02  0.74576649246E+01 -0.14129994958E+02  0.59301915968E+02  0.49999948826E+02 0.  0.
         12    1    1    2    0    0  0.27594362310E+02 -0.74576649246E+01  0.14129994958E+02  0.31886084032E+02  0.00000000000E+00 0. -1.
         11    1    3    3    0    0  0.68590948032E+01  0.70038265688E+01 -0.70498878148E+01  0.12074836918E+02  0.51100000000E-03 0. -1.
        -11    1    3    3    0    0 -0.23340432280E+02 -0.14936080660E+02 -0.42633218041E+01  0.28036372761E+02  0.51100000000E-03 0.  1.
        -12    1    3    3    0    0 -0.11113024832E+02  0.15389919016E+02 -0.28167853388E+01  0.19190706289E+02  0.00000000000E+00 0.  1.
</event>
<event>
 7    1  0.7819001E-012  0.5930196E+02  0.7816164E-02  0.1266605E+00
        -11   -1    0    0    0    0  0.00000000000E+00  0.00000000000E+00  0.45593999997E+02  0.45594000000E+02  0.51100000000E-03 0.  1.
         11   -1    0    0    0    0 -0.00000000000E+00 -0.00000000000E+00 -0.45593999997E+02  0.45594000000E+02  0.51100000000E-03 0. -1.
    9900012    2    1    2    0    0  0.20893049251E+02 -0.74913429853E+01  0.22892793940E+02  0.59301956954E+02  0.50000023574E+02 0.  0.
         12    1    1    2    0    0 -0.20893049251E+02  0.74913429853E+01 -0.22892793940E+02  0.31886043046E+02  0.00000000000E+00 0. -1.
         11    1    3    3    0    0  0.30873243767E+02  0.64204335073E+01  0.72253505789E+01  0.32350963484E+02  0.51100000000E-03 0.  1.
        -11    1    3    3    0    0 -0.87551370989E+01 -0.80701582722E+01  0.20492108684E+01  0.12082182982E+02  0.51100000000E-03 0. -1.
        -12    1    3    3    0    0 -0.12250574163E+01 -0.58416182204E+01  0.13618232493E+02  0.14868810488E+02  0.00000000000E+00 0.  1.
</event>
<event>
 7    1  0.7819001E-012  0.5930194E+02  0.7816164E-02  0.1266605E+00
        -11   -1    0    0    0    0  0.00000000000E+00  0.00000000000E+00  0.45593999997E+02  0.45594000000E+02  0.51100000000E-03 0.  1.
         11   -1    0    0    0    0 -0.00000000000E+00 -0.00000000000E+00 -0.45593999997E+02  0.45594000000E+02  0.51100000000E-03 0. -1.
    9900012    2    1    2    0    0 -0.24480710018E+02  0.14650896611E+02  0.14239622864E+02  0.59301940447E+02  0.49999993469E+02 0.  0.
         12    1    1    2    0    0  0.24480710018E+02 -0.14650896611E+02 -0.14239622864E+02  0.31886059553E+02  0.00000000000E+00 0. -1.
         11    1    3    3    0    0 -0.29800956958E+02  0.42330620721E+01 -0.64881585364E+01  0.30791428216E+02  0.51100000000E-03 0. -1.
        -11    1    3    3    0    0 -0.31777194429E+01  0.97096724703E+01  0.15316169406E+02  0.18410884984E+02  0.51100000000E-03 0.  1.
         12    1    3    3    0    0  0.84979663826E+01  0.70816206896E+00  0.54116119945E+01  0.10099627247E+02  0.00000000000E+00 0. -1.
</event>
<event>
 7    1  0.7819001E-012  0.5930194E+02  0.7816164E-02  0.1266605E+00
        -11   -1    0    0    0    0  0.00000000000E+00  0.00000000000E+00  0.45593999997E+02  0.45594000000E+02  0.51100000000E-03 0.  1.
         11   -1    0    0    0    0 -0.00000000000E+00 -0.00000000000E+00 -0.45593999997E+02  0.45594000000E+02  0.51100000000E-03 0. -1.
    9900012    2    1    2    0    0 -0.30924413336E+01 -0.12346741443E+02  0.29235519544E+02  0.59301940026E+02  0.49999992702E+02 0.  0.
         12    1    1    2    0    0  0.30924413336E+01  0.12346741443E+02 -0.29235519544E+02  0.31886059974E+02  0.00000000000E+00 0. -1.
         11    1    3    3    0    0  0.10624453009E+01  0.19400210596E+02  0.98257749272E+01  0.21772524300E+02  0.51100000000E-03 0. -1.
        -11    1    3    3    0    0 -0.25002869460E+01 -0.24661242591E+02  0.15918160114E+02  0.29458719297E+02  0.51100000000E-03 0.  1.
         12    1    3    3    0    0 -0.16545996885E+01 -0.70857094481E+01  0.34915845031E+01  0.80706964293E+01  0.00000000000E+00 0. -1.
</event>
<event>
 7    1  0.7819001E-012  0.5930192E+02  0.7816164E-02  0.1266605E+00
        -11   -1    0    0    0    0  0.00000000000E+00  0.00000000000E+00  0.45593999997E+02  0.45594000000E+02  0.51100000000E-03 0. -1.
         11   -1    0    0    0    0 -0.00000000000E+00 -0.00000000000E+00 -0.45593999997E+02  0.45594000000E+02  0.51100000000E-03 0.  1.
    9900012    2    1    2    0    0 -0.17712305767E+02 -0.26513768772E+02  0.12840670789E+00  0.59301918423E+02  0.49999953303E+02 0.  0.
         12    1    1    2    0    0  0.17712305767E+02  0.26513768772E+02 -0.12840670789E+00  0.31886081577E+02  0.00000000000E+00 0. -1.
         11    1    3    3    0    0  0.94499485427E+01 -0.96900772287E+01  0.75366257782E+01  0.15491928626E+02  0.51100000000E-03 0. -1.
        -11    1    3    3    0    0 -0.29543076093E+02 -0.57158313956E+01 -0.10774221387E+02  0.31961663291E+02  0.51100000000E-03 0.  1.
        -12    1    3    3    0    0  0.23808217831E+01 -0.11107860147E+02  0.33660023166E+01  0.11848326507E+02  0.00000000000E+00 0.  1.
</event>
<event>
 7    1  0.7819001E-012  0.5930194E+02  0.7816164E-02  0.1266605E+00
        -11   -1    0    0    0    0  0.00000000000E+00  0.00000000000E+00  0.45593999997E+02  0.45594000000E+02  0.51100000000E-03 0.  1.
         11   -1    0    0    0    0 -0.00000000000E+00 -0.00000000000E+00 -0.45593999997E+02  0.45594000000E+02  0.51100000000E-03 0. -1.
    9900012    2    1    2    0    0  0.21973824353E+02  0.93933113365E+01  0.21110125019E+02  0.59301942971E+02  0.49999998073E+02 0.  0.
         12    1    1    2    0    0 -0.21973824353E+02 -0.93933113365E+01 -0.21110125019E+02  0.31886057029E+02  0.00000000000E+00 0. -1.
         11    1    3    3    0    0 -0.11504716968E+01 -0.13081933101E+02 -0.37761537497E+01  0.13664548883E+02  0.51100000000E-03 0. -1.
        -11    1    3    3    0    0  0.17799808761E+02  0.16278274441E+02  0.57017820362E+01  0.24785595199E+02  0.51100000000E-03 0.  1.
         12    1    3    3    0    0  0.53244872887E+01  0.61969699963E+01  0.19184496733E+02  0.20851798889E+02  0.00000000000E+00 0. -1.
</event>
<event>
 7    1  0.7819001E-012  0.5930194E+02  0.7816164E-02  0.1266605E+00
        -11   -1    0    0    0    0  0.00000000000E+00  0.00000000000E+00  0.45593999997E+02  0.45594000000E+02  0.51100000000E-03 0.  1.
         11   -1    0    0    0    0 -0.00000000000E+00 -0.00000000000E+00 -0.45593999997E+02  0.45594000000E+02  0.51100000000E-03 0. -1.
    9900012    2    1    2    0    0  0.21486029623E+02 -0.22931513684E+02  0.54052653167E+01  0.59301942202E+02  0.49999996670E+02 0.  0.
         12    1    1    2    0    0 -0.21486029623E+02  0.22931513684E+02 -0.54052653167E+01  0.31886057798E+02  0.00000000000E+00 0. -1.
         11    1    3    3    0    0  0.27360729525E+02 -0.16194494833E+02 -0.69970172900E+01  0.32555021645E+02  0.51100000000E-03 0.  1.
        -11    1    3    3    0    0 -0.99533261193E+01 -0.43542226975E+01  0.16987125944E+02  0.20164086992E+02  0.51100000000E-03 0. -1.
         12    1    3    3    0    0  0.40786262167E+01 -0.23827961529E+01 -0.45848433370E+01  0.65828335652E+01  0.00000000000E+00 0. -1.
</event>
<event>
 7    1  0.7819001E-012  0.5930192E+02  0.7816164E-02  0.1266605E+00
        -11   -1    0    0    0    0  0.00000000000E+00  0.00000000000E+00  0.45593999997E+02  0.45594000000E+02  0.51100000000E-03 0.  1.
         11   -1    0    0    0    0 -0.00000000000E+00 -0.00000000000E+00 -0.45593999997E+02  0.45594000000E+02  0.51100000000E-03 0. -1.
    9900012    2    1    2    0    0  0.10628517882E+02  0.24971298983E+02  0.16738901649E+02  0.59301921632E+02  0.49999959156E+02 0.  0.
         12    1    1    2    0    0 -0.10628517882E+02 -0.24971298983E+02 -0.16738901649E+02  0.31886078368E+02  0.00000000000E+00 0. -1.
         11    1    3    3    0    0  0.22201962818E+02  0.16751131448E+02  0.38516729631E+01  0.28077801599E+02  0.51100000000E-03 0. -1.
        -11    1    3    3    0    0 -0.23056694565E+01  0.44702107264E+01  0.18899854153E+02  0.19557693700E+02  0.51100000000E-03 0.  1.
         12    1    3    3    0    0 -0.92677754788E+01  0.37499568082E+01 -0.60126254675E+01  0.11666426334E+02  0.00000000000E+00 0. -1.
</event>
<event>
 7    1  0.7819001E-012  0.5930199E+02  0.7816164E-02  0.1266605E+00
        -11   -1    0    0    0    0  0.00000000000E+00  0.00000000000E+00  0.45593999997E+02  0.45594000000E+02  0.51100000000E-03 0.  1.
         11   -1    0    0    0    0 -0.00000000000E+00 -0.00000000000E+00 -0.45593999997E+02  0.45594000000E+02  0.51100000000E-03 0. -1.
    9900012    2    1    2    0    0  0.85100518491E-01  0.22397662048E+02  0.22694825141E+02  0.59301990599E+02  0.50000084935E+02 0.  0.
         12    1    1    2    0    0 -0.85100518491E-01 -0.22397662048E+02 -0.22694825141E+02  0.31886009401E+02  0.00000000000E+00 0. -1.
         11    1    3    3    0    0  0.27788162682E+01  0.21819783331E+02 -0.47447982381E+01  0.22501952694E+02  0.51100000000E-03 0. -1.
        -11    1    3    3    0    0 -0.90195967016E+01  0.44320973339E+01  0.27618735754E+02  0.29390324536E+02  0.51100000000E-03 0.  1.
         12    1    3    3    0    0  0.63258809519E+01 -0.38542186173E+01 -0.17911237448E+00  0.74097133690E+01  0.00000000000E+00 0. -1.
</event>
<event>
 7    1  0.7819001E-012  0.5930201E+02  0.7816164E-02  0.1266605E+00
        -11   -1    0    0    0    0  0.00000000000E+00  0.00000000000E+00  0.45593999997E+02  0.45594000000E+02  0.51100000000E-03 0.  1.
         11   -1    0    0    0    0 -0.00000000000E+00 -0.00000000000E+00 -0.45593999997E+02  0.45594000000E+02  0.51100000000E-03 0. -1.
    9900012    2    1    2    0    0  0.64996932169E+01  0.45329256927E+01  0.30885641304E+02  0.59302011447E+02  0.50000122957E+02 0.  0.
         12    1    1    2    0    0 -0.64996932169E+01 -0.45329256927E+01 -0.30885641304E+02  0.31885988553E+02  0.00000000000E+00 0. -1.
         11    1    3    3    0    0  0.12876180848E+02 -0.67929740971E+01 -0.51664272676E+01  0.15447734503E+02  0.51100000000E-03 0. -1.
        -11    1    3    3    0    0 -0.11742639181E+02  0.52377106978E+01  0.92202727622E+01  0.15822029527E+02  0.51100000000E-03 0.  1.
        -12    1    3    3    0    0  0.53661515501E+01  0.60881890920E+01  0.26831795809E+02  0.28032247417E+02  0.00000000000E+00 0.  1.
</event>
<event>
 7    1  0.7819001E-012  0.5930183E+02  0.7816164E-02  0.1266605E+00
        -11   -1    0    0    0    0  0.00000000000E+00  0.00000000000E+00  0.45593999997E+02  0.45594000000E+02  0.51100000000E-03 0.  1.
         11   -1    0    0    0    0 -0.00000000000E+00 -0.00000000000E+00 -0.45593999997E+02  0.45594000000E+02  0.51100000000E-03 0. -1.
    9900012    2    1    2    0    0  0.24577070717E+02 -0.10818394594E+02  0.17194698381E+02  0.59301831854E+02  0.49999795421E+02 0.  0.
         12    1    1    2    0    0 -0.24577070717E+02  0.10818394594E+02 -0.17194698381E+02  0.31886168146E+02  0.00000000000E+00 0. -1.
         11    1    3    3    0    0  0.82931134997E+01 -0.44188495230E+01 -0.87197339973E+01  0.12819349589E+02  0.51100000000E-03 0. -1.
        -11    1    3    3    0    0  0.86707512848E+01 -0.33270461457E+01  0.33827945344E+02  0.35079638686E+02  0.51100000000E-03 0.  1.
        -12    1    3    3    0    0  0.76132059328E+01 -0.30724989254E+01 -0.79135129659E+01  0.11402843579E+02  0.00000000000E+00 0.  1.
</event>
<event>
 7    1  0.7819001E-012  0.5930194E+02  0.7816164E-02  0.1266605E+00
        -11   -1    0    0    0    0  0.00000000000E+00  0.00000000000E+00  0.45593999997E+02  0.45594000000E+02  0.51100000000E-03 0. -1.
         11   -1    0    0    0    0 -0.00000000000E+00 -0.00000000000E+00 -0.45593999997E+02  0.45594000000E+02  0.51100000000E-03 0.  1.
    9900012    2    1    2    0    0  0.19489604528E+02  0.23026522546E+02 -0.10327397899E+02  0.59301943916E+02  0.49999999797E+02 0.  0.
         12    1    1    2    0    0 -0.19489604528E+02 -0.23026522546E+02  0.10327397899E+02  0.31886056084E+02  0.00000000000E+00 0. -1.
         11    1    3    3    0    0  0.54119368878E+01 -0.66681622014E+01 -0.20763449374E+02  0.22469407606E+02  0.51100000000E-03 0. -1.
        -11    1    3    3    0    0  0.12851197266E+02  0.16136299241E+02  0.17915426403E+01  0.20706111408E+02  0.51100000000E-03 0.  1.
         12    1    3    3    0    0  0.12264703742E+01  0.13558385506E+02  0.86445088341E+01  0.16126424901E+02  0.00000000000E+00 0. -1.
</event>
<event>
 7    1  0.7819001E-012  0.5930201E+02  0.7816164E-02  0.1266605E+00
        -11   -1    0    0    0    0  0.00000000000E+00  0.00000000000E+00  0.45593999997E+02  0.45594000000E+02  0.51100000000E-03 0. -1.
         11   -1    0    0    0    0 -0.00000000000E+00 -0.00000000000E+00 -0.45593999997E+02  0.45594000000E+02  0.51100000000E-03 0.  1.
    9900012    2    1    2    0    0  0.48423967022E+01  0.13191865995E+02 -0.28622412597E+02  0.59302005628E+02  0.50000112343E+02 0.  0.
         12    1    1    2    0    0 -0.48423967022E+01 -0.13191865995E+02  0.28622412597E+02  0.31885994372E+02  0.00000000000E+00 0. -1.
         11    1    3    3    0    0 -0.16281515840E+02  0.11067586456E+02 -0.10035479281E+02  0.22097286546E+02  0.51100000000E-03 0. -1.
        -11    1    3    3    0    0  0.14080762078E+02  0.11501266124E+02 -0.17811154964E+02  0.25451605540E+02  0.51100000000E-03 0.  1.
         12    1    3    3    0    0  0.70431504645E+01 -0.93769865849E+01 -0.77577835165E+00  0.11753113542E+02  0.00000000000E+00 0. -1.
</event>
<event>
 7    1  0.7819001E-012  0.5930194E+02  0.7816164E-02  0.1266605E+00
        -11   -1    0    0    0    0  0.00000000000E+00  0.00000000000E+00  0.45593999997E+02  0.45594000000E+02  0.51100000000E-03 0.  1.
         11   -1    0    0    0    0 -0.00000000000E+00 -0.00000000000E+00 -0.45593999997E+02  0.45594000000E+02  0.51100000000E-03 0. -1.
    9900012    2    1    2    0    0 -0.10544408181E+02 -0.28224724847E+02  0.10435582942E+02  0.59301936776E+02  0.49999986775E+02 0.  0.
         12    1    1    2    0    0  0.10544408181E+02  0.28224724847E+02 -0.10435582942E+02  0.31886063224E+02  0.00000000000E+00 0. -1.
         11    1    3    3    0    0 -0.10871051110E+02 -0.83452836916E+01  0.23021634616E+02  0.26792147596E+02  0.51100000000E-03 0. -1.
        -11    1    3    3    0    0  0.91072069157E+00 -0.23987301842E+02 -0.60288149007E+01  0.24750084266E+02  0.51100000000E-03 0.  1.
         12    1    3    3    0    0 -0.58407776241E+00  0.41078606865E+01 -0.65572367736E+01  0.77597049143E+01  0.00000000000E+00 0. -1.
</event>
<event>
 7    1  0.7819001E-012  0.5930196E+02  0.7816164E-02  0.1266605E+00
        -11   -1    0    0    0    0  0.00000000000E+00  0.00000000000E+00  0.45593999997E+02  0.45594000000E+02  0.51100000000E-03 0.  1.
         11   -1    0    0    0    0 -0.00000000000E+00 -0.00000000000E+00 -0.45593999997E+02  0.45594000000E+02  0.51100000000E-03 0. -1.
    9900012    2    1    2    0    0 -0.11126398135E+02 -0.27786978784E+02  0.10991219417E+02  0.59301955565E+02  0.50000021042E+02 0.  0.
         12    1    1    2    0    0  0.11126398135E+02  0.27786978784E+02 -0.10991219417E+02  0.31886044435E+02  0.00000000000E+00 0. -1.
         11    1    3    3    0    0 -0.52209436908E+00  0.67909376047E+01 -0.13209044988E+02  0.14861638060E+02  0.51100000000E-03 0. -1.
        -11    1    3    3    0    0 -0.44536245173E+01 -0.45195930398E+01  0.61857962656E+01  0.88614653578E+01  0.51100000000E-03 0.  1.
         12    1    3    3    0    0 -0.61506792486E+01 -0.30058323349E+02  0.18014468139E+02  0.35578852147E+02  0.00000000000E+00 0. -1.
</event>
<event>
 7    1  0.7819001E-012  0.5930195E+02  0.7816164E-02  0.1266605E+00
        -11   -1    0    0    0    0  0.00000000000E+00  0.00000000000E+00  0.45593999997E+02  0.45594000000E+02  0.51100000000E-03 0. -1.
         11   -1    0    0    0    0 -0.00000000000E+00 -0.00000000000E+00 -0.45593999997E+02  0.45594000000E+02  0.51100000000E-03 0.  1.
    9900012    2    1    2    0    0  0.26792892499E+02  0.12380416129E+02  0.12065918677E+02  0.59301949986E+02  0.50000010866E+02 0.  0.
         12    1    1    2    0    0 -0.26792892499E+02 -0.12380416129E+02 -0.12065918677E+02  0.31886050014E+02  0.00000000000E+00 0. -1.
         11    1    3    3    0    0 -0.68516867404E+01  0.51133207068E+01  0.13752394635E+01  0.86592692349E+01  0.51100000000E-03 0. -1.
        -11    1    3    3    0    0  0.28362192196E+02  0.97365908830E+01 -0.80229331718E+01  0.31041626973E+02  0.51100000000E-03 0.  1.
        -12    1    3    3    0    0  0.52823870429E+01 -0.24694954607E+01  0.18713612385E+02  0.19601053778E+02  0.00000000000E+00 0.  1.
</event>
<event>
 7    1  0.7819001E-012  0.5930194E+02  0.7816164E-02  0.1266605E+00
        -11   -1    0    0    0    0  0.00000000000E+00  0.00000000000E+00  0.45593999997E+02  0.45594000000E+02  0.51100000000E-03 0. -1.
         11   -1    0    0    0    0 -0.00000000000E+00 -0.00000000000E+00 -0.45593999997E+02  0.45594000000E+02  0.51100000000E-03 0.  1.
    9900012    2    1    2    0    0  0.16282811142E+02 -0.98208560259E+01 -0.25595730138E+02  0.59301944222E+02  0.50000000355E+02 0.  0.
         12    1    1    2    0    0 -0.16282811142E+02  0.98208560259E+01  0.25595730138E+02  0.31886055778E+02  0.00000000000E+00 0. -1.
         11    1    3    3    0    0 -0.25407860567E+01  0.13932357520E+02 -0.39509337204E+00  0.14167649025E+02  0.51100000000E-03 0. -1.
        -11    1    3    3    0    0  0.17898471768E+02 -0.13048694070E+02 -0.57033462865E+01  0.22872513366E+02  0.51100000000E-03 0.  1.
         12    1    3    3    0    0  0.92512543057E+00 -0.10704519476E+02 -0.19497290479E+02  0.22261781831E+02  0.00000000000E+00 0. -1.
</event>
<event>
 7    1  0.7819001E-012  0.5930180E+02  0.7816164E-02  0.1266605E+00
        -11   -1    0    0    0    0  0.00000000000E+00  0.00000000000E+00  0.45593999997E+02  0.45594000000E+02  0.51100000000E-03 0.  1.
         11   -1    0    0    0    0 -0.00000000000E+00 -0.00000000000E+00 -0.45593999997E+02  0.45594000000E+02  0.51100000000E-03 0. -1.
    9900012    2    1    2    0    0  0.14829016854E+02 -0.19259044865E+01  0.28162401325E+02  0.59301800833E+02  0.49999738846E+02 0.  0.
         12    1    1    2    0    0 -0.14829016854E+02  0.19259044865E+01 -0.28162401325E+02  0.31886199167E+02  0.00000000000E+00 0. -1.
         11    1    3    3    0    0  0.18990524837E+02 -0.47183251984E+01 -0.78523038144E+01  0.21084622400E+02  0.51100000000E-03 0. -1.
        -11    1    3    3    0    0  0.29751958522E-01  0.59137883293E+01  0.94845369849E+01  0.11177218780E+02  0.51100000000E-03 0.  1.
         12    1    3    3    0    0 -0.41912599423E+01 -0.31213676174E+01  0.26530168155E+02  0.27039959653E+02  0.00000000000E+00 0. -1.
</event>
<event>
 7    1  0.7819001E-012  0.5930195E+02  0.7816164E-02  0.1266605E+00
        -11   -1    0    0    0    0  0.00000000000E+00  0.00000000000E+00  0.45593999997E+02  0.45594000000E+02  0.51100000000E-03 0.  1.
         11   -1    0    0    0    0 -0.00000000000E+00 -0.00000000000E+00 -0.45593999997E+02  0.45594000000E+02  0.51100000000E-03 0. -1.
    9900012    2    1    2    0    0  0.20117452000E+02  0.85486404595E+01  0.23214840719E+02  0.59301953549E+02  0.50000017364E+02 0.  0.
         12    1    1    2    0    0 -0.20117452000E+02 -0.85486404595E+01 -0.23214840719E+02  0.31886046451E+02  0.00000000000E+00 0. -1.
         11    1    3    3    0    0 -0.49892284149E+01 -0.17775922249E+01  0.70953601377E+01  0.88541724650E+01  0.51100000000E-03 0. -1.
        -11    1    3    3    0    0  0.34459852900E+02  0.40029456054E+01  0.58412223024E+01  0.35179893599E+02  0.51100000000E-03 0.  1.
        -12    1    3    3    0    0 -0.93531724844E+01  0.63232870790E+01  0.10278258278E+02  0.15267887485E+02  0.00000000000E+00 0.  1.
</event>
<event>
 7    1  0.9439614E-012  0.5930189E+02  0.7816164E-02  0.1266605E+00
        -11   -1    0    0    0    0  0.00000000000E+00  0.00000000000E+00  0.45593999997E+02  0.45594000000E+02  0.51100000000E-03 0. -1.
         11   -1    0    0    0    0 -0.00000000000E+00 -0.00000000000E+00 -0.45593999997E+02  0.45594000000E+02  0.51100000000E-03 0.  1.
    9900012    2    1    2    0    0  0.70021654480E+01  0.49977069295E+01 -0.30703693152E+02  0.59301887526E+02  0.49999896954E+02 0.  0.
         12    1    1    2    0    0 -0.70021654480E+01 -0.49977069295E+01  0.30703693152E+02  0.31886112474E+02  0.00000000000E+00 0. -1.
         11    1    3    3    0    0  0.54084394985E+01 -0.63398037639E+01  0.66901291353E+01  0.10686540960E+02  0.51100000000E-03 0. -1.
        -11    1    3    3    0    0 -0.13289221341E+02  0.71409743559E+01 -0.22891012308E+02  0.27415239619E+02  0.51100000000E-03 0.  1.
        -12    1    3    3    0    0  0.14882947290E+02  0.41965363375E+01 -0.14502809980E+02  0.21200106948E+02  0.00000000000E+00 0.  1.
</event>
<event>
 7    1  0.7819001E-012  0.5930214E+02  0.7816164E-02  0.1266604E+00
        -11   -1    0    0    0    0  0.00000000000E+00  0.00000000000E+00  0.45593999997E+02  0.45594000000E+02  0.51100000000E-03 0. -1.
         11   -1    0    0    0    0 -0.00000000000E+00 -0.00000000000E+00 -0.45593999997E+02  0.45594000000E+02  0.51100000000E-03 0.  1.
    9900012    2    1    2    0    0 -0.23727141015E+02 -0.20702754787E+02 -0.50126756129E+01  0.59302138034E+02  0.50000353819E+02 0.  0.
         12    1    1    2    0    0  0.23727141015E+02  0.20702754787E+02  0.50126756129E+01  0.31885861966E+02  0.00000000000E+00 0. -1.
         11    1    3    3    0    0  0.29947829323E+01  0.42794290521E+01  0.58867181910E+00  0.52563078863E+01  0.51100000000E-03 0. -1.
        -11    1    3    3    0    0 -0.36472188196E+02 -0.22549434784E+02 -0.74924422579E+00  0.42886581678E+02  0.51100000000E-03 0.  1.
        -12    1    3    3    0    0  0.97502642485E+01 -0.24327490557E+01 -0.48521032062E+01  0.11159248470E+02  0.00000000000E+00 0.  1.
</event>
<event>
 7    1  0.7819001E-012  0.5930194E+02  0.7816164E-02  0.1266605E+00
        -11   -1    0    0    0    0  0.00000000000E+00  0.00000000000E+00  0.45593999997E+02  0.45594000000E+02  0.51100000000E-03 0.  1.
         11   -1    0    0    0    0 -0.00000000000E+00 -0.00000000000E+00 -0.45593999997E+02  0.45594000000E+02  0.51100000000E-03 0. -1.
    9900012    2    1    2    0    0 -0.29393460027E+02  0.98650360944E+01 -0.74448768007E+01  0.59301943172E+02  0.49999998439E+02 0.  0.
         12    1    1    2    0    0  0.29393460027E+02 -0.98650360944E+01  0.74448768007E+01  0.31886056828E+02  0.00000000000E+00 0. -1.
         11    1    3    3    0    0 -0.28705956332E+02  0.10822282053E+02 -0.18944328003E+02  0.36056085222E+02  0.51100000000E-03 0. -1.
        -11    1    3    3    0    0  0.41145561906E+01  0.73927676999E+01  0.28901017505E+00  0.84655840940E+01  0.51100000000E-03 0.  1.
         12    1    3    3    0    0 -0.48020598853E+01 -0.83500136580E+01  0.11210441027E+02  0.14780273856E+02  0.00000000000E+00 0. -1.
</event>
<event>
 7    1  0.7819001E-012  0.5930194E+02  0.7816164E-02  0.1266605E+00
        -11   -1    0    0    0    0  0.00000000000E+00  0.00000000000E+00  0.45593999997E+02  0.45594000000E+02  0.51100000000E-03 0.  1.
         11   -1    0    0    0    0 -0.00000000000E+00 -0.00000000000E+00 -0.45593999997E+02  0.45594000000E+02  0.51100000000E-03 0. -1.
    9900012    2    1    2    0    0  0.42054096072E+01 -0.21731286974E+01  0.31532723297E+02  0.59301943536E+02  0.49999999103E+02 0.  0.
         12    1    1    2    0    0 -0.42054096072E+01  0.21731286974E+01 -0.31532723297E+02  0.31886056464E+02  0.00000000000E+00 0. -1.
         11    1    3    3    0    0 -0.51484473056E+01  0.17096369780E+01  0.17995780772E+01  0.57155795657E+01  0.51100000000E-03 0. -1.
        -11    1    3    3    0    0  0.21047373756E+02 -0.16660347979E+02  0.21583334171E+02  0.34444149735E+02  0.51100000000E-03 0.  1.
        -12    1    3    3    0    0 -0.11693516843E+02  0.12777582304E+02  0.81498110490E+01  0.19142214235E+02  0.00000000000E+00 0.  1.
</event>
<event>
 7    1  0.7819001E-012  0.5930194E+02  0.7816164E-02  0.1266605E+00
        -11   -1    0    0    0    0  0.00000000000E+00  0.00000000000E+00  0.45593999997E+02  0.45594000000E+02  0.51100000000E-03 0. -1.
         11   -1    0    0    0    0 -0.00000000000E+00 -0.00000000000E+00 -0.45593999997E+02  0.45594000000E+02  0.51100000000E-03 0.  1.
    9900012    2    1    2    0    0  0.20842097922E+02  0.23878670258E+02 -0.34837594695E+01  0.59301944754E+02  0.50000001325E+02 0.  0.
         12    1    1    2    0    0 -0.20842097922E+02 -0.23878670258E+02  0.34837594695E+01  0.31886055246E+02  0.00000000000E+00 0. -1.
         11    1    3    3    0    0  0.22185993116E+01  0.33474186098E+01  0.10798710912E+02  0.11521265203E+02  0.51100000000E-03 0. -1.
        -11    1    3    3    0    0  0.24493076484E+02  0.26059151032E+02 -0.16547513485E+02  0.39405714699E+02  0.51100000000E-03 0.  1.
        -12    1    3    3    0    0 -0.58695778736E+01 -0.55278993835E+01  0.22650431032E+01  0.83749648517E+01  0.00000000000E+00 0.  1.
</event>
<event>
 7    1  0.7819001E-012  0.5930186E+02  0.7816164E-02  0.1266605E+00
        -11   -1    0    0    0    0  0.00000000000E+00  0.00000000000E+00  0.45593999997E+02  0.45594000000E+02  0.51100000000E-03 0.  1.
         11   -1    0    0    0    0 -0.00000000000E+00 -0.00000000000E+00 -0.45593999997E+02  0.45594000000E+02  0.51100000000E-03 0. -1.
    9900012    2    1    2    0    0  0.56321984263E+01  0.21254767325E+01  0.31312721905E+02  0.59301860949E+02  0.49999848484E+02 0.  0.
         12    1    1    2    0    0 -0.56321984263E+01 -0.21254767325E+01 -0.31312721905E+02  0.31886139051E+02  0.00000000000E+00 0. -1.
         11    1    3    3    0    0 -0.10404937020E+01 -0.18628176448E+02  0.17719501998E+02  0.25730766336E+02  0.51100000000E-03 0. -1.
        -11    1    3    3    0    0 -0.37122468950E+01  0.96436105226E+01 -0.32936381306E+01  0.10845646745E+02  0.51100000000E-03 0.  1.
         12    1    3    3    0    0  0.10384939023E+02  0.11110042658E+02  0.16886858038E+02  0.22725447868E+02  0.00000000000E+00 0. -1.
</event>
<event>
 7    1  0.7819001E-012  0.5930193E+02  0.7816164E-02  0.1266605E+00
        -11   -1    0    0    0    0  0.00000000000E+00  0.00000000000E+00  0.45593999997E+02  0.45594000000E+02  0.51100000000E-03 0.  1.
         11   -1    0    0    0    0 -0.00000000000E+00 -0.00000000000E+00 -0.45593999997E+02  0.45594000000E+02  0.51100000000E-03 0. -1.
    9900012    2    1    2    0    0 -0.71064290898E+01 -0.21138241046E+02  0.22790242336E+02  0.59301926008E+02  0.49999967136E+02 0.  0.
         12    1    1    2    0    0  0.71064290898E+01  0.21138241046E+02 -0.22790242336E+02  0.31886073992E+02  0.00000000000E+00 0. -1.
         11    1    3    3    0    0  0.64364838355E+00 -0.57594429892E+01 -0.13840200782E+02  0.15004553467E+02  0.51100000000E-03 0. -1.
        -11    1    3    3    0    0 -0.73624837923E+00 -0.24976789881E+01  0.26129412347E+02  0.26258839500E+02  0.51100000000E-03 0.  1.
         12    1    3    3    0    0 -0.70138290941E+01 -0.12881119068E+02  0.10501030771E+02  0.18038533041E+02  0.00000000000E+00 0. -1.
</event>
<event>
 7    1  0.7819001E-012  0.5930194E+02  0.7816164E-02  0.1266605E+00
        -11   -1    0    0    0    0  0.00000000000E+00  0.00000000000E+00  0.45593999997E+02  0.45594000000E+02  0.51100000000E-03 0. -1.
         11   -1    0    0    0    0 -0.00000000000E+00 -0.00000000000E+00 -0.45593999997E+02  0.45594000000E+02  0.51100000000E-03 0.  1.
    9900012    2    1    2    0    0  0.17133512379E+02  0.20578626234E+02 -0.17311373550E+02  0.59301941003E+02  0.49999994484E+02 0.  0.
         12    1    1    2    0    0 -0.17133512379E+02 -0.20578626234E+02  0.17311373550E+02  0.31886058997E+02  0.00000000000E+00 0. -1.
         11    1    3    3    0    0  0.91752457554E+01  0.25286900188E+02 -0.91252819500E+01  0.28405690041E+02  0.51100000000E-03 0. -1.
        -11    1    3    3    0    0  0.21030715099E+00 -0.10888300016E+02 -0.15240231777E+02  0.18731363303E+02  0.51100000000E-03 0.  1.
         12    1    3    3    0    0  0.77479594730E+01  0.61800260620E+01  0.70541401766E+01  0.12164887659E+02  0.00000000000E+00 0. -1.
</event>
<event>
 7    1  0.7819001E-012  0.5930194E+02  0.7816164E-02  0.1266605E+00
        -11   -1    0    0    0    0  0.00000000000E+00  0.00000000000E+00  0.45593999997E+02  0.45594000000E+02  0.51100000000E-03 0.  1.
         11   -1    0    0    0    0 -0.00000000000E+00 -0.00000000000E+00 -0.45593999997E+02  0.45594000000E+02  0.51100000000E-03 0. -1.
    9900012    2    1    2    0    0 -0.30027121297E+02 -0.31017518365E+01  0.10269960659E+02  0.59301937688E+02  0.49999988437E+02 0.  0.
         12    1    1    2    0    0  0.30027121297E+02  0.31017518365E+01 -0.10269960659E+02  0.31886062312E+02  0.00000000000E+00 0. -1.
         11    1    3    3    0    0  0.61290472165E+01 -0.20009793537E+01 -0.13727329383E+02  0.15166038059E+02  0.51100000000E-03 0. -1.
        -11    1    3    3    0    0 -0.24015840574E+02 -0.44944131867E+01  0.16115670613E+02  0.29269014127E+02  0.51100000000E-03 0.  1.
        -12    1    3    3    0    0 -0.12140327940E+02  0.33936407039E+01  0.78816194285E+01  0.14866885502E+02  0.00000000000E+00 0.  1.
</event>
<event>
 7    1  0.7819001E-012  0.5930195E+02  0.7816164E-02  0.1266605E+00
        -11   -1    0    0    0    0  0.00000000000E+00  0.00000000000E+00  0.45593999997E+02  0.45594000000E+02  0.51100000000E-03 0.  1.
         11   -1    0    0    0    0 -0.00000000000E+00 -0.00000000000E+00 -0.45593999997E+02  0.45594000000E+02  0.51100000000E-03 0. -1.
    9900012    2    1    2    0    0 -0.12163910411E+02 -0.28187206265E+02  0.86163258800E+01  0.59301946855E+02  0.50000005156E+02 0.  0.
         12    1    1    2    0    0  0.12163910411E+02  0.28187206265E+02 -0.86163258800E+01  0.31886053145E+02  0.00000000000E+00 0. -1.
         11    1    3    3    0    0 -0.17755035255E+02 -0.11570049881E+02 -0.15566262893E+02  0.26294787922E+02  0.51100000000E-03 0. -1.
        -11    1    3    3    0    0 -0.13931014970E+00 -0.16483350708E+02  0.19965798952E+02  0.25891183556E+02  0.51100000000E-03 0.  1.
         12    1    3    3    0    0  0.57304349935E+01 -0.13380567619E+00  0.42167898212E+01  0.71159753772E+01  0.00000000000E+00 0. -1.
</event>
<event>
 7    1  0.7819001E-012  0.5930227E+02  0.7816164E-02  0.1266604E+00
        -11   -1    0    0    0    0  0.00000000000E+00  0.00000000000E+00  0.45593999997E+02  0.45594000000E+02  0.51100000000E-03 0. -1.
         11   -1    0    0    0    0 -0.00000000000E+00 -0.00000000000E+00 -0.45593999997E+02  0.45594000000E+02  0.51100000000E-03 0.  1.
    9900012    2    1    2    0    0 -0.28909852223E+02 -0.13417247702E+02 -0.94737252582E+00  0.59302272690E+02  0.50000599397E+02 0.  0.
         12    1    1    2    0    0  0.28909852223E+02  0.13417247702E+02  0.94737252582E+00  0.31885727310E+02  0.00000000000E+00 0. -1.
         11    1    3    3    0    0 -0.32609400174E+02  0.62091371351E+01 -0.62022780524E+01  0.33769729300E+02  0.51100000000E-03 0. -1.
        -11    1    3    3    0    0  0.76029908198E+01 -0.50750570464E+01  0.50964522949E+01  0.10465920871E+02  0.51100000000E-03 0.  1.
         12    1    3    3    0    0 -0.39034428682E+01 -0.14551327790E+02  0.15845323165E+00  0.15066622518E+02  0.00000000000E+00 0. -1.
</event>
<event>
 7    1  0.7819001E-012  0.5930195E+02  0.7816164E-02  0.1266605E+00
        -11   -1    0    0    0    0  0.00000000000E+00  0.00000000000E+00  0.45593999997E+02  0.45594000000E+02  0.51100000000E-03 0.  1.
         11   -1    0    0    0    0 -0.00000000000E+00 -0.00000000000E+00 -0.45593999997E+02  0.45594000000E+02  0.51100000000E-03 0. -1.
    9900012    2    1    2    0    0 -0.66397213267E+01  0.29726135294E+02  0.94335245602E+01  0.59301946553E+02  0.50000004605E+02 0.  0.
         12    1    1    2    0    0  0.66397213267E+01 -0.29726135294E+02 -0.94335245602E+01  0.31886053447E+02  0.00000000000E+00 0. -1.
         11    1    3    3    0    0 -0.28971106165E+01  0.12959030836E+02  0.42995005614E+01  0.13957630009E+02  0.51100000000E-03 0. -1.
        -11    1    3    3    0    0 -0.30522552916E+01 -0.74100750465E+01  0.16708090212E+02  0.18530670613E+02  0.51100000000E-03 0.  1.
        -12    1    3    3    0    0 -0.69035541858E+00  0.24177179504E+02 -0.11574066214E+02  0.26813645931E+02  0.00000000000E+00 0.  1.
</event>
<event>
 7    1  0.7819001E-012  0.5930195E+02  0.7816164E-02  0.1266605E+00
        -11   -1    0    0    0    0  0.00000000000E+00  0.00000000000E+00  0.45593999997E+02  0.45594000000E+02  0.51100000000E-03 0.  1.
         11   -1    0    0    0    0 -0.00000000000E+00 -0.00000000000E+00 -0.45593999997E+02  0.45594000000E+02  0.51100000000E-03 0. -1.
    9900012    2    1    2    0    0  0.14800209151E+01  0.30946017679E+02  0.75414680240E+01  0.59301949570E+02  0.50000010107E+02 0.  0.
         12    1    1    2    0    0 -0.14800209151E+01 -0.30946017679E+02 -0.75414680240E+01  0.31886050430E+02  0.00000000000E+00 0. -1.
         11    1    3    3    0    0  0.16027007357E+02  0.46992593446E+01 -0.12957439464E+01  0.16751923945E+02  0.51100000000E-03 0. -1.
        -11    1    3    3    0    0 -0.17375926584E+02  0.28046168448E+02 -0.11266484355E+00  0.32992773192E+02  0.51100000000E-03 0.  1.
        -12    1    3    3    0    0  0.28289401423E+01 -0.17994101137E+01  0.89498768139E+01  0.95572524331E+01  0.00000000000E+00 0.  1.
</event>
<event>
 7    1  0.7819001E-012  0.5930194E+02  0.7816164E-02  0.1266605E+00
        -11   -1    0    0    0    0  0.00000000000E+00  0.00000000000E+00  0.45593999997E+02  0.45594000000E+02  0.51100000000E-03 0. -1.
         11   -1    0    0    0    0 -0.00000000000E+00 -0.00000000000E+00 -0.45593999997E+02  0.45594000000E+02  0.51100000000E-03 0.  1.
    9900012    2    1    2    0    0  0.12873619389E+02  0.22088050682E+02 -0.19055416499E+02  0.59301937887E+02  0.49999988801E+02 0.  0.
         12    1    1    2    0    0 -0.12873619389E+02 -0.22088050682E+02  0.19055416499E+02  0.31886062113E+02  0.00000000000E+00 0. -1.
         11    1    3    3    0    0  0.16010896833E+02  0.11286523926E+02  0.97608480934E+01  0.21886264996E+02  0.51100000000E-03 0. -1.
        -11    1    3    3    0    0 -0.79065054356E+01 -0.29669787490E+01 -0.15622045317E+02  0.17758493496E+02  0.51100000000E-03 0.  1.
        -12    1    3    3    0    0  0.47692279919E+01  0.13768505505E+02 -0.13194219276E+02  0.19657179395E+02  0.00000000000E+00 0.  1.
</event>
<event>
 7    1  0.7819001E-012  0.5930192E+02  0.7816164E-02  0.1266605E+00
        -11   -1    0    0    0    0  0.00000000000E+00  0.00000000000E+00  0.45593999997E+02  0.45594000000E+02  0.51100000000E-03 0. -1.
         11   -1    0    0    0    0 -0.00000000000E+00 -0.00000000000E+00 -0.45593999997E+02  0.45594000000E+02  0.51100000000E-03 0.  1.
    9900012    2    1    2    0    0 -0.22705819936E+02 -0.53804857270E+01 -0.21730578157E+02  0.59301922903E+02  0.49999961473E+02 0.  0.
         12    1    1    2    0    0  0.22705819936E+02  0.53804857270E+01  0.21730578157E+02  0.31886077097E+02  0.00000000000E+00 0. -1.
         11    1    3    3    0    0  0.82077620043E+00 -0.51032441303E+01 -0.24258689553E+02  0.24803241589E+02  0.51100000000E-03 0. -1.
        -11    1    3    3    0    0 -0.15749140974E+02  0.12050025787E+02  0.14665131971E+01  0.19884396498E+02  0.51100000000E-03 0.  1.
         12    1    3    3    0    0 -0.77774551624E+01 -0.12327267383E+02  0.10615981995E+01  0.14614284816E+02  0.00000000000E+00 0. -1.
</event>
<event>
 7    1  0.7819001E-012  0.5930193E+02  0.7816164E-02  0.1266605E+00
        -11   -1    0    0    0    0  0.00000000000E+00  0.00000000000E+00  0.45593999997E+02  0.45594000000E+02  0.51100000000E-03 0. -1.
         11   -1    0    0    0    0 -0.00000000000E+00 -0.00000000000E+00 -0.45593999997E+02  0.45594000000E+02  0.51100000000E-03 0.  1.
    9900012    2    1    2    0    0 -0.61736090616E+01 -0.30226746024E+02 -0.80592631570E+01  0.59301931778E+02  0.49999977659E+02 0.  0.
         12    1    1    2    0    0  0.61736090616E+01  0.30226746024E+02  0.80592631570E+01  0.31886068222E+02  0.00000000000E+00 0. -1.
         11    1    3    3    0    0  0.16376286148E+00  0.82834636219E+00 -0.19674704043E+02  0.19692814817E+02  0.51100000000E-03 0. -1.
        -11    1    3    3    0    0  0.60062720259E+01 -0.19379548281E+02  0.97691344892E+01  0.22518396572E+02  0.51100000000E-03 0.  1.
         12    1    3    3    0    0 -0.12343643949E+02 -0.11675544105E+02  0.18463063972E+01  0.17090720389E+02  0.00000000000E+00 0. -1.
</event>
<event>
 7    1  0.7819001E-012  0.5930193E+02  0.7816164E-02  0.1266605E+00
        -11   -1    0    0    0    0  0.00000000000E+00  0.00000000000E+00  0.45593999997E+02  0.45594000000E+02  0.51100000000E-03 0. -1.
         11   -1    0    0    0    0 -0.00000000000E+00 -0.00000000000E+00 -0.45593999997E+02  0.45594000000E+02  0.51100000000E-03 0.  1.
    9900012    2    1    2    0    0  0.74006891723E+00  0.31381402000E+02 -0.56018843040E+01  0.59301934058E+02  0.49999981818E+02 0.  0.
         12    1    1    2    0    0 -0.74006891723E+00 -0.31381402000E+02  0.56018843040E+01  0.31886065942E+02  0.00000000000E+00 0. -1.
         11    1    3    3    0    0 -0.12190274740E+02  0.16145512229E+02 -0.15961217333E+01  0.20293544989E+02  0.51100000000E-03 0. -1.
        -11    1    3    3    0    0  0.21844724010E+02  0.14096775412E+02 -0.10376436848E+02  0.27992525538E+02  0.51100000000E-03 0.  1.
        -12    1    3    3    0    0 -0.89143803520E+01  0.11391143600E+01  0.63706742778E+01  0.11015863531E+02  0.00000000000E+00 0.  1.
</event>
<event>
 7    1  0.7819001E-012  0.5930174E+02  0.7816164E-02  0.1266605E+00
        -11   -1    0    0    0    0  0.00000000000E+00  0.00000000000E+00  0.45593999997E+02  0.45594000000E+02  0.51100000000E-03 0.  1.
         11   -1    0    0    0    0 -0.00000000000E+00 -0.00000000000E+00 -0.45593999997E+02  0.45594000000E+02  0.51100000000E-03 0. -1.
    9900012    2    1    2    0    0 -0.18593355683E+02  0.18085584199E+02  0.18545420185E+02  0.59301735854E+02  0.49999620339E+02 0.  0.
         12    1    1    2    0    0  0.18593355683E+02 -0.18085584199E+02 -0.18545420185E+02  0.31886264146E+02  0.00000000000E+00 0. -1.
         11    1    3    3    0    0  0.65031911658E+01  0.67656557455E+01 -0.10717743055E+01  0.94453318326E+01  0.51100000000E-03 0. -1.
        -11    1    3    3    0    0 -0.23483940179E+02  0.97467140069E+01  0.29946258399E+02  0.39284504230E+02  0.51100000000E-03 0.  1.
        -12    1    3    3    0    0 -0.16126066706E+01  0.15732144463E+01 -0.10329063908E+02  0.10571899791E+02  0.00000000000E+00 0.  1.
</event>
<event>
 7    1  0.7819001E-012  0.5930172E+02  0.7816164E-02  0.1266606E+00
        -11   -1    0    0    0    0  0.00000000000E+00  0.00000000000E+00  0.45593999997E+02  0.45594000000E+02  0.51100000000E-03 0. -1.
         11   -1    0    0    0    0 -0.00000000000E+00 -0.00000000000E+00 -0.45593999997E+02  0.45594000000E+02  0.51100000000E-03 0.  1.
    9900012    2    1    2    0    0  0.23251666032E+01 -0.20396760038E+02 -0.24398784886E+02  0.59301718879E+02  0.49999589382E+02 0.  0.
         12    1    1    2    0    0 -0.23251666032E+01  0.20396760038E+02  0.24398784886E+02  0.31886281121E+02  0.00000000000E+00 0. -1.
         11    1    3    3    0    0 -0.14169201786E+02 -0.12496110138E+01  0.30862416762E+01  0.14555160421E+02  0.51100000000E-03 0. -1.
        -11    1    3    3    0    0  0.19087295077E+02 -0.53948977598E+01 -0.22243208892E+02  0.29802518304E+02  0.51100000000E-03 0.  1.
        -12    1    3    3    0    0 -0.25929266883E+01 -0.13752251264E+02 -0.52418176701E+01  0.14944040154E+02  0.00000000000E+00 0.  1.
</event>
<event>
 7    1  0.7819001E-012  0.5930191E+02  0.7816164E-02  0.1266605E+00
        -11   -1    0    0    0    0  0.00000000000E+00  0.00000000000E+00  0.45593999997E+02  0.45594000000E+02  0.51100000000E-03 0. -1.
         11   -1    0    0    0    0 -0.00000000000E+00 -0.00000000000E+00 -0.45593999997E+02  0.45594000000E+02  0.51100000000E-03 0.  1.
    9900012    2    1    2    0    0 -0.85283539772E+01  0.21351023545E+01 -0.30650146705E+02  0.59301906218E+02  0.49999931045E+02 0.  0.
         12    1    1    2    0    0  0.85283539772E+01 -0.21351023545E+01  0.30650146705E+02  0.31886093782E+02  0.00000000000E+00 0. -1.
         11    1    3    3    0    0 -0.13291278424E+02 -0.68270843226E+01 -0.16511359591E+01  0.15033077287E+02  0.51100000000E-03 0. -1.
        -11    1    3    3    0    0 -0.64824001498E+01  0.17252036507E+02 -0.10923924840E+02  0.21423968109E+02  0.51100000000E-03 0.  1.
        -12    1    3    3    0    0  0.11245324597E+02 -0.82898498303E+01 -0.18075085906E+02  0.22844860823E+02  0.00000000000E+00 0.  1.
</event>
<event>
 7    1  0.7819001E-012  0.5930193E+02  0.7816164E-02  0.1266605E+00
        -11   -1    0    0    0    0  0.00000000000E+00  0.00000000000E+00  0.45593999997E+02  0.45594000000E+02  0.51100000000E-03 0. -1.
         11   -1    0    0    0    0 -0.00000000000E+00 -0.00000000000E+00 -0.45593999997E+02  0.45594000000E+02  0.51100000000E-03 0.  1.
    9900012    2    1    2    0    0 -0.26603751471E+02  0.65828068087E+00 -0.17564978402E+02  0.59301931067E+02  0.49999976362E+02 0.  0.
         12    1    1    2    0    0  0.26603751471E+02 -0.65828068087E+00  0.17564978402E+02  0.31886068933E+02  0.00000000000E+00 0. -1.
         11    1    3    3    0    0 -0.61503186235E+01 -0.21218750393E+01  0.34302088830E+01  0.73549375317E+01  0.51100000000E-03 0. -1.
        -11    1    3    3    0    0 -0.40320867476E+01  0.18664123061E+01 -0.31903609726E+02  0.32211512418E+02  0.51100000000E-03 0.  1.
        -12    1    3    3    0    0 -0.16421346100E+02  0.91374341409E+00  0.10908422442E+02  0.19735481117E+02  0.00000000000E+00 0.  1.
</event>
<event>
 7    1  0.7819001E-012  0.5930194E+02  0.7816164E-02  0.1266605E+00
        -11   -1    0    0    0    0  0.00000000000E+00  0.00000000000E+00  0.45593999997E+02  0.45594000000E+02  0.51100000000E-03 0.  1.
         11   -1    0    0    0    0 -0.00000000000E+00 -0.00000000000E+00 -0.45593999997E+02  0.45594000000E+02  0.51100000000E-03 0. -1.
    9900012    2    1    2    0    0 -0.15798737038E+02 -0.11033499732E+02  0.25404378109E+02  0.59301942930E+02  0.49999997998E+02 0.  0.
         12    1    1    2    0    0  0.15798737038E+02  0.11033499732E+02 -0.25404378109E+02  0.31886057070E+02  0.00000000000E+00 0. -1.
         11    1    3    3    0    0 -0.21612172521E+02  0.13804938867E+02  0.21248484388E+02  0.33304060222E+02  0.51100000000E-03 0. -1.
        -11    1    3    3    0    0  0.24496452502E+01 -0.57745718397E+01  0.15825884397E+01  0.64692370658E+01  0.51100000000E-03 0.  1.
         12    1    3    3    0    0  0.33637902322E+01 -0.19063866760E+02  0.25733052816E+01  0.19528645643E+02  0.00000000000E+00 0. -1.
</event>
<event>
 7    1  0.7819001E-012  0.5930186E+02  0.7816164E-02  0.1266605E+00
        -11   -1    0    0    0    0  0.00000000000E+00  0.00000000000E+00  0.45593999997E+02  0.45594000000E+02  0.51100000000E-03 0. -1.
         11   -1    0    0    0    0 -0.00000000000E+00 -0.00000000000E+00 -0.45593999997E+02  0.45594000000E+02  0.51100000000E-03 0.  1.
    9900012    2    1    2    0    0 -0.23959610773E+02 -0.19318028374E+01 -0.20950680638E+02  0.59301861479E+02  0.49999849451E+02 0.  0.
         12    1    1    2    0    0  0.23959610773E+02  0.19318028374E+01  0.20950680638E+02  0.31886138521E+02  0.00000000000E+00 0. -1.
         11    1    3    3    0    0 -0.17085185852E+02 -0.35475791883E+01 -0.31669546061E+01  0.17734669307E+02  0.51100000000E-03 0. -1.
        -11    1    3    3    0    0  0.13448360982E+02 -0.61154026781E+01 -0.12091342845E+02  0.19090760463E+02  0.51100000000E-03 0.  1.
        -12    1    3    3    0    0 -0.20322785902E+02  0.77311790289E+01 -0.56923831864E+01  0.22476431708E+02  0.00000000000E+00 0.  1.
</event>
<event>
 7    1  0.7819001E-012  0.5930197E+02  0.7816164E-02  0.1266605E+00
        -11   -1    0    0    0    0  0.00000000000E+00  0.00000000000E+00  0.45593999997E+02  0.45594000000E+02  0.51100000000E-03 0.  1.
         11   -1    0    0    0    0 -0.00000000000E+00 -0.00000000000E+00 -0.45593999997E+02  0.45594000000E+02  0.51100000000E-03 0. -1.
    9900012    2    1    2    0    0  0.30861009610E+01 -0.22650509160E+02  0.22229472752E+02  0.59301967898E+02  0.50000043534E+02 0.  0.
         12    1    1    2    0    0 -0.30861009610E+01  0.22650509160E+02 -0.22229472752E+02  0.31886032102E+02  0.00000000000E+00 0. -1.
         11    1    3    3    0    0 -0.19692091641E+02 -0.18013783079E+00  0.10775174145E+02  0.22448057844E+02  0.51100000000E-03 0. -1.
        -11    1    3    3    0    0  0.21329879097E+02 -0.14606553774E+02  0.12629641565E+02  0.28771913419E+02  0.51100000000E-03 0.  1.
         12    1    3    3    0    0  0.14483135049E+01 -0.78638175556E+01 -0.11753429584E+01  0.80819966361E+01  0.00000000000E+00 0. -1.
</event>
<event>
 7    1  0.7819001E-012  0.5930195E+02  0.7816164E-02  0.1266605E+00
        -11   -1    0    0    0    0  0.00000000000E+00  0.00000000000E+00  0.45593999997E+02  0.45594000000E+02  0.51100000000E-03 0.  1.
         11   -1    0    0    0    0 -0.00000000000E+00 -0.00000000000E+00 -0.45593999997E+02  0.45594000000E+02  0.51100000000E-03 0. -1.
    9900012    2    1    2    0    0  0.54592758223E+01  0.31410153009E+02 -0.56485397984E+00  0.59301945609E+02  0.50000002885E+02 0.  0.
         12    1    1    2    0    0 -0.54592758223E+01 -0.31410153009E+02  0.56485397984E+00  0.31886054391E+02  0.00000000000E+00 0. -1.
         11    1    3    3    0    0  0.13660517554E+02  0.18096168252E+02 -0.12305641215E+02  0.25797477614E+02  0.51100000000E-03 0.  1.
        -11    1    3    3    0    0 -0.78290879501E+01 -0.66873067569E+01  0.82579322441E+01  0.13198792937E+02  0.51100000000E-03 0. -1.
        -12    1    3    3    0    0 -0.37215378190E+00  0.20001291515E+02  0.34828549912E+01  0.20305675058E+02  0.00000000000E+00 0.  1.
</event>
<event>
 7    1  0.7819001E-012  0.5930195E+02  0.7816164E-02  0.1266605E+00
        -11   -1    0    0    0    0  0.00000000000E+00  0.00000000000E+00  0.45593999997E+02  0.45594000000E+02  0.51100000000E-03 0. -1.
         11   -1    0    0    0    0 -0.00000000000E+00 -0.00000000000E+00 -0.45593999997E+02  0.45594000000E+02  0.51100000000E-03 0.  1.
    9900012    2    1    2    0    0 -0.39060960022E+01 -0.22610384197E+02 -0.22141209609E+02  0.59301949407E+02  0.50000009810E+02 0.  0.
         12    1    1    2    0    0  0.39060960022E+01  0.22610384197E+02  0.22141209609E+02  0.31886050593E+02  0.00000000000E+00 0. -1.
         11    1    3    3    0    0  0.14996832908E+02 -0.17695453244E+01  0.17100755117E+00  0.15101838688E+02  0.51100000000E-03 0. -1.
        -11    1    3    3    0    0 -0.19660272789E+02 -0.16684283384E+02 -0.48545784317E+01  0.26238494053E+02  0.51100000000E-03 0.  1.
         12    1    3    3    0    0  0.75734387892E+00 -0.41565554886E+01 -0.17457638728E+02  0.17961616666E+02  0.00000000000E+00 0. -1.
</event>
<event>
 7    1  0.7819001E-012  0.5930193E+02  0.7816164E-02  0.1266605E+00
        -11   -1    0    0    0    0  0.00000000000E+00  0.00000000000E+00  0.45593999997E+02  0.45594000000E+02  0.51100000000E-03 0. -1.
         11   -1    0    0    0    0 -0.00000000000E+00 -0.00000000000E+00 -0.45593999997E+02  0.45594000000E+02  0.51100000000E-03 0.  1.
    9900012    2    1    2    0    0  0.22883820489E+01 -0.85823755303E+01 -0.30623968381E+02  0.59301932485E+02  0.49999978949E+02 0.  0.
         12    1    1    2    0    0 -0.22883820489E+01  0.85823755303E+01  0.30623968381E+02  0.31886067515E+02  0.00000000000E+00 0. -1.
         11    1    3    3    0    0 -0.70087722058E+01 -0.12001987415E+02  0.71518429679E+01  0.15630721284E+02  0.51100000000E-03 0. -1.
        -11    1    3    3    0    0 -0.38010267785E+01  0.14441097683E+01 -0.24790441181E+02  0.25121688474E+02  0.51100000000E-03 0.  1.
         12    1    3    3    0    0  0.13098181033E+02  0.19755021166E+01 -0.12985370169E+02  0.18549522727E+02  0.00000000000E+00 0. -1.
</event>
<event>
 7    1  0.7819001E-012  0.5930195E+02  0.7816164E-02  0.1266605E+00
        -11   -1    0    0    0    0  0.00000000000E+00  0.00000000000E+00  0.45593999997E+02  0.45594000000E+02  0.51100000000E-03 0.  1.
         11   -1    0    0    0    0 -0.00000000000E+00 -0.00000000000E+00 -0.45593999997E+02  0.45594000000E+02  0.51100000000E-03 0. -1.
    9900012    2    1    2    0    0 -0.77265598540E+01  0.18280380276E+02  0.24956925424E+02  0.59301950435E+02  0.50000011686E+02 0.  0.
         12    1    1    2    0    0  0.77265598540E+01 -0.18280380276E+02 -0.24956925424E+02  0.31886049565E+02  0.00000000000E+00 0. -1.
         11    1    3    3    0    0 -0.17059492020E+02 -0.61449024188E+01  0.44890960858E+01  0.18679884305E+02  0.51100000000E-03 0. -1.
        -11    1    3    3    0    0  0.57869117492E+01  0.23281808245E+02  0.25071032532E+02  0.34699965638E+02  0.51100000000E-03 0.  1.
         12    1    3    3    0    0  0.35460204165E+01  0.11434744494E+01 -0.46032031936E+01  0.59221004933E+01  0.00000000000E+00 0. -1.
</event>
<event>
 7    1  0.7819001E-012  0.5930195E+02  0.7816164E-02  0.1266605E+00
        -11   -1    0    0    0    0  0.00000000000E+00  0.00000000000E+00  0.45593999997E+02  0.45594000000E+02  0.51100000000E-03 0.  1.
         11   -1    0    0    0    0 -0.00000000000E+00 -0.00000000000E+00 -0.45593999997E+02  0.45594000000E+02  0.51100000000E-03 0. -1.
    9900012    2    1    2    0    0 -0.72908566854E+01  0.31955671677E+01  0.30876396304E+02  0.59301951492E+02  0.50000013613E+02 0.  0.
         12    1    1    2    0    0  0.72908566854E+01 -0.31955671677E+01 -0.30876396304E+02  0.31886048508E+02  0.00000000000E+00 0. -1.
         11    1    3    3    0    0  0.78349875251E+01 -0.88096536640E+01 -0.65598025286E+01  0.13491776631E+02  0.51100000000E-03 0. -1.
        -11    1    3    3    0    0 -0.42766493975E+00 -0.28863337187E+01  0.14389232581E+02  0.14682092295E+02  0.51100000000E-03 0.  1.
         12    1    3    3    0    0 -0.14698179271E+02  0.14891554550E+02  0.23046966252E+02  0.31128082565E+02  0.00000000000E+00 0. -1.
</event>
<event>
 7    1  0.7819001E-012  0.5930195E+02  0.7816164E-02  0.1266605E+00
        -11   -1    0    0    0    0  0.00000000000E+00  0.00000000000E+00  0.45593999997E+02  0.45594000000E+02  0.51100000000E-03 0.  1.
         11   -1    0    0    0    0 -0.00000000000E+00 -0.00000000000E+00 -0.45593999997E+02  0.45594000000E+02  0.51100000000E-03 0. -1.
    9900012    2    1    2    0    0  0.18781544411E+02 -0.83493491016E+00  0.25754161920E+02  0.59301946889E+02  0.50000005218E+02 0.  0.
         12    1    1    2    0    0 -0.18781544411E+02  0.83493491016E+00 -0.25754161920E+02  0.31886053111E+02  0.00000000000E+00 0. -1.
         11    1    3    3    0    0  0.71615152508E+01 -0.15100936125E+02 -0.43081434652E+01  0.17259364789E+02  0.51100000000E-03 0. -1.
        -11    1    3    3    0    0  0.47599837301E+00  0.57880438564E+01  0.27119483377E+02  0.27734354238E+02  0.51100000000E-03 0.  1.
        -12    1    3    3    0    0  0.11144030788E+02  0.84779573586E+01  0.29428220089E+01  0.14308227862E+02  0.00000000000E+00 0.  1.
</event>
<event>
 7    1  0.7819001E-012  0.5930190E+02  0.7816164E-02  0.1266605E+00
        -11   -1    0    0    0    0  0.00000000000E+00  0.00000000000E+00  0.45593999997E+02  0.45594000000E+02  0.51100000000E-03 0.  1.
         11   -1    0    0    0    0 -0.00000000000E+00 -0.00000000000E+00 -0.45593999997E+02  0.45594000000E+02  0.51100000000E-03 0. -1.
    9900012    2    1    2    0    0  0.22164836699E+02 -0.22898545696E+02 -0.10487390915E+01  0.59301902174E+02  0.49999923668E+02 0.  0.
         12    1    1    2    0    0 -0.22164836699E+02  0.22898545696E+02  0.10487390915E+01  0.31886097826E+02  0.00000000000E+00 0. -1.
         11    1    3    3    0    0  0.17828041859E+02 -0.23312983190E+02 -0.75134906765E+01  0.30294996355E+02  0.51100000000E-03 0. -1.
        -11    1    3    3    0    0 -0.41767731841E+01  0.15139548309E+01  0.15748191065E+02  0.16362854749E+02  0.51100000000E-03 0.  1.
         12    1    3    3    0    0  0.85135680244E+01 -0.10995173374E+01 -0.92834394798E+01  0.12644051070E+02  0.00000000000E+00 0. -1.
</event>
<event>
 7    1  0.7819001E-012  0.5930195E+02  0.7816164E-02  0.1266605E+00
        -11   -1    0    0    0    0  0.00000000000E+00  0.00000000000E+00  0.45593999997E+02  0.45594000000E+02  0.51100000000E-03 0. -1.
         11   -1    0    0    0    0 -0.00000000000E+00 -0.00000000000E+00 -0.45593999997E+02  0.45594000000E+02  0.51100000000E-03 0.  1.
    9900012    2    1    2    0    0 -0.22830579873E+01 -0.16711819818E+02 -0.27059621325E+02  0.59301946910E+02  0.50000005257E+02 0.  0.
         12    1    1    2    0    0  0.22830579873E+01  0.16711819818E+02  0.27059621325E+02  0.31886053090E+02  0.00000000000E+00 0. -1.
         11    1    3    3    0    0  0.10621602191E+02  0.78929853969E+01 -0.19576299765E+02  0.23629413119E+02  0.51100000000E-03 0. -1.
        -11    1    3    3    0    0 -0.55237813846E+01 -0.10804486324E+02 -0.14168271306E+02  0.18654463208E+02  0.51100000000E-03 0.  1.
         12    1    3    3    0    0 -0.73808787941E+01 -0.13800318891E+02  0.66849497462E+01  0.17018070583E+02  0.00000000000E+00 0. -1.
</event>
<event>
 7    1  0.7819001E-012  0.5930194E+02  0.7816164E-02  0.1266605E+00
        -11   -1    0    0    0    0  0.00000000000E+00  0.00000000000E+00  0.45593999997E+02  0.45594000000E+02  0.51100000000E-03 0.  1.
         11   -1    0    0    0    0 -0.00000000000E+00 -0.00000000000E+00 -0.45593999997E+02  0.45594000000E+02  0.51100000000E-03 0. -1.
    9900012    2    1    2    0    0 -0.86895074310E+01  0.15768281119E+02  0.26316812205E+02  0.59301939826E+02  0.49999992336E+02 0.  0.
         12    1    1    2    0    0  0.86895074310E+01 -0.15768281119E+02 -0.26316812205E+02  0.31886060174E+02  0.00000000000E+00 0. -1.
         11    1    3    3    0    0  0.19143543792E+02  0.72195669580E+01  0.13245286581E+02  0.24372833911E+02  0.51100000000E-03 0. -1.
        -11    1    3    3    0    0 -0.55940384171E+01  0.84674667713E+01  0.38619936692E+01  0.10858464656E+02  0.51100000000E-03 0.  1.
         12    1    3    3    0    0 -0.22239012806E+02  0.81247389310E-01  0.92095319546E+01  0.24070641258E+02  0.00000000000E+00 0. -1.
</event>
<event>
 7    1  0.7819001E-012  0.5930193E+02  0.7816164E-02  0.1266605E+00
        -11   -1    0    0    0    0  0.00000000000E+00  0.00000000000E+00  0.45593999997E+02  0.45594000000E+02  0.51100000000E-03 0.  1.
         11   -1    0    0    0    0 -0.00000000000E+00 -0.00000000000E+00 -0.45593999997E+02  0.45594000000E+02  0.51100000000E-03 0. -1.
    9900012    2    1    2    0    0 -0.24743096835E+02 -0.12505254026E+02  0.15751802413E+02  0.59301929396E+02  0.49999973316E+02 0.  0.
         12    1    1    2    0    0  0.24743096835E+02  0.12505254026E+02 -0.15751802413E+02  0.31886070604E+02  0.00000000000E+00 0. -1.
         11    1    3    3    0    0 -0.31266496817E+01  0.51083163448E+01  0.11842843256E+02  0.13271163127E+02  0.51100000000E-03 0. -1.
        -11    1    3    3    0    0 -0.24139857187E+02  0.26518109559E+01 -0.30049088644E+01  0.24470273474E+02  0.51100000000E-03 0.  1.
        -12    1    3    3    0    0  0.25234100336E+01 -0.20265381327E+02  0.69138680221E+01  0.21560492795E+02  0.00000000000E+00 0.  1.
</event>
<event>
 7    1  0.7819001E-012  0.5930193E+02  0.7816164E-02  0.1266605E+00
        -11   -1    0    0    0    0  0.00000000000E+00  0.00000000000E+00  0.45593999997E+02  0.45594000000E+02  0.51100000000E-03 0.  1.
         11   -1    0    0    0    0 -0.00000000000E+00 -0.00000000000E+00 -0.45593999997E+02  0.45594000000E+02  0.51100000000E-03 0. -1.
    9900012    2    1    2    0    0 -0.13280477853E+01 -0.28662843090E+02  0.13906794044E+02  0.59301933992E+02  0.49999981697E+02 0.  0.
         12    1    1    2    0    0  0.13280477853E+01  0.28662843090E+02 -0.13906794044E+02  0.31886066008E+02  0.00000000000E+00 0. -1.
         11    1    3    3    0    0 -0.11202516723E+02  0.13687246280E+01 -0.73659504611E+01  0.13476906711E+02  0.51100000000E-03 0. -1.
        -11    1    3    3    0    0  0.44739292104E+01 -0.11798869542E+02  0.23505772306E+02  0.26678656207E+02  0.51100000000E-03 0.  1.
         12    1    3    3    0    0  0.54005397275E+01 -0.18232698176E+02 -0.22330278016E+01  0.19146371074E+02  0.00000000000E+00 0. -1.
</event>
<event>
 7    1  0.7819001E-012  0.5930192E+02  0.7816164E-02  0.1266605E+00
        -11   -1    0    0    0    0  0.00000000000E+00  0.00000000000E+00  0.45593999997E+02  0.45594000000E+02  0.51100000000E-03 0.  1.
         11   -1    0    0    0    0 -0.00000000000E+00 -0.00000000000E+00 -0.45593999997E+02  0.45594000000E+02  0.51100000000E-03 0. -1.
    9900012    2    1    2    0    0 -0.93836756994E+01 -0.21763730432E+02  0.21330927911E+02  0.59301924395E+02  0.49999964195E+02 0.  0.
         12    1    1    2    0    0  0.93836756994E+01  0.21763730432E+02 -0.21330927911E+02  0.31886075605E+02  0.00000000000E+00 0. -1.
         11    1    3    3    0    0 -0.11368078987E+02  0.19839006902E+01 -0.12207628230E+02  0.16798668670E+02  0.51100000000E-03 0. -1.
        -11    1    3    3    0    0 -0.36173952120E+01 -0.62568543149E+01  0.13559010800E+02  0.15364912892E+02  0.51100000000E-03 0.  1.
         12    1    3    3    0    0  0.56017985000E+01 -0.17490776807E+02  0.19979545340E+02  0.27138342834E+02  0.00000000000E+00 0. -1.
</event>
<event>
 7    1  0.7819001E-012  0.5930190E+02  0.7816164E-02  0.1266605E+00
        -11   -1    0    0    0    0  0.00000000000E+00  0.00000000000E+00  0.45593999997E+02  0.45594000000E+02  0.51100000000E-03 0.  1.
         11   -1    0    0    0    0 -0.00000000000E+00 -0.00000000000E+00 -0.45593999997E+02  0.45594000000E+02  0.51100000000E-03 0. -1.
    9900012    2    1    2    0    0  0.56910951716E+01  0.73630536088E+01  0.30497877013E+02  0.59301896052E+02  0.49999912504E+02 0.  0.
         12    1    1    2    0    0 -0.56910951716E+01 -0.73630536088E+01 -0.30497877013E+02  0.31886103948E+02  0.00000000000E+00 0. -1.
         11    1    3    3    0    0 -0.74784897632E+01 -0.79486410176E+01 -0.75986577078E+01  0.13298432328E+02  0.51100000000E-03 0. -1.
        -11    1    3    3    0    0  0.10392522331E+02  0.46506390845E+01  0.30675499978E+02  0.32720318817E+02  0.51100000000E-03 0.  1.
         12    1    3    3    0    0  0.27770626037E+01  0.10661055542E+02  0.74210347424E+01  0.13283144907E+02  0.00000000000E+00 0. -1.
</event>
<event>
 7    1  0.7819001E-012  0.5930191E+02  0.7816164E-02  0.1266605E+00
        -11   -1    0    0    0    0  0.00000000000E+00  0.00000000000E+00  0.45593999997E+02  0.45594000000E+02  0.51100000000E-03 0.  1.
         11   -1    0    0    0    0 -0.00000000000E+00 -0.00000000000E+00 -0.45593999997E+02  0.45594000000E+02  0.51100000000E-03 0. -1.
    9900012    2    1    2    0    0 -0.33934213037E+01 -0.49338021898E+01  0.31318764104E+02  0.59301910601E+02  0.49999939037E+02 0.  0.
         12    1    1    2    0    0  0.33934213037E+01  0.49338021898E+01 -0.31318764104E+02  0.31886089399E+02  0.00000000000E+00 0. -1.
         11    1    3    3    0    0  0.18207369363E+02 -0.58929499248E+00 -0.99925239954E+00  0.18244288786E+02  0.51100000000E-03 0. -1.
        -11    1    3    3    0    0 -0.92854073405E+01 -0.11727350956E+01  0.24259122317E+02  0.26001905948E+02  0.51100000000E-03 0.  1.
         12    1    3    3    0    0 -0.12315383326E+02 -0.31717721017E+01  0.80588941868E+01  0.15055715866E+02  0.00000000000E+00 0. -1.
</event>
<event>
 7    1  0.7819001E-012  0.5930192E+02  0.7816164E-02  0.1266605E+00
        -11   -1    0    0    0    0  0.00000000000E+00  0.00000000000E+00  0.45593999997E+02  0.45594000000E+02  0.51100000000E-03 0. -1.
         11   -1    0    0    0    0 -0.00000000000E+00 -0.00000000000E+00 -0.45593999997E+02  0.45594000000E+02  0.51100000000E-03 0.  1.
    9900012    2    1    2    0    0  0.85578057841E+01  0.29514600289E+02 -0.85073141031E+01  0.59301920540E+02  0.49999957164E+02 0.  0.
         12    1    1    2    0    0 -0.85578057841E+01 -0.29514600289E+02  0.85073141031E+01  0.31886079460E+02  0.00000000000E+00 0. -1.
         11    1    3    3    0    0 -0.28633956147E+01  0.19636033409E+01 -0.16406637090E+02  0.16769988474E+02  0.51100000000E-03 0. -1.
        -11    1    3    3    0    0  0.92968298537E+01  0.32055267200E+02  0.21733510155E+00  0.33376914708E+02  0.51100000000E-03 0.  1.
         12    1    3    3    0    0  0.21243715452E+01 -0.45042702515E+01  0.76819878858E+01  0.91550173587E+01  0.00000000000E+00 0. -1.
</event>
<event>
 7    1  0.7819001E-012  0.5930192E+02  0.7816164E-02  0.1266605E+00
        -11   -1    0    0    0    0  0.00000000000E+00  0.00000000000E+00  0.45593999997E+02  0.45594000000E+02  0.51100000000E-03 0.  1.
         11   -1    0    0    0    0 -0.00000000000E+00 -0.00000000000E+00 -0.45593999997E+02  0.45594000000E+02  0.51100000000E-03 0. -1.
    9900012    2    1    2    0    0  0.14192555926E+02  0.25457325064E+02  0.12931291257E+02  0.59301916253E+02  0.49999949346E+02 0.  0.
         12    1    1    2    0    0 -0.14192555926E+02 -0.25457325064E+02 -0.12931291257E+02  0.31886083747E+02  0.00000000000E+00 0. -1.
         11    1    3    3    0    0  0.15189370517E+02  0.12019450213E+02 -0.90129707051E+00  0.19390629098E+02  0.51100000000E-03 0. -1.
        -11    1    3    3    0    0 -0.13390107230E+02  0.19344117032E+02  0.68181865916E+01  0.24494438227E+02  0.51100000000E-03 0.  1.
        -12    1    3    3    0    0  0.12393292640E+02 -0.59062421819E+01  0.70144017362E+01  0.15416848928E+02  0.00000000000E+00 0.  1.
</event>
<event>
 7    1  0.7819001E-012  0.5930195E+02  0.7816164E-02  0.1266605E+00
        -11   -1    0    0    0    0  0.00000000000E+00  0.00000000000E+00  0.45593999997E+02  0.45594000000E+02  0.51100000000E-03 0. -1.
         11   -1    0    0    0    0 -0.00000000000E+00 -0.00000000000E+00 -0.45593999997E+02  0.45594000000E+02  0.51100000000E-03 0.  1.
    9900012    2    1    2    0    0  0.34806766342E+01 -0.23127102165E+02 -0.21673542375E+02  0.59301946568E+02  0.50000004632E+02 0.  0.
         12    1    1    2    0    0 -0.34806766342E+01  0.23127102165E+02  0.21673542375E+02  0.31886053432E+02  0.00000000000E+00 0. -1.
         11    1    3    3    0    0 -0.60426602592E+01 -0.31716727375E+02 -0.23524105940E+02  0.39948067524E+02  0.51100000000E-03 0. -1.
        -11    1    3    3    0    0  0.11989677172E+02  0.36378990033E+01 -0.18967731728E+01  0.12672190678E+02  0.51100000000E-03 0.  1.
         12    1    3    3    0    0 -0.24663402782E+01  0.49517262066E+01  0.37473367375E+01  0.66816883658E+01  0.00000000000E+00 0. -1.
</event>
<event>
 7    1  0.7819001E-012  0.5930194E+02  0.7816164E-02  0.1266605E+00
        -11   -1    0    0    0    0  0.00000000000E+00  0.00000000000E+00  0.45593999997E+02  0.45594000000E+02  0.51100000000E-03 0. -1.
         11   -1    0    0    0    0 -0.00000000000E+00 -0.00000000000E+00 -0.45593999997E+02  0.45594000000E+02  0.51100000000E-03 0.  1.
    9900012    2    1    2    0    0  0.23341429505E+02 -0.10155858676E+02 -0.19203051860E+02  0.59301937253E+02  0.49999987645E+02 0.  0.
         12    1    1    2    0    0 -0.23341429505E+02  0.10155858676E+02  0.19203051860E+02  0.31886062747E+02  0.00000000000E+00 0. -1.
         11    1    3    3    0    0  0.80492212005E+00  0.79148193816E+00  0.15480567392E+02  0.15521672279E+02  0.51100000000E-03 0. -1.
        -11    1    3    3    0    0  0.92986418251E+01 -0.72506770404E+01 -0.22548160233E+02  0.25445168255E+02  0.51100000000E-03 0.  1.
         12    1    3    3    0    0  0.13237865559E+02 -0.36966635738E+01 -0.12135459019E+02  0.18335096720E+02  0.00000000000E+00 0. -1.
</event>
<event>
 7    1  0.7819001E-012  0.5930194E+02  0.7816164E-02  0.1266605E+00
        -11   -1    0    0    0    0  0.00000000000E+00  0.00000000000E+00  0.45593999997E+02  0.45594000000E+02  0.51100000000E-03 0. -1.
         11   -1    0    0    0    0 -0.00000000000E+00 -0.00000000000E+00 -0.45593999997E+02  0.45594000000E+02  0.51100000000E-03 0.  1.
    9900012    2    1    2    0    0 -0.25548195429E+02  0.12151178169E+02  0.14709152000E+02  0.59301943908E+02  0.49999999781E+02 0.  0.
         12    1    1    2    0    0  0.25548195429E+02 -0.12151178169E+02 -0.14709152000E+02  0.31886056092E+02  0.00000000000E+00 0. -1.
         11    1    3    3    0    0 -0.15231073260E+02  0.14849488889E+02  0.24039759461E+02  0.32099890157E+02  0.51100000000E-03 0. -1.
        -11    1    3    3    0    0 -0.11141201742E+02  0.86731459930E+01 -0.44913872542E+01  0.14816288246E+02  0.51100000000E-03 0.  1.
         12    1    3    3    0    0  0.82407957248E+00 -0.11371456713E+02 -0.48392202064E+01  0.12385765504E+02  0.00000000000E+00 0. -1.
</event>
<event>
 7    1  0.7819001E-012  0.5930216E+02  0.7816164E-02  0.1266604E+00
        -11   -1    0    0    0    0  0.00000000000E+00  0.00000000000E+00  0.45593999997E+02  0.45594000000E+02  0.51100000000E-03 0.  1.
         11   -1    0    0    0    0 -0.00000000000E+00 -0.00000000000E+00 -0.45593999997E+02  0.45594000000E+02  0.51100000000E-03 0. -1.
    9900012    2    1    2    0    0 -0.17039705908E+02  0.23111275372E+02  0.13864501097E+02  0.59302156473E+02  0.50000387448E+02 0.  0.
         12    1    1    2    0    0  0.17039705908E+02 -0.23111275372E+02 -0.13864501097E+02  0.31885843527E+02  0.00000000000E+00 0. -1.
         11    1    3    3    0    0  0.14783151887E+02  0.42971779663E+01 -0.21538288978E+01  0.15544976596E+02  0.51100000000E-03 0. -1.
        -11    1    3    3    0    0 -0.47717411726E+01  0.34715674078E+01  0.10681990067E+02  0.12203532527E+02  0.51100000000E-03 0.  1.
         12    1    3    3    0    0 -0.27051116623E+02  0.15342529998E+02  0.53363399277E+01  0.31553647350E+02  0.00000000000E+00 0. -1.
</event>
<event>
 7    1  0.7819001E-012  0.5930193E+02  0.7816164E-02  0.1266605E+00
        -11   -1    0    0    0    0  0.00000000000E+00  0.00000000000E+00  0.45593999997E+02  0.45594000000E+02  0.51100000000E-03 0.  1.
         11   -1    0    0    0    0 -0.00000000000E+00 -0.00000000000E+00 -0.45593999997E+02  0.45594000000E+02  0.51100000000E-03 0. -1.
    9900012    2    1    2    0    0  0.25516661180E+01  0.21091470476E+02  0.23777301674E+02  0.59301934051E+02  0.49999981804E+02 0.  0.
         12    1    1    2    0    0 -0.25516661180E+01 -0.21091470476E+02 -0.23777301674E+02  0.31886065949E+02  0.00000000000E+00 0. -1.
         11    1    3    3    0    0  0.16083859602E+02  0.22795289052E+02 -0.11734277482E+01  0.27922977556E+02  0.51100000000E-03 0. -1.
        -11    1    3    3    0    0 -0.91421271946E+01  0.54441810390E+01  0.13909194624E+02  0.17512375401E+02  0.51100000000E-03 0.  1.
         12    1    3    3    0    0 -0.43900662900E+01 -0.71479996148E+01  0.11041534799E+02  0.13866581094E+02  0.00000000000E+00 0. -1.
</event>
<event>
 7    1  0.7819001E-012  0.5930196E+02  0.7816164E-02  0.1266605E+00
        -11   -1    0    0    0    0  0.00000000000E+00  0.00000000000E+00  0.45593999997E+02  0.45594000000E+02  0.51100000000E-03 0.  1.
         11   -1    0    0    0    0 -0.00000000000E+00 -0.00000000000E+00 -0.45593999997E+02  0.45594000000E+02  0.51100000000E-03 0. -1.
    9900012    2    1    2    0    0  0.85066273632E+01 -0.24524134062E+02  0.18518203485E+02  0.59301957271E+02  0.50000024152E+02 0.  0.
         12    1    1    2    0    0 -0.85066273632E+01  0.24524134062E+02 -0.18518203485E+02  0.31886042729E+02  0.00000000000E+00 0. -1.
         11    1    3    3    0    0  0.10665647122E+02 -0.81502020178E+01 -0.64622977783E+01  0.14897755344E+02  0.51100000000E-03 0. -1.
        -11    1    3    3    0    0  0.43425215807E+01 -0.20094288679E+02  0.29272994561E+02  0.35770744219E+02  0.51100000000E-03 0.  1.
         12    1    3    3    0    0 -0.65015413395E+01  0.37203566342E+01 -0.42924932970E+01  0.86334577071E+01  0.00000000000E+00 0. -1.
</event>
<event>
 7    1  0.7819001E-012  0.5930194E+02  0.7816164E-02  0.1266605E+00
        -11   -1    0    0    0    0  0.00000000000E+00  0.00000000000E+00  0.45593999997E+02  0.45594000000E+02  0.51100000000E-03 0. -1.
         11   -1    0    0    0    0 -0.00000000000E+00 -0.00000000000E+00 -0.45593999997E+02  0.45594000000E+02  0.51100000000E-03 0.  1.
    9900012    2    1    2    0    0 -0.28449287187E+02 -0.13766145115E+02 -0.42251680955E+01  0.59301941319E+02  0.49999995060E+02 0.  0.
         12    1    1    2    0    0  0.28449287187E+02  0.13766145115E+02  0.42251680955E+01  0.31886058681E+02  0.00000000000E+00 0. -1.
         11    1    3    3    0    0 -0.31830606875E+02 -0.14527736351E+02 -0.27634119525E+01  0.35098135326E+02  0.51100000000E-03 0.  1.
        -11    1    3    3    0    0  0.12260969967E+01 -0.57128656111E+01  0.95814167578E+01  0.11222463842E+02  0.51100000000E-03 0. -1.
        -12    1    3    3    0    0  0.21552226911E+01  0.64744568476E+01 -0.11043172901E+02  0.12981342151E+02  0.00000000000E+00 0.  1.
</event>
<event>
 7    1  0.7819001E-012  0.5930199E+02  0.7816164E-02  0.1266605E+00
        -11   -1    0    0    0    0  0.00000000000E+00  0.00000000000E+00  0.45593999997E+02  0.45594000000E+02  0.51100000000E-03 0.  1.
         11   -1    0    0    0    0 -0.00000000000E+00 -0.00000000000E+00 -0.45593999997E+02  0.45594000000E+02  0.51100000000E-03 0. -1.
    9900012    2    1    2    0    0  0.46365914180E+01 -0.17695849017E+02  0.26116599185E+02  0.59301987308E+02  0.50000078933E+02 0.  0.
         12    1    1    2    0    0 -0.46365914180E+01  0.17695849017E+02 -0.26116599185E+02  0.31886012692E+02  0.00000000000E+00 0. -1.
         11    1    3    3    0    0  0.23820103289E+02 -0.71131197954E+01  0.82018899755E+01  0.26177562785E+02  0.51100000000E-03 0. -1.
        -11    1    3    3    0    0 -0.13554294673E+02 -0.11312488998E+02  0.20355930570E+02  0.26945411873E+02  0.51100000000E-03 0.  1.
        -12    1    3    3    0    0 -0.56292171982E+01  0.72975977631E+00 -0.24412213602E+01  0.61790126497E+01  0.00000000000E+00 0.  1.
</event>
<event>
 7    1  0.7819001E-012  0.5930194E+02  0.7816164E-02  0.1266605E+00
        -11   -1    0    0    0    0  0.00000000000E+00  0.00000000000E+00  0.45593999997E+02  0.45594000000E+02  0.51100000000E-03 0. -1.
         11   -1    0    0    0    0 -0.00000000000E+00 -0.00000000000E+00 -0.45593999997E+02  0.45594000000E+02  0.51100000000E-03 0.  1.
    9900012    2    1    2    0    0 -0.44624699483E+01  0.29572747910E+02 -0.11057122883E+02  0.59301936846E+02  0.49999986903E+02 0.  0.
         12    1    1    2    0    0  0.44624699483E+01 -0.29572747910E+02  0.11057122883E+02  0.31886063154E+02  0.00000000000E+00 0. -1.
         11    1    3    3    0    0  0.19544168188E+02  0.90185219153E+01 -0.14691517980E+02  0.26060486344E+02  0.51100000000E-03 0. -1.
        -11    1    3    3    0    0 -0.11989743782E+02  0.13394441456E+02 -0.21491804990E+01  0.18104805853E+02  0.51100000000E-03 0.  1.
         12    1    3    3    0    0 -0.12016894354E+02  0.71597845385E+01  0.57835755965E+01  0.15136644649E+02  0.00000000000E+00 0. -1.
</event>
<event>
 7    1  0.7819001E-012  0.5930198E+02  0.7816164E-02  0.1266605E+00
        -11   -1    0    0    0    0  0.00000000000E+00  0.00000000000E+00  0.45593999997E+02  0.45594000000E+02  0.51100000000E-03 0.  1.
         11   -1    0    0    0    0 -0.00000000000E+00 -0.00000000000E+00 -0.45593999997E+02  0.45594000000E+02  0.51100000000E-03 0. -1.
    9900012    2    1    2    0    0 -0.50203576926E+00  0.22002244469E+02  0.23073091126E+02  0.59301978992E+02  0.50000063767E+02 0.  0.
         12    1    1    2    0    0  0.50203576926E+00 -0.22002244469E+02 -0.23073091126E+02  0.31886021008E+02  0.00000000000E+00 0. -1.
         11    1    3    3    0    0  0.10364426913E+02 -0.93873184674E+01 -0.51355826442E+01  0.14896889024E+02  0.51100000000E-03 0. -1.
        -11    1    3    3    0    0  0.89034912503E+00  0.43914882032E+00  0.14510637139E+00  0.10033092100E+01  0.51100000000E-03 0.  1.
         12    1    3    3    0    0 -0.11756811807E+02  0.30950414116E+02  0.28063567399E+02  0.43401780758E+02  0.00000000000E+00 0. -1.
</event>
<event>
 7    1  0.7819001E-012  0.5930196E+02  0.7816164E-02  0.1266605E+00
        -11   -1    0    0    0    0  0.00000000000E+00  0.00000000000E+00  0.45593999997E+02  0.45594000000E+02  0.51100000000E-03 0. -1.
         11   -1    0    0    0    0 -0.00000000000E+00 -0.00000000000E+00 -0.45593999997E+02  0.45594000000E+02  0.51100000000E-03 0.  1.
    9900012    2    1    2    0    0  0.31482664293E+02 -0.38727879520E+01  0.32500975031E+01  0.59301956481E+02  0.50000022712E+02 0.  0.
         12    1    1    2    0    0 -0.31482664293E+02  0.38727879520E+01 -0.32500975031E+01  0.31886043519E+02  0.00000000000E+00 0. -1.
         11    1    3    3    0    0  0.76123850725E+01  0.97549712211E+01  0.10419690382E+02  0.16176458757E+02  0.51100000000E-03 0. -1.
        -11    1    3    3    0    0  0.87990580972E+01 -0.14220753482E+02  0.10614182512E+02  0.19806921105E+02  0.51100000000E-03 0.  1.
        -12    1    3    3    0    0  0.15071221123E+02  0.59299430855E+00 -0.17783775391E+02  0.23318576619E+02  0.00000000000E+00 0.  1.
</event>
<event>
 7    1  0.7819001E-012  0.5930194E+02  0.7816164E-02  0.1266605E+00
        -11   -1    0    0    0    0  0.00000000000E+00  0.00000000000E+00  0.45593999997E+02  0.45594000000E+02  0.51100000000E-03 0.  1.
         11   -1    0    0    0    0 -0.00000000000E+00 -0.00000000000E+00 -0.45593999997E+02  0.45594000000E+02  0.51100000000E-03 0. -1.
    9900012    2    1    2    0    0  0.56085126701E+01 -0.27764452295E+02  0.14642425226E+02  0.59301939689E+02  0.49999992088E+02 0.  0.
         12    1    1    2    0    0 -0.56085126701E+01  0.27764452295E+02 -0.14642425226E+02  0.31886060311E+02  0.00000000000E+00 0. -1.
         11    1    3    3    0    0  0.45652348054E+00 -0.16942853402E+02 -0.11894017186E+02  0.20705949390E+02  0.51100000000E-03 0. -1.
        -11    1    3    3    0    0  0.12365483804E+02 -0.54030190725E+01  0.26312778893E+02  0.29571272176E+02  0.51100000000E-03 0.  1.
        -12    1    3    3    0    0 -0.72134946143E+01 -0.54185798211E+01  0.22366351879E+00  0.90247181229E+01  0.00000000000E+00 0.  1.
</event>
<event>
 7    1  0.7819001E-012  0.5930196E+02  0.7816164E-02  0.1266605E+00
        -11   -1    0    0    0    0  0.00000000000E+00  0.00000000000E+00  0.45593999997E+02  0.45594000000E+02  0.51100000000E-03 0. -1.
         11   -1    0    0    0    0 -0.00000000000E+00 -0.00000000000E+00 -0.45593999997E+02  0.45594000000E+02  0.51100000000E-03 0.  1.
    9900012    2    1    2    0    0 -0.10467280751E+01  0.26720260569E+02 -0.17368122106E+02  0.59301958696E+02  0.50000026752E+02 0.  0.
         12    1    1    2    0    0  0.10467280751E+01 -0.26720260569E+02  0.17368122106E+02  0.31886041304E+02  0.00000000000E+00 0. -1.
         11    1    3    3    0    0 -0.75939205886E+01  0.85112638610E+01 -0.12585523164E+02  0.16985424222E+02  0.51100000000E-03 0. -1.
        -11    1    3    3    0    0  0.55229888052E+01 -0.10556039258E+02  0.34064457139E+01  0.12391014600E+02  0.51100000000E-03 0.  1.
        -12    1    3    3    0    0  0.10242037083E+01  0.28765035966E+02 -0.81890446562E+01  0.29925519874E+02  0.00000000000E+00 0.  1.
</event>
<event>
 7    1  0.7819001E-012  0.5930195E+02  0.7816164E-02  0.1266605E+00
        -11   -1    0    0    0    0  0.00000000000E+00  0.00000000000E+00  0.45593999997E+02  0.45594000000E+02  0.51100000000E-03 0.  1.
         11   -1    0    0    0    0 -0.00000000000E+00 -0.00000000000E+00 -0.45593999997E+02  0.45594000000E+02  0.51100000000E-03 0. -1.
    9900012    2    1    2    0    0  0.30757774280E+02 -0.37166376646E+01 -0.75409553572E+01  0.59301951611E+02  0.50000013829E+02 0.  0.
         12    1    1    2    0    0 -0.30757774280E+02  0.37166376646E+01  0.75409553572E+01  0.31886048389E+02  0.00000000000E+00 0. -1.
         11    1    3    3    0    0 -0.15135918324E+01  0.12292201970E+02 -0.47670535170E+01  0.13270794588E+02  0.51100000000E-03 0. -1.
        -11    1    3    3    0    0  0.21237399990E+02 -0.15966539267E+02 -0.14217341813E+02  0.30134537378E+02  0.51100000000E-03 0.  1.
         12    1    3    3    0    0  0.11033966122E+02 -0.42300367248E-01  0.11443439973E+02  0.15896619644E+02  0.00000000000E+00 0. -1.
</event>
<event>
 7    1  0.7819001E-012  0.5930199E+02  0.7816164E-02  0.1266605E+00
        -11   -1    0    0    0    0  0.00000000000E+00  0.00000000000E+00  0.45593999997E+02  0.45594000000E+02  0.51100000000E-03 0. -1.
         11   -1    0    0    0    0 -0.00000000000E+00 -0.00000000000E+00 -0.45593999997E+02  0.45594000000E+02  0.51100000000E-03 0.  1.
    9900012    2    1    2    0    0  0.31295603016E+02 -0.57005651218E+01  0.21923797733E+01  0.59301988334E+02  0.50000080805E+02 0.  0.
         12    1    1    2    0    0 -0.31295603016E+02  0.57005651218E+01 -0.21923797733E+01  0.31886011666E+02  0.00000000000E+00 0. -1.
         11    1    3    3    0    0  0.37150227640E+01  0.49547727979E+01  0.76726444838E+01  0.98600528017E+01  0.51100000000E-03 0. -1.
        -11    1    3    3    0    0 -0.16774394531E+00 -0.18549866192E+02 -0.85565253232E+01  0.20428896192E+02  0.51100000000E-03 0.  1.
        -12    1    3    3    0    0  0.27748324198E+02  0.78945282720E+01  0.30762606127E+01  0.29013039341E+02  0.00000000000E+00 0.  1.
</event>
<event>
 7    1  0.7819001E-012  0.5930188E+02  0.7816164E-02  0.1266605E+00
        -11   -1    0    0    0    0  0.00000000000E+00  0.00000000000E+00  0.45593999997E+02  0.45594000000E+02  0.51100000000E-03 0. -1.
         11   -1    0    0    0    0 -0.00000000000E+00 -0.00000000000E+00 -0.45593999997E+02  0.45594000000E+02  0.51100000000E-03 0.  1.
    9900012    2    1    2    0    0  0.63108289192E+01 -0.31043259331E+02 -0.36351081416E+01  0.59301881975E+02  0.49999886830E+02 0.  0.
         12    1    1    2    0    0 -0.63108289192E+01  0.31043259331E+02  0.36351081416E+01  0.31886118025E+02  0.00000000000E+00 0. -1.
         11    1    3    3    0    0  0.77139023905E+01  0.12862545101E+02 -0.33066502918E+01  0.15358492536E+02  0.51100000000E-03 0. -1.
        -11    1    3    3    0    0 -0.10977619255E+01 -0.35883166527E+02 -0.69345911850E+00  0.35906651293E+02  0.51100000000E-03 0.  1.
         12    1    3    3    0    0 -0.30531154577E+00 -0.80226379048E+01  0.36500126870E+00  0.80367381454E+01  0.00000000000E+00 0. -1.
</event>
<event>
 7    1  0.7819001E-012  0.5930195E+02  0.7816164E-02  0.1266605E+00
        -11   -1    0    0    0    0  0.00000000000E+00  0.00000000000E+00  0.45593999997E+02  0.45594000000E+02  0.51100000000E-03 0.  1.
         11   -1    0    0    0    0 -0.00000000000E+00 -0.00000000000E+00 -0.45593999997E+02  0.45594000000E+02  0.51100000000E-03 0. -1.
    9900012    2    1    2    0    0  0.97677097744E+01  0.28215908559E+02  0.11188144546E+02  0.59301949313E+02  0.50000009638E+02 0.  0.
         12    1    1    2    0    0 -0.97677097744E+01 -0.28215908559E+02 -0.11188144546E+02  0.31886050687E+02  0.00000000000E+00 0. -1.
         11    1    3    3    0    0 -0.12645515402E+02  0.32391040991E+01  0.55564545478E+01  0.14187143566E+02  0.51100000000E-03 0. -1.
        -11    1    3    3    0    0  0.16841015728E+02 -0.20430567073E+01  0.35637635655E-01  0.16964526571E+02  0.51100000000E-03 0.  1.
        -12    1    3    3    0    0  0.55722094486E+01  0.27019861167E+02  0.55960523623E+01  0.28150279176E+02  0.00000000000E+00 0.  1.
</event>
<event>
 7    1  0.7819001E-012  0.5930191E+02  0.7816164E-02  0.1266605E+00
        -11   -1    0    0    0    0  0.00000000000E+00  0.00000000000E+00  0.45593999997E+02  0.45594000000E+02  0.51100000000E-03 0. -1.
         11   -1    0    0    0    0 -0.00000000000E+00 -0.00000000000E+00 -0.45593999997E+02  0.45594000000E+02  0.51100000000E-03 0.  1.
    9900012    2    1    2    0    0 -0.91372069112E+00 -0.16191550065E+02 -0.27453984735E+02  0.59301914369E+02  0.49999945910E+02 0.  0.
         12    1    1    2    0    0  0.91372069112E+00  0.16191550065E+02  0.27453984735E+02  0.31886085631E+02  0.00000000000E+00 0. -1.
         11    1    3    3    0    0 -0.70250403147E+01 -0.31074310143E+02 -0.78601490656E+01  0.32813806330E+02  0.51100000000E-03 0. -1.
        -11    1    3    3    0    0  0.24168066348E+01  0.16565517726E+01 -0.79872073646E+01  0.85076788745E+01  0.51100000000E-03 0.  1.
         12    1    3    3    0    0  0.36945129888E+01  0.13226208305E+02 -0.11606628305E+02  0.17980429165E+02  0.00000000000E+00 0. -1.
</event>
<event>
 7    1  0.7819001E-012  0.5930196E+02  0.7816164E-02  0.1266605E+00
        -11   -1    0    0    0    0  0.00000000000E+00  0.00000000000E+00  0.45593999997E+02  0.45594000000E+02  0.51100000000E-03 0. -1.
         11   -1    0    0    0    0 -0.00000000000E+00 -0.00000000000E+00 -0.45593999997E+02  0.45594000000E+02  0.51100000000E-03 0.  1.
    9900012    2    1    2    0    0  0.28196018128E+02 -0.14118360500E+02 -0.47303174239E+01  0.59301961607E+02  0.50000032061E+02 0.  0.
         12    1    1    2    0    0 -0.28196018128E+02  0.14118360500E+02  0.47303174239E+01  0.31886038393E+02  0.00000000000E+00 0. -1.
         11    1    3    3    0    0  0.18459941328E+02  0.58189108438E+01  0.15809123363E+02  0.24991149213E+02  0.51100000000E-03 0. -1.
        -11    1    3    3    0    0  0.78769688946E+01 -0.17655505590E+01 -0.11169594898E+02  0.13781279265E+02  0.51100000000E-03 0.  1.
         12    1    3    3    0    0  0.18591079053E+01 -0.18171720785E+02 -0.93698458888E+01  0.20529533128E+02  0.00000000000E+00 0. -1.
</event>
<event>
 7    1  0.7819001E-012  0.5930177E+02  0.7816164E-02  0.1266605E+00
        -11   -1    0    0    0    0  0.00000000000E+00  0.00000000000E+00  0.45593999997E+02  0.45594000000E+02  0.51100000000E-03 0. -1.
         11   -1    0    0    0    0 -0.00000000000E+00 -0.00000000000E+00 -0.45593999997E+02  0.45594000000E+02  0.51100000000E-03 0.  1.
    9900012    2    1    2    0    0 -0.10802246454E+02  0.98394192343E+01 -0.28341295449E+02  0.59301769005E+02  0.49999680800E+02 0.  0.
         12    1    1    2    0    0  0.10802246454E+02 -0.98394192343E+01  0.28341295449E+02  0.31886230995E+02  0.00000000000E+00 0. -1.
         11    1    3    3    0    0 -0.71505733633E+01  0.13484263855E+02  0.10757299328E+02  0.18672856242E+02  0.51100000000E-03 0. -1.
        -11    1    3    3    0    0  0.24818753563E+01  0.44644074342E+00 -0.37460675661E+01  0.45157543215E+01  0.51100000000E-03 0.  1.
         12    1    3    3    0    0 -0.61335484467E+01 -0.40912853643E+01 -0.35352527211E+02  0.36113158442E+02  0.00000000000E+00 0. -1.
</event>
<event>
 7    1  0.7819001E-012  0.5930193E+02  0.7816164E-02  0.1266605E+00
        -11   -1    0    0    0    0  0.00000000000E+00  0.00000000000E+00  0.45593999997E+02  0.45594000000E+02  0.51100000000E-03 0.  1.
         11   -1    0    0    0    0 -0.00000000000E+00 -0.00000000000E+00 -0.45593999997E+02  0.45594000000E+02  0.51100000000E-03 0. -1.
    9900012    2    1    2    0    0 -0.41352552523E+01  0.14785153672E+02  0.27946737488E+02  0.59301933430E+02  0.49999980671E+02 0.  0.
         12    1    1    2    0    0  0.41352552523E+01 -0.14785153672E+02 -0.27946737488E+02  0.31886066570E+02  0.00000000000E+00 0. -1.
         11    1    3    3    0    0  0.11696777836E+01  0.18195176903E+02  0.17093333934E+02  0.24992292289E+02  0.51100000000E-03 0.  1.
        -11    1    3    3    0    0  0.72088029426E+01  0.20628428681E+01 -0.80416919716E+01  0.10995043001E+02  0.51100000000E-03 0. -1.
        -12    1    3    3    0    0 -0.12513735978E+02 -0.54728660987E+01  0.18895095526E+02  0.23314598139E+02  0.00000000000E+00 0.  1.
</event>
<event>
 7    1  0.7819001E-012  0.5930196E+02  0.7816164E-02  0.1266605E+00
        -11   -1    0    0    0    0  0.00000000000E+00  0.00000000000E+00  0.45593999997E+02  0.45594000000E+02  0.51100000000E-03 0. -1.
         11   -1    0    0    0    0 -0.00000000000E+00 -0.00000000000E+00 -0.45593999997E+02  0.45594000000E+02  0.51100000000E-03 0.  1.
    9900012    2    1    2    0    0 -0.28687476975E+02  0.87880287690E+01  0.10794392069E+02  0.59301957835E+02  0.50000025180E+02 0.  0.
         12    1    1    2    0    0  0.28687476975E+02 -0.87880287690E+01 -0.10794392069E+02  0.31886042165E+02  0.00000000000E+00 0. -1.
         11    1    3    3    0    0  0.16953517753E+01  0.14173454694E+02 -0.10993220423E+02  0.18016990068E+02  0.51100000000E-03 0. -1.
        -11    1    3    3    0    0 -0.23389354200E+02  0.21933100184E+01  0.97521750304E+01  0.25435750761E+02  0.51100000000E-03 0.  1.
         12    1    3    3    0    0 -0.69934745508E+01 -0.75787359429E+01  0.12035437461E+02  0.15849217005E+02  0.00000000000E+00 0. -1.
</event>
<event>
 7    1  0.7819001E-012  0.5930196E+02  0.7816164E-02  0.1266605E+00
        -11   -1    0    0    0    0  0.00000000000E+00  0.00000000000E+00  0.45593999997E+02  0.45594000000E+02  0.51100000000E-03 0. -1.
         11   -1    0    0    0    0 -0.00000000000E+00 -0.00000000000E+00 -0.45593999997E+02  0.45594000000E+02  0.51100000000E-03 0.  1.
    9900012    2    1    2    0    0  0.23705322939E+02 -0.14302577427E+02 -0.15818140003E+02  0.59301959013E+02  0.50000027329E+02 0.  0.
         12    1    1    2    0    0 -0.23705322939E+02  0.14302577427E+02  0.15818140003E+02  0.31886040987E+02  0.00000000000E+00 0. -1.
         11    1    3    3    0    0  0.16991506324E+02  0.27981853732E+01  0.17492343140E+01  0.17308984647E+02  0.51100000000E-03 0. -1.
        -11    1    3    3    0    0 -0.70705705445E+01  0.69904924056E+01 -0.75503222590E+01  0.12484683351E+02  0.51100000000E-03 0.  1.
        -12    1    3    3    0    0  0.13784387159E+02 -0.24091255206E+02 -0.10017052058E+02  0.29508291016E+02  0.00000000000E+00 0.  1.
</event>
<event>
 7    1  0.7819001E-012  0.5930193E+02  0.7816164E-02  0.1266605E+00
        -11   -1    0    0    0    0  0.00000000000E+00  0.00000000000E+00  0.45593999997E+02  0.45594000000E+02  0.51100000000E-03 0. -1.
         11   -1    0    0    0    0 -0.00000000000E+00 -0.00000000000E+00 -0.45593999997E+02  0.45594000000E+02  0.51100000000E-03 0.  1.
    9900012    2    1    2    0    0  0.12073254835E+02  0.15253502936E+02 -0.25264369278E+02  0.59301934248E+02  0.49999982164E+02 0.  0.
         12    1    1    2    0    0 -0.12073254835E+02 -0.15253502936E+02  0.25264369278E+02  0.31886065752E+02  0.00000000000E+00 0. -1.
         11    1    3    3    0    0  0.11650420601E+02  0.19041637394E+02  0.69796791537E+01  0.23388718994E+02  0.51100000000E-03 0. -1.
        -11    1    3    3    0    0  0.70625536072E+01  0.23550869453E+00 -0.92270888928E+01  0.11622146854E+02  0.51100000000E-03 0.  1.
         12    1    3    3    0    0 -0.66397193737E+01 -0.40236431526E+01 -0.23016959539E+02  0.24291068399E+02  0.00000000000E+00 0. -1.
</event>
<event>
 7    1  0.7819001E-012  0.5930201E+02  0.7816164E-02  0.1266605E+00
        -11   -1    0    0    0    0  0.00000000000E+00  0.00000000000E+00  0.45593999997E+02  0.45594000000E+02  0.51100000000E-03 0. -1.
         11   -1    0    0    0    0 -0.00000000000E+00 -0.00000000000E+00 -0.45593999997E+02  0.45594000000E+02  0.51100000000E-03 0.  1.
    9900012    2    1    2    0    0 -0.28460680421E+02 -0.14374370278E+02  0.28927028473E+00  0.59302007335E+02  0.50000115457E+02 0.  0.
         12    1    1    2    0    0  0.28460680421E+02  0.14374370278E+02 -0.28927028473E+00  0.31885992665E+02  0.00000000000E+00 0. -1.
         11    1    3    3    0    0 -0.10914581913E+02  0.59552175849E+01 -0.98010201268E+00  0.12472101468E+02  0.51100000000E-03 0. -1.
        -11    1    3    3    0    0 -0.13785244746E+02 -0.12892386364E+02  0.19282286880E+02  0.26982460719E+02  0.51100000000E-03 0.  1.
        -12    1    3    3    0    0 -0.37608537625E+01 -0.74372014996E+01 -0.18012914582E+02  0.19847445148E+02  0.00000000000E+00 0.  1.
</event>
<event>
 7    1  0.7819001E-012  0.5930195E+02  0.7816164E-02  0.1266605E+00
        -11   -1    0    0    0    0  0.00000000000E+00  0.00000000000E+00  0.45593999997E+02  0.45594000000E+02  0.51100000000E-03 0.  1.
         11   -1    0    0    0    0 -0.00000000000E+00 -0.00000000000E+00 -0.45593999997E+02  0.45594000000E+02  0.51100000000E-03 0. -1.
    9900012    2    1    2    0    0 -0.67164676895E+01 -0.22864958105E+02  0.21184970895E+02  0.59301949144E+02  0.50000009331E+02 0.  0.
         12    1    1    2    0    0  0.67164676895E+01  0.22864958105E+02 -0.21184970895E+02  0.31886050856E+02  0.00000000000E+00 0. -1.
         11    1    3    3    0    0 -0.73592730147E+01 -0.18398195155E+02 -0.71538848252E+01  0.21067286313E+02  0.51100000000E-03 0. -1.
        -11    1    3    3    0    0 -0.11385367944E+02  0.28562250981E+00  0.19458272635E+02  0.22546231562E+02  0.51100000000E-03 0.  1.
        -12    1    3    3    0    0  0.12028173269E+02 -0.47523854599E+01  0.88805830854E+01  0.15688431269E+02  0.00000000000E+00 0.  1.
</event>
<event>
 7    1  0.7819001E-012  0.5930193E+02  0.7816164E-02  0.1266605E+00
        -11   -1    0    0    0    0  0.00000000000E+00  0.00000000000E+00  0.45593999997E+02  0.45594000000E+02  0.51100000000E-03 0. -1.
         11   -1    0    0    0    0 -0.00000000000E+00 -0.00000000000E+00 -0.45593999997E+02  0.45594000000E+02  0.51100000000E-03 0.  1.
    9900012    2    1    2    0    0 -0.13473005729E+01  0.16872932422E+02 -0.27022405660E+02  0.59301929765E+02  0.49999973988E+02 0.  0.
         12    1    1    2    0    0  0.13473005729E+01 -0.16872932422E+02  0.27022405660E+02  0.31886070235E+02  0.00000000000E+00 0. -1.
         11    1    3    3    0    0  0.18640075894E+02  0.11271166618E+02 -0.13689691991E+02  0.25727403548E+02  0.51100000000E-03 0. -1.
        -11    1    3    3    0    0 -0.81739272164E+01  0.87210972875E+01  0.37900951017E+01  0.12539355852E+02  0.51100000000E-03 0.  1.
         12    1    3    3    0    0 -0.11813449250E+02 -0.31193314834E+01 -0.17122808771E+02  0.21035170365E+02  0.00000000000E+00 0. -1.
</event>
<event>
 7    1  0.7819001E-012  0.5930193E+02  0.7816164E-02  0.1266605E+00
        -11   -1    0    0    0    0  0.00000000000E+00  0.00000000000E+00  0.45593999997E+02  0.45594000000E+02  0.51100000000E-03 0. -1.
         11   -1    0    0    0    0 -0.00000000000E+00 -0.00000000000E+00 -0.45593999997E+02  0.45594000000E+02  0.51100000000E-03 0.  1.
    9900012    2    1    2    0    0  0.22024982503E+02 -0.22074625643E+02  0.66582636974E+01  0.59301930518E+02  0.49999975362E+02 0.  0.
         12    1    1    2    0    0 -0.22024982503E+02  0.22074625643E+02 -0.66582636974E+01  0.31886069482E+02  0.00000000000E+00 0. -1.
         11    1    3    3    0    0  0.94888611469E+01  0.55093832495E+01  0.41161767216E+01  0.11718988895E+02  0.51100000000E-03 0. -1.
        -11    1    3    3    0    0  0.36243439053E+00 -0.33214949844E+02  0.59458507353E+01  0.33744886917E+02  0.51100000000E-03 0.  1.
        -12    1    3    3    0    0  0.12173686965E+02  0.56309409511E+01 -0.34037637596E+01  0.13838054706E+02  0.00000000000E+00 0.  1.
</event>
<event>
 7    1  0.7819001E-012  0.5930194E+02  0.7816164E-02  0.1266605E+00
        -11   -1    0    0    0    0  0.00000000000E+00  0.00000000000E+00  0.45593999997E+02  0.45594000000E+02  0.51100000000E-03 0.  1.
         11   -1    0    0    0    0 -0.00000000000E+00 -0.00000000000E+00 -0.45593999997E+02  0.45594000000E+02  0.51100000000E-03 0. -1.
    9900012    2    1    2    0    0  0.50261453826E+01  0.26237568255E+02  0.17408293043E+02  0.59301940476E+02  0.49999993522E+02 0.  0.
         12    1    1    2    0    0 -0.50261453826E+01 -0.26237568255E+02 -0.17408293043E+02  0.31886059524E+02  0.00000000000E+00 0. -1.
         11    1    3    3    0    0  0.75321345406E+01 -0.12817139689E+02  0.76242072569E+01  0.16707503018E+02  0.51100000000E-03 0. -1.
        -11    1    3    3    0    0  0.69442757028E+00  0.19423551387E+02  0.11578392981E+02  0.22623345518E+02  0.51100000000E-03 0.  1.
         12    1    3    3    0    0 -0.32004167282E+01  0.19631156556E+02 -0.17943071949E+01  0.19971091940E+02  0.00000000000E+00 0. -1.
</event>
<event>
 7    1  0.7819001E-012  0.5930195E+02  0.7816164E-02  0.1266605E+00
        -11   -1    0    0    0    0  0.00000000000E+00  0.00000000000E+00  0.45593999997E+02  0.45594000000E+02  0.51100000000E-03 0.  1.
         11   -1    0    0    0    0 -0.00000000000E+00 -0.00000000000E+00 -0.45593999997E+02  0.45594000000E+02  0.51100000000E-03 0. -1.
    9900012    2    1    2    0    0 -0.62643397010E+01  0.27730520593E+02  0.14439409836E+02  0.59301948494E+02  0.50000008145E+02 0.  0.
         12    1    1    2    0    0  0.62643397010E+01 -0.27730520593E+02 -0.14439409836E+02  0.31886051506E+02  0.00000000000E+00 0. -1.
         11    1    3    3    0    0 -0.13777453689E+02  0.90395516264E+01  0.20599172065E+02  0.26379113211E+02  0.51100000000E-03 0. -1.
        -11    1    3    3    0    0  0.15711025259E+02  0.93855371506E+01 -0.87003704325E+01  0.20263787114E+02  0.51100000000E-03 0.  1.
        -12    1    3    3    0    0 -0.81979112711E+01  0.93054318161E+01  0.25406082032E+01  0.12659048169E+02  0.00000000000E+00 0.  1.
</event>
<event>
 7    1  0.7819001E-012  0.5930195E+02  0.7816164E-02  0.1266605E+00
        -11   -1    0    0    0    0  0.00000000000E+00  0.00000000000E+00  0.45593999997E+02  0.45594000000E+02  0.51100000000E-03 0. -1.
         11   -1    0    0    0    0 -0.00000000000E+00 -0.00000000000E+00 -0.45593999997E+02  0.45594000000E+02  0.51100000000E-03 0.  1.
    9900012    2    1    2    0    0  0.29621120800E+02  0.80025117697E+01 -0.86757949907E+01  0.59301946453E+02  0.50000004423E+02 0.  0.
         12    1    1    2    0    0 -0.29621120800E+02 -0.80025117697E+01  0.86757949907E+01  0.31886053547E+02  0.00000000000E+00 0. -1.
         11    1    3    3    0    0  0.18399804852E+02  0.26769781197E+02 -0.28402260068E+01  0.32607374748E+02  0.51100000000E-03 0. -1.
        -11    1    3    3    0    0  0.13752759596E+02 -0.10327340076E+02 -0.31653791883E+01  0.17487480528E+02  0.51100000000E-03 0.  1.
         12    1    3    3    0    0 -0.25314436475E+01 -0.84399293510E+01 -0.26701897957E+01  0.92070911767E+01  0.00000000000E+00 0. -1.
</event>
<event>
 7    1  0.7819001E-012  0.5930195E+02  0.7816164E-02  0.1266605E+00
        -11   -1    0    0    0    0  0.00000000000E+00  0.00000000000E+00  0.45593999997E+02  0.45594000000E+02  0.51100000000E-03 0.  1.
         11   -1    0    0    0    0 -0.00000000000E+00 -0.00000000000E+00 -0.45593999997E+02  0.45594000000E+02  0.51100000000E-03 0. -1.
    9900012    2    1    2    0    0 -0.19198582153E+02 -0.55515109424E+01  0.24845829770E+02  0.59301951524E+02  0.50000013672E+02 0.  0.
         12    1    1    2    0    0  0.19198582153E+02  0.55515109424E+01 -0.24845829770E+02  0.31886048476E+02  0.00000000000E+00 0. -1.
         11    1    3    3    0    0 -0.13986591704E+02  0.42926333751E+01 -0.16889402753E+01  0.14727659974E+02  0.51100000000E-03 0. -1.
        -11    1    3    3    0    0  0.10544931574E+02 -0.14080183408E+02  0.20887733245E+02  0.27308323769E+02  0.51100000000E-03 0.  1.
        -12    1    3    3    0    0 -0.15756922023E+02  0.42360390909E+01  0.56470368008E+01  0.17265967782E+02  0.00000000000E+00 0.  1.
</event>
<event>
 7    1  0.7819001E-012  0.5930194E+02  0.7816164E-02  0.1266605E+00
        -11   -1    0    0    0    0  0.00000000000E+00  0.00000000000E+00  0.45593999997E+02  0.45594000000E+02  0.51100000000E-03 0.  1.
         11   -1    0    0    0    0 -0.00000000000E+00 -0.00000000000E+00 -0.45593999997E+02  0.45594000000E+02  0.51100000000E-03 0. -1.
    9900012    2    1    2    0    0 -0.28894935269E+02 -0.27475526431E+01  0.13200560829E+02  0.59301935082E+02  0.49999983686E+02 0.  0.
         12    1    1    2    0    0  0.28894935269E+02  0.27475526431E+01 -0.13200560829E+02  0.31886064918E+02  0.00000000000E+00 0. -1.
         11    1    3    3    0    0 -0.25814976133E+02  0.17761517668E+02  0.96540698208E+01  0.32788497480E+02  0.51100000000E-03 0. -1.
        -11    1    3    3    0    0  0.54127635445E+01 -0.23167282043E+01  0.25369367456E+01  0.64110285504E+01  0.51100000000E-03 0.  1.
         12    1    3    3    0    0 -0.84927226805E+01 -0.18192342107E+02  0.10095542622E+01  0.20102409052E+02  0.00000000000E+00 0. -1.
</event>
<event>
 7    1  0.7819001E-012  0.5930188E+02  0.7816164E-02  0.1266605E+00
        -11   -1    0    0    0    0  0.00000000000E+00  0.00000000000E+00  0.45593999997E+02  0.45594000000E+02  0.51100000000E-03 0.  1.
         11   -1    0    0    0    0 -0.00000000000E+00 -0.00000000000E+00 -0.45593999997E+02  0.45594000000E+02  0.51100000000E-03 0. -1.
    9900012    2    1    2    0    0  0.89390459078E+00  0.30734309744E+02 -0.84455911160E+01  0.59301876527E+02  0.49999876894E+02 0.  0.
         12    1    1    2    0    0 -0.89390459078E+00 -0.30734309744E+02  0.84455911160E+01  0.31886123473E+02  0.00000000000E+00 0. -1.
         11    1    3    3    0    0  0.46524420852E+01  0.21750535233E+02 -0.28341405374E+02  0.36027298804E+02  0.51100000000E-03 0. -1.
        -11    1    3    3    0    0 -0.51909553464E+00  0.23518834874E+01  0.12839451740E+02  0.13063396854E+02  0.51100000000E-03 0.  1.
         12    1    3    3    0    0 -0.32394419598E+01  0.66318910240E+01  0.70563625176E+01  0.10211180869E+02  0.00000000000E+00 0. -1.
</event>
<event>
 7    1  0.7819001E-012  0.5930194E+02  0.7816164E-02  0.1266605E+00
        -11   -1    0    0    0    0  0.00000000000E+00  0.00000000000E+00  0.45593999997E+02  0.45594000000E+02  0.51100000000E-03 0. -1.
         11   -1    0    0    0    0 -0.00000000000E+00 -0.00000000000E+00 -0.45593999997E+02  0.45594000000E+02  0.51100000000E-03 0.  1.
    9900012    2    1    2    0    0 -0.38081753844E+01 -0.24761841297E+02 -0.19724856915E+02  0.59301937771E+02  0.49999988589E+02 0.  0.
         12    1    1    2    0    0  0.38081753844E+01  0.24761841297E+02  0.19724856915E+02  0.31886062229E+02  0.00000000000E+00 0. -1.
         11    1    3    3    0    0 -0.84552746400E+01 -0.26053996423E+02 -0.13139818981E+02  0.30380211355E+02  0.51100000000E-03 0. -1.
        -11    1    3    3    0    0 -0.49116145467E+01  0.12499178792E+02 -0.33420990989E+01  0.13839185474E+02  0.51100000000E-03 0.  1.
         12    1    3    3    0    0  0.95587138022E+01 -0.11207023665E+02 -0.32429388345E+01  0.15082540942E+02  0.00000000000E+00 0. -1.
</event>
<event>
 7    1  0.7819001E-012  0.5930195E+02  0.7816164E-02  0.1266605E+00
        -11   -1    0    0    0    0  0.00000000000E+00  0.00000000000E+00  0.45593999997E+02  0.45594000000E+02  0.51100000000E-03 0. -1.
         11   -1    0    0    0    0 -0.00000000000E+00 -0.00000000000E+00 -0.45593999997E+02  0.45594000000E+02  0.51100000000E-03 0.  1.
    9900012    2    1    2    0    0 -0.24728801926E+02  0.20125380151E+02 -0.41875343557E+00  0.59301954065E+02  0.50000018306E+02 0.  0.
         12    1    1    2    0    0  0.24728801926E+02 -0.20125380151E+02  0.41875343557E+00  0.31886045935E+02  0.00000000000E+00 0. -1.
         11    1    3    3    0    0 -0.72147690348E+01 -0.10745901402E+01  0.91636476187E+01  0.11712389770E+02  0.51100000000E-03 0. -1.
        -11    1    3    3    0    0 -0.30700240681E+01  0.24968724610E+02 -0.17545382556E+02  0.30670877159E+02  0.51100000000E-03 0.  1.
        -12    1    3    3    0    0 -0.14444008823E+02 -0.37687543183E+01  0.79629815019E+01  0.16918687135E+02  0.00000000000E+00 0.  1.
</event>
<event>
 7    1  0.7819001E-012  0.5930194E+02  0.7816164E-02  0.1266605E+00
        -11   -1    0    0    0    0  0.00000000000E+00  0.00000000000E+00  0.45593999997E+02  0.45594000000E+02  0.51100000000E-03 0. -1.
         11   -1    0    0    0    0 -0.00000000000E+00 -0.00000000000E+00 -0.45593999997E+02  0.45594000000E+02  0.51100000000E-03 0.  1.
    9900012    2    1    2    0    0 -0.95953081126E+00  0.19692176465E+02 -0.25060288826E+02  0.59301943653E+02  0.49999999316E+02 0.  0.
         12    1    1    2    0    0  0.95953081126E+00 -0.19692176465E+02  0.25060288826E+02  0.31886056347E+02  0.00000000000E+00 0. -1.
         11    1    3    3    0    0 -0.29311577722E+01 -0.33858727913E+01  0.12250563342E+02  0.13043470509E+02  0.51100000000E-03 0. -1.
        -11    1    3    3    0    0  0.72579880269E+01  0.96660905466E+01 -0.22787480510E+02  0.25794979452E+02  0.51100000000E-03 0.  1.
        -12    1    3    3    0    0 -0.52863610659E+01  0.13411958710E+02 -0.14523371658E+02  0.20463493692E+02  0.00000000000E+00 0.  1.
</event>
<event>
 7    1  0.7819001E-012  0.5930194E+02  0.7816164E-02  0.1266605E+00
        -11   -1    0    0    0    0  0.00000000000E+00  0.00000000000E+00  0.45593999997E+02  0.45594000000E+02  0.51100000000E-03 0.  1.
         11   -1    0    0    0    0 -0.00000000000E+00 -0.00000000000E+00 -0.45593999997E+02  0.45594000000E+02  0.51100000000E-03 0. -1.
    9900012    2    1    2    0    0  0.15602780277E+02 -0.53681792096E+01  0.27284731103E+02  0.59301942675E+02  0.49999997533E+02 0.  0.
         12    1    1    2    0    0 -0.15602780277E+02  0.53681792096E+01 -0.27284731103E+02  0.31886057325E+02  0.00000000000E+00 0. -1.
         11    1    3    3    0    0 -0.31089139486E+01 -0.21987492924E+02  0.12490167083E+02  0.25477823004E+02  0.51100000000E-03 0. -1.
        -11    1    3    3    0    0  0.15217280294E+02  0.63924142159E+01  0.15952877527E+02  0.22954800820E+02  0.51100000000E-03 0.  1.
         12    1    3    3    0    0  0.34944139318E+01  0.10226899499E+02 -0.11583135068E+01  0.10869318850E+02  0.00000000000E+00 0. -1.
</event>
<event>
 7    1  0.7819001E-012  0.5930197E+02  0.7816164E-02  0.1266605E+00
        -11   -1    0    0    0    0  0.00000000000E+00  0.00000000000E+00  0.45593999997E+02  0.45594000000E+02  0.51100000000E-03 0.  1.
         11   -1    0    0    0    0 -0.00000000000E+00 -0.00000000000E+00 -0.45593999997E+02  0.45594000000E+02  0.51100000000E-03 0. -1.
    9900012    2    1    2    0    0  0.85514773608E+00  0.14683371476E+02  0.28291096540E+02  0.59301971413E+02  0.50000049945E+02 0.  0.
         12    1    1    2    0    0 -0.85514773608E+00 -0.14683371476E+02 -0.28291096540E+02  0.31886028587E+02  0.00000000000E+00 0. -1.
         11    1    3    3    0    0  0.29528603293E+01  0.51377569063E+01 -0.98595721494E+01  0.11503351398E+02  0.51100000000E-03 0. -1.
        -11    1    3    3    0    0 -0.14495418884E+02  0.39359588870E+01  0.17427928219E+02  0.23007425394E+02  0.51100000000E-03 0.  1.
        -12    1    3    3    0    0  0.12397706291E+02  0.56096556830E+01  0.20722740470E+02  0.24791194621E+02  0.00000000000E+00 0.  1.
</event>
<event>
 7    1  0.7819001E-012  0.5930195E+02  0.7816164E-02  0.1266605E+00
        -11   -1    0    0    0    0  0.00000000000E+00  0.00000000000E+00  0.45593999997E+02  0.45594000000E+02  0.51100000000E-03 0.  1.
         11   -1    0    0    0    0 -0.00000000000E+00 -0.00000000000E+00 -0.45593999997E+02  0.45594000000E+02  0.51100000000E-03 0. -1.
    9900012    2    1    2    0    0  0.45941636433E+01 -0.15170603524E+02  0.27667064709E+02  0.59301952574E+02  0.50000015586E+02 0.  0.
         12    1    1    2    0    0 -0.45941636433E+01  0.15170603524E+02 -0.27667064709E+02  0.31886047426E+02  0.00000000000E+00 0. -1.
         11    1    3    3    0    0 -0.49676344667E+01 -0.87508596738E+01  0.62642637159E+01  0.11853098219E+02  0.51100000000E-03 0. -1.
        -11    1    3    3    0    0  0.87752698829E+01 -0.74520466854E+01 -0.10462927211E+02  0.15556709401E+02  0.51100000000E-03 0.  1.
        -12    1    3    3    0    0  0.78652822706E+00  0.10323028356E+01  0.31865728204E+02  0.31892144954E+02  0.00000000000E+00 0.  1.
</event>
<event>
 7    1  0.7819001E-012  0.5930197E+02  0.7816164E-02  0.1266605E+00
        -11   -1    0    0    0    0  0.00000000000E+00  0.00000000000E+00  0.45593999997E+02  0.45594000000E+02  0.51100000000E-03 0. -1.
         11   -1    0    0    0    0 -0.00000000000E+00 -0.00000000000E+00 -0.45593999997E+02  0.45594000000E+02  0.51100000000E-03 0.  1.
    9900012    2    1    2    0    0  0.22235856003E+01  0.79350866353E+01 -0.30802741449E+02  0.59301971498E+02  0.50000050099E+02 0.  0.
         12    1    1    2    0    0 -0.22235856003E+01 -0.79350866353E+01  0.30802741449E+02  0.31886028502E+02  0.00000000000E+00 0. -1.
         11    1    3    3    0    0  0.23324333455E+01 -0.63266009283E+01  0.52362288843E+01  0.85372254162E+01  0.51100000000E-03 0. -1.
        -11    1    3    3    0    0  0.12704370331E+01  0.15235185031E+02 -0.41933388570E+02  0.44633327799E+02  0.51100000000E-03 0.  1.
        -12    1    3    3    0    0 -0.13792847782E+01 -0.97349746705E+00  0.58944182361E+01  0.61314182829E+01  0.00000000000E+00 0.  1.
</event>
<event>
 7    1  0.7819001E-012  0.5930195E+02  0.7816164E-02  0.1266605E+00
        -11   -1    0    0    0    0  0.00000000000E+00  0.00000000000E+00  0.45593999997E+02  0.45594000000E+02  0.51100000000E-03 0. -1.
         11   -1    0    0    0    0 -0.00000000000E+00 -0.00000000000E+00 -0.45593999997E+02  0.45594000000E+02  0.51100000000E-03 0.  1.
    9900012    2    1    2    0    0 -0.31822398544E+02 -0.53054093858E+00 -0.19425282589E+01  0.59301953854E+02  0.50000017921E+02 0.  0.
         12    1    1    2    0    0  0.31822398544E+02  0.53054093858E+00  0.19425282589E+01  0.31886046146E+02  0.00000000000E+00 0. -1.
         11    1    3    3    0    0  0.30400765634E+01 -0.17264753371E+02  0.78859182770E+01  0.19222421330E+02  0.51100000000E-03 0. -1.
        -11    1    3    3    0    0 -0.12357556679E+02  0.39539914932E+01 -0.31908953708E+01  0.13361327379E+02  0.51100000000E-03 0.  1.
         12    1    3    3    0    0 -0.22504918428E+02  0.12780220939E+02 -0.66375511651E+01  0.26718205145E+02  0.00000000000E+00 0. -1.
</event>
<event>
 7    1  0.7819001E-012  0.5930194E+02  0.7816164E-02  0.1266605E+00
        -11   -1    0    0    0    0  0.00000000000E+00  0.00000000000E+00  0.45593999997E+02  0.45594000000E+02  0.51100000000E-03 0.  1.
         11   -1    0    0    0    0 -0.00000000000E+00 -0.00000000000E+00 -0.45593999997E+02  0.45594000000E+02  0.51100000000E-03 0. -1.
    9900012    2    1    2    0    0 -0.10366725847E+02  0.11067731987E+02 -0.28049195731E+02  0.59301936002E+02  0.49999985364E+02 0.  0.
         12    1    1    2    0    0  0.10366725847E+02 -0.11067731987E+02  0.28049195731E+02  0.31886063998E+02  0.00000000000E+00 0. -1.
         11    1    3    3    0    0  0.10392408432E+02  0.14818246967E+02 -0.28723785236E+02  0.33950529226E+02  0.51100000000E-03 0. -1.
        -11    1    3    3    0    0 -0.62030328797E+00  0.18988460753E+01  0.37124256648E+01  0.42157439634E+01  0.51100000000E-03 0.  1.
         12    1    3    3    0    0 -0.20138830991E+02 -0.56493610549E+01 -0.30378361595E+01  0.21135662813E+02  0.00000000000E+00 0. -1.
</event>
<event>
 7    1  0.7819001E-012  0.5930195E+02  0.7816164E-02  0.1266605E+00
        -11   -1    0    0    0    0  0.00000000000E+00  0.00000000000E+00  0.45593999997E+02  0.45594000000E+02  0.51100000000E-03 0. -1.
         11   -1    0    0    0    0 -0.00000000000E+00 -0.00000000000E+00 -0.45593999997E+02  0.45594000000E+02  0.51100000000E-03 0.  1.
    9900012    2    1    2    0    0  0.14703757233E+02  0.28161363500E+02 -0.27307934780E+01  0.59301951264E+02  0.50000013198E+02 0.  0.
         12    1    1    2    0    0 -0.14703757233E+02 -0.28161363500E+02  0.27307934780E+01  0.31886048736E+02  0.00000000000E+00 0. -1.
         11    1    3    3    0    0 -0.70974338059E+01 -0.52851259960E+01  0.72286195226E+01  0.11426244522E+02  0.51100000000E-03 0. -1.
        -11    1    3    3    0    0  0.19327556827E+02  0.78562650700E+01 -0.69513431197E+01  0.21990828206E+02  0.51100000000E-03 0.  1.
         12    1    3    3    0    0  0.24736342117E+01  0.25590224426E+02 -0.30080698808E+01  0.25884878536E+02  0.00000000000E+00 0. -1.
</event>
<event>
 7    1  0.7819001E-012  0.5930194E+02  0.7816164E-02  0.1266605E+00
        -11   -1    0    0    0    0  0.00000000000E+00  0.00000000000E+00  0.45593999997E+02  0.45594000000E+02  0.51100000000E-03 0.  1.
         11   -1    0    0    0    0 -0.00000000000E+00 -0.00000000000E+00 -0.45593999997E+02  0.45594000000E+02  0.51100000000E-03 0. -1.
    9900012    2    1    2    0    0  0.25329489925E+02  0.18951075029E+02  0.39993210153E+01  0.59301939202E+02  0.49999991200E+02 0.  0.
         12    1    1    2    0    0 -0.25329489925E+02 -0.18951075029E+02 -0.39993210153E+01  0.31886060798E+02  0.00000000000E+00 0. -1.
         11    1    3    3    0    0 -0.10532562743E+02 -0.82240819424E+01 -0.16122553080E+01  0.13459931990E+02  0.51100000000E-03 0. -1.
        -11    1    3    3    0    0  0.29035351848E+02  0.24372407169E+02  0.63067360694E+01  0.38429686549E+02  0.51100000000E-03 0.  1.
         12    1    3    3    0    0  0.68267008200E+01  0.28027498020E+01 -0.69515974603E+00  0.74123206630E+01  0.00000000000E+00 0. -1.
</event>
<event>
 7    1  0.7819001E-012  0.5930196E+02  0.7816164E-02  0.1266605E+00
        -11   -1    0    0    0    0  0.00000000000E+00  0.00000000000E+00  0.45593999997E+02  0.45594000000E+02  0.51100000000E-03 0.  1.
         11   -1    0    0    0    0 -0.00000000000E+00 -0.00000000000E+00 -0.45593999997E+02  0.45594000000E+02  0.51100000000E-03 0. -1.
    9900012    2    1    2    0    0  0.17915971628E+02 -0.23172723083E+02  0.12600091334E+02  0.59301961737E+02  0.50000032298E+02 0.  0.
         12    1    1    2    0    0 -0.17915971628E+02  0.23172723083E+02 -0.12600091334E+02  0.31886038263E+02  0.00000000000E+00 0. -1.
         11    1    3    3    0    0 -0.32290595236E+00 -0.20718609475E+02 -0.12625941918E+02  0.24264778103E+02  0.51100000000E-03 0. -1.
        -11    1    3    3    0    0  0.73702492905E+01 -0.40219285733E+01  0.22067514807E+02  0.23610838487E+02  0.51100000000E-03 0.  1.
        -12    1    3    3    0    0  0.10868628289E+02  0.15678149648E+01  0.31585184455E+01  0.11426345147E+02  0.00000000000E+00 0.  1.
</event>
<event>
 7    1  0.7819001E-012  0.5930192E+02  0.7816164E-02  0.1266605E+00
        -11   -1    0    0    0    0  0.00000000000E+00  0.00000000000E+00  0.45593999997E+02  0.45594000000E+02  0.51100000000E-03 0.  1.
         11   -1    0    0    0    0 -0.00000000000E+00 -0.00000000000E+00 -0.45593999997E+02  0.45594000000E+02  0.51100000000E-03 0. -1.
    9900012    2    1    2    0    0 -0.18338441161E+02 -0.14872265099E+02  0.21429875650E+02  0.59301917397E+02  0.49999951432E+02 0.  0.
         12    1    1    2    0    0  0.18338441161E+02  0.14872265099E+02 -0.21429875650E+02  0.31886082603E+02  0.00000000000E+00 0. -1.
         11    1    3    3    0    0 -0.18812129068E+02  0.94518857661E+01 -0.48579323043E+01  0.21606338217E+02  0.51100000000E-03 0. -1.
        -11    1    3    3    0    0  0.55594586869E+01 -0.91145515440E+01  0.13324663869E+02  0.17074229067E+02  0.51100000000E-03 0.  1.
        -12    1    3    3    0    0 -0.50857707798E+01 -0.15209599321E+02  0.12963144086E+02  0.20621350113E+02  0.00000000000E+00 0.  1.
</event>
<event>
 7    1  0.7819001E-012  0.5930191E+02  0.7816164E-02  0.1266605E+00
        -11   -1    0    0    0    0  0.00000000000E+00  0.00000000000E+00  0.45593999997E+02  0.45594000000E+02  0.51100000000E-03 0.  1.
         11   -1    0    0    0    0 -0.00000000000E+00 -0.00000000000E+00 -0.45593999997E+02  0.45594000000E+02  0.51100000000E-03 0. -1.
    9900012    2    1    2    0    0  0.25527319279E+02 -0.40472083349E+00 -0.19102746193E+02  0.59301909919E+02  0.49999937795E+02 0.  0.
         12    1    1    2    0    0 -0.25527319279E+02  0.40472083349E+00  0.19102746193E+02  0.31886090081E+02  0.00000000000E+00 0. -1.
         11    1    3    3    0    0  0.89127861853E+01 -0.19486733170E+02 -0.13499317290E+02  0.25325917452E+02  0.51100000000E-03 0. -1.
        -11    1    3    3    0    0  0.20943768956E+02  0.19844027573E+02 -0.62829509769E+01  0.29527992848E+02  0.51100000000E-03 0.  1.
         12    1    3    3    0    0 -0.43292358624E+01 -0.76201523605E+00  0.67952207325E+00  0.44479996201E+01  0.00000000000E+00 0. -1.
</event>
<event>
 7    1  0.7819001E-012  0.5930194E+02  0.7816164E-02  0.1266605E+00
        -11   -1    0    0    0    0  0.00000000000E+00  0.00000000000E+00  0.45593999997E+02  0.45594000000E+02  0.51100000000E-03 0.  1.
         11   -1    0    0    0    0 -0.00000000000E+00 -0.00000000000E+00 -0.45593999997E+02  0.45594000000E+02  0.51100000000E-03 0. -1.
    9900012    2    1    2    0    0  0.20455710749E+02  0.18595891148E+02  0.15889540430E+02  0.59301940900E+02  0.49999994296E+02 0.  0.
         12    1    1    2    0    0 -0.20455710749E+02 -0.18595891148E+02 -0.15889540430E+02  0.31886059100E+02  0.00000000000E+00 0. -1.
         11    1    3    3    0    0  0.45380989029E+01  0.22043450543E+02 -0.68043936706E+01  0.23511865664E+02  0.51100000000E-03 0. -1.
        -11    1    3    3    0    0 -0.41723702561E+01 -0.56149531523E+01  0.89181837029E+01  0.11334477195E+02  0.51100000000E-03 0.  1.
        -12    1    3    3    0    0  0.20089982103E+02  0.21673937573E+01  0.13775750397E+02  0.24455598042E+02  0.00000000000E+00 0.  1.
</event>
<event>
 7    1  0.7819001E-012  0.5930198E+02  0.7816164E-02  0.1266605E+00
        -11   -1    0    0    0    0  0.00000000000E+00  0.00000000000E+00  0.45593999997E+02  0.45594000000E+02  0.51100000000E-03 0.  1.
         11   -1    0    0    0    0 -0.00000000000E+00 -0.00000000000E+00 -0.45593999997E+02  0.45594000000E+02  0.51100000000E-03 0. -1.
    9900012    2    1    2    0    0  0.31376763928E+02  0.26290559906E+01  0.50303999790E+01  0.59301981529E+02  0.50000068393E+02 0.  0.
         12    1    1    2    0    0 -0.31376763928E+02 -0.26290559906E+01 -0.50303999790E+01  0.31886018471E+02  0.00000000000E+00 0. -1.
         11    1    3    3    0    0 -0.28746893785E+01 -0.34146036624E+01 -0.18756519035E+01  0.48416347981E+01  0.51100000000E-03 0. -1.
        -11    1    3    3    0    0  0.34324594249E+02  0.19119871312E+02  0.10923411357E+02  0.40780732770E+02  0.51100000000E-03 0.  1.
        -12    1    3    3    0    0 -0.73140942145E-01 -0.13076211659E+02 -0.40173594746E+01  0.13679613960E+02  0.00000000000E+00 0.  1.
</event>
<event>
 7    1  0.7819001E-012  0.5930196E+02  0.7816164E-02  0.1266605E+00
        -11   -1    0    0    0    0  0.00000000000E+00  0.00000000000E+00  0.45593999997E+02  0.45594000000E+02  0.51100000000E-03 0.  1.
         11   -1    0    0    0    0 -0.00000000000E+00 -0.00000000000E+00 -0.45593999997E+02  0.45594000000E+02  0.51100000000E-03 0. -1.
    9900012    2    1    2    0    0  0.67915702623E+01  0.23329608681E+02  0.20647596518E+02  0.59301963717E+02  0.50000035909E+02 0.  0.
         12    1    1    2    0    0 -0.67915702623E+01 -0.23329608681E+02 -0.20647596518E+02  0.31886036283E+02  0.00000000000E+00 0. -1.
         11    1    3    3    0    0 -0.68472322619E+01  0.12896004179E+01 -0.81236886351E+01  0.10702428518E+02  0.51100000000E-03 0. -1.
        -11    1    3    3    0    0 -0.30979473917E+00  0.16578630791E+02  0.29238002433E+02  0.33612613083E+02  0.51100000000E-03 0.  1.
         12    1    3    3    0    0  0.13948597263E+02  0.54613774720E+01 -0.46671728036E+00  0.14986922117E+02  0.00000000000E+00 0. -1.
</event>
<event>
 7    1  0.7819001E-012  0.5930195E+02  0.7816164E-02  0.1266605E+00
        -11   -1    0    0    0    0  0.00000000000E+00  0.00000000000E+00  0.45593999997E+02  0.45594000000E+02  0.51100000000E-03 0.  1.
         11   -1    0    0    0    0 -0.00000000000E+00 -0.00000000000E+00 -0.45593999997E+02  0.45594000000E+02  0.51100000000E-03 0. -1.
    9900012    2    1    2    0    0  0.98218358985E+01  0.36802933308E+01  0.30111579559E+02  0.59301949085E+02  0.50000009223E+02 0.  0.
         12    1    1    2    0    0 -0.98218358985E+01 -0.36802933308E+01 -0.30111579559E+02  0.31886050915E+02  0.00000000000E+00 0. -1.
         11    1    3    3    0    0  0.12664459337E+01  0.19106368573E+02  0.18272365012E+02  0.26467650609E+02  0.51100000000E-03 0. -1.
        -11    1    3    3    0    0 -0.68826080037E+01 -0.80112605212E+00 -0.22959364608E+01  0.72995493270E+01  0.51100000000E-03 0.  1.
         12    1    3    3    0    0  0.15437997969E+02 -0.14624949190E+02  0.14135151008E+02  0.25534749149E+02  0.00000000000E+00 0. -1.
</event>
<event>
 7    1  0.7819001E-012  0.5930195E+02  0.7816164E-02  0.1266605E+00
        -11   -1    0    0    0    0  0.00000000000E+00  0.00000000000E+00  0.45593999997E+02  0.45594000000E+02  0.51100000000E-03 0.  1.
         11   -1    0    0    0    0 -0.00000000000E+00 -0.00000000000E+00 -0.45593999997E+02  0.45594000000E+02  0.51100000000E-03 0. -1.
    9900012    2    1    2    0    0 -0.31327468316E+02  0.43627014812E+01 -0.40344092332E+01  0.59301954570E+02  0.50000019227E+02 0.  0.
         12    1    1    2    0    0  0.31327468316E+02 -0.43627014812E+01  0.40344092332E+01  0.31886045430E+02  0.00000000000E+00 0. -1.
         11    1    3    3    0    0  0.35914318566E+01 -0.24412728733E+01 -0.46158600207E+01  0.63375357999E+01  0.51100000000E-03 0. -1.
        -11    1    3    3    0    0 -0.39178791408E+02  0.15411336845E+02  0.49927600401E+01  0.42395927312E+02  0.51100000000E-03 0.  1.
        -12    1    3    3    0    0  0.42598912361E+01 -0.86073624905E+01 -0.44113092526E+01  0.10568491459E+02  0.00000000000E+00 0.  1.
</event>
<event>
 7    1  0.7819001E-012  0.5930194E+02  0.7816164E-02  0.1266605E+00
        -11   -1    0    0    0    0  0.00000000000E+00  0.00000000000E+00  0.45593999997E+02  0.45594000000E+02  0.51100000000E-03 0. -1.
         11   -1    0    0    0    0 -0.00000000000E+00 -0.00000000000E+00 -0.45593999997E+02  0.45594000000E+02  0.51100000000E-03 0.  1.
    9900012    2    1    2    0    0 -0.59486991798E+01  0.20971165998E+00 -0.31325548144E+02  0.59301937724E+02  0.49999988504E+02 0.  0.
         12    1    1    2    0    0  0.59486991798E+01 -0.20971165998E+00  0.31325548144E+02  0.31886062276E+02  0.00000000000E+00 0. -1.
         11    1    3    3    0    0 -0.76061567464E+00 -0.15098465322E+02 -0.18696312822E+02  0.24043591760E+02  0.51100000000E-03 0. -1.
        -11    1    3    3    0    0 -0.15568558818E+02  0.38614181620E+01 -0.11554187404E+02  0.19768404607E+02  0.51100000000E-03 0.  1.
        -12    1    3    3    0    0  0.10380475313E+02  0.11446758820E+02 -0.10750479184E+01  0.15489941357E+02  0.00000000000E+00 0.  1.
</event>
<event>
 7    1  0.7819001E-012  0.5930192E+02  0.7816164E-02  0.1266605E+00
        -11   -1    0    0    0    0  0.00000000000E+00  0.00000000000E+00  0.45593999997E+02  0.45594000000E+02  0.51100000000E-03 0.  1.
         11   -1    0    0    0    0 -0.00000000000E+00 -0.00000000000E+00 -0.45593999997E+02  0.45594000000E+02  0.51100000000E-03 0. -1.
    9900012    2    1    2    0    0  0.94870494406E+00  0.31509517040E+02  0.47929362980E+01  0.59301922419E+02  0.49999960591E+02 0.  0.
         12    1    1    2    0    0 -0.94870494406E+00 -0.31509517040E+02 -0.47929362980E+01  0.31886077581E+02  0.00000000000E+00 0. -1.
         11    1    3    3    0    0 -0.14289667890E+02  0.11604491603E+02  0.13251108689E+02  0.22681506024E+02  0.51100000000E-03 0. -1.
        -11    1    3    3    0    0  0.15655943103E+02  0.14953969527E+02  0.50466502076E+01  0.22230574388E+02  0.51100000000E-03 0.  1.
         12    1    3    3    0    0 -0.41757026868E+00  0.49510559099E+01 -0.13504822599E+02  0.14389842007E+02  0.00000000000E+00 0. -1.
</event>
<event>
 7    1  0.7819001E-012  0.5930193E+02  0.7816164E-02  0.1266605E+00
        -11   -1    0    0    0    0  0.00000000000E+00  0.00000000000E+00  0.45593999997E+02  0.45594000000E+02  0.51100000000E-03 0. -1.
         11   -1    0    0    0    0 -0.00000000000E+00 -0.00000000000E+00 -0.45593999997E+02  0.45594000000E+02  0.51100000000E-03 0.  1.
    9900012    2    1    2    0    0  0.12127560706E+02 -0.27780210727E+02 -0.98946233034E+01  0.59301930831E+02  0.49999975933E+02 0.  0.
         12    1    1    2    0    0 -0.12127560706E+02  0.27780210727E+02  0.98946233034E+01  0.31886069169E+02  0.00000000000E+00 0. -1.
         11    1    3    3    0    0 -0.14455709178E+01  0.10729366182E+02 -0.10209940515E+02  0.14881258667E+02  0.51100000000E-03 0. -1.
        -11    1    3    3    0    0  0.67278350805E+01 -0.36169330508E+02  0.24693633644E+01  0.36872509949E+02  0.51100000000E-03 0.  1.
         12    1    3    3    0    0  0.68452965437E+01 -0.23402464008E+01 -0.21540461530E+01  0.75481622145E+01  0.00000000000E+00 0. -1.
</event>
<event>
 7    1  0.7819001E-012  0.5930195E+02  0.7816164E-02  0.1266605E+00
        -11   -1    0    0    0    0  0.00000000000E+00  0.00000000000E+00  0.45593999997E+02  0.45594000000E+02  0.51100000000E-03 0. -1.
         11   -1    0    0    0    0 -0.00000000000E+00 -0.00000000000E+00 -0.45593999997E+02  0.45594000000E+02  0.51100000000E-03 0.  1.
    9900012    2    1    2    0    0 -0.23094971053E+01  0.31779746041E+02  0.11975585519E+01  0.59301950044E+02  0.50000010972E+02 0.  0.
         12    1    1    2    0    0  0.23094971053E+01 -0.31779746041E+02 -0.11975585519E+01  0.31886049956E+02  0.00000000000E+00 0. -1.
         11    1    3    3    0    0 -0.46734568161E+01  0.16866461489E+02  0.39161433926E+01  0.17934740062E+02  0.51100000000E-03 0. -1.
        -11    1    3    3    0    0  0.19868068768E+02  0.84558304621E+01 -0.60290852294E+01  0.22418543537E+02  0.51100000000E-03 0.  1.
        -12    1    3    3    0    0 -0.17504109057E+02  0.64574540905E+01  0.33105003886E+01  0.18948666445E+02  0.00000000000E+00 0.  1.
</event>
<event>
 7    1  0.7819001E-012  0.5930198E+02  0.7816164E-02  0.1266605E+00
        -11   -1    0    0    0    0  0.00000000000E+00  0.00000000000E+00  0.45593999997E+02  0.45594000000E+02  0.51100000000E-03 0.  1.
         11   -1    0    0    0    0 -0.00000000000E+00 -0.00000000000E+00 -0.45593999997E+02  0.45594000000E+02  0.51100000000E-03 0. -1.
    9900012    2    1    2    0    0  0.21564505523E+02 -0.13043920169E+02  0.19533212183E+02  0.59301982218E+02  0.50000069649E+02 0.  0.
         12    1    1    2    0    0 -0.21564505523E+02  0.13043920169E+02 -0.19533212183E+02  0.31886017782E+02  0.00000000000E+00 0. -1.
         11    1    3    3    0    0  0.11259231923E+02  0.41319862683E+01  0.89999595015E+00  0.12027202792E+02  0.51100000000E-03 0. -1.
        -11    1    3    3    0    0 -0.13665650101E+02 -0.62234587674E+00  0.98203464442E+01  0.16839730153E+02  0.51100000000E-03 0.  1.
        -12    1    3    3    0    0  0.23970923701E+02 -0.16553560561E+02  0.88128697887E+01  0.30435049273E+02  0.00000000000E+00 0.  1.
</event>
<event>
 7    1  0.7819001E-012  0.5930194E+02  0.7816164E-02  0.1266605E+00
        -11   -1    0    0    0    0  0.00000000000E+00  0.00000000000E+00  0.45593999997E+02  0.45594000000E+02  0.51100000000E-03 0.  1.
         11   -1    0    0    0    0 -0.00000000000E+00 -0.00000000000E+00 -0.45593999997E+02  0.45594000000E+02  0.51100000000E-03 0. -1.
    9900012    2    1    2    0    0 -0.27626648234E+02 -0.14350292717E+02 -0.68962305619E+01  0.59301943648E+02  0.49999999307E+02 0.  0.
         12    1    1    2    0    0  0.27626648234E+02  0.14350292717E+02  0.68962305619E+01  0.31886056352E+02  0.00000000000E+00 0. -1.
         11    1    3    3    0    0 -0.32359281148E+02  0.66659725647E+01 -0.13934316755E+02  0.35856986074E+02  0.51100000000E-03 0. -1.
        -11    1    3    3    0    0  0.71298239580E+00 -0.14834834494E+02  0.34621969079E+01  0.15250162820E+02  0.51100000000E-03 0.  1.
         12    1    3    3    0    0  0.40196505181E+01 -0.61814307880E+01  0.35758892847E+01  0.81947947534E+01  0.00000000000E+00 0. -1.
</event>
<event>
 7    1  0.7819001E-012  0.5930201E+02  0.7816164E-02  0.1266605E+00
        -11   -1    0    0    0    0  0.00000000000E+00  0.00000000000E+00  0.45593999997E+02  0.45594000000E+02  0.51100000000E-03 0.  1.
         11   -1    0    0    0    0 -0.00000000000E+00 -0.00000000000E+00 -0.45593999997E+02  0.45594000000E+02  0.51100000000E-03 0. -1.
    9900012    2    1    2    0    0  0.10309830357E+02 -0.20415715538E+02  0.22217610808E+02  0.59302011339E+02  0.50000122759E+02 0.  0.
         12    1    1    2    0    0 -0.10309830357E+02  0.20415715538E+02 -0.22217610808E+02  0.31885988661E+02  0.00000000000E+00 0. -1.
         11    1    3    3    0    0 -0.17173201418E+02 -0.46618017380E+01  0.45866465822E+01  0.18376304567E+02  0.51100000000E-03 0. -1.
        -11    1    3    3    0    0  0.27437480652E+02 -0.84297547604E+01  0.10120681021E+02  0.30435247566E+02  0.51100000000E-03 0.  1.
         12    1    3    3    0    0  0.45551123397E-01 -0.73241590397E+01  0.75102832039E+01  0.10490459206E+02  0.00000000000E+00 0. -1.
</event>
<event>
 7    1  0.7819001E-012  0.5930198E+02  0.7816164E-02  0.1266605E+00
        -11   -1    0    0    0    0  0.00000000000E+00  0.00000000000E+00  0.45593999997E+02  0.45594000000E+02  0.51100000000E-03 0.  1.
         11   -1    0    0    0    0 -0.00000000000E+00 -0.00000000000E+00 -0.45593999997E+02  0.45594000000E+02  0.51100000000E-03 0. -1.
    9900012    2    1    2    0    0 -0.16501885703E+02 -0.16203178974E+02  0.21951382772E+02  0.59301977259E+02  0.50000060606E+02 0.  0.
         12    1    1    2    0    0  0.16501885703E+02  0.16203178974E+02 -0.21951382772E+02  0.31886022741E+02  0.00000000000E+00 0. -1.
         11    1    3    3    0    0 -0.48730691628E+01 -0.67938021568E+01  0.20228717786E+02  0.21888434716E+02  0.51100000000E-03 0.  1.
        -11    1    3    3    0    0 -0.38087822554E+00 -0.15226307196E+02 -0.11515353632E+02  0.19094210342E+02  0.51100000000E-03 0. -1.
        -12    1    3    3    0    0 -0.11247938314E+02  0.58169303788E+01  0.13238018618E+02  0.18319332201E+02  0.00000000000E+00 0.  1.
</event>
<event>
 7    1  0.7819001E-012  0.5930196E+02  0.7816164E-02  0.1266605E+00
        -11   -1    0    0    0    0  0.00000000000E+00  0.00000000000E+00  0.45593999997E+02  0.45594000000E+02  0.51100000000E-03 0. -1.
         11   -1    0    0    0    0 -0.00000000000E+00 -0.00000000000E+00 -0.45593999997E+02  0.45594000000E+02  0.51100000000E-03 0.  1.
    9900012    2    1    2    0    0  0.25927576328E+02 -0.17963496927E+02 -0.46683323812E+01  0.59301956607E+02  0.50000022941E+02 0.  0.
         12    1    1    2    0    0 -0.25927576328E+02  0.17963496927E+02  0.46683323812E+01  0.31886043393E+02  0.00000000000E+00 0. -1.
         11    1    3    3    0    0  0.22628375431E+02 -0.10881298525E+02  0.17925563955E+02  0.30850800242E+02  0.51100000000E-03 0. -1.
        -11    1    3    3    0    0  0.46629030337E+01 -0.11144268108E+02 -0.20216647300E+02  0.23551012816E+02  0.51100000000E-03 0.  1.
         12    1    3    3    0    0 -0.13637021367E+01  0.40620697062E+01 -0.23772490357E+01  0.49001435482E+01  0.00000000000E+00 0. -1.
</event>
<event>
 7    1  0.7819001E-012  0.5930195E+02  0.7816164E-02  0.1266605E+00
        -11   -1    0    0    0    0  0.00000000000E+00  0.00000000000E+00  0.45593999997E+02  0.45594000000E+02  0.51100000000E-03 0. -1.
         11   -1    0    0    0    0 -0.00000000000E+00 -0.00000000000E+00 -0.45593999997E+02  0.45594000000E+02  0.51100000000E-03 0.  1.
    9900012    2    1    2    0    0  0.13209430286E+02 -0.22272404996E+02 -0.18605682320E+02  0.59301945252E+02  0.50000002232E+02 0.  0.
         12    1    1    2    0    0 -0.13209430286E+02  0.22272404996E+02  0.18605682320E+02  0.31886054748E+02  0.00000000000E+00 0. -1.
         11    1    3    3    0    0 -0.10795782297E+02  0.38389679977E+01  0.21572471503E+01  0.11659344159E+02  0.51100000000E-03 0. -1.
        -11    1    3    3    0    0  0.10931263733E+02  0.34682736943E+00 -0.13266286839E+02  0.17193230725E+02  0.51100000000E-03 0.  1.
         12    1    3    3    0    0  0.13073948851E+02 -0.26458200363E+02 -0.74966426319E+01  0.30449370367E+02  0.00000000000E+00 0. -1.
</event>
<event>
 7    1  0.7819001E-012  0.5930194E+02  0.7816164E-02  0.1266605E+00
        -11   -1    0    0    0    0  0.00000000000E+00  0.00000000000E+00  0.45593999997E+02  0.45594000000E+02  0.51100000000E-03 0. -1.
         11   -1    0    0    0    0 -0.00000000000E+00 -0.00000000000E+00 -0.45593999997E+02  0.45594000000E+02  0.51100000000E-03 0.  1.
    9900012    2    1    2    0    0 -0.27117986860E+02  0.15411932671E+02 -0.66187397584E+01  0.59301943549E+02  0.49999999127E+02 0.  0.
         12    1    1    2    0    0  0.27117986860E+02 -0.15411932671E+02  0.66187397584E+01  0.31886056451E+02  0.00000000000E+00 0. -1.
         11    1    3    3    0    0 -0.40889514933E+01  0.21486568427E+02  0.37078204656E+00  0.21875320035E+02  0.51100000000E-03 0. -1.
        -11    1    3    3    0    0 -0.23409261737E+02 -0.12433382464E+01  0.54577545233E+01  0.24069202516E+02  0.51100000000E-03 0.  1.
         12    1    3    3    0    0  0.38022637011E+00 -0.48312975092E+01 -0.12447276328E+02  0.13357420998E+02  0.00000000000E+00 0. -1.
</event>
<event>
 7    1  0.7819001E-012  0.5930199E+02  0.7816164E-02  0.1266605E+00
        -11   -1    0    0    0    0  0.00000000000E+00  0.00000000000E+00  0.45593999997E+02  0.45594000000E+02  0.51100000000E-03 0.  1.
         11   -1    0    0    0    0 -0.00000000000E+00 -0.00000000000E+00 -0.45593999997E+02  0.45594000000E+02  0.51100000000E-03 0. -1.
    9900012    2    1    2    0    0  0.20336392220E+02  0.85942518228E+01  0.23006257315E+02  0.59301986004E+02  0.50000076554E+02 0.  0.
         12    1    1    2    0    0 -0.20336392220E+02 -0.85942518228E+01 -0.23006257315E+02  0.31886013996E+02  0.00000000000E+00 0. -1.
         11    1    3    3    0    0 -0.36426573860E+00 -0.37823233019E+01  0.58700458242E+01  0.69925744421E+01  0.51100000000E-03 0. -1.
        -11    1    3    3    0    0  0.11735439807E+02  0.25351219099E+02  0.22267811047E+02  0.35724785043E+02  0.51100000000E-03 0.  1.
        -12    1    3    3    0    0  0.89652181517E+01 -0.12974643974E+02 -0.51315995566E+01  0.16584626519E+02  0.00000000000E+00 0.  1.
</event>
<event>
 7    1  0.7819001E-012  0.5930193E+02  0.7816164E-02  0.1266605E+00
        -11   -1    0    0    0    0  0.00000000000E+00  0.00000000000E+00  0.45593999997E+02  0.45594000000E+02  0.51100000000E-03 0. -1.
         11   -1    0    0    0    0 -0.00000000000E+00 -0.00000000000E+00 -0.45593999997E+02  0.45594000000E+02  0.51100000000E-03 0.  1.
    9900012    2    1    2    0    0 -0.26887523809E+02 -0.89873161331E+01  0.14594886109E+02  0.59301929555E+02  0.49999973606E+02 0.  0.
         12    1    1    2    0    0  0.26887523809E+02  0.89873161331E+01 -0.14594886109E+02  0.31886070445E+02  0.00000000000E+00 0. -1.
         11    1    3    3    0    0  0.12106172926E+02  0.49330963982E+00  0.67693426856E+01  0.13879004934E+02  0.51100000000E-03 0. -1.
        -11    1    3    3    0    0 -0.30226291519E+02 -0.81932942147E+01  0.14320692809E+02  0.34436042337E+02  0.51100000000E-03 0.  1.
         12    1    3    3    0    0 -0.87674052163E+01 -0.12873315583E+01 -0.64951493859E+01  0.10986882284E+02  0.00000000000E+00 0. -1.
</event>
<event>
 7    1  0.7819001E-012  0.5930193E+02  0.7816164E-02  0.1266605E+00
        -11   -1    0    0    0    0  0.00000000000E+00  0.00000000000E+00  0.45593999997E+02  0.45594000000E+02  0.51100000000E-03 0.  1.
         11   -1    0    0    0    0 -0.00000000000E+00 -0.00000000000E+00 -0.45593999997E+02  0.45594000000E+02  0.51100000000E-03 0. -1.
    9900012    2    1    2    0    0  0.11751871648E+01 -0.19956423118E+02  0.24841129112E+02  0.59301928055E+02  0.49999970869E+02 0.  0.
         12    1    1    2    0    0 -0.11751871648E+01  0.19956423118E+02 -0.24841129112E+02  0.31886071945E+02  0.00000000000E+00 0. -1.
         11    1    3    3    0    0 -0.47490450917E+01  0.50126900069E+01 -0.38309696197E+01  0.78966333887E+01  0.51100000000E-03 0. -1.
        -11    1    3    3    0    0 -0.42043619927E+01 -0.70842763592E+01  0.29704498685E+02  0.30825652851E+02  0.51100000000E-03 0.  1.
        -12    1    3    3    0    0  0.10128594249E+02 -0.17884836766E+02 -0.10323999529E+01  0.20579641816E+02  0.00000000000E+00 0.  1.
</event>
<event>
 7    1  0.7819001E-012  0.5930195E+02  0.7816164E-02  0.1266605E+00
        -11   -1    0    0    0    0  0.00000000000E+00  0.00000000000E+00  0.45593999997E+02  0.45594000000E+02  0.51100000000E-03 0. -1.
         11   -1    0    0    0    0 -0.00000000000E+00 -0.00000000000E+00 -0.45593999997E+02  0.45594000000E+02  0.51100000000E-03 0.  1.
    9900012    2    1    2    0    0  0.13765194745E+02  0.28760720690E+02  0.24656290622E+00  0.59301946085E+02  0.50000003753E+02 0.  0.
         12    1    1    2    0    0 -0.13765194745E+02 -0.28760720690E+02 -0.24656290622E+00  0.31886053915E+02  0.00000000000E+00 0. -1.
         11    1    3    3    0    0  0.10872954508E+02  0.23122209313E+02  0.99781960982E+01  0.27430313539E+02  0.51100000000E-03 0. -1.
        -11    1    3    3    0    0 -0.19120969181E+01  0.10358596045E+02 -0.18214002340E+02  0.21040591916E+02  0.51100000000E-03 0.  1.
        -12    1    3    3    0    0  0.48043371550E+01 -0.47200846674E+01  0.84823691484E+01  0.10831040630E+02  0.00000000000E+00 0.  1.
</event>
<event>
 7    1  0.7819001E-012  0.5930194E+02  0.7816164E-02  0.1266605E+00
        -11   -1    0    0    0    0  0.00000000000E+00  0.00000000000E+00  0.45593999997E+02  0.45594000000E+02  0.51100000000E-03 0. -1.
         11   -1    0    0    0    0 -0.00000000000E+00 -0.00000000000E+00 -0.45593999997E+02  0.45594000000E+02  0.51100000000E-03 0.  1.
    9900012    2    1    2    0    0 -0.37222736885E+01  0.19302368120E+01 -0.31609171203E+02  0.59301939728E+02  0.49999992158E+02 0.  0.
         12    1    1    2    0    0  0.37222736885E+01 -0.19302368120E+01  0.31609171203E+02  0.31886060272E+02  0.00000000000E+00 0. -1.
         11    1    3    3    0    0  0.42821950892E+00  0.10595183722E+02  0.14924266547E+01  0.10708343832E+02  0.51100000000E-03 0. -1.
        -11    1    3    3    0    0  0.37503872070E+01 -0.20183529545E+02 -0.25346528402E+02  0.32617277192E+02  0.51100000000E-03 0.  1.
        -12    1    3    3    0    0 -0.79008804044E+01  0.11518582635E+02 -0.77550694551E+01  0.15976318704E+02  0.00000000000E+00 0.  1.
</event>
<event>
 7    1  0.7819001E-012  0.5930195E+02  0.7816164E-02  0.1266605E+00
        -11   -1    0    0    0    0  0.00000000000E+00  0.00000000000E+00  0.45593999997E+02  0.45594000000E+02  0.51100000000E-03 0. -1.
         11   -1    0    0    0    0 -0.00000000000E+00 -0.00000000000E+00 -0.45593999997E+02  0.45594000000E+02  0.51100000000E-03 0.  1.
    9900012    2    1    2    0    0  0.14403974835E+02  0.24376586494E+02 -0.14663828629E+02  0.59301947717E+02  0.50000006729E+02 0.  0.
         12    1    1    2    0    0 -0.14403974835E+02 -0.24376586494E+02  0.14663828629E+02  0.31886052283E+02  0.00000000000E+00 0. -1.
         11    1    3    3    0    0  0.13387113830E+02  0.60676867145E+01  0.13724957424E+02  0.20109850704E+02  0.51100000000E-03 0. -1.
        -11    1    3    3    0    0  0.14994405701E+00  0.64667222375E+00 -0.19296741298E+02  0.19308156131E+02  0.51100000000E-03 0.  1.
        -12    1    3    3    0    0  0.86691694704E+00  0.17662227556E+02 -0.90920447541E+01  0.19883940883E+02  0.00000000000E+00 0.  1.
</event>
<event>
 7    1  0.8922512E-012  0.5930209E+02  0.7816164E-02  0.1266604E+00
        -11   -1    0    0    0    0  0.00000000000E+00  0.00000000000E+00  0.45593999997E+02  0.45594000000E+02  0.51100000000E-03 0. -1.
         11   -1    0    0    0    0 -0.00000000000E+00 -0.00000000000E+00 -0.45593999997E+02  0.45594000000E+02  0.51100000000E-03 0.  1.
    9900012    2    1    2    0    0  0.20353431341E+02  0.18237561195E+02 -0.16426816923E+02  0.59302092142E+02  0.50000270125E+02 0.  0.
         12    1    1    2    0    0 -0.20353431341E+02 -0.18237561195E+02  0.16426816923E+02  0.31885907858E+02  0.00000000000E+00 0. -1.
         11    1    3    3    0    0 -0.67502215463E+01  0.15007093901E+02 -0.19857829302E+02  0.25789760431E+02  0.51100000000E-03 0. -1.
        -11    1    3    3    0    0  0.21982081936E+02  0.57806903466E+01 -0.50482780295E+01  0.23283329196E+02  0.51100000000E-03 0.  1.
         12    1    3    3    0    0  0.51215709510E+01 -0.25502230523E+01  0.84792904084E+01  0.10229002515E+02  0.00000000000E+00 0. -1.
</event>
<event>
 7    1  0.7819001E-012  0.5930193E+02  0.7816164E-02  0.1266605E+00
        -11   -1    0    0    0    0  0.00000000000E+00  0.00000000000E+00  0.45593999997E+02  0.45594000000E+02  0.51100000000E-03 0.  1.
         11   -1    0    0    0    0 -0.00000000000E+00 -0.00000000000E+00 -0.45593999997E+02  0.45594000000E+02  0.51100000000E-03 0. -1.
    9900012    2    1    2    0    0 -0.27352589559E+02 -0.41780015452E+01 -0.15846176347E+02  0.59301934747E+02  0.49999983074E+02 0.  0.
         12    1    1    2    0    0  0.27352589559E+02  0.41780015452E+01  0.15846176347E+02  0.31886065253E+02  0.00000000000E+00 0. -1.
         11    1    3    3    0    0  0.76608246657E+01  0.16442643912E+01  0.24246119274E+01  0.82018646176E+01  0.51100000000E-03 0. -1.
        -11    1    3    3    0    0 -0.20270974379E+02 -0.18292663764E+02 -0.52333802989E+01  0.27801478728E+02  0.51100000000E-03 0.  1.
        -12    1    3    3    0    0 -0.14742439846E+02  0.12470397827E+02 -0.13037407975E+02  0.23298591402E+02  0.00000000000E+00 0.  1.
</event>
<event>
 7    1  0.7819001E-012  0.5930192E+02  0.7816164E-02  0.1266605E+00
        -11   -1    0    0    0    0  0.00000000000E+00  0.00000000000E+00  0.45593999997E+02  0.45594000000E+02  0.51100000000E-03 0.  1.
         11   -1    0    0    0    0 -0.00000000000E+00 -0.00000000000E+00 -0.45593999997E+02  0.45594000000E+02  0.51100000000E-03 0. -1.
    9900012    2    1    2    0    0  0.10185517945E+02 -0.25928719086E+02  0.15513820545E+02  0.59301923460E+02  0.49999962489E+02 0.  0.
         12    1    1    2    0    0 -0.10185517945E+02  0.25928719086E+02 -0.15513820545E+02  0.31886076540E+02  0.00000000000E+00 0. -1.
         11    1    3    3    0    0 -0.21551513490E+01  0.68898118617E+01 -0.43281940689E+01  0.84170926683E+01  0.51100000000E-03 0. -1.
        -11    1    3    3    0    0  0.19665037059E+02 -0.21457223801E+02  0.22889734848E+02  0.37027909710E+02  0.51100000000E-03 0.  1.
         12    1    3    3    0    0 -0.73243677646E+01 -0.11361307146E+02 -0.30477202350E+01  0.13856921081E+02  0.00000000000E+00 0. -1.
</event>
<event>
 7    1  0.7819001E-012  0.5930195E+02  0.7816164E-02  0.1266605E+00
        -11   -1    0    0    0    0  0.00000000000E+00  0.00000000000E+00  0.45593999997E+02  0.45594000000E+02  0.51100000000E-03 0.  1.
         11   -1    0    0    0    0 -0.00000000000E+00 -0.00000000000E+00 -0.45593999997E+02  0.45594000000E+02  0.51100000000E-03 0. -1.
    9900012    2    1    2    0    0 -0.12820614296E+02  0.15402003773E+02  0.24801824254E+02  0.59301947290E+02  0.50000005949E+02 0.  0.
         12    1    1    2    0    0  0.12820614296E+02 -0.15402003773E+02 -0.24801824254E+02  0.31886052710E+02  0.00000000000E+00 0. -1.
         11    1    3    3    0    0 -0.21795667239E+02  0.14063921904E+02 -0.48689986289E+01  0.26392274582E+02  0.51100000000E-03 0. -1.
        -11    1    3    3    0    0  0.32603932400E+01  0.33091463290E+00  0.25629863788E+02  0.25838529111E+02  0.51100000000E-03 0.  1.
         12    1    3    3    0    0  0.57146597029E+01  0.10071672358E+01  0.40409590946E+01  0.70711435967E+01  0.00000000000E+00 0. -1.
</event>
<event>
 7    1  0.7819001E-012  0.5930194E+02  0.7816164E-02  0.1266605E+00
        -11   -1    0    0    0    0  0.00000000000E+00  0.00000000000E+00  0.45593999997E+02  0.45594000000E+02  0.51100000000E-03 0. -1.
         11   -1    0    0    0    0 -0.00000000000E+00 -0.00000000000E+00 -0.45593999997E+02  0.45594000000E+02  0.51100000000E-03 0.  1.
    9900012    2    1    2    0    0  0.86808619561E+01 -0.29177240234E+02 -0.94895678107E+01  0.59301943342E+02  0.49999998749E+02 0.  0.
         12    1    1    2    0    0 -0.86808619561E+01  0.29177240234E+02  0.94895678107E+01  0.31886056658E+02  0.00000000000E+00 0. -1.
         11    1    3    3    0    0  0.86776750847E+01  0.10620077118E+02 -0.35262239208E+01  0.14160591028E+02  0.51100000000E-03 0. -1.
        -11    1    3    3    0    0  0.48023409482E+01 -0.11969974326E+02  0.63017131114E+01  0.14354593424E+02  0.51100000000E-03 0.  1.
         12    1    3    3    0    0 -0.47991540769E+01 -0.27827343026E+02 -0.12265057001E+02  0.30786758890E+02  0.00000000000E+00 0. -1.
</event>
<event>
 7    1  0.7819001E-012  0.5930192E+02  0.7816164E-02  0.1266605E+00
        -11   -1    0    0    0    0  0.00000000000E+00  0.00000000000E+00  0.45593999997E+02  0.45594000000E+02  0.51100000000E-03 0. -1.
         11   -1    0    0    0    0 -0.00000000000E+00 -0.00000000000E+00 -0.45593999997E+02  0.45594000000E+02  0.51100000000E-03 0.  1.
    9900012    2    1    2    0    0 -0.55191268246E+01 -0.24756156102E+02 -0.19323407475E+02  0.59301919929E+02  0.49999956049E+02 0.  0.
         12    1    1    2    0    0  0.55191268246E+01  0.24756156102E+02  0.19323407475E+02  0.31886080071E+02  0.00000000000E+00 0. -1.
         11    1    3    3    0    0 -0.13245049215E+02 -0.74638250680E+01 -0.19529798634E+02  0.24749809056E+02  0.51100000000E-03 0. -1.
        -11    1    3    3    0    0  0.64907720409E+01 -0.16036641784E+02 -0.12740824166E+02  0.21485637111E+02  0.51100000000E-03 0.  1.
         12    1    3    3    0    0  0.12351503497E+01 -0.12556892507E+01  0.12947215325E+02  0.13066473761E+02  0.00000000000E+00 0. -1.
</event>
<event>
 7    1  0.7819001E-012  0.5930197E+02  0.7816164E-02  0.1266605E+00
        -11   -1    0    0    0    0  0.00000000000E+00  0.00000000000E+00  0.45593999997E+02  0.45594000000E+02  0.51100000000E-03 0.  1.
         11   -1    0    0    0    0 -0.00000000000E+00 -0.00000000000E+00 -0.45593999997E+02  0.45594000000E+02  0.51100000000E-03 0. -1.
    9900012    2    1    2    0    0  0.54885144011E+01 -0.26927225472E+02  0.16171567740E+02  0.59301970690E+02  0.50000048626E+02 0.  0.
         12    1    1    2    0    0 -0.54885144011E+01  0.26927225472E+02 -0.16171567740E+02  0.31886029310E+02  0.00000000000E+00 0. -1.
         11    1    3    3    0    0 -0.12975483190E+00 -0.14235250916E+02 -0.14549308110E+02  0.20355381885E+02  0.51100000000E-03 0. -1.
        -11    1    3    3    0    0  0.95771647373E+01 -0.15943771585E+02  0.21769440037E+02  0.28632751467E+02  0.51100000000E-03 0.  1.
         12    1    3    3    0    0 -0.39588955042E+01  0.32517970283E+01  0.89514358130E+01  0.10313837338E+02  0.00000000000E+00 0. -1.
</event>
<event>
 7    1  0.7819001E-012  0.5930191E+02  0.7816164E-02  0.1266605E+00
        -11   -1    0    0    0    0  0.00000000000E+00  0.00000000000E+00  0.45593999997E+02  0.45594000000E+02  0.51100000000E-03 0.  1.
         11   -1    0    0    0    0 -0.00000000000E+00 -0.00000000000E+00 -0.45593999997E+02  0.45594000000E+02  0.51100000000E-03 0. -1.
    9900012    2    1    2    0    0 -0.16100420462E+02 -0.10474808238E+02  0.25451475065E+02  0.59301910091E+02  0.49999938108E+02 0.  0.
         12    1    1    2    0    0  0.16100420462E+02  0.10474808238E+02 -0.25451475065E+02  0.31886089909E+02  0.00000000000E+00 0. -1.
         11    1    3    3    0    0 -0.22873508997E+02 -0.83207764697E+01  0.84453124515E+01  0.25763463229E+02  0.51100000000E-03 0. -1.
        -11    1    3    3    0    0  0.10164443388E+02  0.88655785054E+01  0.61911056859E+00  0.13501766173E+02  0.51100000000E-03 0.  1.
        -12    1    3    3    0    0 -0.33913548529E+01 -0.11019610274E+02  0.16387052045E+02  0.20036680690E+02  0.00000000000E+00 0.  1.
</event>
<event>
 7    1  0.7819001E-012  0.5930198E+02  0.7816164E-02  0.1266605E+00
        -11   -1    0    0    0    0  0.00000000000E+00  0.00000000000E+00  0.45593999997E+02  0.45594000000E+02  0.51100000000E-03 0.  1.
         11   -1    0    0    0    0 -0.00000000000E+00 -0.00000000000E+00 -0.45593999997E+02  0.45594000000E+02  0.51100000000E-03 0. -1.
    9900012    2    1    2    0    0 -0.27138262723E+02 -0.14611864685E+02  0.81686144904E+01  0.59301981812E+02  0.50000068909E+02 0.  0.
         12    1    1    2    0    0  0.27138262723E+02  0.14611864685E+02 -0.81686144904E+01  0.31886018188E+02  0.00000000000E+00 0. -1.
         11    1    3    3    0    0 -0.27118267906E+02 -0.13087074839E+02  0.90267751283E+01  0.31434927255E+02  0.51100000000E-03 0. -1.
        -11    1    3    3    0    0  0.11163999716E+02  0.12612397352E+01 -0.84565905111E+01  0.14061989143E+02  0.51100000000E-03 0.  1.
        -12    1    3    3    0    0 -0.11183994533E+02 -0.27860295813E+01  0.75984298731E+01  0.13805065413E+02  0.00000000000E+00 0.  1.
</event>
<event>
 7    1  0.8398905E-012  0.5930198E+02  0.7816164E-02  0.1266605E+00
        -11   -1    0    0    0    0  0.00000000000E+00  0.00000000000E+00  0.45593999997E+02  0.45594000000E+02  0.51100000000E-03 0. -1.
         11   -1    0    0    0    0 -0.00000000000E+00 -0.00000000000E+00 -0.45593999997E+02  0.45594000000E+02  0.51100000000E-03 0.  1.
    9900012    2    1    2    0    0 -0.62499999573E+00 -0.18479664289E+02 -0.25977483477E+02  0.59301980101E+02  0.50000065788E+02 0.  0.
         12    1    1    2    0    0  0.62499999573E+00  0.18479664289E+02  0.25977483477E+02  0.31886019899E+02  0.00000000000E+00 0. -1.
         11    1    3    3    0    0 -0.14774966816E+02  0.33541571581E+01 -0.21494980431E+01  0.15302625812E+02  0.51100000000E-03 0. -1.
        -11    1    3    3    0    0  0.17274019955E+02 -0.78236360402E+01 -0.22732266006E+02  0.29603326913E+02  0.51100000000E-03 0.  1.
         12    1    3    3    0    0 -0.31240531351E+01 -0.14010185407E+02 -0.10957194279E+01  0.14396027375E+02  0.00000000000E+00 0. -1.
</event>
<event>
 7    1  0.7819001E-012  0.5930200E+02  0.7816164E-02  0.1266605E+00
        -11   -1    0    0    0    0  0.00000000000E+00  0.00000000000E+00  0.45593999997E+02  0.45594000000E+02  0.51100000000E-03 0. -1.
         11   -1    0    0    0    0 -0.00000000000E+00 -0.00000000000E+00 -0.45593999997E+02  0.45594000000E+02  0.51100000000E-03 0.  1.
    9900012    2    1    2    0    0  0.30605611648E+02 -0.89339463305E+01 -0.44534833263E+00  0.59301996856E+02  0.50000096345E+02 0.  0.
         12    1    1    2    0    0 -0.30605611648E+02  0.89339463305E+01  0.44534833263E+00  0.31886003144E+02  0.00000000000E+00 0. -1.
         11    1    3    3    0    0 -0.57904922419E+01 -0.56787019527E+01  0.16321887105E+02  0.18225845802E+02  0.51100000000E-03 0. -1.
        -11    1    3    3    0    0  0.16306530127E+02 -0.28146317753E+01 -0.32648622928E+01  0.16866665434E+02  0.51100000000E-03 0.  1.
         12    1    3    3    0    0  0.20089573763E+02 -0.44061260250E+00 -0.13502373144E+02  0.24209485620E+02  0.00000000000E+00 0. -1.
</event>
<event>
 7    1  0.7819001E-012  0.5930193E+02  0.7816164E-02  0.1266605E+00
        -11   -1    0    0    0    0  0.00000000000E+00  0.00000000000E+00  0.45593999997E+02  0.45594000000E+02  0.51100000000E-03 0.  1.
         11   -1    0    0    0    0 -0.00000000000E+00 -0.00000000000E+00 -0.45593999997E+02  0.45594000000E+02  0.51100000000E-03 0. -1.
    9900012    2    1    2    0    0  0.10250927166E+02  0.30189633237E+02  0.47523789310E+00  0.59301932293E+02  0.49999978600E+02 0.  0.
         12    1    1    2    0    0 -0.10250927166E+02 -0.30189633237E+02 -0.47523789310E+00  0.31886067707E+02  0.00000000000E+00 0. -1.
         11    1    3    3    0    0 -0.13074609038E+01 -0.81687668278E+01 -0.49292496617E+01  0.96299381093E+01  0.51100000000E-03 0. -1.
        -11    1    3    3    0    0  0.55950454122E+01  0.21900533105E+02 -0.11479088685E+02  0.25351673727E+02  0.51100000000E-03 0.  1.
         12    1    3    3    0    0  0.59633426575E+01  0.16457866960E+02  0.16883576240E+02  0.24320320458E+02  0.00000000000E+00 0. -1.
</event>
<event>
 7    1  0.7819001E-012  0.5930195E+02  0.7816164E-02  0.1266605E+00
        -11   -1    0    0    0    0  0.00000000000E+00  0.00000000000E+00  0.45593999997E+02  0.45594000000E+02  0.51100000000E-03 0.  1.
         11   -1    0    0    0    0 -0.00000000000E+00 -0.00000000000E+00 -0.45593999997E+02  0.45594000000E+02  0.51100000000E-03 0. -1.
    9900012    2    1    2    0    0  0.19054310421E+01  0.56618421569E+01  0.31321443521E+02  0.59301953706E+02  0.50000017650E+02 0.  0.
         12    1    1    2    0    0 -0.19054310421E+01 -0.56618421569E+01 -0.31321443521E+02  0.31886046294E+02  0.00000000000E+00 0. -1.
         11    1    3    3    0    0 -0.15673886016E+02  0.43642977959E+01  0.57968309934E+01  0.17271972902E+02  0.51100000000E-03 0. -1.
        -11    1    3    3    0    0  0.20567481861E+01 -0.10874851931E+02  0.17559715147E+02  0.20756594468E+02  0.51100000000E-03 0.  1.
        -12    1    3    3    0    0  0.15522568872E+02  0.12172396292E+02  0.79648973804E+01  0.21273386335E+02  0.00000000000E+00 0.  1.
</event>
<event>
 7    1  0.7819001E-012  0.5930195E+02  0.7816164E-02  0.1266605E+00
        -11   -1    0    0    0    0  0.00000000000E+00  0.00000000000E+00  0.45593999997E+02  0.45594000000E+02  0.51100000000E-03 0. -1.
         11   -1    0    0    0    0 -0.00000000000E+00 -0.00000000000E+00 -0.45593999997E+02  0.45594000000E+02  0.51100000000E-03 0.  1.
    9900012    2    1    2    0    0  0.19762622897E+02 -0.14011019407E+02 -0.20732835856E+02  0.59301946446E+02  0.50000004410E+02 0.  0.
         12    1    1    2    0    0 -0.19762622897E+02  0.14011019407E+02  0.20732835856E+02  0.31886053554E+02  0.00000000000E+00 0. -1.
         11    1    3    3    0    0  0.66722923677E+01 -0.22079690229E+02 -0.22582743006E+01  0.23176108584E+02  0.51100000000E-03 0. -1.
        -11    1    3    3    0    0  0.92305210345E+01  0.51850977851E+01  0.53198311419E+01  0.11848559459E+02  0.51100000000E-03 0.  1.
        -12    1    3    3    0    0  0.38598094952E+01  0.28835730364E+01 -0.23794392698E+02  0.24277278403E+02  0.00000000000E+00 0.  1.
</event>
<event>
 7    1  0.7819001E-012  0.5930194E+02  0.7816164E-02  0.1266605E+00
        -11   -1    0    0    0    0  0.00000000000E+00  0.00000000000E+00  0.45593999997E+02  0.45594000000E+02  0.51100000000E-03 0.  1.
         11   -1    0    0    0    0 -0.00000000000E+00 -0.00000000000E+00 -0.45593999997E+02  0.45594000000E+02  0.51100000000E-03 0. -1.
    9900012    2    1    2    0    0 -0.67351718444E+01  0.11043475347E+01  0.31147050475E+02  0.59301939150E+02  0.49999991104E+02 0.  0.
         12    1    1    2    0    0  0.67351718444E+01 -0.11043475347E+01 -0.31147050475E+02  0.31886060850E+02  0.00000000000E+00 0. -1.
         11    1    3    3    0    0  0.14552692519E+02 -0.57837286771E+01  0.12471453992E+02  0.20019229303E+02  0.51100000000E-03 0. -1.
        -11    1    3    3    0    0 -0.12283224118E+02 -0.68324669286E+01 -0.47298869581E+00  0.14063567031E+02  0.51100000000E-03 0.  1.
        -12    1    3    3    0    0 -0.90046402450E+01  0.13720543141E+02  0.19148585179E+02  0.25219142816E+02  0.00000000000E+00 0.  1.
</event>
<event>
 7    1  0.7819001E-012  0.5930194E+02  0.7816164E-02  0.1266605E+00
        -11   -1    0    0    0    0  0.00000000000E+00  0.00000000000E+00  0.45593999997E+02  0.45594000000E+02  0.51100000000E-03 0.  1.
         11   -1    0    0    0    0 -0.00000000000E+00 -0.00000000000E+00 -0.45593999997E+02  0.45594000000E+02  0.51100000000E-03 0. -1.
    9900012    2    1    2    0    0 -0.13841703517E+02 -0.26310483733E+02 -0.11527632763E+02  0.59301943053E+02  0.49999998221E+02 0.  0.
         12    1    1    2    0    0  0.13841703517E+02  0.26310483733E+02  0.11527632763E+02  0.31886056947E+02  0.00000000000E+00 0. -1.
         11    1    3    3    0    0 -0.38942618974E+01  0.10843489023E+02  0.65892190689E+01  0.13272691442E+02  0.51100000000E-03 0. -1.
        -11    1    3    3    0    0 -0.12518824750E+02 -0.16502297861E+02 -0.13462594708E+02  0.24704013123E+02  0.51100000000E-03 0.  1.
         12    1    3    3    0    0  0.25713831306E+01 -0.20651674895E+02 -0.46542571235E+01  0.21325238488E+02  0.00000000000E+00 0. -1.
</event>
<event>
 7    1  0.7819001E-012  0.5930194E+02  0.7816164E-02  0.1266605E+00
        -11   -1    0    0    0    0  0.00000000000E+00  0.00000000000E+00  0.45593999997E+02  0.45594000000E+02  0.51100000000E-03 0.  1.
         11   -1    0    0    0    0 -0.00000000000E+00 -0.00000000000E+00 -0.45593999997E+02  0.45594000000E+02  0.51100000000E-03 0. -1.
    9900012    2    1    2    0    0  0.14838339392E+02 -0.23800851652E+01  0.28122581218E+02  0.59301941986E+02  0.49999996277E+02 0.  0.
         12    1    1    2    0    0 -0.14838339392E+02  0.23800851652E+01 -0.28122581218E+02  0.31886058014E+02  0.00000000000E+00 0. -1.
         11    1    3    3    0    0  0.19963144416E+02  0.20320524411E+02  0.15353251457E+02  0.32360055283E+02  0.51100000000E-03 0. -1.
        -11    1    3    3    0    0 -0.28226464042E+01 -0.12287789838E+02  0.95046363602E+01  0.15789085611E+02  0.51100000000E-03 0.  1.
         12    1    3    3    0    0 -0.23021586201E+01 -0.10412819738E+02  0.32646934003E+01  0.11152801092E+02  0.00000000000E+00 0. -1.
</event>
<event>
 7    1  0.7819001E-012  0.5930189E+02  0.7816164E-02  0.1266605E+00
        -11   -1    0    0    0    0  0.00000000000E+00  0.00000000000E+00  0.45593999997E+02  0.45594000000E+02  0.51100000000E-03 0.  1.
         11   -1    0    0    0    0 -0.00000000000E+00 -0.00000000000E+00 -0.45593999997E+02  0.45594000000E+02  0.51100000000E-03 0. -1.
    9900012    2    1    2    0    0 -0.28083860309E+02  0.14925419948E+02 -0.22918776175E+01  0.59301889018E+02  0.49999899676E+02 0.  0.
         12    1    1    2    0    0  0.28083860309E+02 -0.14925419948E+02  0.22918776175E+01  0.31886110982E+02  0.00000000000E+00 0. -1.
         11    1    3    3    0    0 -0.13747532278E+02  0.76880955032E+01 -0.84246344888E+01  0.17862696402E+02  0.51100000000E-03 0. -1.
        -11    1    3    3    0    0 -0.95743943783E+01  0.13956024702E+02  0.19449267163E+02  0.25782041165E+02  0.51100000000E-03 0.  1.
        -12    1    3    3    0    0 -0.47619336529E+01 -0.67187002567E+01 -0.13316510291E+02  0.15657151452E+02  0.00000000000E+00 0.  1.
</event>
<event>
 7    1  0.7819001E-012  0.5930193E+02  0.7816164E-02  0.1266605E+00
        -11   -1    0    0    0    0  0.00000000000E+00  0.00000000000E+00  0.45593999997E+02  0.45594000000E+02  0.51100000000E-03 0.  1.
         11   -1    0    0    0    0 -0.00000000000E+00 -0.00000000000E+00 -0.45593999997E+02  0.45594000000E+02  0.51100000000E-03 0. -1.
    9900012    2    1    2    0    0  0.16563944505E+02 -0.38539676119E+01  0.26972288840E+02  0.59301926407E+02  0.49999967864E+02 0.  0.
         12    1    1    2    0    0 -0.16563944505E+02  0.38539676119E+01 -0.26972288840E+02  0.31886073593E+02  0.00000000000E+00 0. -1.
         11    1    3    3    0    0  0.11807034178E+02 -0.25856977359E+02  0.14561089859E+02  0.31937668549E+02  0.51100000000E-03 0. -1.
        -11    1    3    3    0    0 -0.19313808482E+01  0.13011963933E+02  0.73469587687E+01  0.15067157688E+02  0.51100000000E-03 0.  1.
         12    1    3    3    0    0  0.66882911749E+01  0.89910458133E+01  0.50642402120E+01  0.12297100170E+02  0.00000000000E+00 0. -1.
</event>
<event>
 7    1  0.7819001E-012  0.5930199E+02  0.7816164E-02  0.1266605E+00
        -11   -1    0    0    0    0  0.00000000000E+00  0.00000000000E+00  0.45593999997E+02  0.45594000000E+02  0.51100000000E-03 0.  1.
         11   -1    0    0    0    0 -0.00000000000E+00 -0.00000000000E+00 -0.45593999997E+02  0.45594000000E+02  0.51100000000E-03 0. -1.
    9900012    2    1    2    0    0  0.27262887264E+02  0.13068615986E+02 -0.10132326451E+02  0.59301987627E+02  0.50000079515E+02 0.  0.
         12    1    1    2    0    0 -0.27262887264E+02 -0.13068615986E+02  0.10132326451E+02  0.31886012373E+02  0.00000000000E+00 0. -1.
         11    1    3    3    0    0  0.18019157741E+00 -0.14394066594E+01  0.10716147955E+02  0.10813888653E+02  0.51100000000E-03 0. -1.
        -11    1    3    3    0    0  0.70091987411E+01  0.20642377050E+02 -0.15731793235E+02  0.26883562188E+02  0.51100000000E-03 0.  1.
        -12    1    3    3    0    0  0.20073496945E+02 -0.61343544042E+01 -0.51166811715E+01  0.21604536787E+02  0.00000000000E+00 0.  1.
</event>
<event>
 7    1  0.7819001E-012  0.5930198E+02  0.7816164E-02  0.1266605E+00
        -11   -1    0    0    0    0  0.00000000000E+00  0.00000000000E+00  0.45593999997E+02  0.45594000000E+02  0.51100000000E-03 0.  1.
         11   -1    0    0    0    0 -0.00000000000E+00 -0.00000000000E+00 -0.45593999997E+02  0.45594000000E+02  0.51100000000E-03 0. -1.
    9900012    2    1    2    0    0 -0.10059176267E+02 -0.28666448614E+02  0.96832879621E+01  0.59301978469E+02  0.50000062812E+02 0.  0.
         12    1    1    2    0    0  0.10059176267E+02  0.28666448614E+02 -0.96832879621E+01  0.31886021531E+02  0.00000000000E+00 0. -1.
         11    1    3    3    0    0 -0.27683121549E+00 -0.17358610309E+02 -0.14066346017E+02  0.22344128489E+02  0.51100000000E-03 0. -1.
        -11    1    3    3    0    0  0.54234971686E+01 -0.52951332128E+01  0.18158361495E+02  0.19676860769E+02  0.51100000000E-03 0.  1.
         12    1    3    3    0    0 -0.15205842220E+02 -0.60127050924E+01  0.55912724842E+01  0.17280989212E+02  0.00000000000E+00 0. -1.
</event>
<event>
 7    1  0.7819001E-012  0.5930182E+02  0.7816164E-02  0.1266605E+00
        -11   -1    0    0    0    0  0.00000000000E+00  0.00000000000E+00  0.45593999997E+02  0.45594000000E+02  0.51100000000E-03 0. -1.
         11   -1    0    0    0    0 -0.00000000000E+00 -0.00000000000E+00 -0.45593999997E+02  0.45594000000E+02  0.51100000000E-03 0.  1.
    9900012    2    1    2    0    0 -0.79184200619E+01  0.30381647503E+02 -0.55662223570E+01  0.59301816274E+02  0.49999767007E+02 0.  0.
         12    1    1    2    0    0  0.79184200619E+01 -0.30381647503E+02  0.55662223570E+01  0.31886183726E+02  0.00000000000E+00 0. -1.
         11    1    3    3    0    0 -0.77861141899E+00  0.20764659492E+02  0.18467269960E+02  0.27799593155E+02  0.51100000000E-03 0. -1.
        -11    1    3    3    0    0 -0.41495279227E+01  0.14253395138E+02 -0.17242657329E+02  0.22752738010E+02  0.51100000000E-03 0.  1.
         12    1    3    3    0    0 -0.29902807201E+01 -0.46364071267E+01 -0.67908349883E+01  0.87494851087E+01  0.00000000000E+00 0. -1.
</event>
<event>
 7    1  0.7819001E-012  0.5930198E+02  0.7816164E-02  0.1266605E+00
        -11   -1    0    0    0    0  0.00000000000E+00  0.00000000000E+00  0.45593999997E+02  0.45594000000E+02  0.51100000000E-03 0.  1.
         11   -1    0    0    0    0 -0.00000000000E+00 -0.00000000000E+00 -0.45593999997E+02  0.45594000000E+02  0.51100000000E-03 0. -1.
    9900012    2    1    2    0    0 -0.37655515700E+01 -0.87052102599E+01  0.30442702125E+02  0.59301981481E+02  0.50000068306E+02 0.  0.
         12    1    1    2    0    0  0.37655515700E+01  0.87052102599E+01 -0.30442702125E+02  0.31886018519E+02  0.00000000000E+00 0. -1.
         11    1    3    3    0    0 -0.25085931007E+01 -0.13372247660E+02  0.15746671067E+01  0.13696336138E+02  0.51100000000E-03 0. -1.
        -11    1    3    3    0    0  0.74902719024E+00  0.19619632758E+02  0.12161188572E+02  0.23095141027E+02  0.51100000000E-03 0.  1.
        -12    1    3    3    0    0 -0.20059856595E+01 -0.14952595358E+02  0.16706846447E+02  0.22510504317E+02  0.00000000000E+00 0.  1.
</event>
<event>
 7    1  0.7819001E-012  0.5930195E+02  0.7816164E-02  0.1266605E+00
        -11   -1    0    0    0    0  0.00000000000E+00  0.00000000000E+00  0.45593999997E+02  0.45594000000E+02  0.51100000000E-03 0.  1.
         11   -1    0    0    0    0 -0.00000000000E+00 -0.00000000000E+00 -0.45593999997E+02  0.45594000000E+02  0.51100000000E-03 0. -1.
    9900012    2    1    2    0    0  0.26248826463E+02 -0.21827941728E+01  0.17970940852E+02  0.59301949818E+02  0.50000010561E+02 0.  0.
         12    1    1    2    0    0 -0.26248826463E+02  0.21827941728E+01 -0.17970940852E+02  0.31886050182E+02  0.00000000000E+00 0. -1.
         11    1    3    3    0    0  0.15524044216E+02  0.51248173100E+01 -0.14822254731E+02  0.22067146096E+02  0.51100000000E-03 0. -1.
        -11    1    3    3    0    0  0.23434037337E+01  0.30826625700E+01  0.44082308668E+01  0.58674397497E+01  0.51100000000E-03 0.  1.
         12    1    3    3    0    0  0.83813785136E+01 -0.10390274053E+02  0.28384964715E+02  0.31367363972E+02  0.00000000000E+00 0. -1.
</event>
<event>
 7    1  0.7819001E-012  0.5930221E+02  0.7816164E-02  0.1266604E+00
        -11   -1    0    0    0    0  0.00000000000E+00  0.00000000000E+00  0.45593999997E+02  0.45594000000E+02  0.51100000000E-03 0. -1.
         11   -1    0    0    0    0 -0.00000000000E+00 -0.00000000000E+00 -0.45593999997E+02  0.45594000000E+02  0.51100000000E-03 0.  1.
    9900012    2    1    2    0    0 -0.27257571901E+02 -0.11265198284E+02 -0.12117084629E+02  0.59302209149E+02  0.50000483515E+02 0.  0.
         12    1    1    2    0    0  0.27257571901E+02  0.11265198284E+02  0.12117084629E+02  0.31885790851E+02  0.00000000000E+00 0. -1.
         11    1    3    3    0    0 -0.34445981204E+02 -0.11166274595E+02  0.84778266979E+01  0.37189848820E+02  0.51100000000E-03 0. -1.
        -11    1    3    3    0    0  0.27415330077E+01 -0.34450484092E+00 -0.13148770167E+02  0.13435953408E+02  0.51100000000E-03 0.  1.
         12    1    3    3    0    0  0.44468762959E+01  0.24558115201E+00 -0.74461411597E+01  0.86764069213E+01  0.00000000000E+00 0. -1.
</event>
<event>
 7    1  0.7819001E-012  0.5930198E+02  0.7816164E-02  0.1266605E+00
        -11   -1    0    0    0    0  0.00000000000E+00  0.00000000000E+00  0.45593999997E+02  0.45594000000E+02  0.51100000000E-03 0.  1.
         11   -1    0    0    0    0 -0.00000000000E+00 -0.00000000000E+00 -0.45593999997E+02  0.45594000000E+02  0.51100000000E-03 0. -1.
    9900012    2    1    2    0    0 -0.62539731368E+01 -0.62931399838E+01  0.30626825626E+02  0.59301980513E+02  0.50000066540E+02 0.  0.
         12    1    1    2    0    0  0.62539731368E+01  0.62931399838E+01 -0.30626825626E+02  0.31886019487E+02  0.00000000000E+00 0. -1.
         11    1    3    3    0    0 -0.14735233395E+02  0.59705446852E+01 -0.58084337393E+01  0.16926677459E+02  0.51100000000E-03 0. -1.
        -11    1    3    3    0    0 -0.31889577801E+01 -0.72760344539E+01  0.20620127337E+02  0.22097506211E+02  0.51100000000E-03 0.  1.
         12    1    3    3    0    0  0.11670218038E+02 -0.49876502151E+01  0.15815132028E+02  0.20277796842E+02  0.00000000000E+00 0. -1.
</event>
<event>
 7    1  0.7819001E-012  0.5930188E+02  0.7816164E-02  0.1266605E+00
        -11   -1    0    0    0    0  0.00000000000E+00  0.00000000000E+00  0.45593999997E+02  0.45594000000E+02  0.51100000000E-03 0.  1.
         11   -1    0    0    0    0 -0.00000000000E+00 -0.00000000000E+00 -0.45593999997E+02  0.45594000000E+02  0.51100000000E-03 0. -1.
    9900012    2    1    2    0    0 -0.22276485117E+02 -0.13444876414E+02  0.18431450640E+02  0.59301876629E+02  0.49999877080E+02 0.  0.
         12    1    1    2    0    0  0.22276485117E+02  0.13444876414E+02 -0.18431450640E+02  0.31886123371E+02  0.00000000000E+00 0. -1.
         11    1    3    3    0    0 -0.18652192571E+02  0.12138976374E+02  0.11145145692E+02  0.24889220716E+02  0.51100000000E-03 0. -1.
        -11    1    3    3    0    0 -0.96154777836E+01 -0.22635720011E+02  0.87012566390E-01  0.24593511438E+02  0.51100000000E-03 0.  1.
        -12    1    3    3    0    0  0.59911852368E+01 -0.29481327773E+01  0.71992923816E+01  0.98191444745E+01  0.00000000000E+00 0.  1.
</event>
<event>
 7    1  0.7819001E-012  0.5930193E+02  0.7816164E-02  0.1266605E+00
        -11   -1    0    0    0    0  0.00000000000E+00  0.00000000000E+00  0.45593999997E+02  0.45594000000E+02  0.51100000000E-03 0. -1.
         11   -1    0    0    0    0 -0.00000000000E+00 -0.00000000000E+00 -0.45593999997E+02  0.45594000000E+02  0.51100000000E-03 0.  1.
    9900012    2    1    2    0    0  0.19549736592E+02  0.25005499527E+02 -0.30420526869E+01  0.59301932636E+02  0.49999979224E+02 0.  0.
         12    1    1    2    0    0 -0.19549736592E+02 -0.25005499527E+02  0.30420526869E+01  0.31886067364E+02  0.00000000000E+00 0. -1.
         11    1    3    3    0    0 -0.79192960573E+00 -0.80973734533E+01  0.19237345424E+01  0.83603447413E+01  0.51100000000E-03 0. -1.
        -11    1    3    3    0    0  0.27538811734E+02  0.26379172431E+02  0.30308644246E+01  0.38254843213E+02  0.51100000000E-03 0.  1.
        -12    1    3    3    0    0 -0.71971455359E+01  0.67237005496E+01 -0.79966516539E+01  0.12686744682E+02  0.00000000000E+00 0.  1.
</event>
<event>
 7    1  0.7819001E-012  0.5930192E+02  0.7816164E-02  0.1266605E+00
        -11   -1    0    0    0    0  0.00000000000E+00  0.00000000000E+00  0.45593999997E+02  0.45594000000E+02  0.51100000000E-03 0. -1.
         11   -1    0    0    0    0 -0.00000000000E+00 -0.00000000000E+00 -0.45593999997E+02  0.45594000000E+02  0.51100000000E-03 0.  1.
    9900012    2    1    2    0    0 -0.96609073553E+01  0.29123939895E+02 -0.86709337475E+01  0.59301919996E+02  0.49999956173E+02 0.  0.
         12    1    1    2    0    0  0.96609073553E+01 -0.29123939895E+02  0.86709337475E+01  0.31886080004E+02  0.00000000000E+00 0. -1.
         11    1    3    3    0    0  0.57502223020E+01  0.23538596990E+02  0.10805118898E+01  0.24254857472E+02  0.51100000000E-03 0. -1.
        -11    1    3    3    0    0 -0.22172394821E+02  0.49995665992E+01 -0.14321869246E+02  0.26864971566E+02  0.51100000000E-03 0.  1.
         12    1    3    3    0    0  0.67612651635E+01  0.58577630619E+00  0.45704236091E+01  0.81820909589E+01  0.00000000000E+00 0. -1.
</event>
<event>
 7    1  0.7819001E-012  0.5930194E+02  0.7816164E-02  0.1266605E+00
        -11   -1    0    0    0    0  0.00000000000E+00  0.00000000000E+00  0.45593999997E+02  0.45594000000E+02  0.51100000000E-03 0.  1.
         11   -1    0    0    0    0 -0.00000000000E+00 -0.00000000000E+00 -0.45593999997E+02  0.45594000000E+02  0.51100000000E-03 0. -1.
    9900012    2    1    2    0    0  0.22176468061E+02 -0.22819719681E+02 -0.20458230823E+01  0.59301941384E+02  0.49999995179E+02 0.  0.
         12    1    1    2    0    0 -0.22176468061E+02  0.22819719681E+02  0.20458230823E+01  0.31886058616E+02  0.00000000000E+00 0. -1.
         11    1    3    3    0    0 -0.89771215188E+01 -0.69218603435E+01 -0.32106052533E+00  0.11340367785E+02  0.51100000000E-03 0. -1.
        -11    1    3    3    0    0  0.32613741742E+02 -0.14263200866E+01 -0.50714586179E+01  0.33036498485E+02  0.51100000000E-03 0.  1.
        -12    1    3    3    0    0 -0.14601521623E+01 -0.14471539251E+02  0.33466960610E+01  0.14925075114E+02  0.00000000000E+00 0.  1.
</event>
<event>
 7    1  0.7819001E-012  0.5930194E+02  0.7816164E-02  0.1266605E+00
        -11   -1    0    0    0    0  0.00000000000E+00  0.00000000000E+00  0.45593999997E+02  0.45594000000E+02  0.51100000000E-03 0.  1.
         11   -1    0    0    0    0 -0.00000000000E+00 -0.00000000000E+00 -0.45593999997E+02  0.45594000000E+02  0.51100000000E-03 0. -1.
    9900012    2    1    2    0    0  0.76844679620E+01  0.30930512596E+02 -0.98650867657E+00  0.59301939461E+02  0.49999991672E+02 0.  0.
         12    1    1    2    0    0 -0.76844679620E+01 -0.30930512596E+02  0.98650867657E+00  0.31886060539E+02  0.00000000000E+00 0. -1.
         11    1    3    3    0    0  0.19896201436E+02  0.11985586446E+02 -0.20883178759E+01  0.23321110305E+02  0.51100000000E-03 0. -1.
        -11    1    3    3    0    0 -0.38958577707E+01 -0.24048712945E+01  0.10315212506E+02  0.11285598035E+02  0.51100000000E-03 0.  1.
         12    1    3    3    0    0 -0.83158757035E+01  0.21349797444E+02 -0.92134033067E+01  0.24695231121E+02  0.00000000000E+00 0. -1.
</event>
<event>
 7    1  0.7819001E-012  0.5930195E+02  0.7816164E-02  0.1266605E+00
        -11   -1    0    0    0    0  0.00000000000E+00  0.00000000000E+00  0.45593999997E+02  0.45594000000E+02  0.51100000000E-03 0. -1.
         11   -1    0    0    0    0 -0.00000000000E+00 -0.00000000000E+00 -0.45593999997E+02  0.45594000000E+02  0.51100000000E-03 0.  1.
    9900012    2    1    2    0    0 -0.29012249210E+02 -0.11355328205E+02  0.67872187725E+01  0.59301946285E+02  0.50000004117E+02 0.  0.
         12    1    1    2    0    0  0.29012249210E+02  0.11355328205E+02 -0.67872187725E+01  0.31886053715E+02  0.00000000000E+00 0. -1.
         11    1    3    3    0    0 -0.84947658939E+00 -0.12527816729E+02  0.10863623530E+02  0.16603798329E+02  0.51100000000E-03 0. -1.
        -11    1    3    3    0    0 -0.11902707351E+02 -0.37348965876E+01 -0.17190514557E+02  0.21240002020E+02  0.51100000000E-03 0.  1.
        -12    1    3    3    0    0 -0.16260065269E+02  0.49073851112E+01  0.13114109800E+02  0.21458145936E+02  0.00000000000E+00 0.  1.
</event>
<event>
 7    1  0.7819001E-012  0.5930194E+02  0.7816164E-02  0.1266605E+00
        -11   -1    0    0    0    0  0.00000000000E+00  0.00000000000E+00  0.45593999997E+02  0.45594000000E+02  0.51100000000E-03 0. -1.
         11   -1    0    0    0    0 -0.00000000000E+00 -0.00000000000E+00 -0.45593999997E+02  0.45594000000E+02  0.51100000000E-03 0.  1.
    9900012    2    1    2    0    0  0.47416281131E+01  0.31531273354E+02 -0.12848903648E+00  0.59301941199E+02  0.49999994840E+02 0.  0.
         12    1    1    2    0    0 -0.47416281131E+01 -0.31531273354E+02  0.12848903648E+00  0.31886058801E+02  0.00000000000E+00 0. -1.
         11    1    3    3    0    0  0.17031047274E+02  0.24514565821E+01 -0.22051531822E+01  0.17347302713E+02  0.51100000000E-03 0. -1.
        -11    1    3    3    0    0 -0.18673548025E+02  0.18691883932E+02 -0.62993816738E+01  0.27161924279E+02  0.51100000000E-03 0.  1.
         12    1    3    3    0    0  0.63841288647E+01  0.10387932839E+02  0.83760458195E+01  0.14792714207E+02  0.00000000000E+00 0. -1.
</event>
<event>
 7    1  0.7819001E-012  0.5930194E+02  0.7816164E-02  0.1266605E+00
        -11   -1    0    0    0    0  0.00000000000E+00  0.00000000000E+00  0.45593999997E+02  0.45594000000E+02  0.51100000000E-03 0. -1.
         11   -1    0    0    0    0 -0.00000000000E+00 -0.00000000000E+00 -0.45593999997E+02  0.45594000000E+02  0.51100000000E-03 0.  1.
    9900012    2    1    2    0    0 -0.15506121882E+02 -0.16283824063E+02  0.22607924896E+02  0.59301937057E+02  0.49999987287E+02 0.  0.
         12    1    1    2    0    0  0.15506121882E+02  0.16283824063E+02 -0.22607924896E+02  0.31886062943E+02  0.00000000000E+00 0. -1.
         11    1    3    3    0    0 -0.65845062171E+01  0.99837683342E+01  0.16804299630E+02  0.20625611229E+02  0.51100000000E-03 0. -1.
        -11    1    3    3    0    0 -0.90932743116E+01 -0.24596731666E+02 -0.58780676407E+01  0.26874495824E+02  0.51100000000E-03 0.  1.
         12    1    3    3    0    0  0.17165864671E+00 -0.16708607309E+01  0.11681692906E+02  0.11801830004E+02  0.00000000000E+00 0. -1.
</event>
<event>
 7    1  0.7819001E-012  0.5930194E+02  0.7816164E-02  0.1266605E+00
        -11   -1    0    0    0    0  0.00000000000E+00  0.00000000000E+00  0.45593999997E+02  0.45594000000E+02  0.51100000000E-03 0.  1.
         11   -1    0    0    0    0 -0.00000000000E+00 -0.00000000000E+00 -0.45593999997E+02  0.45594000000E+02  0.51100000000E-03 0. -1.
    9900012    2    1    2    0    0 -0.29736412158E+02  0.51212825247E+01 -0.10307227359E+02  0.59301942255E+02  0.49999996767E+02 0.  0.
         12    1    1    2    0    0  0.29736412158E+02 -0.51212825247E+01  0.10307227359E+02  0.31886057745E+02  0.00000000000E+00 0. -1.
         11    1    3    3    0    0 -0.10187763525E+02  0.13679090945E+02 -0.24546743850E+01  0.17231757928E+02  0.51100000000E-03 0. -1.
        -11    1    3    3    0    0  0.23128565994E+01 -0.14747661003E+02 -0.11775257147E+02  0.19013139979E+02  0.51100000000E-03 0.  1.
        -12    1    3    3    0    0 -0.21861505232E+02  0.61898525830E+01  0.39227041732E+01  0.23057044348E+02  0.00000000000E+00 0.  1.
</event>
<event>
 7    1  0.7819001E-012  0.5930195E+02  0.7816164E-02  0.1266605E+00
        -11   -1    0    0    0    0  0.00000000000E+00  0.00000000000E+00  0.45593999997E+02  0.45594000000E+02  0.51100000000E-03 0.  1.
         11   -1    0    0    0    0 -0.00000000000E+00 -0.00000000000E+00 -0.45593999997E+02  0.45594000000E+02  0.51100000000E-03 0. -1.
    9900012    2    1    2    0    0  0.18910313721E+02 -0.21435213282E+02  0.14129826077E+02  0.59301947901E+02  0.50000007064E+02 0.  0.
         12    1    1    2    0    0 -0.18910313721E+02  0.21435213282E+02 -0.14129826077E+02  0.31886052099E+02  0.00000000000E+00 0. -1.
         11    1    3    3    0    0  0.10728019082E+02  0.28957994763E+01 -0.11085092518E+02  0.15695710383E+02  0.51100000000E-03 0. -1.
        -11    1    3    3    0    0  0.96574500618E+01 -0.26307158792E+02  0.12553762724E+02  0.30707163728E+02  0.51100000000E-03 0.  1.
        -12    1    3    3    0    0 -0.14751554229E+01  0.19761460333E+01  0.12661155871E+02  0.12899073791E+02  0.00000000000E+00 0.  1.
</event>
<event>
 7    1  0.7819001E-012  0.5930224E+02  0.7816164E-02  0.1266604E+00
        -11   -1    0    0    0    0  0.00000000000E+00  0.00000000000E+00  0.45593999997E+02  0.45594000000E+02  0.51100000000E-03 0. -1.
         11   -1    0    0    0    0 -0.00000000000E+00 -0.00000000000E+00 -0.45593999997E+02  0.45594000000E+02  0.51100000000E-03 0.  1.
    9900012    2    1    2    0    0  0.18413010403E+02  0.26031690260E+02 -0.11633195589E+00  0.59302244826E+02  0.50000548581E+02 0.  0.
         12    1    1    2    0    0 -0.18413010403E+02 -0.26031690260E+02  0.11633195589E+00  0.31885755174E+02  0.00000000000E+00 0. -1.
         11    1    3    3    0    0 -0.43269851850E+01  0.79806531393E+00  0.59874396364E+01  0.74302855058E+01  0.51100000000E-03 0. -1.
        -11    1    3    3    0    0  0.89505495555E+01  0.28498914585E+02 -0.16658476546E+02  0.34202416742E+02  0.51100000000E-03 0.  1.
        -12    1    3    3    0    0  0.13789446032E+02 -0.32652896390E+01  0.10554704953E+02  0.17669542579E+02  0.00000000000E+00 0.  1.
</event>
<event>
 7    1  0.7819001E-012  0.5930188E+02  0.7816164E-02  0.1266605E+00
        -11   -1    0    0    0    0  0.00000000000E+00  0.00000000000E+00  0.45593999997E+02  0.45594000000E+02  0.51100000000E-03 0.  1.
         11   -1    0    0    0    0 -0.00000000000E+00 -0.00000000000E+00 -0.45593999997E+02  0.45594000000E+02  0.51100000000E-03 0. -1.
    9900012    2    1    2    0    0 -0.25892440292E+02  0.97836233364E+01  0.15829931088E+02  0.59301882831E+02  0.49999888392E+02 0.  0.
         12    1    1    2    0    0  0.25892440292E+02 -0.97836233364E+01 -0.15829931088E+02  0.31886117169E+02  0.00000000000E+00 0. -1.
         11    1    3    3    0    0 -0.24139605473E+02  0.14589189424E+02 -0.55954636595E+01  0.28755420606E+02  0.51100000000E-03 0. -1.
        -11    1    3    3    0    0  0.68484569711E+01 -0.62546149145E+01  0.19529982390E+02  0.21620402009E+02  0.51100000000E-03 0.  1.
         12    1    3    3    0    0 -0.86012917905E+01  0.14490488269E+01  0.18954123571E+01  0.89260602156E+01  0.00000000000E+00 0. -1.
</event>
<event>
 7    1  0.7819001E-012  0.5930196E+02  0.7816164E-02  0.1266605E+00
        -11   -1    0    0    0    0  0.00000000000E+00  0.00000000000E+00  0.45593999997E+02  0.45594000000E+02  0.51100000000E-03 0.  1.
         11   -1    0    0    0    0 -0.00000000000E+00 -0.00000000000E+00 -0.45593999997E+02  0.45594000000E+02  0.51100000000E-03 0. -1.
    9900012    2    1    2    0    0 -0.12737415214E+02 -0.26934711260E+02  0.11357782672E+02  0.59301958474E+02  0.50000026346E+02 0.  0.
         12    1    1    2    0    0  0.12737415214E+02  0.26934711260E+02 -0.11357782672E+02  0.31886041526E+02  0.00000000000E+00 0. -1.
         11    1    3    3    0    0 -0.15862074757E+02 -0.33762825741E+02  0.17062650540E+02  0.41020334730E+02  0.51100000000E-03 0.  1.
        -11    1    3    3    0    0  0.19475612153E+01  0.10909992697E+02  0.10661002511E+00  0.11082973486E+02  0.51100000000E-03 0. -1.
        -12    1    3    3    0    0  0.11770983279E+01 -0.40818782154E+01 -0.58114778928E+01  0.71986502580E+01  0.00000000000E+00 0.  1.
</event>
<event>
 7    1  0.7819001E-012  0.5930194E+02  0.7816164E-02  0.1266605E+00
        -11   -1    0    0    0    0  0.00000000000E+00  0.00000000000E+00  0.45593999997E+02  0.45594000000E+02  0.51100000000E-03 0. -1.
         11   -1    0    0    0    0 -0.00000000000E+00 -0.00000000000E+00 -0.45593999997E+02  0.45594000000E+02  0.51100000000E-03 0.  1.
    9900012    2    1    2    0    0  0.18810348251E+02  0.21098054136E+02 -0.14756812421E+02  0.59301943448E+02  0.49999998942E+02 0.  0.
         12    1    1    2    0    0 -0.18810348251E+02 -0.21098054136E+02  0.14756812421E+02  0.31886056552E+02  0.00000000000E+00 0. -1.
         11    1    3    3    0    0 -0.15772178317E+02  0.65489729891E+01 -0.72959442195E+01  0.18570984314E+02  0.51100000000E-03 0. -1.
        -11    1    3    3    0    0  0.14737744532E+02  0.13004707010E+02 -0.68574976305E+01  0.20817031304E+02  0.51100000000E-03 0.  1.
         12    1    3    3    0    0  0.19844782037E+02  0.15443741369E+01 -0.60337057069E+00  0.19913927830E+02  0.00000000000E+00 0. -1.
</event>
<event>
 7    1  0.7819001E-012  0.5930194E+02  0.7816164E-02  0.1266605E+00
        -11   -1    0    0    0    0  0.00000000000E+00  0.00000000000E+00  0.45593999997E+02  0.45594000000E+02  0.51100000000E-03 0.  1.
         11   -1    0    0    0    0 -0.00000000000E+00 -0.00000000000E+00 -0.45593999997E+02  0.45594000000E+02  0.51100000000E-03 0. -1.
    9900012    2    1    2    0    0 -0.40127784751E+00  0.27323156741E+02  0.16431819964E+02  0.59301943086E+02  0.49999998282E+02 0.  0.
         12    1    1    2    0    0  0.40127784751E+00 -0.27323156741E+02 -0.16431819964E+02  0.31886056914E+02  0.00000000000E+00 0. -1.
         11    1    3    3    0    0 -0.11908138078E+02  0.15700690773E+02  0.51201308510E+01  0.20360038886E+02  0.51100000000E-03 0. -1.
        -11    1    3    3    0    0  0.20048249717E+02 -0.18840075527E+01  0.11028303433E+02  0.22958773444E+02  0.51100000000E-03 0.  1.
        -12    1    3    3    0    0 -0.85413894865E+01  0.13506473521E+02  0.28338568040E+00  0.15983130756E+02  0.00000000000E+00 0.  1.
</event>
<event>
 7    1  0.7819001E-012  0.5930195E+02  0.7816164E-02  0.1266605E+00
        -11   -1    0    0    0    0  0.00000000000E+00  0.00000000000E+00  0.45593999997E+02  0.45594000000E+02  0.51100000000E-03 0.  1.
         11   -1    0    0    0    0 -0.00000000000E+00 -0.00000000000E+00 -0.45593999997E+02  0.45594000000E+02  0.51100000000E-03 0. -1.
    9900012    2    1    2    0    0 -0.71553047967E+01 -0.27966566914E+02  0.13542276210E+02  0.59301945107E+02  0.50000001969E+02 0.  0.
         12    1    1    2    0    0  0.71553047967E+01  0.27966566914E+02 -0.13542276210E+02  0.31886054893E+02  0.00000000000E+00 0. -1.
         11    1    3    3    0    0  0.70685150488E+01  0.83070474149E+01  0.62983907051E+01  0.12595263692E+02  0.51100000000E-03 0. -1.
        -11    1    3    3    0    0 -0.17110120632E+02 -0.23388989524E+02 -0.41391686973E+01  0.29273431244E+02  0.51100000000E-03 0.  1.
        -12    1    3    3    0    0  0.28863007862E+01 -0.12884624804E+02  0.11383054202E+02  0.17433250171E+02  0.00000000000E+00 0.  1.
</event>
<event>
 7    1  0.7819001E-012  0.5930197E+02  0.7816164E-02  0.1266605E+00
        -11   -1    0    0    0    0  0.00000000000E+00  0.00000000000E+00  0.45593999997E+02  0.45594000000E+02  0.51100000000E-03 0.  1.
         11   -1    0    0    0    0 -0.00000000000E+00 -0.00000000000E+00 -0.45593999997E+02  0.45594000000E+02  0.51100000000E-03 0. -1.
    9900012    2    1    2    0    0 -0.10448563893E+02  0.23672216794E+02  0.18632569760E+02  0.59301968713E+02  0.50000045020E+02 0.  0.
         12    1    1    2    0    0  0.10448563893E+02 -0.23672216794E+02 -0.18632569760E+02  0.31886031287E+02  0.00000000000E+00 0. -1.
         11    1    3    3    0    0 -0.25736450289E+01  0.36809435175E+01 -0.35121751093E+01  0.57016110156E+01  0.51100000000E-03 0. -1.
        -11    1    3    3    0    0  0.15364384991E+02 -0.35089746533E+01  0.73542579017E+01  0.17391444414E+02  0.51100000000E-03 0.  1.
        -12    1    3    3    0    0 -0.23239303855E+02  0.23500247930E+02  0.14790486967E+02  0.36208913283E+02  0.00000000000E+00 0.  1.
</event>
<event>
 7    1  0.7819001E-012  0.5930204E+02  0.7816164E-02  0.1266604E+00
        -11   -1    0    0    0    0  0.00000000000E+00  0.00000000000E+00  0.45593999997E+02  0.45594000000E+02  0.51100000000E-03 0. -1.
         11   -1    0    0    0    0 -0.00000000000E+00 -0.00000000000E+00 -0.45593999997E+02  0.45594000000E+02  0.51100000000E-03 0.  1.
    9900012    2    1    2    0    0 -0.26727312163E+02 -0.10502922843E+02  0.13858353276E+02  0.59302038211E+02  0.50000171768E+02 0.  0.
         12    1    1    2    0    0  0.26727312163E+02  0.10502922843E+02 -0.13858353276E+02  0.31885961789E+02  0.00000000000E+00 0. -1.
         11    1    3    3    0    0  0.12469074803E+02 -0.15374139230E+01 -0.51836712597E+00  0.12574186763E+02  0.51100000000E-03 0. -1.
        -11    1    3    3    0    0 -0.26346556959E+02  0.32961032036E+01  0.10471788394E+02  0.28542314418E+02  0.51100000000E-03 0.  1.
         12    1    3    3    0    0 -0.12849830007E+02 -0.12261612123E+02  0.39049320075E+01  0.18185537030E+02  0.00000000000E+00 0. -1.
</event>
<event>
 7    1  0.7819001E-012  0.5930194E+02  0.7816164E-02  0.1266605E+00
        -11   -1    0    0    0    0  0.00000000000E+00  0.00000000000E+00  0.45593999997E+02  0.45594000000E+02  0.51100000000E-03 0.  1.
         11   -1    0    0    0    0 -0.00000000000E+00 -0.00000000000E+00 -0.45593999997E+02  0.45594000000E+02  0.51100000000E-03 0. -1.
    9900012    2    1    2    0    0  0.88462776918E+01 -0.27066843041E+02  0.14347479470E+02  0.59301940533E+02  0.49999993626E+02 0.  0.
         12    1    1    2    0    0 -0.88462776918E+01  0.27066843041E+02 -0.14347479470E+02  0.31886059467E+02  0.00000000000E+00 0. -1.
         11    1    3    3    0    0  0.15343988081E+02 -0.37109160801E+02  0.68578449061E+01  0.40737670805E+02  0.51100000000E-03 0. -1.
        -11    1    3    3    0    0 -0.10056813829E+01  0.65675898380E+01  0.96496189924E+01  0.11715791833E+02  0.51100000000E-03 0.  1.
         12    1    3    3    0    0 -0.54920290063E+01  0.34747279225E+01 -0.21599844281E+01  0.68484778945E+01  0.00000000000E+00 0. -1.
</event>
<event>
 7    1  0.7819001E-012  0.5930181E+02  0.7816164E-02  0.1266605E+00
        -11   -1    0    0    0    0  0.00000000000E+00  0.00000000000E+00  0.45593999997E+02  0.45594000000E+02  0.51100000000E-03 0. -1.
         11   -1    0    0    0    0 -0.00000000000E+00 -0.00000000000E+00 -0.45593999997E+02  0.45594000000E+02  0.51100000000E-03 0.  1.
    9900012    2    1    2    0    0 -0.16859015116E+02  0.27058624120E+02  0.57780052316E+00  0.59301805756E+02  0.49999747825E+02 0.  0.
         12    1    1    2    0    0  0.16859015116E+02 -0.27058624120E+02 -0.57780052316E+00  0.31886194244E+02  0.00000000000E+00 0. -1.
         11    1    3    3    0    0 -0.16068434251E+02 -0.94449093105E+01 -0.99886307872E+00  0.18665439156E+02  0.51100000000E-03 0. -1.
        -11    1    3    3    0    0 -0.80856103437E+01  0.29082435892E+02  0.16381376956E+01  0.30229929993E+02  0.51100000000E-03 0.  1.
         12    1    3    3    0    0  0.72950294793E+01  0.74210975387E+01 -0.61474093714E-01  0.10406436607E+02  0.00000000000E+00 0. -1.
</event>
<event>
 7    1  0.7819001E-012  0.5930196E+02  0.7816164E-02  0.1266605E+00
        -11   -1    0    0    0    0  0.00000000000E+00  0.00000000000E+00  0.45593999997E+02  0.45594000000E+02  0.51100000000E-03 0.  1.
         11   -1    0    0    0    0 -0.00000000000E+00 -0.00000000000E+00 -0.45593999997E+02  0.45594000000E+02  0.51100000000E-03 0. -1.
    9900012    2    1    2    0    0  0.22503415331E+02  0.46830118745E+01  0.22099446791E+02  0.59301955242E+02  0.50000020453E+02 0.  0.
         12    1    1    2    0    0 -0.22503415331E+02 -0.46830118745E+01 -0.22099446791E+02  0.31886044758E+02  0.00000000000E+00 0. -1.
         11    1    3    3    0    0  0.22285585528E+02 -0.23802966361E+01 -0.60242324980E+01  0.23207854529E+02  0.51100000000E-03 0. -1.
        -11    1    3    3    0    0  0.59911462631E+01  0.95839876656E+01  0.27538117885E+02  0.29767340997E+02  0.51100000000E-03 0.  1.
         12    1    3    3    0    0 -0.57733164596E+01 -0.25206791550E+01  0.58556140407E+00  0.63267597159E+01  0.00000000000E+00 0. -1.
</event>
<event>
 7    1  0.7819001E-012  0.5930194E+02  0.7816164E-02  0.1266605E+00
        -11   -1    0    0    0    0  0.00000000000E+00  0.00000000000E+00  0.45593999997E+02  0.45594000000E+02  0.51100000000E-03 0.  1.
         11   -1    0    0    0    0 -0.00000000000E+00 -0.00000000000E+00 -0.45593999997E+02  0.45594000000E+02  0.51100000000E-03 0. -1.
    9900012    2    1    2    0    0 -0.31504323647E+01 -0.47388910384E+01  0.31374166977E+02  0.59301942454E+02  0.49999997130E+02 0.  0.
         12    1    1    2    0    0  0.31504323647E+01  0.47388910384E+01 -0.31374166977E+02  0.31886057546E+02  0.00000000000E+00 0. -1.
         11    1    3    3    0    0 -0.12531662414E+02  0.17614794948E+02  0.16657756116E+02  0.27291104833E+02  0.51100000000E-03 0.  1.
        -11    1    3    3    0    0  0.10793128271E+02 -0.17713103192E+02  0.16838172986E+02  0.26716468934E+02  0.51100000000E-03 0. -1.
        -12    1    3    3    0    0 -0.14118982211E+01 -0.46405827953E+01 -0.21217621257E+01  0.52943686862E+01  0.00000000000E+00 0.  1.
</event>
<event>
 7    1  0.7819001E-012  0.5930194E+02  0.7816164E-02  0.1266605E+00
        -11   -1    0    0    0    0  0.00000000000E+00  0.00000000000E+00  0.45593999997E+02  0.45594000000E+02  0.51100000000E-03 0.  1.
         11   -1    0    0    0    0 -0.00000000000E+00 -0.00000000000E+00 -0.45593999997E+02  0.45594000000E+02  0.51100000000E-03 0. -1.
    9900012    2    1    2    0    0 -0.21002366009E+02  0.62544414127E+01  0.23162548981E+02  0.59301935792E+02  0.49999984981E+02 0.  0.
         12    1    1    2    0    0  0.21002366009E+02 -0.62544414127E+01 -0.23162548981E+02  0.31886064208E+02  0.00000000000E+00 0. -1.
         11    1    3    3    0    0  0.46699970144E+01  0.13518706278E+02  0.37515512413E+01  0.14786427172E+02  0.51100000000E-03 0. -1.
        -11    1    3    3    0    0 -0.14290004132E+02 -0.86651299626E+01 -0.50845402178E+01  0.17468292557E+02  0.51100000000E-03 0.  1.
        -12    1    3    3    0    0 -0.11382358891E+02  0.14008650977E+01  0.24495537958E+02  0.27047216063E+02  0.00000000000E+00 0.  1.
</event>
<event>
 7    1  0.7819001E-012  0.5930201E+02  0.7816164E-02  0.1266605E+00
        -11   -1    0    0    0    0  0.00000000000E+00  0.00000000000E+00  0.45593999997E+02  0.45594000000E+02  0.51100000000E-03 0.  1.
         11   -1    0    0    0    0 -0.00000000000E+00 -0.00000000000E+00 -0.45593999997E+02  0.45594000000E+02  0.51100000000E-03 0. -1.
    9900012    2    1    2    0    0  0.17901525976E+02 -0.40534564623E+00  0.26383473709E+02  0.59302005860E+02  0.50000112767E+02 0.  0.
         12    1    1    2    0    0 -0.17901525976E+02  0.40534564623E+00 -0.26383473709E+02  0.31885994140E+02  0.00000000000E+00 0. -1.
         11    1    3    3    0    0 -0.77527087751E+01 -0.13739287473E+02  0.12728378945E+02  0.20270277365E+02  0.51100000000E-03 0. -1.
        -11    1    3    3    0    0  0.28849059733E+02  0.15259615832E+02  0.10951408689E+02  0.34424663765E+02  0.51100000000E-03 0.  1.
         12    1    3    3    0    0 -0.31948249817E+01 -0.19256740051E+01  0.27036860742E+01  0.46070647299E+01  0.00000000000E+00 0. -1.
</event>
<event>
 7    1  0.7819001E-012  0.5930195E+02  0.7816164E-02  0.1266605E+00
        -11   -1    0    0    0    0  0.00000000000E+00  0.00000000000E+00  0.45593999997E+02  0.45594000000E+02  0.51100000000E-03 0. -1.
         11   -1    0    0    0    0 -0.00000000000E+00 -0.00000000000E+00 -0.45593999997E+02  0.45594000000E+02  0.51100000000E-03 0.  1.
    9900012    2    1    2    0    0  0.17356004186E+02 -0.11465643696E+02 -0.24166673010E+02  0.59301953662E+02  0.50000017571E+02 0.  0.
         12    1    1    2    0    0 -0.17356004186E+02  0.11465643696E+02  0.24166673010E+02  0.31886046338E+02  0.00000000000E+00 0. -1.
         11    1    3    3    0    0 -0.26797220126E+01  0.50778876355E+01  0.80340651057E+01  0.98748192534E+01  0.51100000000E-03 0. -1.
        -11    1    3    3    0    0  0.97632225888E+01 -0.17678338662E+02 -0.33391738067E+02  0.39023740781E+02  0.51100000000E-03 0.  1.
        -12    1    3    3    0    0  0.10272503610E+02  0.11348073296E+01  0.11909999517E+01  0.10403393628E+02  0.00000000000E+00 0.  1.
</event>
<event>
 7    1  0.7819001E-012  0.5930201E+02  0.7816164E-02  0.1266605E+00
        -11   -1    0    0    0    0  0.00000000000E+00  0.00000000000E+00  0.45593999997E+02  0.45594000000E+02  0.51100000000E-03 0. -1.
         11   -1    0    0    0    0 -0.00000000000E+00 -0.00000000000E+00 -0.45593999997E+02  0.45594000000E+02  0.51100000000E-03 0.  1.
    9900012    2    1    2    0    0 -0.17296960153E+02  0.15350903366E+02 -0.21951796473E+02  0.59302008827E+02  0.50000118179E+02 0.  0.
         12    1    1    2    0    0  0.17296960153E+02 -0.15350903366E+02  0.21951796473E+02  0.31885991173E+02  0.00000000000E+00 0. -1.
         11    1    3    3    0    0 -0.57083319697E+01  0.14320504431E+02  0.44374865653E+01  0.16042231401E+02  0.51100000000E-03 0. -1.
        -11    1    3    3    0    0 -0.11720388478E+02  0.20877713771E+01 -0.33767707698E+02  0.35804809437E+02  0.51100000000E-03 0.  1.
        -12    1    3    3    0    0  0.13176029469E+00 -0.10573724423E+01  0.73784246598E+01  0.74549679891E+01  0.00000000000E+00 0.  1.
</event>
<event>
 7    1  0.7819001E-012  0.5930187E+02  0.7816164E-02  0.1266605E+00
        -11   -1    0    0    0    0  0.00000000000E+00  0.00000000000E+00  0.45593999997E+02  0.45594000000E+02  0.51100000000E-03 0.  1.
         11   -1    0    0    0    0 -0.00000000000E+00 -0.00000000000E+00 -0.45593999997E+02  0.45594000000E+02  0.51100000000E-03 0. -1.
    9900012    2    1    2    0    0  0.10998638907E+02 -0.26030887302E+02  0.14769846106E+02  0.59301866564E+02  0.49999858724E+02 0.  0.
         12    1    1    2    0    0 -0.10998638907E+02  0.26030887302E+02 -0.14769846106E+02  0.31886133436E+02  0.00000000000E+00 0. -1.
         11    1    3    3    0    0  0.22418580877E+02 -0.22078124310E+02  0.12314530834E+02  0.33788814888E+02  0.51100000000E-03 0. -1.
        -11    1    3    3    0    0 -0.11425575488E+02 -0.62383748211E+01  0.10766601720E+02  0.16893217826E+02  0.51100000000E-03 0.  1.
         12    1    3    3    0    0  0.56335180849E-02  0.22856118290E+01 -0.83112864487E+01  0.86198338500E+01  0.00000000000E+00 0. -1.
</event>
<event>
 7    1  0.7819001E-012  0.5930199E+02  0.7816164E-02  0.1266605E+00
        -11   -1    0    0    0    0  0.00000000000E+00  0.00000000000E+00  0.45593999997E+02  0.45594000000E+02  0.51100000000E-03 0.  1.
         11   -1    0    0    0    0 -0.00000000000E+00 -0.00000000000E+00 -0.45593999997E+02  0.45594000000E+02  0.51100000000E-03 0. -1.
    9900012    2    1    2    0    0  0.72797600626E+01  0.13785385422E+02  0.27815204633E+02  0.59301994189E+02  0.50000091483E+02 0.  0.
         12    1    1    2    0    0 -0.72797600626E+01 -0.13785385422E+02 -0.27815204633E+02  0.31886005811E+02  0.00000000000E+00 0. -1.
         11    1    3    3    0    0 -0.82753348732E+01 -0.33004463455E+01  0.21978944922E+02  0.23715988984E+02  0.51100000000E-03 0. -1.
        -11    1    3    3    0    0  0.13555668450E+02  0.20129119374E+02  0.13014123658E+02  0.27537338447E+02  0.51100000000E-03 0.  1.
         12    1    3    3    0    0  0.19994264860E+01 -0.30432876068E+01 -0.71778639479E+01  0.80486667582E+01  0.00000000000E+00 0. -1.
</event>
<event>
 7    1  0.7819001E-012  0.5930192E+02  0.7816164E-02  0.1266605E+00
        -11   -1    0    0    0    0  0.00000000000E+00  0.00000000000E+00  0.45593999997E+02  0.45594000000E+02  0.51100000000E-03 0.  1.
         11   -1    0    0    0    0 -0.00000000000E+00 -0.00000000000E+00 -0.45593999997E+02  0.45594000000E+02  0.51100000000E-03 0. -1.
    9900012    2    1    2    0    0 -0.24042393171E+02  0.98773696769E+01  0.18469511360E+02  0.59301922301E+02  0.49999960376E+02 0.  0.
         12    1    1    2    0    0  0.24042393171E+02 -0.98773696769E+01 -0.18469511360E+02  0.31886077699E+02  0.00000000000E+00 0. -1.
         11    1    3    3    0    0 -0.21015278930E+02  0.20524588587E+02 -0.11547268052E+01  0.29397858416E+02  0.51100000000E-03 0. -1.
        -11    1    3    3    0    0 -0.97583285371E+01 -0.68103669583E+01  0.18610971587E+02  0.22090141186E+02  0.51100000000E-03 0.  1.
         12    1    3    3    0    0  0.67312142962E+01 -0.38368519515E+01  0.10132665785E+01  0.78139226998E+01  0.00000000000E+00 0. -1.
</event>
<event>
 7    1  0.7819001E-012  0.5930193E+02  0.7816164E-02  0.1266605E+00
        -11   -1    0    0    0    0  0.00000000000E+00  0.00000000000E+00  0.45593999997E+02  0.45594000000E+02  0.51100000000E-03 0.  1.
         11   -1    0    0    0    0 -0.00000000000E+00 -0.00000000000E+00 -0.45593999997E+02  0.45594000000E+02  0.51100000000E-03 0. -1.
    9900012    2    1    2    0    0 -0.55893803093E+01  0.30447930515E+02 -0.76422265512E+01  0.59301932956E+02  0.49999979807E+02 0.  0.
         12    1    1    2    0    0  0.55893803093E+01 -0.30447930515E+02  0.76422265512E+01  0.31886067044E+02  0.00000000000E+00 0. -1.
         11    1    3    3    0    0 -0.74677753425E+01 -0.77327695181E+01 -0.10723576520E+02  0.15184152483E+02  0.51100000000E-03 0. -1.
        -11    1    3    3    0    0 -0.51893786261E+00  0.13215573608E+02 -0.92802477816E+01  0.16156846272E+02  0.51100000000E-03 0.  1.
         12    1    3    3    0    0  0.23973328958E+01  0.24965126425E+02  0.12361597751E+02  0.27960934201E+02  0.00000000000E+00 0. -1.
</event>
<event>
 7    1  0.7819001E-012  0.5930193E+02  0.7816164E-02  0.1266605E+00
        -11   -1    0    0    0    0  0.00000000000E+00  0.00000000000E+00  0.45593999997E+02  0.45594000000E+02  0.51100000000E-03 0. -1.
         11   -1    0    0    0    0 -0.00000000000E+00 -0.00000000000E+00 -0.45593999997E+02  0.45594000000E+02  0.51100000000E-03 0.  1.
    9900012    2    1    2    0    0 -0.26422801245E+02 -0.14742032540E+02 -0.10061290475E+02  0.59301929137E+02  0.49999972843E+02 0.  0.
         12    1    1    2    0    0  0.26422801245E+02  0.14742032540E+02  0.10061290475E+02  0.31886070863E+02  0.00000000000E+00 0. -1.
         11    1    3    3    0    0 -0.14220319295E+02  0.14296368358E+02  0.69429214224E+01  0.21326222995E+02  0.51100000000E-03 0. -1.
        -11    1    3    3    0    0 -0.87134843117E+01 -0.61906616039E+01 -0.37207317813E+01  0.11317815390E+02  0.51100000000E-03 0.  1.
         12    1    3    3    0    0 -0.34889976386E+01 -0.22847739294E+02 -0.13283480116E+02  0.26657890753E+02  0.00000000000E+00 0. -1.
</event>
<event>
 7    1  0.7819001E-012  0.5930192E+02  0.7816164E-02  0.1266605E+00
        -11   -1    0    0    0    0  0.00000000000E+00  0.00000000000E+00  0.45593999997E+02  0.45594000000E+02  0.51100000000E-03 0. -1.
         11   -1    0    0    0    0 -0.00000000000E+00 -0.00000000000E+00 -0.45593999997E+02  0.45594000000E+02  0.51100000000E-03 0.  1.
    9900012    2    1    2    0    0  0.20335737187E+02  0.97605574226E+01 -0.22536893544E+02  0.59301917475E+02  0.49999951575E+02 0.  0.
         12    1    1    2    0    0 -0.20335737187E+02 -0.97605574226E+01  0.22536893544E+02  0.31886082525E+02  0.00000000000E+00 0. -1.
         11    1    3    3    0    0 -0.85041549713E+01  0.31424395968E+01  0.19706390190E+01  0.92778767398E+01  0.51100000000E-03 0. -1.
        -11    1    3    3    0    0  0.31072246531E+02  0.77578068026E+01 -0.75785592880E+01  0.32910524639E+02  0.51100000000E-03 0.  1.
        -12    1    3    3    0    0 -0.22323543734E+01 -0.11396889768E+01 -0.16928973276E+02  0.17113516096E+02  0.00000000000E+00 0.  1.
</event>
<event>
 7    1  0.7819001E-012  0.5930193E+02  0.7816164E-02  0.1266605E+00
        -11   -1    0    0    0    0  0.00000000000E+00  0.00000000000E+00  0.45593999997E+02  0.45594000000E+02  0.51100000000E-03 0.  1.
         11   -1    0    0    0    0 -0.00000000000E+00 -0.00000000000E+00 -0.45593999997E+02  0.45594000000E+02  0.51100000000E-03 0. -1.
    9900012    2    1    2    0    0  0.26490955157E+01  0.28100754733E+02  0.14834129648E+02  0.59301928965E+02  0.49999972530E+02 0.  0.
         12    1    1    2    0    0 -0.26490955157E+01 -0.28100754733E+02 -0.14834129648E+02  0.31886071035E+02  0.00000000000E+00 0. -1.
         11    1    3    3    0    0 -0.60541215653E+00  0.89369590822E+01 -0.51073114766E+00  0.89719901963E+01  0.51100000000E-03 0. -1.
        -11    1    3    3    0    0 -0.17734388248E+02 -0.64785643065E+00  0.11658317928E+02  0.21233102026E+02  0.51100000000E-03 0.  1.
        -12    1    3    3    0    0  0.20988895920E+02  0.19811652082E+02  0.36865428675E+01  0.29096836743E+02  0.00000000000E+00 0.  1.
</event>
<event>
 7    1  0.7819001E-012  0.5930198E+02  0.7816164E-02  0.1266605E+00
        -11   -1    0    0    0    0  0.00000000000E+00  0.00000000000E+00  0.45593999997E+02  0.45594000000E+02  0.51100000000E-03 0.  1.
         11   -1    0    0    0    0 -0.00000000000E+00 -0.00000000000E+00 -0.45593999997E+02  0.45594000000E+02  0.51100000000E-03 0. -1.
    9900012    2    1    2    0    0 -0.79989815391E+01 -0.12452172910E+02  0.28243196352E+02  0.59301977105E+02  0.50000060325E+02 0.  0.
         12    1    1    2    0    0  0.79989815391E+01  0.12452172910E+02 -0.28243196352E+02  0.31886022895E+02  0.00000000000E+00 0. -1.
         11    1    3    3    0    0 -0.17807508799E+02 -0.87928939784E+01  0.40032442566E+01  0.20259524155E+02  0.51100000000E-03 0.  1.
        -11    1    3    3    0    0  0.19193657729E+02 -0.70410635925E+01  0.18259352220E+02  0.27411257127E+02  0.51100000000E-03 0. -1.
         12    1    3    3    0    0 -0.93851304684E+01  0.33817846607E+01  0.59805998756E+01  0.11631195823E+02  0.00000000000E+00 0. -1.
</event>
<event>
 7    1  0.7819001E-012  0.5930195E+02  0.7816164E-02  0.1266605E+00
        -11   -1    0    0    0    0  0.00000000000E+00  0.00000000000E+00  0.45593999997E+02  0.45594000000E+02  0.51100000000E-03 0. -1.
         11   -1    0    0    0    0 -0.00000000000E+00 -0.00000000000E+00 -0.45593999997E+02  0.45594000000E+02  0.51100000000E-03 0.  1.
    9900012    2    1    2    0    0  0.26181073858E+02 -0.59705908775E+01  0.17193708685E+02  0.59301949725E+02  0.50000010391E+02 0.  0.
         12    1    1    2    0    0 -0.26181073858E+02  0.59705908775E+01 -0.17193708685E+02  0.31886050275E+02  0.00000000000E+00 0. -1.
         11    1    3    3    0    0 -0.21307175745E+01  0.32607263047E+01  0.15116492999E+02  0.15610273997E+02  0.51100000000E-03 0. -1.
        -11    1    3    3    0    0  0.31051906337E+02 -0.17002563697E+02  0.16906933041E+01  0.35442439301E+02  0.51100000000E-03 0.  1.
        -12    1    3    3    0    0 -0.27401149052E+01  0.77712465148E+01  0.38652238233E+00  0.82492364277E+01  0.00000000000E+00 0.  1.
</event>
<event>
 7    1  0.7819001E-012  0.5930194E+02  0.7816164E-02  0.1266605E+00
        -11   -1    0    0    0    0  0.00000000000E+00  0.00000000000E+00  0.45593999997E+02  0.45594000000E+02  0.51100000000E-03 0. -1.
         11   -1    0    0    0    0 -0.00000000000E+00 -0.00000000000E+00 -0.45593999997E+02  0.45594000000E+02  0.51100000000E-03 0.  1.
    9900012    2    1    2    0    0  0.13164442405E+02 -0.24415977482E+02 -0.15725094128E+02  0.59301935872E+02  0.49999985126E+02 0.  0.
         12    1    1    2    0    0 -0.13164442405E+02  0.24415977482E+02  0.15725094128E+02  0.31886064128E+02  0.00000000000E+00 0. -1.
         11    1    3    3    0    0 -0.13126794890E+02 -0.52356944001E+01  0.65287150087E+01  0.15567573988E+02  0.51100000000E-03 0. -1.
        -11    1    3    3    0    0  0.14676974354E+02 -0.60615894702E+01 -0.61488780683E+00  0.15891335072E+02  0.51100000000E-03 0.  1.
        -12    1    3    3    0    0  0.11614262941E+02 -0.13118693612E+02 -0.21638921330E+02  0.27843026812E+02  0.00000000000E+00 0.  1.
</event>
<event>
 7    1  0.7819001E-012  0.5930192E+02  0.7816164E-02  0.1266605E+00
        -11   -1    0    0    0    0  0.00000000000E+00  0.00000000000E+00  0.45593999997E+02  0.45594000000E+02  0.51100000000E-03 0.  1.
         11   -1    0    0    0    0 -0.00000000000E+00 -0.00000000000E+00 -0.45593999997E+02  0.45594000000E+02  0.51100000000E-03 0. -1.
    9900012    2    1    2    0    0  0.20436188415E+02  0.78047547780E+01  0.23198489763E+02  0.59301922767E+02  0.49999961225E+02 0.  0.
         12    1    1    2    0    0 -0.20436188415E+02 -0.78047547780E+01 -0.23198489763E+02  0.31886077233E+02  0.00000000000E+00 0. -1.
         11    1    3    3    0    0  0.25080065116E+02  0.77212693473E+00  0.95206332355E+01  0.26837442197E+02  0.51100000000E-03 0. -1.
        -11    1    3    3    0    0 -0.37082224726E+01  0.46722071446E+00  0.21720812978E+02  0.22040030077E+02  0.51100000000E-03 0.  1.
        -12    1    3    3    0    0 -0.93565422853E+00  0.65654071288E+01 -0.80429564509E+01  0.10424450493E+02  0.00000000000E+00 0.  1.
</event>
<event>
 7    1  0.7819001E-012  0.5930194E+02  0.7816164E-02  0.1266605E+00
        -11   -1    0    0    0    0  0.00000000000E+00  0.00000000000E+00  0.45593999997E+02  0.45594000000E+02  0.51100000000E-03 0. -1.
         11   -1    0    0    0    0 -0.00000000000E+00 -0.00000000000E+00 -0.45593999997E+02  0.45594000000E+02  0.51100000000E-03 0.  1.
    9900012    2    1    2    0    0 -0.63730534148E+01 -0.11969119802E+02 -0.28859055697E+02  0.59301941379E+02  0.49999995169E+02 0.  0.
         12    1    1    2    0    0  0.63730534148E+01  0.11969119802E+02  0.28859055697E+02  0.31886058621E+02  0.00000000000E+00 0. -1.
         11    1    3    3    0    0  0.19114348517E+02 -0.12978171364E+02 -0.16023677821E+02  0.28116712154E+02  0.51100000000E-03 0. -1.
        -11    1    3    3    0    0 -0.90774000410E+01  0.59355749425E+01 -0.76913508190E+01  0.13296131734E+02  0.51100000000E-03 0.  1.
         12    1    3    3    0    0 -0.16410001891E+02 -0.49265233801E+01 -0.51440270575E+01  0.17889097491E+02  0.00000000000E+00 0. -1.
</event>
<event>
 7    1  0.7819001E-012  0.5930193E+02  0.7816164E-02  0.1266605E+00
        -11   -1    0    0    0    0  0.00000000000E+00  0.00000000000E+00  0.45593999997E+02  0.45594000000E+02  0.51100000000E-03 0. -1.
         11   -1    0    0    0    0 -0.00000000000E+00 -0.00000000000E+00 -0.45593999997E+02  0.45594000000E+02  0.51100000000E-03 0.  1.
    9900012    2    1    2    0    0  0.10491576603E+02 -0.43087683209E+01 -0.29800717617E+02  0.59301930399E+02  0.49999975145E+02 0.  0.
         12    1    1    2    0    0 -0.10491576603E+02  0.43087683209E+01  0.29800717617E+02  0.31886069601E+02  0.00000000000E+00 0. -1.
         11    1    3    3    0    0  0.22895380281E+02 -0.59656845713E+01 -0.82033509467E+01  0.25041621306E+02  0.51100000000E-03 0. -1.
        -11    1    3    3    0    0  0.16073061840E+01  0.60719057586E+01 -0.18100891808E+02  0.19159690948E+02  0.51100000000E-03 0.  1.
         12    1    3    3    0    0 -0.14011109862E+02 -0.44149895082E+01 -0.34964748624E+01  0.15100618146E+02  0.00000000000E+00 0. -1.
</event>
<event>
 7    1  0.7819001E-012  0.5930199E+02  0.7816164E-02  0.1266605E+00
        -11   -1    0    0    0    0  0.00000000000E+00  0.00000000000E+00  0.45593999997E+02  0.45594000000E+02  0.51100000000E-03 0.  1.
         11   -1    0    0    0    0 -0.00000000000E+00 -0.00000000000E+00 -0.45593999997E+02  0.45594000000E+02  0.51100000000E-03 0. -1.
    9900012    2    1    2    0    0  0.15369027088E+02  0.62705042932E+01  0.27224829721E+02  0.59301990982E+02  0.50000085634E+02 0.  0.
         12    1    1    2    0    0 -0.15369027088E+02 -0.62705042932E+01 -0.27224829721E+02  0.31886009018E+02  0.00000000000E+00 0. -1.
         11    1    3    3    0    0  0.28129420338E+01 -0.18728419213E+02  0.14914079790E+02  0.24105935065E+02  0.51100000000E-03 0. -1.
        -11    1    3    3    0    0  0.14505408656E+02  0.19734784121E+02  0.15257808805E+02  0.28856010021E+02  0.51100000000E-03 0.  1.
         12    1    3    3    0    0 -0.19493236018E+01  0.52641393849E+01 -0.29470588732E+01  0.63400458966E+01  0.00000000000E+00 0. -1.
</event>
<event>
 7    1  0.7819001E-012  0.5930194E+02  0.7816164E-02  0.1266605E+00
        -11   -1    0    0    0    0  0.00000000000E+00  0.00000000000E+00  0.45593999997E+02  0.45594000000E+02  0.51100000000E-03 0.  1.
         11   -1    0    0    0    0 -0.00000000000E+00 -0.00000000000E+00 -0.45593999997E+02  0.45594000000E+02  0.51100000000E-03 0. -1.
    9900012    2    1    2    0    0 -0.57726576892E+01  0.59811542176E+01  0.30783481899E+02  0.59301944421E+02  0.50000000717E+02 0.  0.
         12    1    1    2    0    0  0.57726576892E+01 -0.59811542176E+01 -0.30783481899E+02  0.31886055579E+02  0.00000000000E+00 0. -1.
         11    1    3    3    0    0 -0.68538357669E+01 -0.15097041876E+02  0.24915407416E+01  0.16766141884E+02  0.51100000000E-03 0. -1.
        -11    1    3    3    0    0 -0.39465564200E+00  0.11731959569E+02 -0.97336147975E+00  0.11778882002E+02  0.51100000000E-03 0.  1.
         12    1    3    3    0    0  0.14758337197E+01  0.93462365252E+01  0.29265302637E+02  0.30756920535E+02  0.00000000000E+00 0. -1.
</event>
<event>
 7    1  0.7819001E-012  0.5930193E+02  0.7816164E-02  0.1266605E+00
        -11   -1    0    0    0    0  0.00000000000E+00  0.00000000000E+00  0.45593999997E+02  0.45594000000E+02  0.51100000000E-03 0.  1.
         11   -1    0    0    0    0 -0.00000000000E+00 -0.00000000000E+00 -0.45593999997E+02  0.45594000000E+02  0.51100000000E-03 0. -1.
    9900012    2    1    2    0    0  0.30513127936E+02 -0.68516963836E+01  0.62229349691E+01  0.59301927187E+02  0.49999969287E+02 0.  0.
         12    1    1    2    0    0 -0.30513127936E+02  0.68516963836E+01 -0.62229349691E+01  0.31886072813E+02  0.00000000000E+00 0. -1.
         11    1    3    3    0    0  0.31618115833E+02 -0.11879271162E+02  0.36205923306E+01  0.33969560216E+02  0.51100000000E-03 0. -1.
        -11    1    3    3    0    0 -0.92984393970E+01  0.10764058322E+01 -0.73115489880E+01  0.11877641753E+02  0.51100000000E-03 0.  1.
         12    1    3    3    0    0  0.81934515008E+01  0.39511689465E+01  0.99138916265E+01  0.13454725219E+02  0.00000000000E+00 0. -1.
</event>
<event>
 7    1  0.7819001E-012  0.5930194E+02  0.7816164E-02  0.1266605E+00
        -11   -1    0    0    0    0  0.00000000000E+00  0.00000000000E+00  0.45593999997E+02  0.45594000000E+02  0.51100000000E-03 0. -1.
         11   -1    0    0    0    0 -0.00000000000E+00 -0.00000000000E+00 -0.45593999997E+02  0.45594000000E+02  0.51100000000E-03 0.  1.
    9900012    2    1    2    0    0 -0.16398013932E+02  0.25283891501E+02 -0.10418774026E+02  0.59301939055E+02  0.49999990931E+02 0.  0.
         12    1    1    2    0    0  0.16398013932E+02 -0.25283891501E+02  0.10418774026E+02  0.31886060945E+02  0.00000000000E+00 0. -1.
         11    1    3    3    0    0  0.12607006129E+02  0.24137108017E+01 -0.29501891574E+01  0.13170657527E+02  0.51100000000E-03 0. -1.
        -11    1    3    3    0    0 -0.19494098749E+02  0.10988883701E+02 -0.17062293830E+02  0.28140670248E+02  0.51100000000E-03 0.  1.
        -12    1    3    3    0    0 -0.95109213122E+01  0.11881296999E+02  0.95937089613E+01  0.17990611279E+02  0.00000000000E+00 0.  1.
</event>
<event>
 7    1  0.7819001E-012  0.5930196E+02  0.7816164E-02  0.1266605E+00
        -11   -1    0    0    0    0  0.00000000000E+00  0.00000000000E+00  0.45593999997E+02  0.45594000000E+02  0.51100000000E-03 0.  1.
         11   -1    0    0    0    0 -0.00000000000E+00 -0.00000000000E+00 -0.45593999997E+02  0.45594000000E+02  0.51100000000E-03 0. -1.
    9900012    2    1    2    0    0  0.45061237224E+01 -0.14859550315E+02  0.27849746482E+02  0.59301956569E+02  0.50000022872E+02 0.  0.
         12    1    1    2    0    0 -0.45061237224E+01  0.14859550315E+02 -0.27849746482E+02  0.31886043431E+02  0.00000000000E+00 0. -1.
         11    1    3    3    0    0  0.59131724305E+01 -0.25731869666E+02  0.33539779387E+01  0.26614730751E+02  0.51100000000E-03 0. -1.
        -11    1    3    3    0    0 -0.52920813236E+01  0.80824618025E+01  0.25948446016E+02  0.27688520445E+02  0.51100000000E-03 0.  1.
        -12    1    3    3    0    0  0.38850326155E+01  0.27898575479E+01 -0.14526774723E+01  0.49987053724E+01  0.00000000000E+00 0.  1.
</event>
<event>
 7    1  0.7819001E-012  0.5930193E+02  0.7816164E-02  0.1266605E+00
        -11   -1    0    0    0    0  0.00000000000E+00  0.00000000000E+00  0.45593999997E+02  0.45594000000E+02  0.51100000000E-03 0. -1.
         11   -1    0    0    0    0 -0.00000000000E+00 -0.00000000000E+00 -0.45593999997E+02  0.45594000000E+02  0.51100000000E-03 0.  1.
    9900012    2    1    2    0    0  0.13585628190E+02  0.28376504331E+02 -0.51890363607E+01  0.59301931103E+02  0.49999976427E+02 0.  0.
         12    1    1    2    0    0 -0.13585628190E+02 -0.28376504331E+02  0.51890363607E+01  0.31886068897E+02  0.00000000000E+00 0. -1.
         11    1    3    3    0    0  0.21483881369E+02  0.11710454983E+02  0.64646581671E+01  0.25307779833E+02  0.51100000000E-03 0. -1.
        -11    1    3    3    0    0 -0.88879130519E+01 -0.50080283151E+01 -0.29809468260E+01  0.10628329608E+02  0.51100000000E-03 0.  1.
         12    1    3    3    0    0  0.98965987302E+00  0.21674077663E+02 -0.86727477018E+01  0.23365821662E+02  0.00000000000E+00 0. -1.
</event>
<event>
 7    1  0.7819001E-012  0.5930194E+02  0.7816164E-02  0.1266605E+00
        -11   -1    0    0    0    0  0.00000000000E+00  0.00000000000E+00  0.45593999997E+02  0.45594000000E+02  0.51100000000E-03 0.  1.
         11   -1    0    0    0    0 -0.00000000000E+00 -0.00000000000E+00 -0.45593999997E+02  0.45594000000E+02  0.51100000000E-03 0. -1.
    9900012    2    1    2    0    0 -0.20714424569E+02 -0.22539608935E+02  0.89218396058E+01  0.59301943829E+02  0.49999999638E+02 0.  0.
         12    1    1    2    0    0  0.20714424569E+02  0.22539608935E+02 -0.89218396058E+01  0.31886056171E+02  0.00000000000E+00 0. -1.
         11    1    3    3    0    0 -0.23338685512E+02 -0.76361726737E+01 -0.42278446672E+01  0.24917464665E+02  0.51100000000E-03 0.  1.
        -11    1    3    3    0    0 -0.73161847811E+01 -0.10689045986E+02  0.18301374267E+02  0.22421475512E+02  0.51100000000E-03 0. -1.
         12    1    3    3    0    0  0.99404457241E+01 -0.42143902751E+01 -0.51516899936E+01  0.11963003652E+02  0.00000000000E+00 0. -1.
</event>
<event>
 7    1  0.9558056E-012  0.5930194E+02  0.7816164E-02  0.1266605E+00
        -11   -1    0    0    0    0  0.00000000000E+00  0.00000000000E+00  0.45593999997E+02  0.45594000000E+02  0.51100000000E-03 0. -1.
         11   -1    0    0    0    0 -0.00000000000E+00 -0.00000000000E+00 -0.45593999997E+02  0.45594000000E+02  0.51100000000E-03 0.  1.
    9900012    2    1    2    0    0  0.26000535617E+02 -0.50255517440E+01 -0.17760532720E+02  0.59301944345E+02  0.50000000579E+02 0.  0.
         12    1    1    2    0    0 -0.26000535617E+02  0.50255517440E+01  0.17760532720E+02  0.31886055655E+02  0.00000000000E+00 0. -1.
         11    1    3    3    0    0  0.90555626040E+01 -0.11948066212E+02  0.88801457319E+01  0.17424594364E+02  0.51100000000E-03 0. -1.
        -11    1    3    3    0    0  0.13803337350E+02  0.14898162543E+02 -0.89000185912E+01  0.22174257606E+02  0.51100000000E-03 0.  1.
        -12    1    3    3    0    0  0.31416356629E+01 -0.79756480758E+01 -0.17740659861E+02  0.19703092376E+02  0.00000000000E+00 0.  1.
</event>
<event>
 7    1  0.7819001E-012  0.5930197E+02  0.7816164E-02  0.1266605E+00
        -11   -1    0    0    0    0  0.00000000000E+00  0.00000000000E+00  0.45593999997E+02  0.45594000000E+02  0.51100000000E-03 0.  1.
         11   -1    0    0    0    0 -0.00000000000E+00 -0.00000000000E+00 -0.45593999997E+02  0.45594000000E+02  0.51100000000E-03 0. -1.
    9900012    2    1    2    0    0  0.96428814729E+01  0.23546848700E+02  0.19216654248E+02  0.59301967834E+02  0.50000043417E+02 0.  0.
         12    1    1    2    0    0 -0.96428814729E+01 -0.23546848700E+02 -0.19216654248E+02  0.31886032166E+02  0.00000000000E+00 0. -1.
         11    1    3    3    0    0 -0.10770995134E+02  0.54910516174E+01  0.23170460314E+02  0.26134961555E+02  0.51100000000E-03 0. -1.
        -11    1    3    3    0    0  0.12672983357E+02  0.16992516473E+02  0.44841345554E+01  0.21666969937E+02  0.51100000000E-03 0.  1.
         12    1    3    3    0    0  0.77408932500E+01  0.10632806094E+01 -0.84379406212E+01  0.11500036343E+02  0.00000000000E+00 0. -1.
</event>
<event>
 7    1  0.7819001E-012  0.5930194E+02  0.7816164E-02  0.1266605E+00
        -11   -1    0    0    0    0  0.00000000000E+00  0.00000000000E+00  0.45593999997E+02  0.45594000000E+02  0.51100000000E-03 0.  1.
         11   -1    0    0    0    0 -0.00000000000E+00 -0.00000000000E+00 -0.45593999997E+02  0.45594000000E+02  0.51100000000E-03 0. -1.
    9900012    2    1    2    0    0 -0.13802110251E+02  0.23241974689E+02  0.16912510715E+02  0.59301942647E+02  0.49999997482E+02 0.  0.
         12    1    1    2    0    0  0.13802110251E+02 -0.23241974689E+02 -0.16912510715E+02  0.31886057353E+02  0.00000000000E+00 0. -1.
         11    1    3    3    0    0  0.66080625693E+01  0.14880950904E+02 -0.26976663773E+01  0.16504138719E+02  0.51100000000E-03 0. -1.
        -11    1    3    3    0    0 -0.17339210621E+02  0.35570765760E+01  0.27717038490E+02  0.32886703113E+02  0.51100000000E-03 0.  1.
         12    1    3    3    0    0 -0.30709622000E+01  0.48039472095E+01 -0.81068613982E+01  0.99111008145E+01  0.00000000000E+00 0. -1.
</event>
<event>
 7    1  0.7819001E-012  0.5930195E+02  0.7816164E-02  0.1266605E+00
        -11   -1    0    0    0    0  0.00000000000E+00  0.00000000000E+00  0.45593999997E+02  0.45594000000E+02  0.51100000000E-03 0. -1.
         11   -1    0    0    0    0 -0.00000000000E+00 -0.00000000000E+00 -0.45593999997E+02  0.45594000000E+02  0.51100000000E-03 0.  1.
    9900012    2    1    2    0    0 -0.21749125517E+02 -0.11059519514E+02 -0.20527611054E+02  0.59301949002E+02  0.50000009072E+02 0.  0.
         12    1    1    2    0    0  0.21749125517E+02  0.11059519514E+02  0.20527611054E+02  0.31886050998E+02  0.00000000000E+00 0. -1.
         11    1    3    3    0    0 -0.13254172038E+02 -0.18783033078E+02  0.82079429822E+01  0.24409951582E+02  0.51100000000E-03 0. -1.
        -11    1    3    3    0    0 -0.10880926920E+02  0.21238765581E+01 -0.25908430573E+02  0.28180706118E+02  0.51100000000E-03 0.  1.
         12    1    3    3    0    0  0.23859734405E+01  0.55996370058E+01 -0.28271234631E+01  0.67112913013E+01  0.00000000000E+00 0. -1.
</event>
<event>
 7    1  0.7819001E-012  0.5930195E+02  0.7816164E-02  0.1266605E+00
        -11   -1    0    0    0    0  0.00000000000E+00  0.00000000000E+00  0.45593999997E+02  0.45594000000E+02  0.51100000000E-03 0.  1.
         11   -1    0    0    0    0 -0.00000000000E+00 -0.00000000000E+00 -0.45593999997E+02  0.45594000000E+02  0.51100000000E-03 0. -1.
    9900012    2    1    2    0    0 -0.10334110303E+02  0.26562427041E+02  0.14295595659E+02  0.59301946288E+02  0.50000004122E+02 0.  0.
         12    1    1    2    0    0  0.10334110303E+02 -0.26562427041E+02 -0.14295595659E+02  0.31886053712E+02  0.00000000000E+00 0. -1.
         11    1    3    3    0    0  0.10511880437E+02 -0.36587997779E+01  0.48814780203E+01  0.12153817263E+02  0.51100000000E-03 0. -1.
        -11    1    3    3    0    0 -0.23107382440E+02  0.96550637138E+01  0.84683003416E+01  0.26436404624E+02  0.51100000000E-03 0.  1.
         12    1    3    3    0    0  0.22613916989E+01  0.20566163105E+02  0.94581729721E+00  0.20711724400E+02  0.00000000000E+00 0. -1.
</event>
<event>
 7    1  0.7819001E-012  0.5930179E+02  0.7816164E-02  0.1266605E+00
        -11   -1    0    0    0    0  0.00000000000E+00  0.00000000000E+00  0.45593999997E+02  0.45594000000E+02  0.51100000000E-03 0.  1.
         11   -1    0    0    0    0 -0.00000000000E+00 -0.00000000000E+00 -0.45593999997E+02  0.45594000000E+02  0.51100000000E-03 0. -1.
    9900012    2    1    2    0    0 -0.27466064640E+01 -0.91593135118E+01  0.30418642141E+02  0.59301785725E+02  0.49999711294E+02 0.  0.
         12    1    1    2    0    0  0.27466064640E+01  0.91593135118E+01 -0.30418642141E+02  0.31886214275E+02  0.00000000000E+00 0. -1.
         11    1    3    3    0    0 -0.10244005525E+02 -0.45168221892E+00  0.24212055072E+02  0.26293863868E+02  0.51100000000E-03 0. -1.
        -11    1    3    3    0    0  0.15520744328E+01 -0.17304751798E+02 -0.46004663291E+01  0.17972970276E+02  0.51100000000E-03 0.  1.
        -12    1    3    3    0    0  0.59453246286E+01  0.85971205048E+01  0.10807053398E+02  0.15034951581E+02  0.00000000000E+00 0.  1.
</event>
<event>
 7    1  0.7819001E-012  0.5930192E+02  0.7816164E-02  0.1266605E+00
        -11   -1    0    0    0    0  0.00000000000E+00  0.00000000000E+00  0.45593999997E+02  0.45594000000E+02  0.51100000000E-03 0. -1.
         11   -1    0    0    0    0 -0.00000000000E+00 -0.00000000000E+00 -0.45593999997E+02  0.45594000000E+02  0.51100000000E-03 0.  1.
    9900012    2    1    2    0    0  0.28848919282E+02 -0.12001448947E+02  0.63582302382E+01  0.59301921340E+02  0.49999958622E+02 0.  0.
         12    1    1    2    0    0 -0.28848919282E+02  0.12001448947E+02 -0.63582302382E+01  0.31886078660E+02  0.00000000000E+00 0. -1.
         11    1    3    3    0    0 -0.43748109430E+01 -0.13130975622E+02  0.25643746932E+01  0.14076132615E+02  0.51100000000E-03 0. -1.
        -11    1    3    3    0    0  0.30371608448E+02 -0.11203536132E+02  0.35353909245E+01  0.32564594437E+02  0.51100000000E-03 0.  1.
        -12    1    3    3    0    0  0.28521217771E+01  0.12333062807E+02  0.25846462044E+00  0.12661194288E+02  0.00000000000E+00 0.  1.
</event>
<event>
 7    1  0.7819001E-012  0.5930195E+02  0.7816164E-02  0.1266605E+00
        -11   -1    0    0    0    0  0.00000000000E+00  0.00000000000E+00  0.45593999997E+02  0.45594000000E+02  0.51100000000E-03 0. -1.
         11   -1    0    0    0    0 -0.00000000000E+00 -0.00000000000E+00 -0.45593999997E+02  0.45594000000E+02  0.51100000000E-03 0.  1.
    9900012    2    1    2    0    0 -0.29543148618E+02  0.59904636530E+01 -0.10394081497E+02  0.59301949520E+02  0.50000010016E+02 0.  0.
         12    1    1    2    0    0  0.29543148618E+02 -0.59904636530E+01  0.10394081497E+02  0.31886050480E+02  0.00000000000E+00 0. -1.
         11    1    3    3    0    0 -0.22310563181E+02 -0.96070326826E+01 -0.72105781527E-01  0.24291181649E+02  0.51100000000E-03 0. -1.
        -11    1    3    3    0    0  0.96084307206E+01 -0.98036218698E+00 -0.45930019948E+01  0.10694798666E+02  0.51100000000E-03 0.  1.
        -12    1    3    3    0    0 -0.16841016158E+02  0.16577858523E+02 -0.57289737211E+01  0.24315969204E+02  0.00000000000E+00 0.  1.
</event>
<event>
 7    1  0.7819001E-012  0.5930194E+02  0.7816164E-02  0.1266605E+00
        -11   -1    0    0    0    0  0.00000000000E+00  0.00000000000E+00  0.45593999997E+02  0.45594000000E+02  0.51100000000E-03 0. -1.
         11   -1    0    0    0    0 -0.00000000000E+00 -0.00000000000E+00 -0.45593999997E+02  0.45594000000E+02  0.51100000000E-03 0.  1.
    9900012    2    1    2    0    0 -0.28508056814E+02  0.11829277233E+02 -0.80049915878E+01  0.59301937316E+02  0.49999987759E+02 0.  0.
         12    1    1    2    0    0  0.28508056814E+02 -0.11829277233E+02  0.80049915878E+01  0.31886062684E+02  0.00000000000E+00 0. -1.
         11    1    3    3    0    0 -0.20464237768E+01  0.15415503763E+02 -0.11172639927E+02  0.19148198081E+02  0.51100000000E-03 0. -1.
        -11    1    3    3    0    0 -0.47538428638E+00 -0.12322251641E+02 -0.12115919690E+01  0.12390796225E+02  0.51100000000E-03 0.  1.
         12    1    3    3    0    0 -0.25986248751E+02  0.87360251103E+01  0.43792403086E+01  0.27762943010E+02  0.00000000000E+00 0. -1.
</event>
<event>
 7    1  0.7819001E-012  0.5930190E+02  0.7816164E-02  0.1266605E+00
        -11   -1    0    0    0    0  0.00000000000E+00  0.00000000000E+00  0.45593999997E+02  0.45594000000E+02  0.51100000000E-03 0.  1.
         11   -1    0    0    0    0 -0.00000000000E+00 -0.00000000000E+00 -0.45593999997E+02  0.45594000000E+02  0.51100000000E-03 0. -1.
    9900012    2    1    2    0    0  0.31030256948E+02 -0.49221647578E+01  0.54422892269E+01  0.59301904845E+02  0.49999928541E+02 0.  0.
         12    1    1    2    0    0 -0.31030256948E+02  0.49221647578E+01 -0.54422892269E+01  0.31886095155E+02  0.00000000000E+00 0. -1.
         11    1    3    3    0    0 -0.12533102526E+02 -0.17562803677E+01 -0.39855384721E+01  0.13268296682E+02  0.51100000000E-03 0. -1.
        -11    1    3    3    0    0  0.32564007264E+02  0.20682356554E+01  0.89861645535E+01  0.33844398672E+02  0.51100000000E-03 0.  1.
         12    1    3    3    0    0  0.10999352211E+02 -0.52341200455E+01  0.44166314546E+00  0.12189209492E+02  0.00000000000E+00 0. -1.
</event>
<event>
 7    1  0.7819001E-012  0.5930194E+02  0.7816164E-02  0.1266605E+00
        -11   -1    0    0    0    0  0.00000000000E+00  0.00000000000E+00  0.45593999997E+02  0.45594000000E+02  0.51100000000E-03 0. -1.
         11   -1    0    0    0    0 -0.00000000000E+00 -0.00000000000E+00 -0.45593999997E+02  0.45594000000E+02  0.51100000000E-03 0.  1.
    9900012    2    1    2    0    0  0.14815545218E+02 -0.27809527199E+02 -0.48836860298E+01  0.59301943919E+02  0.49999999802E+02 0.  0.
         12    1    1    2    0    0 -0.14815545218E+02  0.27809527199E+02  0.48836860298E+01  0.31886056081E+02  0.00000000000E+00 0. -1.
         11    1    3    3    0    0  0.10565567214E+02 -0.29438275851E+02 -0.23091216584E+02  0.38877340177E+02  0.51100000000E-03 0.  1.
        -11    1    3    3    0    0  0.31462721542E+00  0.44095523841E+01  0.92990565698E+01  0.10296387515E+02  0.51100000000E-03 0. -1.
         12    1    3    3    0    0  0.39353507882E+01 -0.27808037325E+01  0.89084739841E+01  0.10128216227E+02  0.00000000000E+00 0. -1.
</event>
<event>
 7    1  0.7819001E-012  0.5930183E+02  0.7816164E-02  0.1266605E+00
        -11   -1    0    0    0    0  0.00000000000E+00  0.00000000000E+00  0.45593999997E+02  0.45594000000E+02  0.51100000000E-03 0. -1.
         11   -1    0    0    0    0 -0.00000000000E+00 -0.00000000000E+00 -0.45593999997E+02  0.45594000000E+02  0.51100000000E-03 0.  1.
    9900012    2    1    2    0    0 -0.48395395325E+01 -0.19407248457E+02 -0.24832749893E+02  0.59301828972E+02  0.49999790166E+02 0.  0.
         12    1    1    2    0    0  0.48395395325E+01  0.19407248457E+02  0.24832749893E+02  0.31886171028E+02  0.00000000000E+00 0. -1.
         11    1    3    3    0    0 -0.69136906990E+00 -0.12016187013E+02  0.13165998125E+02  0.17838448598E+02  0.51100000000E-03 0. -1.
        -11    1    3    3    0    0 -0.16643138607E+01 -0.11580240159E+02 -0.25814572478E+02  0.28341913402E+02  0.51100000000E-03 0.  1.
         12    1    3    3    0    0 -0.24838566019E+01  0.41891787144E+01 -0.12184175540E+02  0.13121466972E+02  0.00000000000E+00 0. -1.
</event>
<event>
 7    1  0.7819001E-012  0.5930196E+02  0.7816164E-02  0.1266605E+00
        -11   -1    0    0    0    0  0.00000000000E+00  0.00000000000E+00  0.45593999997E+02  0.45594000000E+02  0.51100000000E-03 0. -1.
         11   -1    0    0    0    0 -0.00000000000E+00 -0.00000000000E+00 -0.45593999997E+02  0.45594000000E+02  0.51100000000E-03 0.  1.
    9900012    2    1    2    0    0 -0.64791757142E+01 -0.27870904013E+02 -0.14069556155E+02  0.59301962008E+02  0.50000032791E+02 0.  0.
         12    1    1    2    0    0  0.64791757142E+01  0.27870904013E+02  0.14069556155E+02  0.31886037992E+02  0.00000000000E+00 0. -1.
         11    1    3    3    0    0  0.16458625818E+02 -0.76924035929E+01  0.48295392757E+01  0.18798507566E+02  0.51100000000E-03 0. -1.
        -11    1    3    3    0    0 -0.16977246410E+02 -0.23482965790E+02 -0.14623097680E+02  0.32457842873E+02  0.51100000000E-03 0.  1.
        -12    1    3    3    0    0 -0.59605551222E+01  0.33044653701E+01 -0.42759977504E+01  0.80456115684E+01  0.00000000000E+00 0.  1.
</event>
<event>
 7    1  0.7819001E-012  0.5930197E+02  0.7816164E-02  0.1266605E+00
        -11   -1    0    0    0    0  0.00000000000E+00  0.00000000000E+00  0.45593999997E+02  0.45594000000E+02  0.51100000000E-03 0. -1.
         11   -1    0    0    0    0 -0.00000000000E+00 -0.00000000000E+00 -0.45593999997E+02  0.45594000000E+02  0.51100000000E-03 0.  1.
    9900012    2    1    2    0    0  0.24965202422E+02  0.19270277862E+02 -0.47025489624E+01  0.59301970024E+02  0.50000047412E+02 0.  0.
         12    1    1    2    0    0 -0.24965202422E+02 -0.19270277862E+02  0.47025489624E+01  0.31886029976E+02  0.00000000000E+00 0. -1.
         11    1    3    3    0    0  0.19518645737E+02  0.15472887149E+02  0.18671419202E+02  0.31128920049E+02  0.51100000000E-03 0. -1.
        -11    1    3    3    0    0  0.77080854568E+01  0.75158511893E+01 -0.19815874928E+02  0.22551529880E+02  0.51100000000E-03 0.  1.
         12    1    3    3    0    0 -0.22615287720E+01 -0.37184604764E+01 -0.35580932363E+01  0.56215200951E+01  0.00000000000E+00 0. -1.
</event>
<event>
 7    1  0.7819001E-012  0.5930194E+02  0.7816164E-02  0.1266605E+00
        -11   -1    0    0    0    0  0.00000000000E+00  0.00000000000E+00  0.45593999997E+02  0.45594000000E+02  0.51100000000E-03 0.  1.
         11   -1    0    0    0    0 -0.00000000000E+00 -0.00000000000E+00 -0.45593999997E+02  0.45594000000E+02  0.51100000000E-03 0. -1.
    9900012    2    1    2    0    0  0.20781843802E+02 -0.10578545699E+02  0.21746958950E+02  0.59301939025E+02  0.49999990876E+02 0.  0.
         12    1    1    2    0    0 -0.20781843802E+02  0.10578545699E+02 -0.21746958950E+02  0.31886060975E+02  0.00000000000E+00 0. -1.
         11    1    3    3    0    0 -0.90296673700E+01  0.60972397981E+01  0.51165236876E+01  0.12037027909E+02  0.51100000000E-03 0. -1.
        -11    1    3    3    0    0  0.14432439240E+02 -0.14150396444E+02  0.22830420640E+02  0.30491919074E+02  0.51100000000E-03 0.  1.
         12    1    3    3    0    0  0.15379071932E+02 -0.25253890530E+01 -0.61999853775E+01  0.16772992042E+02  0.00000000000E+00 0. -1.
</event>
<event>
 7    1  0.7819001E-012  0.5930191E+02  0.7816164E-02  0.1266605E+00
        -11   -1    0    0    0    0  0.00000000000E+00  0.00000000000E+00  0.45593999997E+02  0.45594000000E+02  0.51100000000E-03 0. -1.
         11   -1    0    0    0    0 -0.00000000000E+00 -0.00000000000E+00 -0.45593999997E+02  0.45594000000E+02  0.51100000000E-03 0.  1.
    9900012    2    1    2    0    0 -0.29660514847E+02 -0.11633798282E+02  0.12772739552E+01  0.59301908483E+02  0.49999935176E+02 0.  0.
         12    1    1    2    0    0  0.29660514847E+02  0.11633798282E+02 -0.12772739552E+01  0.31886091517E+02  0.00000000000E+00 0. -1.
         11    1    3    3    0    0 -0.50528057340E+01 -0.54939809302E+01  0.13208936322E+02  0.15172035832E+02  0.51100000000E-03 0. -1.
        -11    1    3    3    0    0 -0.30988809196E+02  0.18509996454E+01 -0.13374592695E+02  0.33802547612E+02  0.51100000000E-03 0.  1.
        -12    1    3    3    0    0  0.63811000825E+01 -0.79908169971E+01  0.14429303278E+01  0.10327325040E+02  0.00000000000E+00 0.  1.
</event>
<event>
 7    1  0.7819001E-012  0.5930194E+02  0.7816164E-02  0.1266605E+00
        -11   -1    0    0    0    0  0.00000000000E+00  0.00000000000E+00  0.45593999997E+02  0.45594000000E+02  0.51100000000E-03 0. -1.
         11   -1    0    0    0    0 -0.00000000000E+00 -0.00000000000E+00 -0.45593999997E+02  0.45594000000E+02  0.51100000000E-03 0.  1.
    9900012    2    1    2    0    0  0.22982068332E+02  0.14676006926E+02 -0.16527556034E+02  0.59301941094E+02  0.49999994649E+02 0.  0.
         12    1    1    2    0    0 -0.22982068332E+02 -0.14676006926E+02  0.16527556034E+02  0.31886058906E+02  0.00000000000E+00 0. -1.
         11    1    3    3    0    0  0.53218634788E+01 -0.14243583427E+02  0.29540395689E+01  0.15489617483E+02  0.51100000000E-03 0. -1.
        -11    1    3    3    0    0  0.13824546066E+02  0.29338389396E+02 -0.22013235159E+02  0.39197470438E+02  0.51100000000E-03 0.  1.
         12    1    3    3    0    0  0.38356587871E+01 -0.41879904264E+00  0.25316395559E+01  0.46148531732E+01  0.00000000000E+00 0. -1.
</event>
<event>
 7    1  0.7819001E-012  0.5930195E+02  0.7816164E-02  0.1266605E+00
        -11   -1    0    0    0    0  0.00000000000E+00  0.00000000000E+00  0.45593999997E+02  0.45594000000E+02  0.51100000000E-03 0. -1.
         11   -1    0    0    0    0 -0.00000000000E+00 -0.00000000000E+00 -0.45593999997E+02  0.45594000000E+02  0.51100000000E-03 0.  1.
    9900012    2    1    2    0    0  0.12132169151E+02 -0.18801196226E+02 -0.22716642538E+02  0.59301947312E+02  0.50000005989E+02 0.  0.
         12    1    1    2    0    0 -0.12132169151E+02  0.18801196226E+02  0.22716642538E+02  0.31886052688E+02  0.00000000000E+00 0. -1.
         11    1    3    3    0    0 -0.19889086312E+01 -0.39685097203E+01  0.69674482626E+01  0.82613656556E+01  0.51100000000E-03 0. -1.
        -11    1    3    3    0    0 -0.65124372668E+01  0.89493349010E+00 -0.23455447612E+02  0.24359202944E+02  0.51100000000E-03 0.  1.
        -12    1    3    3    0    0  0.20633515049E+02 -0.15727619996E+02 -0.62286431881E+01  0.26681378712E+02  0.00000000000E+00 0.  1.
</event>
<event>
 7    1  0.7819001E-012  0.5930200E+02  0.7816164E-02  0.1266605E+00
        -11   -1    0    0    0    0  0.00000000000E+00  0.00000000000E+00  0.45593999997E+02  0.45594000000E+02  0.51100000000E-03 0. -1.
         11   -1    0    0    0    0 -0.00000000000E+00 -0.00000000000E+00 -0.45593999997E+02  0.45594000000E+02  0.51100000000E-03 0.  1.
    9900012    2    1    2    0    0 -0.98977613968E+01 -0.26587289407E+02  0.14555662816E+02  0.59302000585E+02  0.50000103146E+02 0.  0.
         12    1    1    2    0    0  0.98977613968E+01  0.26587289407E+02 -0.14555662816E+02  0.31885999415E+02  0.00000000000E+00 0. -1.
         11    1    3    3    0    0  0.79693760801E+01 -0.62717534589E+01  0.10298412799E+02  0.14453482383E+02  0.51100000000E-03 0. -1.
        -11    1    3    3    0    0 -0.17037746295E+02 -0.17022034848E+02 -0.12925597162E+02  0.27333231266E+02  0.51100000000E-03 0.  1.
        -12    1    3    3    0    0 -0.82939118230E+00 -0.32935011002E+01  0.17182847180E+02  0.17515286935E+02  0.00000000000E+00 0.  1.
</event>
<event>
 7    1  0.7819001E-012  0.5930196E+02  0.7816164E-02  0.1266605E+00
        -11   -1    0    0    0    0  0.00000000000E+00  0.00000000000E+00  0.45593999997E+02  0.45594000000E+02  0.51100000000E-03 0.  1.
         11   -1    0    0    0    0 -0.00000000000E+00 -0.00000000000E+00 -0.45593999997E+02  0.45594000000E+02  0.51100000000E-03 0. -1.
    9900012    2    1    2    0    0  0.18568972073E+02  0.21300000964E+00  0.25920405211E+02  0.59301960748E+02  0.50000030495E+02 0.  0.
         12    1    1    2    0    0 -0.18568972073E+02 -0.21300000964E+00 -0.25920405211E+02  0.31886039252E+02  0.00000000000E+00 0. -1.
         11    1    3    3    0    0 -0.95442040037E+01  0.29607046603E+00 -0.60225509850E+01  0.11289402483E+02  0.51100000000E-03 0. -1.
        -11    1    3    3    0    0  0.16101189325E+02 -0.98979879174E+01  0.24109977387E+02  0.30635101965E+02  0.51100000000E-03 0.  1.
         12    1    3    3    0    0  0.12011986752E+02  0.98149174610E+01  0.78329788083E+01  0.17377456301E+02  0.00000000000E+00 0. -1.
</event>
<event>
 7    1  0.7819001E-012  0.5930200E+02  0.7816164E-02  0.1266605E+00
        -11   -1    0    0    0    0  0.00000000000E+00  0.00000000000E+00  0.45593999997E+02  0.45594000000E+02  0.51100000000E-03 0. -1.
         11   -1    0    0    0    0 -0.00000000000E+00 -0.00000000000E+00 -0.45593999997E+02  0.45594000000E+02  0.51100000000E-03 0.  1.
    9900012    2    1    2    0    0  0.54659767319E+01 -0.31043296370E+02  0.48118113604E+01  0.59302004960E+02  0.50000111126E+02 0.  0.
         12    1    1    2    0    0 -0.54659767319E+01  0.31043296370E+02 -0.48118113604E+01  0.31885995040E+02  0.00000000000E+00 0. -1.
         11    1    3    3    0    0 -0.14916963370E+02 -0.20303741166E+02  0.14050186281E+02  0.28847277797E+02  0.51100000000E-03 0. -1.
        -11    1    3    3    0    0  0.13682930946E+02 -0.54629079129E+01  0.34829066320E+01  0.15139240437E+02  0.51100000000E-03 0.  1.
         12    1    3    3    0    0  0.67000091553E+01 -0.52766472909E+01 -0.12721281552E+02  0.15315486726E+02  0.00000000000E+00 0. -1.
</event>
<event>
 7    1  0.7819001E-012  0.5930192E+02  0.7816164E-02  0.1266605E+00
        -11   -1    0    0    0    0  0.00000000000E+00  0.00000000000E+00  0.45593999997E+02  0.45594000000E+02  0.51100000000E-03 0.  1.
         11   -1    0    0    0    0 -0.00000000000E+00 -0.00000000000E+00 -0.45593999997E+02  0.45594000000E+02  0.51100000000E-03 0. -1.
    9900012    2    1    2    0    0  0.27500005298E+01  0.28437485313E+02  0.14158699476E+02  0.59301923968E+02  0.49999963416E+02 0.  0.
         12    1    1    2    0    0 -0.27500005298E+01 -0.28437485313E+02 -0.14158699476E+02  0.31886076032E+02  0.00000000000E+00 0. -1.
         11    1    3    3    0    0 -0.13368898197E+02 -0.19421808894E+01 -0.38392496106E+01  0.14044192516E+02  0.51100000000E-03 0. -1.
        -11    1    3    3    0    0  0.96875949352E+01  0.18082725880E+02  0.22708863688E+02  0.30602728001E+02  0.51100000000E-03 0.  1.
        -12    1    3    3    0    0  0.64313037914E+01  0.12296940323E+02 -0.47109146008E+01  0.14655003451E+02  0.00000000000E+00 0.  1.
</event>
<event>
 7    1  0.7819001E-012  0.5930194E+02  0.7816164E-02  0.1266605E+00
        -11   -1    0    0    0    0  0.00000000000E+00  0.00000000000E+00  0.45593999997E+02  0.45594000000E+02  0.51100000000E-03 0. -1.
         11   -1    0    0    0    0 -0.00000000000E+00 -0.00000000000E+00 -0.45593999997E+02  0.45594000000E+02  0.51100000000E-03 0.  1.
    9900012    2    1    2    0    0 -0.64444881449E+01 -0.17107026436E+01 -0.31181129302E+02  0.59301941047E+02  0.49999994564E+02 0.  0.
         12    1    1    2    0    0  0.64444881449E+01  0.17107026436E+01  0.31181129302E+02  0.31886058953E+02  0.00000000000E+00 0. -1.
         11    1    3    3    0    0  0.98397147775E+00 -0.28365483204E+00  0.19673564187E+01  0.22179160201E+01  0.51100000000E-03 0. -1.
        -11    1    3    3    0    0  0.30556423752E+01  0.10711171168E+02 -0.38575693037E+02  0.40151590649E+02  0.51100000000E-03 0.  1.
        -12    1    3    3    0    0 -0.10484101998E+02 -0.12138218980E+02  0.54272073158E+01  0.16932434378E+02  0.00000000000E+00 0.  1.
</event>
<event>
 7    1  0.7819001E-012  0.5930195E+02  0.7816164E-02  0.1266605E+00
        -11   -1    0    0    0    0  0.00000000000E+00  0.00000000000E+00  0.45593999997E+02  0.45594000000E+02  0.51100000000E-03 0.  1.
         11   -1    0    0    0    0 -0.00000000000E+00 -0.00000000000E+00 -0.45593999997E+02  0.45594000000E+02  0.51100000000E-03 0. -1.
    9900012    2    1    2    0    0 -0.32130500372E+01 -0.11049488589E+01  0.31704503796E+02  0.59301950331E+02  0.50000011496E+02 0.  0.
         12    1    1    2    0    0  0.32130500372E+01  0.11049488589E+01 -0.31704503796E+02  0.31886049669E+02  0.00000000000E+00 0. -1.
         11    1    3    3    0    0 -0.16517051826E+02  0.85858637234E+01 -0.26053071312E+01  0.18796746591E+02  0.51100000000E-03 0. -1.
        -11    1    3    3    0    0  0.13017537413E+02 -0.97277723417E+01  0.18225607595E+02  0.24418407145E+02  0.51100000000E-03 0.  1.
         12    1    3    3    0    0  0.28646437557E+00  0.36959759451E-01  0.16084203333E+02  0.16086796596E+02  0.00000000000E+00 0. -1.
</event>
<event>
 7    1  0.7819001E-012  0.5930194E+02  0.7816164E-02  0.1266605E+00
        -11   -1    0    0    0    0  0.00000000000E+00  0.00000000000E+00  0.45593999997E+02  0.45594000000E+02  0.51100000000E-03 0.  1.
         11   -1    0    0    0    0 -0.00000000000E+00 -0.00000000000E+00 -0.45593999997E+02  0.45594000000E+02  0.51100000000E-03 0. -1.
    9900012    2    1    2    0    0 -0.28560998811E+02 -0.13970764437E+02  0.24099036168E+01  0.59301944310E+02  0.50000000514E+02 0.  0.
         12    1    1    2    0    0  0.28560998811E+02  0.13970764437E+02 -0.24099036168E+01  0.31886055690E+02  0.00000000000E+00 0. -1.
         11    1    3    3    0    0 -0.20856778348E+02  0.10894795274E+02  0.20824040948E+00  0.23531789805E+02  0.51100000000E-03 0. -1.
        -11    1    3    3    0    0 -0.11921564879E+02 -0.25432116753E+02 -0.38729607285E+01  0.28353414199E+02  0.51100000000E-03 0.  1.
         12    1    3    3    0    0  0.42173444154E+01  0.56655704243E+00  0.60746239358E+01  0.74167403056E+01  0.00000000000E+00 0. -1.
</event>
<event>
 7    1  0.7819001E-012  0.5930195E+02  0.7816164E-02  0.1266605E+00
        -11   -1    0    0    0    0  0.00000000000E+00  0.00000000000E+00  0.45593999997E+02  0.45594000000E+02  0.51100000000E-03 0. -1.
         11   -1    0    0    0    0 -0.00000000000E+00 -0.00000000000E+00 -0.45593999997E+02  0.45594000000E+02  0.51100000000E-03 0.  1.
    9900012    2    1    2    0    0 -0.34488897187E+01  0.10988234414E+02 -0.29733547063E+02  0.59301953572E+02  0.50000017407E+02 0.  0.
         12    1    1    2    0    0  0.34488897187E+01 -0.10988234414E+02  0.29733547063E+02  0.31886046428E+02  0.00000000000E+00 0. -1.
         11    1    3    3    0    0  0.13134144686E+02  0.11191588494E+02  0.51984436494E+01  0.18021687665E+02  0.51100000000E-03 0. -1.
        -11    1    3    3    0    0 -0.94558602744E+01  0.40508345264E+01 -0.78077871960E+01  0.12914491668E+02  0.51100000000E-03 0.  1.
         12    1    3    3    0    0 -0.71271741301E+01 -0.42541886065E+01 -0.27124203517E+02  0.28365774239E+02  0.00000000000E+00 0. -1.
</event>
<event>
 7    1  0.7819001E-012  0.5930194E+02  0.7816164E-02  0.1266605E+00
        -11   -1    0    0    0    0  0.00000000000E+00  0.00000000000E+00  0.45593999997E+02  0.45594000000E+02  0.51100000000E-03 0.  1.
         11   -1    0    0    0    0 -0.00000000000E+00 -0.00000000000E+00 -0.45593999997E+02  0.45594000000E+02  0.51100000000E-03 0. -1.
    9900012    2    1    2    0    0  0.22937869037E+02  0.24148857081E+01  0.22016893546E+02  0.59301935483E+02  0.49999984416E+02 0.  0.
         12    1    1    2    0    0 -0.22937869037E+02 -0.24148857081E+01 -0.22016893546E+02  0.31886064517E+02  0.00000000000E+00 0. -1.
         11    1    3    3    0    0  0.27953829045E+01  0.17061541606E+02  0.75382549855E+00  0.17305450607E+02  0.51100000000E-03 0. -1.
        -11    1    3    3    0    0  0.14311136164E+02 -0.22299885683E+02  0.14212476831E+02  0.30068056434E+02  0.51100000000E-03 0.  1.
        -12    1    3    3    0    0  0.58313499684E+01  0.76532297850E+01  0.70505912173E+01  0.11928428443E+02  0.00000000000E+00 0.  1.
</event>
<event>
 7    1  0.7819001E-012  0.5930195E+02  0.7816164E-02  0.1266605E+00
        -11   -1    0    0    0    0  0.00000000000E+00  0.00000000000E+00  0.45593999997E+02  0.45594000000E+02  0.51100000000E-03 0. -1.
         11   -1    0    0    0    0 -0.00000000000E+00 -0.00000000000E+00 -0.45593999997E+02  0.45594000000E+02  0.51100000000E-03 0.  1.
    9900012    2    1    2    0    0 -0.29751356080E+02 -0.47825591712E+01  0.10426112718E+02  0.59301954663E+02  0.50000019396E+02 0.  0.
         12    1    1    2    0    0  0.29751356080E+02  0.47825591712E+01 -0.10426112718E+02  0.31886045337E+02  0.00000000000E+00 0. -1.
         11    1    3    3    0    0  0.11537959049E+02 -0.54434788391E+01 -0.56622411090E+01  0.13957683745E+02  0.51100000000E-03 0. -1.
        -11    1    3    3    0    0 -0.12169912376E+02 -0.27304245267E+01  0.13898303103E+01  0.12549645966E+02  0.51100000000E-03 0.  1.
         12    1    3    3    0    0 -0.29119402753E+02  0.33913441946E+01  0.14698523517E+02  0.32794624952E+02  0.00000000000E+00 0. -1.
</event>
<event>
 7    1  0.7819001E-012  0.5930195E+02  0.7816164E-02  0.1266605E+00
        -11   -1    0    0    0    0  0.00000000000E+00  0.00000000000E+00  0.45593999997E+02  0.45594000000E+02  0.51100000000E-03 0.  1.
         11   -1    0    0    0    0 -0.00000000000E+00 -0.00000000000E+00 -0.45593999997E+02  0.45594000000E+02  0.51100000000E-03 0. -1.
    9900012    2    1    2    0    0  0.31785934953E+02  0.20368090226E+01  0.14918944010E+01  0.59301952884E+02  0.50000016151E+02 0.  0.
         12    1    1    2    0    0 -0.31785934953E+02 -0.20368090226E+01 -0.14918944010E+01  0.31886047116E+02  0.00000000000E+00 0. -1.
         11    1    3    3    0    0  0.10072851157E+02 -0.25306196442E+01  0.34777824083E+01  0.10952686289E+02  0.51100000000E-03 0. -1.
        -11    1    3    3    0    0 -0.25124485010E+01  0.13215886614E+02 -0.14469585478E+02  0.19757048379E+02  0.51100000000E-03 0.  1.
        -12    1    3    3    0    0  0.24225532297E+02 -0.86484579476E+01  0.12483697471E+02  0.28592218215E+02  0.00000000000E+00 0.  1.
</event>
<event>
 7    1  0.7819001E-012  0.5930195E+02  0.7816164E-02  0.1266605E+00
        -11   -1    0    0    0    0  0.00000000000E+00  0.00000000000E+00  0.45593999997E+02  0.45594000000E+02  0.51100000000E-03 0.  1.
         11   -1    0    0    0    0 -0.00000000000E+00 -0.00000000000E+00 -0.45593999997E+02  0.45594000000E+02  0.51100000000E-03 0. -1.
    9900012    2    1    2    0    0 -0.19505427247E+02  0.25185483135E+02 -0.13963975533E+01  0.59301950088E+02  0.50000011053E+02 0.  0.
         12    1    1    2    0    0  0.19505427247E+02 -0.25185483135E+02  0.13963975533E+01  0.31886049912E+02  0.00000000000E+00 0. -1.
         11    1    3    3    0    0 -0.47243123849E+01 -0.11214174364E+02 -0.61165424516E+01  0.13619431927E+02  0.51100000000E-03 0. -1.
        -11    1    3    3    0    0 -0.11583369966E+02  0.90754901732E+01  0.98364880739E+01  0.17700154788E+02  0.51100000000E-03 0.  1.
        -12    1    3    3    0    0 -0.31977448970E+01  0.27324167326E+02 -0.51163431757E+01  0.27982363373E+02  0.00000000000E+00 0.  1.
</event>
<event>
 7    1  0.7819001E-012  0.5930195E+02  0.7816164E-02  0.1266605E+00
        -11   -1    0    0    0    0  0.00000000000E+00  0.00000000000E+00  0.45593999997E+02  0.45594000000E+02  0.51100000000E-03 0.  1.
         11   -1    0    0    0    0 -0.00000000000E+00 -0.00000000000E+00 -0.45593999997E+02  0.45594000000E+02  0.51100000000E-03 0. -1.
    9900012    2    1    2    0    0 -0.38614176360E+01 -0.31138525394E+02  0.56746509725E+01  0.59301953309E+02  0.50000016927E+02 0.  0.
         12    1    1    2    0    0  0.38614176360E+01  0.31138525394E+02 -0.56746509725E+01  0.31886046691E+02  0.00000000000E+00 0. -1.
         11    1    3    3    0    0  0.17866487341E+01  0.13137508348E+02  0.55279576839E+01  0.14364698247E+02  0.51100000000E-03 0. -1.
        -11    1    3    3    0    0 -0.92891374772E+00 -0.15936423661E+02  0.22931635011E+01  0.16127339488E+02  0.51100000000E-03 0.  1.
         12    1    3    3    0    0 -0.47191526224E+01 -0.28339610081E+02 -0.21464702125E+01  0.28809915574E+02  0.00000000000E+00 0. -1.
</event>
<event>
 7    1  0.7819001E-012  0.5930181E+02  0.7816164E-02  0.1266605E+00
        -11   -1    0    0    0    0  0.00000000000E+00  0.00000000000E+00  0.45593999997E+02  0.45594000000E+02  0.51100000000E-03 0.  1.
         11   -1    0    0    0    0 -0.00000000000E+00 -0.00000000000E+00 -0.45593999997E+02  0.45594000000E+02  0.51100000000E-03 0. -1.
    9900012    2    1    2    0    0  0.23026689085E+02  0.11908417662E+02 -0.18565830878E+02  0.59301813372E+02  0.49999761715E+02 0.  0.
         12    1    1    2    0    0 -0.23026689085E+02 -0.11908417662E+02  0.18565830878E+02  0.31886186628E+02  0.00000000000E+00 0. -1.
         11    1    3    3    0    0  0.11885732524E+02 -0.45691328131E+01  0.13867142286E+02  0.18826716329E+02  0.51100000000E-03 0.  1.
        -11    1    3    3    0    0  0.11444711583E+02  0.18338821655E+02 -0.31865093371E+02  0.38505557764E+02  0.51100000000E-03 0. -1.
         12    1    3    3    0    0 -0.30375502095E+00 -0.18612711791E+01 -0.56787979328E+00  0.19695392797E+01  0.00000000000E+00 0. -1.
</event>
<event>
 7    1  0.7819001E-012  0.5930195E+02  0.7816164E-02  0.1266605E+00
        -11   -1    0    0    0    0  0.00000000000E+00  0.00000000000E+00  0.45593999997E+02  0.45594000000E+02  0.51100000000E-03 0.  1.
         11   -1    0    0    0    0 -0.00000000000E+00 -0.00000000000E+00 -0.45593999997E+02  0.45594000000E+02  0.51100000000E-03 0. -1.
    9900012    2    1    2    0    0  0.29068852242E+02 -0.96438490379E+01 -0.88723257790E+01  0.59301950391E+02  0.50000011605E+02 0.  0.
         12    1    1    2    0    0 -0.29068852242E+02  0.96438490379E+01  0.88723257790E+01  0.31886049609E+02  0.00000000000E+00 0. -1.
         11    1    3    3    0    0  0.22532087318E+02  0.57545863188E+01  0.83410923900E+01  0.24705951614E+02  0.51100000000E-03 0.  1.
        -11    1    3    3    0    0 -0.93184468867E+01 -0.76879299301E+01 -0.94227954705E+01  0.15320796119E+02  0.51100000000E-03 0. -1.
        -12    1    3    3    0    0  0.15855211810E+02 -0.77105054266E+01 -0.77906226985E+01  0.19275202658E+02  0.00000000000E+00 0.  1.
</event>
<event>
 7    1  0.7819001E-012  0.5930192E+02  0.7816164E-02  0.1266605E+00
        -11   -1    0    0    0    0  0.00000000000E+00  0.00000000000E+00  0.45593999997E+02  0.45594000000E+02  0.51100000000E-03 0.  1.
         11   -1    0    0    0    0 -0.00000000000E+00 -0.00000000000E+00 -0.45593999997E+02  0.45594000000E+02  0.51100000000E-03 0. -1.
    9900012    2    1    2    0    0  0.28449297916E+02  0.14076161291E+02 -0.30365983477E+01  0.59301924698E+02  0.49999964748E+02 0.  0.
         12    1    1    2    0    0 -0.28449297916E+02 -0.14076161291E+02  0.30365983477E+01  0.31886075302E+02  0.00000000000E+00 0. -1.
         11    1    3    3    0    0 -0.38398279239E+01 -0.59807537511E+01  0.91618776940E+00  0.71661073259E+01  0.51100000000E-03 0. -1.
        -11    1    3    3    0    0  0.35941084947E+02  0.11918685233E+02 -0.12406345422E+02  0.39846380661E+02  0.51100000000E-03 0.  1.
        -12    1    3    3    0    0 -0.36519591066E+01  0.81382298095E+01  0.84535593048E+01  0.12289436711E+02  0.00000000000E+00 0.  1.
</event>
<event>
 7    1  0.7819001E-012  0.5930192E+02  0.7816164E-02  0.1266605E+00
        -11   -1    0    0    0    0  0.00000000000E+00  0.00000000000E+00  0.45593999997E+02  0.45594000000E+02  0.51100000000E-03 0.  1.
         11   -1    0    0    0    0 -0.00000000000E+00 -0.00000000000E+00 -0.45593999997E+02  0.45594000000E+02  0.51100000000E-03 0. -1.
    9900012    2    1    2    0    0 -0.25786117696E+02  0.18538285632E+02  0.28513482495E+01  0.59301920171E+02  0.49999956491E+02 0.  0.
         12    1    1    2    0    0  0.25786117696E+02 -0.18538285632E+02 -0.28513482495E+01  0.31886079829E+02  0.00000000000E+00 0. -1.
         11    1    3    3    0    0 -0.24982911607E+02 -0.60253322599E+01  0.87302908629E+00  0.25714056102E+02  0.51100000000E-03 0. -1.
        -11    1    3    3    0    0 -0.62644704366E+01  0.26307279312E+02  0.43375751314E+01  0.27388521189E+02  0.51100000000E-03 0.  1.
         12    1    3    3    0    0  0.54612643473E+01 -0.17436614194E+01 -0.23592559682E+01  0.61993428797E+01  0.00000000000E+00 0. -1.
</event>
<event>
 7    1  0.7819001E-012  0.5930196E+02  0.7816164E-02  0.1266605E+00
        -11   -1    0    0    0    0  0.00000000000E+00  0.00000000000E+00  0.45593999997E+02  0.45594000000E+02  0.51100000000E-03 0.  1.
         11   -1    0    0    0    0 -0.00000000000E+00 -0.00000000000E+00 -0.45593999997E+02  0.45594000000E+02  0.51100000000E-03 0. -1.
    9900012    2    1    2    0    0  0.19475661908E+02 -0.24974303218E+02  0.37016842009E+01  0.59301957694E+02  0.50000024925E+02 0.  0.
         12    1    1    2    0    0 -0.19475661908E+02  0.24974303218E+02 -0.37016842009E+01  0.31886042306E+02  0.00000000000E+00 0. -1.
         11    1    3    3    0    0  0.12691846487E+01  0.13102925124E+02 -0.80482274592E+01  0.15429563895E+02  0.51100000000E-03 0. -1.
        -11    1    3    3    0    0  0.10964095134E+02 -0.20915958774E+02  0.57842683039E+01  0.24313503935E+02  0.51100000000E-03 0.  1.
         12    1    3    3    0    0  0.72423821256E+01 -0.17161269569E+02  0.59656433562E+01  0.19558889864E+02  0.00000000000E+00 0. -1.
</event>
<event>
 7    1  0.7819001E-012  0.5930180E+02  0.7816164E-02  0.1266605E+00
        -11   -1    0    0    0    0  0.00000000000E+00  0.00000000000E+00  0.45593999997E+02  0.45594000000E+02  0.51100000000E-03 0. -1.
         11   -1    0    0    0    0 -0.00000000000E+00 -0.00000000000E+00 -0.45593999997E+02  0.45594000000E+02  0.51100000000E-03 0.  1.
    9900012    2    1    2    0    0 -0.17915879183E+02  0.11942181213E+02  0.23518830633E+02  0.59301799013E+02  0.49999735528E+02 0.  0.
         12    1    1    2    0    0  0.17915879183E+02 -0.11942181213E+02 -0.23518830633E+02  0.31886200987E+02  0.00000000000E+00 0. -1.
         11    1    3    3    0    0  0.11152966428E+02  0.16982303618E+02  0.21270157025E+02  0.29414399135E+02  0.51100000000E-03 0. -1.
        -11    1    3    3    0    0 -0.23596863800E+02 -0.41639856853E+01  0.34737284665E+01  0.24211929863E+02  0.51100000000E-03 0.  1.
         12    1    3    3    0    0 -0.54719818106E+01 -0.87613671973E+00 -0.12250548587E+01  0.56754700153E+01  0.00000000000E+00 0. -1.
</event>
<event>
 7    1  0.7819001E-012  0.5930193E+02  0.7816164E-02  0.1266605E+00
        -11   -1    0    0    0    0  0.00000000000E+00  0.00000000000E+00  0.45593999997E+02  0.45594000000E+02  0.51100000000E-03 0. -1.
         11   -1    0    0    0    0 -0.00000000000E+00 -0.00000000000E+00 -0.45593999997E+02  0.45594000000E+02  0.51100000000E-03 0.  1.
    9900012    2    1    2    0    0 -0.15768406151E+02 -0.18555590040E+02 -0.20585654237E+02  0.59301926008E+02  0.49999967136E+02 0.  0.
         12    1    1    2    0    0  0.15768406151E+02  0.18555590040E+02  0.20585654237E+02  0.31886073992E+02  0.00000000000E+00 0. -1.
         11    1    3    3    0    0 -0.96084281061E+01  0.11261713748E+02  0.26685359161E+01  0.15042246222E+02  0.51100000000E-03 0. -1.
        -11    1    3    3    0    0  0.50836903836E+01 -0.16659673898E+02 -0.20221090322E+02  0.26688595624E+02  0.51100000000E-03 0.  1.
         12    1    3    3    0    0 -0.11243668428E+02 -0.13157629889E+02 -0.30330998310E+01  0.17571084162E+02  0.00000000000E+00 0. -1.
</event>
<event>
 7    1  0.7819001E-012  0.5930198E+02  0.7816164E-02  0.1266605E+00
        -11   -1    0    0    0    0  0.00000000000E+00  0.00000000000E+00  0.45593999997E+02  0.45594000000E+02  0.51100000000E-03 0.  1.
         11   -1    0    0    0    0 -0.00000000000E+00 -0.00000000000E+00 -0.45593999997E+02  0.45594000000E+02  0.51100000000E-03 0. -1.
    9900012    2    1    2    0    0 -0.36072413081E+01  0.81715782548E+01  0.30609334225E+02  0.59301980764E+02  0.50000066998E+02 0.  0.
         12    1    1    2    0    0  0.36072413081E+01 -0.81715782548E+01 -0.30609334225E+02  0.31886019236E+02  0.00000000000E+00 0. -1.
         11    1    3    3    0    0 -0.33593526974E+01 -0.18003544296E+02  0.11324974988E+01  0.18349261800E+02  0.51100000000E-03 0. -1.
        -11    1    3    3    0    0  0.84979098596E+00  0.23623572272E+02  0.29929079639E+02  0.38138499182E+02  0.51100000000E-03 0.  1.
         12    1    3    3    0    0 -0.10976795967E+01  0.25515502791E+01 -0.45224291219E+00  0.28142197810E+01  0.00000000000E+00 0. -1.
</event>
<event>
 7    1  0.7819001E-012  0.5930195E+02  0.7816164E-02  0.1266605E+00
        -11   -1    0    0    0    0  0.00000000000E+00  0.00000000000E+00  0.45593999997E+02  0.45594000000E+02  0.51100000000E-03 0. -1.
         11   -1    0    0    0    0 -0.00000000000E+00 -0.00000000000E+00 -0.45593999997E+02  0.45594000000E+02  0.51100000000E-03 0.  1.
    9900012    2    1    2    0    0 -0.29196813445E+02 -0.60380985886E+01 -0.11305208443E+02  0.59301948381E+02  0.50000007939E+02 0.  0.
         12    1    1    2    0    0  0.29196813445E+02  0.60380985886E+01  0.11305208443E+02  0.31886051619E+02  0.00000000000E+00 0. -1.
         11    1    3    3    0    0 -0.62088196062E+01 -0.17693328669E+02  0.10194046150E+02  0.21342958967E+02  0.51100000000E-03 0. -1.
        -11    1    3    3    0    0 -0.24667524788E+02  0.94296267099E+01 -0.13855256298E+02  0.29822353468E+02  0.51100000000E-03 0.  1.
        -12    1    3    3    0    0  0.16795309489E+01  0.22256033707E+01 -0.76439982954E+01  0.81366359456E+01  0.00000000000E+00 0.  1.
</event>
<event>
 7    1  0.7819001E-012  0.5930185E+02  0.7816164E-02  0.1266605E+00
        -11   -1    0    0    0    0  0.00000000000E+00  0.00000000000E+00  0.45593999997E+02  0.45594000000E+02  0.51100000000E-03 0. -1.
         11   -1    0    0    0    0 -0.00000000000E+00 -0.00000000000E+00 -0.45593999997E+02  0.45594000000E+02  0.51100000000E-03 0.  1.
    9900012    2    1    2    0    0 -0.17888122894E+02 -0.23180426699E+02 -0.12625733813E+02  0.59301854467E+02  0.49999836663E+02 0.  0.
         12    1    1    2    0    0  0.17888122894E+02  0.23180426699E+02  0.12625733813E+02  0.31886145533E+02  0.00000000000E+00 0. -1.
         11    1    3    3    0    0 -0.50942898281E+01 -0.31526306955E+02  0.50717859536E+01  0.32335473278E+02  0.51100000000E-03 0. -1.
        -11    1    3    3    0    0 -0.14664067148E+02  0.44825420162E+01 -0.10493710450E+02  0.18580796741E+02  0.51100000000E-03 0.  1.
        -12    1    3    3    0    0  0.18702340825E+01  0.38633382394E+01 -0.72038093164E+01  0.83855844485E+01  0.00000000000E+00 0.  1.
</event>
<event>
 7    1  0.7819001E-012  0.5930197E+02  0.7816164E-02  0.1266605E+00
        -11   -1    0    0    0    0  0.00000000000E+00  0.00000000000E+00  0.45593999997E+02  0.45594000000E+02  0.51100000000E-03 0. -1.
         11   -1    0    0    0    0 -0.00000000000E+00 -0.00000000000E+00 -0.45593999997E+02  0.45594000000E+02  0.51100000000E-03 0.  1.
    9900012    2    1    2    0    0 -0.25909770532E+02 -0.18214491036E+02 -0.36925986662E+01  0.59301965790E+02  0.50000039690E+02 0.  0.
         12    1    1    2    0    0  0.25909770532E+02  0.18214491036E+02  0.36925986662E+01  0.31886034210E+02  0.00000000000E+00 0. -1.
         11    1    3    3    0    0 -0.73846724140E+01 -0.22678456537E+02 -0.46259443584E+01  0.24294961186E+02  0.51100000000E-03 0. -1.
        -11    1    3    3    0    0 -0.47167697063E+01  0.14163937411E+02 -0.68481718544E+01  0.16424448163E+02  0.51100000000E-03 0.  1.
         12    1    3    3    0    0 -0.13808328412E+02 -0.96999719099E+01  0.77815175466E+01  0.18582556442E+02  0.00000000000E+00 0. -1.
</event>
<event>
 7    1  0.7819001E-012  0.5930194E+02  0.7816164E-02  0.1266605E+00
        -11   -1    0    0    0    0  0.00000000000E+00  0.00000000000E+00  0.45593999997E+02  0.45594000000E+02  0.51100000000E-03 0.  1.
         11   -1    0    0    0    0 -0.00000000000E+00 -0.00000000000E+00 -0.45593999997E+02  0.45594000000E+02  0.51100000000E-03 0. -1.
    9900012    2    1    2    0    0  0.11274269855E+02  0.11357869598E+02  0.27579165247E+02  0.59301941632E+02  0.49999995630E+02 0.  0.
         12    1    1    2    0    0 -0.11274269855E+02 -0.11357869598E+02 -0.27579165247E+02  0.31886058368E+02  0.00000000000E+00 0. -1.
         11    1    3    3    0    0 -0.12326036210E+02  0.15746720099E+02 -0.84164752098E+00  0.20014962736E+02  0.51100000000E-03 0. -1.
        -11    1    3    3    0    0  0.20030614720E+02  0.27211636628E+00  0.16325913204E+02  0.25842504051E+02  0.51100000000E-03 0.  1.
        -12    1    3    3    0    0  0.35696913440E+01 -0.46609668665E+01  0.12094899563E+02  0.13444474845E+02  0.00000000000E+00 0.  1.
</event>
<event>
 7    1  0.7819001E-012  0.5930193E+02  0.7816164E-02  0.1266605E+00
        -11   -1    0    0    0    0  0.00000000000E+00  0.00000000000E+00  0.45593999997E+02  0.45594000000E+02  0.51100000000E-03 0.  1.
         11   -1    0    0    0    0 -0.00000000000E+00 -0.00000000000E+00 -0.45593999997E+02  0.45594000000E+02  0.51100000000E-03 0. -1.
    9900012    2    1    2    0    0  0.26909903263E+02  0.14350460403E+02  0.93082162923E+01  0.59301929405E+02  0.49999973332E+02 0.  0.
         12    1    1    2    0    0 -0.26909903263E+02 -0.14350460403E+02 -0.93082162923E+01  0.31886070595E+02  0.00000000000E+00 0. -1.
         11    1    3    3    0    0 -0.62507365891E+01 -0.49932479027E+00  0.15335433593E+02  0.16567937618E+02  0.51100000000E-03 0. -1.
        -11    1    3    3    0    0  0.23209789904E+02  0.18960550533E+02 -0.94698442132E+01  0.31430475236E+02  0.51100000000E-03 0.  1.
        -12    1    3    3    0    0  0.99508499487E+01 -0.41107653391E+01  0.34426269124E+01  0.11303516552E+02  0.00000000000E+00 0.  1.
</event>
<event>
 7    1  0.7819001E-012  0.5930196E+02  0.7816164E-02  0.1266605E+00
        -11   -1    0    0    0    0  0.00000000000E+00  0.00000000000E+00  0.45593999997E+02  0.45594000000E+02  0.51100000000E-03 0. -1.
         11   -1    0    0    0    0 -0.00000000000E+00 -0.00000000000E+00 -0.45593999997E+02  0.45594000000E+02  0.51100000000E-03 0.  1.
    9900012    2    1    2    0    0  0.15390009789E+02 -0.10786532957E+02 -0.25758845633E+02  0.59301955672E+02  0.50000021236E+02 0.  0.
         12    1    1    2    0    0 -0.15390009789E+02  0.10786532957E+02  0.25758845633E+02  0.31886044328E+02  0.00000000000E+00 0. -1.
         11    1    3    3    0    0  0.21671000461E+02 -0.20278945470E+01 -0.11912518618E+02  0.24812350098E+02  0.51100000000E-03 0. -1.
        -11    1    3    3    0    0 -0.88846824604E+01 -0.18584638625E+02 -0.54571565133E+01  0.21309784905E+02  0.51100000000E-03 0.  1.
         12    1    3    3    0    0  0.26036917885E+01  0.98260002146E+01 -0.83891705019E+01  0.13179820669E+02  0.00000000000E+00 0. -1.
</event>
<event>
 7    1  0.7819001E-012  0.5930196E+02  0.7816164E-02  0.1266605E+00
        -11   -1    0    0    0    0  0.00000000000E+00  0.00000000000E+00  0.45593999997E+02  0.45594000000E+02  0.51100000000E-03 0.  1.
         11   -1    0    0    0    0 -0.00000000000E+00 -0.00000000000E+00 -0.45593999997E+02  0.45594000000E+02  0.51100000000E-03 0. -1.
    9900012    2    1    2    0    0 -0.23082916640E+01  0.17272742954E+02  0.26702878991E+02  0.59301959074E+02  0.50000027440E+02 0.  0.
         12    1    1    2    0    0  0.23082916640E+01 -0.17272742954E+02 -0.26702878991E+02  0.31886040926E+02  0.00000000000E+00 0. -1.
         11    1    3    3    0    0  0.89699212926E+01  0.28276306168E+02  0.23237368787E+02  0.37682678871E+02  0.51100000000E-03 0. -1.
        -11    1    3    3    0    0 -0.54347565246E+01 -0.47923624611E+01 -0.56114624428E+01  0.91647055298E+01  0.51100000000E-03 0.  1.
         12    1    3    3    0    0 -0.58434564320E+01 -0.62112007524E+01  0.90769726467E+01  0.12454574673E+02  0.00000000000E+00 0. -1.
</event>
<event>
 7    1  0.7819001E-012  0.5930182E+02  0.7816164E-02  0.1266605E+00
        -11   -1    0    0    0    0  0.00000000000E+00  0.00000000000E+00  0.45593999997E+02  0.45594000000E+02  0.51100000000E-03 0.  1.
         11   -1    0    0    0    0 -0.00000000000E+00 -0.00000000000E+00 -0.45593999997E+02  0.45594000000E+02  0.51100000000E-03 0. -1.
    9900012    2    1    2    0    0  0.17522802781E+02  0.26639819164E+02 -0.93836683742E-03  0.59301818302E+02  0.49999770706E+02 0.  0.
         12    1    1    2    0    0 -0.17522802781E+02 -0.26639819164E+02  0.93836683742E-03  0.31886181698E+02  0.00000000000E+00 0. -1.
         11    1    3    3    0    0  0.12225489650E+02 -0.45720656036E+01  0.74394577619E+01  0.15023711696E+02  0.51100000000E-03 0. -1.
        -11    1    3    3    0    0  0.91373977239E+01  0.26242068366E+02 -0.17194400751E+02  0.32676988949E+02  0.51100000000E-03 0.  1.
        -12    1    3    3    0    0 -0.38400845925E+01  0.49698164009E+01  0.97540046224E+01  0.11601117658E+02  0.00000000000E+00 0.  1.
</event>
<event>
 7    1  0.7819001E-012  0.5930197E+02  0.7816164E-02  0.1266605E+00
        -11   -1    0    0    0    0  0.00000000000E+00  0.00000000000E+00  0.45593999997E+02  0.45594000000E+02  0.51100000000E-03 0.  1.
         11   -1    0    0    0    0 -0.00000000000E+00 -0.00000000000E+00 -0.45593999997E+02  0.45594000000E+02  0.51100000000E-03 0. -1.
    9900012    2    1    2    0    0 -0.22294942883E+02  0.90329472817E+01  0.20929896346E+02  0.59301965819E+02  0.50000039742E+02 0.  0.
         12    1    1    2    0    0  0.22294942883E+02 -0.90329472817E+01 -0.20929896346E+02  0.31886034181E+02  0.00000000000E+00 0. -1.
         11    1    3    3    0    0  0.15100060385E+01  0.14631423664E+02  0.29722903149E+01  0.15006438173E+02  0.51100000000E-03 0. -1.
        -11    1    3    3    0    0 -0.20049010276E+01 -0.12738897239E+02  0.16997557273E+02  0.21335793506E+02  0.51100000000E-03 0.  1.
        -12    1    3    3    0    0 -0.21800047894E+02  0.71404208573E+01  0.96004875799E+00  0.22959734141E+02  0.00000000000E+00 0.  1.
</event>
<event>
 7    1  0.7819001E-012  0.5930193E+02  0.7816164E-02  0.1266605E+00
        -11   -1    0    0    0    0  0.00000000000E+00  0.00000000000E+00  0.45593999997E+02  0.45594000000E+02  0.51100000000E-03 0. -1.
         11   -1    0    0    0    0 -0.00000000000E+00 -0.00000000000E+00 -0.45593999997E+02  0.45594000000E+02  0.51100000000E-03 0.  1.
    9900012    2    1    2    0    0  0.20280453116E+02 -0.15426744178E+02 -0.19168726215E+02  0.59301932835E+02  0.49999979587E+02 0.  0.
         12    1    1    2    0    0 -0.20280453116E+02  0.15426744178E+02  0.19168726215E+02  0.31886067165E+02  0.00000000000E+00 0. -1.
         11    1    3    3    0    0 -0.50006004291E+01  0.69037205475E+01 -0.20226235170E+02  0.21949213003E+02  0.51100000000E-03 0.  1.
        -11    1    3    3    0    0  0.23923861062E+02 -0.16763649025E+02  0.59570272323E+01  0.29813708767E+02  0.51100000000E-03 0. -1.
         12    1    3    3    0    0  0.13571924830E+01 -0.55668157003E+01 -0.48995182780E+01  0.75390110647E+01  0.00000000000E+00 0. -1.
</event>
<event>
 7    1  0.7819001E-012  0.5930196E+02  0.7816164E-02  0.1266605E+00
        -11   -1    0    0    0    0  0.00000000000E+00  0.00000000000E+00  0.45593999997E+02  0.45594000000E+02  0.51100000000E-03 0.  1.
         11   -1    0    0    0    0 -0.00000000000E+00 -0.00000000000E+00 -0.45593999997E+02  0.45594000000E+02  0.51100000000E-03 0. -1.
    9900012    2    1    2    0    0 -0.36468285809E+01 -0.24317847731E+02  0.20299316658E+02  0.59301963342E+02  0.50000035225E+02 0.  0.
         12    1    1    2    0    0  0.36468285809E+01  0.24317847731E+02 -0.20299316658E+02  0.31886036658E+02  0.00000000000E+00 0. -1.
         11    1    3    3    0    0  0.10310414460E+02  0.46195476930E+01 -0.66689657005E+01  0.13119450103E+02  0.51100000000E-03 0. -1.
        -11    1    3    3    0    0  0.53641727565E+00 -0.13489975718E+02  0.19509772401E+02  0.23725480138E+02  0.51100000000E-03 0.  1.
        -12    1    3    3    0    0 -0.14493660317E+02 -0.15447419706E+02  0.74585099578E+01  0.22457033102E+02  0.00000000000E+00 0.  1.
</event>
<event>
 7    1  0.7819001E-012  0.5930193E+02  0.7816164E-02  0.1266605E+00
        -11   -1    0    0    0    0  0.00000000000E+00  0.00000000000E+00  0.45593999997E+02  0.45594000000E+02  0.51100000000E-03 0.  1.
         11   -1    0    0    0    0 -0.00000000000E+00 -0.00000000000E+00 -0.45593999997E+02  0.45594000000E+02  0.51100000000E-03 0. -1.
    9900012    2    1    2    0    0 -0.12894505054E+02  0.19235270179E+01  0.29099027218E+02  0.59301927777E+02  0.49999970362E+02 0.  0.
         12    1    1    2    0    0  0.12894505054E+02 -0.19235270179E+01 -0.29099027218E+02  0.31886072223E+02  0.00000000000E+00 0. -1.
         11    1    3    3    0    0 -0.22267004021E+02  0.36723127667E+01 -0.28443564039E+01  0.22746334050E+02  0.51100000000E-03 0. -1.
        -11    1    3    3    0    0  0.91910490577E+01  0.46427581661E+01  0.25394951024E+02  0.27403177260E+02  0.51100000000E-03 0.  1.
         12    1    3    3    0    0  0.18144990920E+00 -0.63915439148E+01  0.65484325982E+01  0.91524164666E+01  0.00000000000E+00 0. -1.
</event>
<event>
 7    1  0.7819001E-012  0.5930194E+02  0.7816164E-02  0.1266605E+00
        -11   -1    0    0    0    0  0.00000000000E+00  0.00000000000E+00  0.45593999997E+02  0.45594000000E+02  0.51100000000E-03 0.  1.
         11   -1    0    0    0    0 -0.00000000000E+00 -0.00000000000E+00 -0.45593999997E+02  0.45594000000E+02  0.51100000000E-03 0. -1.
    9900012    2    1    2    0    0 -0.30161665338E+02 -0.94827234023E+01  0.41318850810E+01  0.59301943903E+02  0.49999999773E+02 0.  0.
         12    1    1    2    0    0  0.30161665338E+02  0.94827234023E+01 -0.41318850810E+01  0.31886056097E+02  0.00000000000E+00 0. -1.
         11    1    3    3    0    0  0.12721705871E+01 -0.21127185393E+02  0.19955217430E+01  0.21259315321E+02  0.51100000000E-03 0. -1.
        -11    1    3    3    0    0 -0.78776388793E+01  0.11607440519E+02  0.34622443184E+01  0.14449117817E+02  0.51100000000E-03 0.  1.
         12    1    3    3    0    0 -0.23556197046E+02  0.37021471189E-01 -0.13258809805E+01  0.23593510765E+02  0.00000000000E+00 0. -1.
</event>
<event>
 7    1  0.7819001E-012  0.5930194E+02  0.7816164E-02  0.1266605E+00
        -11   -1    0    0    0    0  0.00000000000E+00  0.00000000000E+00  0.45593999997E+02  0.45594000000E+02  0.51100000000E-03 0.  1.
         11   -1    0    0    0    0 -0.00000000000E+00 -0.00000000000E+00 -0.45593999997E+02  0.45594000000E+02  0.51100000000E-03 0. -1.
    9900012    2    1    2    0    0 -0.28063644876E+02  0.14404669703E+02 -0.46538092761E+01  0.59301943271E+02  0.49999998620E+02 0.  0.
         12    1    1    2    0    0  0.28063644876E+02 -0.14404669703E+02  0.46538092761E+01  0.31886056729E+02  0.00000000000E+00 0. -1.
         11    1    3    3    0    0 -0.26958191517E+02  0.11500845482E+02 -0.13947223636E+02  0.32458259105E+02  0.51100000000E-03 0. -1.
        -11    1    3    3    0    0  0.17157994266E+01 -0.10895649144E+02  0.50686997641E+01  0.12138816067E+02  0.51100000000E-03 0.  1.
        -12    1    3    3    0    0 -0.28212527850E+01  0.13799473364E+02  0.42247145956E+01  0.14704868100E+02  0.00000000000E+00 0.  1.
</event>
<event>
 7    1  0.7819001E-012  0.5930194E+02  0.7816164E-02  0.1266605E+00
        -11   -1    0    0    0    0  0.00000000000E+00  0.00000000000E+00  0.45593999997E+02  0.45594000000E+02  0.51100000000E-03 0.  1.
         11   -1    0    0    0    0 -0.00000000000E+00 -0.00000000000E+00 -0.45593999997E+02  0.45594000000E+02  0.51100000000E-03 0. -1.
    9900012    2    1    2    0    0  0.28835408282E+00 -0.55910836221E+01  0.31390719565E+02  0.59301942875E+02  0.49999997899E+02 0.  0.
         12    1    1    2    0    0 -0.28835408282E+00  0.55910836221E+01 -0.31390719565E+02  0.31886057125E+02  0.00000000000E+00 0. -1.
         11    1    3    3    0    0  0.15342598639E+02 -0.13689343398E+02  0.22670828390E+02  0.30606533875E+02  0.51100000000E-03 0.  1.
        -11    1    3    3    0    0 -0.10312132482E+01  0.33155319942E+01 -0.65534335837E+01  0.74164442400E+01  0.51100000000E-03 0. -1.
         12    1    3    3    0    0 -0.14023031308E+02  0.47827277818E+01  0.15273324759E+02  0.21278964761E+02  0.00000000000E+00 0. -1.
</event>
<event>
 7    1  0.7819001E-012  0.5930196E+02  0.7816164E-02  0.1266605E+00
        -11   -1    0    0    0    0  0.00000000000E+00  0.00000000000E+00  0.45593999997E+02  0.45594000000E+02  0.51100000000E-03 0.  1.
         11   -1    0    0    0    0 -0.00000000000E+00 -0.00000000000E+00 -0.45593999997E+02  0.45594000000E+02  0.51100000000E-03 0. -1.
    9900012    2    1    2    0    0 -0.76717142290E+01 -0.26495576702E+02  0.15995274989E+02  0.59301959073E+02  0.50000027439E+02 0.  0.
         12    1    1    2    0    0  0.76717142290E+01  0.26495576702E+02 -0.15995274989E+02  0.31886040927E+02  0.00000000000E+00 0. -1.
         11    1    3    3    0    0  0.15447204012E+02 -0.13424897749E+02 -0.60980629600E+01  0.21354867442E+02  0.51100000000E-03 0. -1.
        -11    1    3    3    0    0 -0.15539208132E+02 -0.56797650976E+01  0.21785810150E+02  0.27355954473E+02  0.51100000000E-03 0.  1.
         12    1    3    3    0    0 -0.75797101087E+01 -0.73909138559E+01  0.30752779887E+00  0.10591137158E+02  0.00000000000E+00 0. -1.
</event>
<event>
 7    1  0.7819001E-012  0.5930195E+02  0.7816164E-02  0.1266605E+00
        -11   -1    0    0    0    0  0.00000000000E+00  0.00000000000E+00  0.45593999997E+02  0.45594000000E+02  0.51100000000E-03 0.  1.
         11   -1    0    0    0    0 -0.00000000000E+00 -0.00000000000E+00 -0.45593999997E+02  0.45594000000E+02  0.51100000000E-03 0. -1.
    9900012    2    1    2    0    0 -0.98125246721E+01 -0.22579329920E+02  0.20263477694E+02  0.59301948060E+02  0.50000007354E+02 0.  0.
         12    1    1    2    0    0  0.98125246721E+01  0.22579329920E+02 -0.20263477694E+02  0.31886051940E+02  0.00000000000E+00 0. -1.
         11    1    3    3    0    0  0.11738397678E+02 -0.89075469341E+01  0.11202707494E+01  0.14778003222E+02  0.51100000000E-03 0. -1.
        -11    1    3    3    0    0 -0.24605172083E+02 -0.19593333947E+02  0.20735811239E+02  0.37673426926E+02  0.51100000000E-03 0.  1.
        -12    1    3    3    0    0  0.30542497327E+01  0.59215509610E+01 -0.15926042945E+01  0.68505179113E+01  0.00000000000E+00 0.  1.
</event>
<event>
 7    1  0.7819001E-012  0.5930195E+02  0.7816164E-02  0.1266605E+00
        -11   -1    0    0    0    0  0.00000000000E+00  0.00000000000E+00  0.45593999997E+02  0.45594000000E+02  0.51100000000E-03 0.  1.
         11   -1    0    0    0    0 -0.00000000000E+00 -0.00000000000E+00 -0.45593999997E+02  0.45594000000E+02  0.51100000000E-03 0. -1.
    9900012    2    1    2    0    0 -0.75623315627E+01 -0.20929825755E+02  0.22835803803E+02  0.59301946621E+02  0.50000004729E+02 0.  0.
         12    1    1    2    0    0  0.75623315627E+01  0.20929825755E+02 -0.22835803803E+02  0.31886053379E+02  0.00000000000E+00 0. -1.
         11    1    3    3    0    0  0.76083845379E+01 -0.97057661827E+01 -0.48827895865E+01  0.13263900138E+02  0.51100000000E-03 0. -1.
        -11    1    3    3    0    0 -0.18803478269E+02  0.21666937604E+01  0.25848761308E+02  0.32037849777E+02  0.51100000000E-03 0.  1.
        -12    1    3    3    0    0  0.36327621686E+01 -0.13390753333E+02  0.18698320806E+01  0.14000196706E+02  0.00000000000E+00 0.  1.
</event>
<event>
 7    1  0.7819001E-012  0.5930194E+02  0.7816164E-02  0.1266605E+00
        -11   -1    0    0    0    0  0.00000000000E+00  0.00000000000E+00  0.45593999997E+02  0.45594000000E+02  0.51100000000E-03 0.  1.
         11   -1    0    0    0    0 -0.00000000000E+00 -0.00000000000E+00 -0.45593999997E+02  0.45594000000E+02  0.51100000000E-03 0. -1.
    9900012    2    1    2    0    0  0.28757852566E+02 -0.13120671013E+02  0.41898614050E+01  0.59301936734E+02  0.49999986697E+02 0.  0.
         12    1    1    2    0    0 -0.28757852566E+02  0.13120671013E+02 -0.41898614050E+01  0.31886063266E+02  0.00000000000E+00 0. -1.
         11    1    3    3    0    0 -0.51511699785E+01 -0.15906551397E+02 -0.66992273545E+01  0.18012012017E+02  0.51100000000E-03 0.  1.
        -11    1    3    3    0    0  0.31722252526E+02 -0.22480600401E+01  0.33686286257E+01  0.31979723863E+02  0.51100000000E-03 0. -1.
         12    1    3    3    0    0  0.21867700179E+01  0.50339404240E+01  0.75204601338E+01  0.93102008532E+01  0.00000000000E+00 0. -1.
</event>
<event>
 7    1  0.7819001E-012  0.5930195E+02  0.7816164E-02  0.1266605E+00
        -11   -1    0    0    0    0  0.00000000000E+00  0.00000000000E+00  0.45593999997E+02  0.45594000000E+02  0.51100000000E-03 0.  1.
         11   -1    0    0    0    0 -0.00000000000E+00 -0.00000000000E+00 -0.45593999997E+02  0.45594000000E+02  0.51100000000E-03 0. -1.
    9900012    2    1    2    0    0 -0.25181645791E+02 -0.15102160894E+01  0.19501903007E+02  0.59301948844E+02  0.50000008785E+02 0.  0.
         12    1    1    2    0    0  0.25181645791E+02  0.15102160894E+01 -0.19501903007E+02  0.31886051156E+02  0.00000000000E+00 0. -1.
         11    1    3    3    0    0 -0.29399106372E+02 -0.20587772475E+01  0.41858227296E+01  0.29766879772E+02  0.51100000000E-03 0. -1.
        -11    1    3    3    0    0  0.13186864479E+02  0.37320216928E+01  0.14547835640E+02  0.19986518025E+02  0.51100000000E-03 0.  1.
        -12    1    3    3    0    0 -0.89694038985E+01 -0.31834605347E+01  0.76824463712E+00  0.95485510468E+01  0.00000000000E+00 0.  1.
</event>
<event>
 7    1  0.7819001E-012  0.5930194E+02  0.7816164E-02  0.1266605E+00
        -11   -1    0    0    0    0  0.00000000000E+00  0.00000000000E+00  0.45593999997E+02  0.45594000000E+02  0.51100000000E-03 0.  1.
         11   -1    0    0    0    0 -0.00000000000E+00 -0.00000000000E+00 -0.45593999997E+02  0.45594000000E+02  0.51100000000E-03 0. -1.
    9900012    2    1    2    0    0 -0.31426157104E+02  0.15273466302E+01  0.51753824878E+01  0.59301941574E+02  0.49999995526E+02 0.  0.
         12    1    1    2    0    0  0.31426157104E+02 -0.15273466302E+01 -0.51753824878E+01  0.31886058426E+02  0.00000000000E+00 0. -1.
         11    1    3    3    0    0  0.76783493523E+01  0.14681923969E+02 -0.30811334194E+01  0.16852576171E+02  0.51100000000E-03 0. -1.
        -11    1    3    3    0    0 -0.23495557504E+02 -0.77435272603E+01  0.21320620542E+01  0.24830407281E+02  0.51100000000E-03 0.  1.
         12    1    3    3    0    0 -0.15608948952E+02 -0.54110500782E+01  0.61244538530E+01  0.17618958123E+02  0.00000000000E+00 0. -1.
</event>
<event>
 7    1  0.7819001E-012  0.5930182E+02  0.7816164E-02  0.1266605E+00
        -11   -1    0    0    0    0  0.00000000000E+00  0.00000000000E+00  0.45593999997E+02  0.45594000000E+02  0.51100000000E-03 0.  1.
         11   -1    0    0    0    0 -0.00000000000E+00 -0.00000000000E+00 -0.45593999997E+02  0.45594000000E+02  0.51100000000E-03 0. -1.
    9900012    2    1    2    0    0  0.81971364619E+01  0.22600632071E+02  0.20946291413E+02  0.59301815842E+02  0.49999766219E+02 0.  0.
         12    1    1    2    0    0 -0.81971364619E+01 -0.22600632071E+02 -0.20946291413E+02  0.31886184158E+02  0.00000000000E+00 0. -1.
         11    1    3    3    0    0  0.60164350546E+00 -0.11750414124E+01 -0.27906948981E+01  0.30871792147E+01  0.51100000000E-03 0. -1.
        -11    1    3    3    0    0  0.13383949408E+02 -0.14668825402E+01  0.26942340874E+02  0.30119289138E+02  0.51100000000E-03 0.  1.
        -12    1    3    3    0    0 -0.57884564520E+01  0.25242556024E+02 -0.32053545625E+01  0.26095347489E+02  0.00000000000E+00 0.  1.
</event>
<event>
 7    1  0.7819001E-012  0.5930175E+02  0.7816164E-02  0.1266605E+00
        -11   -1    0    0    0    0  0.00000000000E+00  0.00000000000E+00  0.45593999997E+02  0.45594000000E+02  0.51100000000E-03 0.  1.
         11   -1    0    0    0    0 -0.00000000000E+00 -0.00000000000E+00 -0.45593999997E+02  0.45594000000E+02  0.51100000000E-03 0. -1.
    9900012    2    1    2    0    0  0.26667008936E+02 -0.16834132288E+02  0.47133061023E+01  0.59301754848E+02  0.49999654980E+02 0.  0.
         12    1    1    2    0    0 -0.26667008936E+02  0.16834132288E+02 -0.47133061023E+01  0.31886245152E+02  0.00000000000E+00 0. -1.
         11    1    3    3    0    0  0.16451676963E+02  0.10292523453E+02  0.10059148284E+02  0.21858183328E+02  0.51100000000E-03 0.  1.
        -11    1    3    3    0    0 -0.64223726753E+00 -0.11095274811E+02 -0.12569103389E+02  0.16777960308E+02  0.51100000000E-03 0. -1.
        -12    1    3    3    0    0  0.10857569241E+02 -0.16031380929E+02  0.72232612067E+01  0.20665611212E+02  0.00000000000E+00 0.  1.
</event>
<event>
 7    1  0.7819001E-012  0.5930204E+02  0.7816164E-02  0.1266604E+00
        -11   -1    0    0    0    0  0.00000000000E+00  0.00000000000E+00  0.45593999997E+02  0.45594000000E+02  0.51100000000E-03 0.  1.
         11   -1    0    0    0    0 -0.00000000000E+00 -0.00000000000E+00 -0.45593999997E+02  0.45594000000E+02  0.51100000000E-03 0. -1.
    9900012    2    1    2    0    0  0.17536446356E+02  0.24516451147E+02 -0.10398607156E+02  0.59302041359E+02  0.50000177509E+02 0.  0.
         12    1    1    2    0    0 -0.17536446356E+02 -0.24516451147E+02  0.10398607156E+02  0.31885958641E+02  0.00000000000E+00 0. -1.
         11    1    3    3    0    0  0.61213541827E+01  0.87390726840E+01  0.18266695025E+02  0.21154538893E+02  0.51100000000E-03 0. -1.
        -11    1    3    3    0    0  0.12023362030E+02  0.13424256748E+02 -0.12818219867E+02  0.22115122983E+02  0.51100000000E-03 0.  1.
         12    1    3    3    0    0 -0.60826985694E+00  0.23531217157E+01 -0.15847082314E+02  0.16032379483E+02  0.00000000000E+00 0. -1.
</event>
<event>
 7    1  0.7819001E-012  0.5930192E+02  0.7816164E-02  0.1266605E+00
        -11   -1    0    0    0    0  0.00000000000E+00  0.00000000000E+00  0.45593999997E+02  0.45594000000E+02  0.51100000000E-03 0.  1.
         11   -1    0    0    0    0 -0.00000000000E+00 -0.00000000000E+00 -0.45593999997E+02  0.45594000000E+02  0.51100000000E-03 0. -1.
    9900012    2    1    2    0    0  0.26179450132E+02  0.17747628934E+02  0.40472110967E+01  0.59301923734E+02  0.49999962990E+02 0.  0.
         12    1    1    2    0    0 -0.26179450132E+02 -0.17747628934E+02 -0.40472110967E+01  0.31886076266E+02  0.00000000000E+00 0. -1.
         11    1    3    3    0    0  0.35962610225E+00  0.10258695717E+02 -0.18665000825E+02  0.21301465321E+02  0.51100000000E-03 0. -1.
        -11    1    3    3    0    0  0.73962861047E+01  0.91742910125E+01  0.68486671812E+01  0.13630000225E+02  0.51100000000E-03 0.  1.
         12    1    3    3    0    0  0.18423537925E+02 -0.16853577956E+01  0.15863544741E+02  0.24370458188E+02  0.00000000000E+00 0. -1.
</event>
<event>
 7    1  0.7819001E-012  0.5930190E+02  0.7816164E-02  0.1266605E+00
        -11   -1    0    0    0    0  0.00000000000E+00  0.00000000000E+00  0.45593999997E+02  0.45594000000E+02  0.51100000000E-03 0.  1.
         11   -1    0    0    0    0 -0.00000000000E+00 -0.00000000000E+00 -0.45593999997E+02  0.45594000000E+02  0.51100000000E-03 0. -1.
    9900012    2    1    2    0    0 -0.27338461602E+02 -0.15271403668E+02  0.60096621594E+01  0.59301901273E+02  0.49999922026E+02 0.  0.
         12    1    1    2    0    0  0.27338461602E+02  0.15271403668E+02 -0.60096621594E+01  0.31886098727E+02  0.00000000000E+00 0. -1.
         11    1    3    3    0    0 -0.11004431109E+01  0.16669083648E+02  0.64325619400E+01  0.17901038464E+02  0.51100000000E-03 0. -1.
        -11    1    3    3    0    0 -0.63662033355E+01 -0.92937454009E+01 -0.38653687105E+00  0.11271719456E+02  0.51100000000E-03 0.  1.
         12    1    3    3    0    0 -0.19871815156E+02 -0.22646741915E+02 -0.36362909480E-01  0.30129143353E+02  0.00000000000E+00 0. -1.
</event>
<event>
 7    1  0.9509516E-012  0.5930197E+02  0.7816164E-02  0.1266605E+00
        -11   -1    0    0    0    0  0.00000000000E+00  0.00000000000E+00  0.45593999997E+02  0.45594000000E+02  0.51100000000E-03 0. -1.
         11   -1    0    0    0    0 -0.00000000000E+00 -0.00000000000E+00 -0.45593999997E+02  0.45594000000E+02  0.51100000000E-03 0.  1.
    9900012    2    1    2    0    0  0.19314554040E+02  0.13444852476E+02 -0.21515176163E+02  0.59301970752E+02  0.50000048739E+02 0.  0.
         12    1    1    2    0    0 -0.19314554040E+02 -0.13444852476E+02  0.21515176163E+02  0.31886029248E+02  0.00000000000E+00 0. -1.
         11    1    3    3    0    0 -0.36510721247E+01  0.12245124815E+02  0.86970677886E+01  0.15456791316E+02  0.51100000000E-03 0. -1.
        -11    1    3    3    0    0  0.21725920453E+02  0.71449565199E+00 -0.10593951182E+02  0.24181768452E+02  0.51100000000E-03 0.  1.
        -12    1    3    3    0    0  0.12397057121E+01  0.48523200901E+00 -0.19618292770E+02  0.19663410985E+02  0.00000000000E+00 0.  1.
</event>
<event>
 7    1  0.7819001E-012  0.5930196E+02  0.7816164E-02  0.1266605E+00
        -11   -1    0    0    0    0  0.00000000000E+00  0.00000000000E+00  0.45593999997E+02  0.45594000000E+02  0.51100000000E-03 0.  1.
         11   -1    0    0    0    0 -0.00000000000E+00 -0.00000000000E+00 -0.45593999997E+02  0.45594000000E+02  0.51100000000E-03 0. -1.
    9900012    2    1    2    0    0  0.12822883136E+02 -0.25895060913E+02  0.13481072659E+02  0.59301955535E+02  0.50000020986E+02 0.  0.
         12    1    1    2    0    0 -0.12822883136E+02  0.25895060913E+02 -0.13481072659E+02  0.31886044465E+02  0.00000000000E+00 0. -1.
         11    1    3    3    0    0 -0.11554097064E+02 -0.13727778195E+02  0.77712248787E+01  0.19553541611E+02  0.51100000000E-03 0. -1.
        -11    1    3    3    0    0  0.17964452006E+02 -0.21469630717E+02  0.32172437046E+01  0.28178311452E+02  0.51100000000E-03 0.  1.
        -12    1    3    3    0    0  0.64125281939E+01  0.93023479990E+01  0.24926040762E+01  0.11570102472E+02  0.00000000000E+00 0.  1.
</event>
<event>
 7    1  0.7819001E-012  0.5930196E+02  0.7816164E-02  0.1266605E+00
        -11   -1    0    0    0    0  0.00000000000E+00  0.00000000000E+00  0.45593999997E+02  0.45594000000E+02  0.51100000000E-03 0. -1.
         11   -1    0    0    0    0 -0.00000000000E+00 -0.00000000000E+00 -0.45593999997E+02  0.45594000000E+02  0.51100000000E-03 0.  1.
    9900012    2    1    2    0    0  0.13963901133E+02 -0.21125378532E+02 -0.19376462365E+02  0.59301961570E+02  0.50000031993E+02 0.  0.
         12    1    1    2    0    0 -0.13963901133E+02  0.21125378532E+02  0.19376462365E+02  0.31886038430E+02  0.00000000000E+00 0. -1.
         11    1    3    3    0    0 -0.12552563771E+02 -0.99560649466E+00  0.62258493254E+01  0.14047038464E+02  0.51100000000E-03 0. -1.
        -11    1    3    3    0    0  0.20226552246E+02 -0.15531428862E+02 -0.27217373435E+02  0.37297776278E+02  0.51100000000E-03 0.  1.
        -12    1    3    3    0    0  0.62899126580E+01 -0.45983431753E+01  0.16150617452E+01  0.79571468281E+01  0.00000000000E+00 0.  1.
</event>
<event>
 7    1  0.7819001E-012  0.5930195E+02  0.7816164E-02  0.1266605E+00
        -11   -1    0    0    0    0  0.00000000000E+00  0.00000000000E+00  0.45593999997E+02  0.45594000000E+02  0.51100000000E-03 0. -1.
         11   -1    0    0    0    0 -0.00000000000E+00 -0.00000000000E+00 -0.45593999997E+02  0.45594000000E+02  0.51100000000E-03 0.  1.
    9900012    2    1    2    0    0 -0.18766297085E+02 -0.15348911927E+02 -0.20711286710E+02  0.59301946610E+02  0.50000004710E+02 0.  0.
         12    1    1    2    0    0  0.18766297085E+02  0.15348911927E+02  0.20711286710E+02  0.31886053390E+02  0.00000000000E+00 0. -1.
         11    1    3    3    0    0 -0.10281704502E+02  0.68421513094E+01  0.99286666955E+01  0.15846353039E+02  0.51100000000E-03 0. -1.
        -11    1    3    3    0    0 -0.51540430154E+01 -0.15275064877E+02 -0.31837676458E+02  0.35686543807E+02  0.51100000000E-03 0.  1.
        -12    1    3    3    0    0 -0.33305495670E+01 -0.69159983592E+01  0.11977230529E+01  0.77690497639E+01  0.00000000000E+00 0.  1.
</event>
<event>
 7    1  0.7819001E-012  0.5930194E+02  0.7816164E-02  0.1266605E+00
        -11   -1    0    0    0    0  0.00000000000E+00  0.00000000000E+00  0.45593999997E+02  0.45594000000E+02  0.51100000000E-03 0.  1.
         11   -1    0    0    0    0 -0.00000000000E+00 -0.00000000000E+00 -0.45593999997E+02  0.45594000000E+02  0.51100000000E-03 0. -1.
    9900012    2    1    2    0    0 -0.12378787275E+02 -0.60585758248E+01  0.28753786586E+02  0.59301937865E+02  0.49999988761E+02 0.  0.
         12    1    1    2    0    0  0.12378787275E+02  0.60585758248E+01 -0.28753786586E+02  0.31886062135E+02  0.00000000000E+00 0. -1.
         11    1    3    3    0    0 -0.14569201423E+01  0.76151700952E+01  0.29288249216E+02  0.30297111649E+02  0.51100000000E-03 0.  1.
        -11    1    3    3    0    0 -0.64616025380E+01  0.59940931291E+01 -0.64497581147E+00  0.88372763824E+01  0.51100000000E-03 0. -1.
         12    1    3    3    0    0 -0.44602645945E+01 -0.19667839049E+02  0.11051318126E+00  0.20167549833E+02  0.00000000000E+00 0. -1.
</event>
<event>
 7    1  0.7819001E-012  0.5930199E+02  0.7816164E-02  0.1266605E+00
        -11   -1    0    0    0    0  0.00000000000E+00  0.00000000000E+00  0.45593999997E+02  0.45594000000E+02  0.51100000000E-03 0. -1.
         11   -1    0    0    0    0 -0.00000000000E+00 -0.00000000000E+00 -0.45593999997E+02  0.45594000000E+02  0.51100000000E-03 0.  1.
    9900012    2    1    2    0    0 -0.20419668192E+02 -0.96598961965E+01 -0.22504245706E+02  0.59301991808E+02  0.50000087140E+02 0.  0.
         12    1    1    2    0    0  0.20419668192E+02  0.96598961965E+01  0.22504245706E+02  0.31886008192E+02  0.00000000000E+00 0. -1.
         11    1    3    3    0    0 -0.25377102178E+02  0.38965387113E+01  0.61515276274E+01  0.26401167045E+02  0.51100000000E-03 0. -1.
        -11    1    3    3    0    0  0.56067679017E+01 -0.58823669370E+01 -0.11355095535E+02  0.13963390776E+02  0.51100000000E-03 0.  1.
         12    1    3    3    0    0 -0.64933391543E+00 -0.76740679708E+01 -0.17300677798E+02  0.18937433987E+02  0.00000000000E+00 0. -1.
</event>
<event>
 7    1  0.7819001E-012  0.5930194E+02  0.7816164E-02  0.1266605E+00
        -11   -1    0    0    0    0  0.00000000000E+00  0.00000000000E+00  0.45593999997E+02  0.45594000000E+02  0.51100000000E-03 0.  1.
         11   -1    0    0    0    0 -0.00000000000E+00 -0.00000000000E+00 -0.45593999997E+02  0.45594000000E+02  0.51100000000E-03 0. -1.
    9900012    2    1    2    0    0  0.15741202367E+01  0.15083534092E+02  0.28048706089E+02  0.59301940844E+02  0.49999994194E+02 0.  0.
         12    1    1    2    0    0 -0.15741202367E+01 -0.15083534092E+02 -0.28048706089E+02  0.31886059156E+02  0.00000000000E+00 0. -1.
         11    1    3    3    0    0  0.91529729395E+01 -0.69417979855E+01  0.14601484628E+02  0.18578719722E+02  0.51100000000E-03 0. -1.
        -11    1    3    3    0    0 -0.16684137631E+02  0.12734099386E+02 -0.13362190767E+01  0.21031006095E+02  0.51100000000E-03 0.  1.
        -12    1    3    3    0    0  0.91052849284E+01  0.92912326910E+01  0.14783440538E+02  0.19692215028E+02  0.00000000000E+00 0.  1.
</event>
<event>
 7    1  0.7819001E-012  0.5930194E+02  0.7816164E-02  0.1266605E+00
        -11   -1    0    0    0    0  0.00000000000E+00  0.00000000000E+00  0.45593999997E+02  0.45594000000E+02  0.51100000000E-03 0. -1.
         11   -1    0    0    0    0 -0.00000000000E+00 -0.00000000000E+00 -0.45593999997E+02  0.45594000000E+02  0.51100000000E-03 0.  1.
    9900012    2    1    2    0    0  0.11215294857E+02 -0.11848755967E+02 -0.27396076898E+02  0.59301939000E+02  0.49999990830E+02 0.  0.
         12    1    1    2    0    0 -0.11215294857E+02  0.11848755967E+02  0.27396076898E+02  0.31886061000E+02  0.00000000000E+00 0. -1.
         11    1    3    3    0    0  0.16147069490E+02  0.91730796215E+01 -0.50302746249E-01  0.18570831255E+02  0.51100000000E-03 0. -1.
        -11    1    3    3    0    0  0.40860004515E+01 -0.20276810236E+02 -0.15618243185E+02  0.25918602460E+02  0.51100000000E-03 0.  1.
        -12    1    3    3    0    0 -0.90177750842E+01 -0.74502535221E+00 -0.11727530967E+02  0.14812505285E+02  0.00000000000E+00 0.  1.
</event>
<event>
 7    1  0.7819001E-012  0.5930196E+02  0.7816164E-02  0.1266605E+00
        -11   -1    0    0    0    0  0.00000000000E+00  0.00000000000E+00  0.45593999997E+02  0.45594000000E+02  0.51100000000E-03 0.  1.
         11   -1    0    0    0    0 -0.00000000000E+00 -0.00000000000E+00 -0.45593999997E+02  0.45594000000E+02  0.51100000000E-03 0. -1.
    9900012    2    1    2    0    0  0.24627506340E+02  0.11202658782E+02  0.16873224118E+02  0.59301963488E+02  0.50000035491E+02 0.  0.
         12    1    1    2    0    0 -0.24627506340E+02 -0.11202658782E+02 -0.16873224118E+02  0.31886036512E+02  0.00000000000E+00 0. -1.
         11    1    3    3    0    0  0.65867993420E+01  0.28045128273E+02  0.88255264322E+01  0.30129803559E+02  0.51100000000E-03 0. -1.
        -11    1    3    3    0    0  0.11924926406E+02 -0.25398885262E+01  0.56322817572E+01  0.13430469149E+02  0.51100000000E-03 0.  1.
         12    1    3    3    0    0  0.61157805929E+01 -0.14302580965E+02  0.24154159280E+01  0.15741690780E+02  0.00000000000E+00 0. -1.
</event>
<event>
 7    1  0.7819001E-012  0.5930193E+02  0.7816164E-02  0.1266605E+00
        -11   -1    0    0    0    0  0.00000000000E+00  0.00000000000E+00  0.45593999997E+02  0.45594000000E+02  0.51100000000E-03 0. -1.
         11   -1    0    0    0    0 -0.00000000000E+00 -0.00000000000E+00 -0.45593999997E+02  0.45594000000E+02  0.51100000000E-03 0.  1.
    9900012    2    1    2    0    0 -0.15550500870E+02  0.14851758872E+02  0.23544180263E+02  0.59301933401E+02  0.49999980619E+02 0.  0.
         12    1    1    2    0    0  0.15550500870E+02 -0.14851758872E+02 -0.23544180263E+02  0.31886066599E+02  0.00000000000E+00 0. -1.
         11    1    3    3    0    0  0.20506217111E+01  0.43548386379E+01 -0.99939714121E+00  0.49161431907E+01  0.51100000000E-03 0. -1.
        -11    1    3    3    0    0 -0.28774133948E+02  0.15853784977E+02  0.81717867445E+01  0.33853676040E+02  0.51100000000E-03 0.  1.
        -12    1    3    3    0    0  0.11173011367E+02 -0.53568647428E+01  0.16371790660E+02  0.20532114170E+02  0.00000000000E+00 0.  1.
</event>
<event>
 7    1  0.7819001E-012  0.5930196E+02  0.7816164E-02  0.1266605E+00
        -11   -1    0    0    0    0  0.00000000000E+00  0.00000000000E+00  0.45593999997E+02  0.45594000000E+02  0.51100000000E-03 0.  1.
         11   -1    0    0    0    0 -0.00000000000E+00 -0.00000000000E+00 -0.45593999997E+02  0.45594000000E+02  0.51100000000E-03 0. -1.
    9900012    2    1    2    0    0  0.18365739247E+02  0.20858351245E+02  0.15631652234E+02  0.59301956873E+02  0.50000023426E+02 0.  0.
         12    1    1    2    0    0 -0.18365739247E+02 -0.20858351245E+02 -0.15631652234E+02  0.31886043127E+02  0.00000000000E+00 0. -1.
         11    1    3    3    0    0  0.21247937095E+02  0.38658981047E+00  0.27905286874E+02  0.35076050494E+02  0.51100000000E-03 0.  1.
        -11    1    3    3    0    0 -0.17580025948E+01  0.13448059011E+02 -0.96463631692E+01  0.16643112298E+02  0.51100000000E-03 0. -1.
        -12    1    3    3    0    0 -0.11241952536E+01  0.70237024232E+01 -0.26272714704E+01  0.75827940812E+01  0.00000000000E+00 0.  1.
</event>
<event>
 7    1  0.7819001E-012  0.5930195E+02  0.7816164E-02  0.1266605E+00
        -11   -1    0    0    0    0  0.00000000000E+00  0.00000000000E+00  0.45593999997E+02  0.45594000000E+02  0.51100000000E-03 0.  1.
         11   -1    0    0    0    0 -0.00000000000E+00 -0.00000000000E+00 -0.45593999997E+02  0.45594000000E+02  0.51100000000E-03 0. -1.
    9900012    2    1    2    0    0  0.24174465844E+02 -0.10304917879E+02  0.18058913532E+02  0.59301945222E+02  0.50000002178E+02 0.  0.
         12    1    1    2    0    0 -0.24174465844E+02  0.10304917879E+02 -0.18058913532E+02  0.31886054778E+02  0.00000000000E+00 0. -1.
         11    1    3    3    0    0 -0.35964942963E+01 -0.23188490445E+02  0.60589002726E+01  0.24235328204E+02  0.51100000000E-03 0. -1.
        -11    1    3    3    0    0  0.13880706782E+02  0.12349069111E+02  0.97609957725E+01  0.20986914195E+02  0.51100000000E-03 0.  1.
         12    1    3    3    0    0  0.13890253358E+02  0.53450345527E+00  0.22390174873E+01  0.14079702824E+02  0.00000000000E+00 0. -1.
</event>
<event>
 7    1  0.7819001E-012  0.5930197E+02  0.7816164E-02  0.1266605E+00
        -11   -1    0    0    0    0  0.00000000000E+00  0.00000000000E+00  0.45593999997E+02  0.45594000000E+02  0.51100000000E-03 0.  1.
         11   -1    0    0    0    0 -0.00000000000E+00 -0.00000000000E+00 -0.45593999997E+02  0.45594000000E+02  0.51100000000E-03 0. -1.
    9900012    2    1    2    0    0 -0.57763333551E+01 -0.26520805567E+02  0.16733193557E+02  0.59301969805E+02  0.50000047012E+02 0.  0.
         12    1    1    2    0    0  0.57763333551E+01  0.26520805567E+02 -0.16733193557E+02  0.31886030195E+02  0.00000000000E+00 0. -1.
         11    1    3    3    0    0 -0.64835107467E+01 -0.19421346042E+01 -0.13064223435E+02  0.14713318206E+02  0.51100000000E-03 0. -1.
        -11    1    3    3    0    0 -0.70266741327E+01 -0.53432566550E+01  0.19575244194E+02  0.21473582062E+02  0.51100000000E-03 0.  1.
         12    1    3    3    0    0  0.77338515243E+01 -0.19235414308E+02  0.10222172799E+02  0.23115069537E+02  0.00000000000E+00 0. -1.
</event>
<event>
 7    1  0.7819001E-012  0.5930195E+02  0.7816164E-02  0.1266605E+00
        -11   -1    0    0    0    0  0.00000000000E+00  0.00000000000E+00  0.45593999997E+02  0.45594000000E+02  0.51100000000E-03 0.  1.
         11   -1    0    0    0    0 -0.00000000000E+00 -0.00000000000E+00 -0.45593999997E+02  0.45594000000E+02  0.51100000000E-03 0. -1.
    9900012    2    1    2    0    0  0.94669843195E+01 -0.30206131262E+02  0.38321966874E+01  0.59301954629E+02  0.50000019335E+02 0.  0.
         12    1    1    2    0    0 -0.94669843195E+01  0.30206131262E+02 -0.38321966874E+01  0.31886045371E+02  0.00000000000E+00 0. -1.
         11    1    3    3    0    0 -0.12462209824E+02 -0.71270487870E+01  0.62996975899E+01  0.15677617424E+02  0.51100000000E-03 0. -1.
        -11    1    3    3    0    0  0.18659167451E+02 -0.25369974769E+02 -0.11675909549E+02  0.33587602084E+02  0.51100000000E-03 0.  1.
        -12    1    3    3    0    0  0.32700266934E+01  0.22908922938E+01  0.92084086468E+01  0.10036735121E+02  0.00000000000E+00 0.  1.
</event>
<event>
 7    1  0.7819001E-012  0.5930192E+02  0.7816164E-02  0.1266605E+00
        -11   -1    0    0    0    0  0.00000000000E+00  0.00000000000E+00  0.45593999997E+02  0.45594000000E+02  0.51100000000E-03 0.  1.
         11   -1    0    0    0    0 -0.00000000000E+00 -0.00000000000E+00 -0.45593999997E+02  0.45594000000E+02  0.51100000000E-03 0. -1.
    9900012    2    1    2    0    0  0.11033463942E+02 -0.18946416030E+02  0.23152069831E+02  0.59301916132E+02  0.49999949125E+02 0.  0.
         12    1    1    2    0    0 -0.11033463942E+02  0.18946416030E+02 -0.23152069831E+02  0.31886083868E+02  0.00000000000E+00 0. -1.
         11    1    3    3    0    0 -0.14938392828E+02  0.10516283612E+00 -0.52305318279E+01  0.15827984805E+02  0.51100000000E-03 0. -1.
        -11    1    3    3    0    0  0.10249242708E+02 -0.11661733347E+02  0.14354675987E+02  0.21144732765E+02  0.51100000000E-03 0.  1.
         12    1    3    3    0    0  0.15722614063E+02 -0.73898455195E+01  0.14027925672E+02  0.22329198562E+02  0.00000000000E+00 0. -1.
</event>
<event>
 7    1  0.7819001E-012  0.5930193E+02  0.7816164E-02  0.1266605E+00
        -11   -1    0    0    0    0  0.00000000000E+00  0.00000000000E+00  0.45593999997E+02  0.45594000000E+02  0.51100000000E-03 0. -1.
         11   -1    0    0    0    0 -0.00000000000E+00 -0.00000000000E+00 -0.45593999997E+02  0.45594000000E+02  0.51100000000E-03 0.  1.
    9900012    2    1    2    0    0 -0.17066651342E+02  0.87947584097E+01 -0.25457868576E+02  0.59301930378E+02  0.49999975106E+02 0.  0.
         12    1    1    2    0    0  0.17066651342E+02 -0.87947584097E+01  0.25457868576E+02  0.31886069622E+02  0.00000000000E+00 0. -1.
         11    1    3    3    0    0 -0.11486035899E+01 -0.14674376653E+02  0.16668673263E+01  0.14813340856E+02  0.51100000000E-03 0. -1.
        -11    1    3    3    0    0 -0.93716206068E+01  0.16748017975E+02 -0.40988874314E+01  0.19624582985E+02  0.51100000000E-03 0.  1.
        -12    1    3    3    0    0 -0.65464271454E+01  0.67211170874E+01 -0.23025848471E+02  0.24864006537E+02  0.00000000000E+00 0.  1.
</event>
<event>
 7    1  0.7819001E-012  0.5930191E+02  0.7816164E-02  0.1266605E+00
        -11   -1    0    0    0    0  0.00000000000E+00  0.00000000000E+00  0.45593999997E+02  0.45594000000E+02  0.51100000000E-03 0.  1.
         11   -1    0    0    0    0 -0.00000000000E+00 -0.00000000000E+00 -0.45593999997E+02  0.45594000000E+02  0.51100000000E-03 0. -1.
    9900012    2    1    2    0    0  0.30980799978E+02 -0.55501287998E+01  0.51097048929E+01  0.59301906149E+02  0.49999930919E+02 0.  0.
         12    1    1    2    0    0 -0.30980799978E+02  0.55501287998E+01 -0.51097048929E+01  0.31886093851E+02  0.00000000000E+00 0. -1.
         11    1    3    3    0    0  0.25706061427E+02 -0.40528212285E+01 -0.12944667233E+02  0.29065294838E+02  0.51100000000E-03 0. -1.
        -11    1    3    3    0    0  0.68772838072E+01 -0.97342473799E+01  0.18303017364E+02  0.21841544119E+02  0.51100000000E-03 0.  1.
         12    1    3    3    0    0 -0.16025452561E+01  0.82369398086E+01 -0.24864523758E+00  0.83950671922E+01  0.00000000000E+00 0. -1.
</event>
<event>
 7    1  0.7819001E-012  0.5930194E+02  0.7816164E-02  0.1266605E+00
        -11   -1    0    0    0    0  0.00000000000E+00  0.00000000000E+00  0.45593999997E+02  0.45594000000E+02  0.51100000000E-03 0.  1.
         11   -1    0    0    0    0 -0.00000000000E+00 -0.00000000000E+00 -0.45593999997E+02  0.45594000000E+02  0.51100000000E-03 0. -1.
    9900012    2    1    2    0    0  0.17297563066E+02  0.99680834894E+01  0.24862666261E+02  0.59301944269E+02  0.50000000440E+02 0.  0.
         12    1    1    2    0    0 -0.17297563066E+02 -0.99680834894E+01 -0.24862666261E+02  0.31886055731E+02  0.00000000000E+00 0. -1.
         11    1    3    3    0    0 -0.55047575252E+01  0.11113128068E+02  0.17374930060E-01  0.12401785074E+02  0.51100000000E-03 0. -1.
        -11    1    3    3    0    0  0.27302750325E+02  0.49537460562E+01  0.27306526991E+02  0.38931044064E+02  0.51100000000E-03 0.  1.
        -12    1    3    3    0    0 -0.45004297338E+01 -0.60987906351E+01 -0.24612356602E+01  0.79691151312E+01  0.00000000000E+00 0.  1.
</event>
<event>
 7    1  0.7819001E-012  0.5930195E+02  0.7816164E-02  0.1266605E+00
        -11   -1    0    0    0    0  0.00000000000E+00  0.00000000000E+00  0.45593999997E+02  0.45594000000E+02  0.51100000000E-03 0.  1.
         11   -1    0    0    0    0 -0.00000000000E+00 -0.00000000000E+00 -0.45593999997E+02  0.45594000000E+02  0.51100000000E-03 0. -1.
    9900012    2    1    2    0    0  0.30319158515E+02  0.64260722216E+01 -0.74949742373E+01  0.59301946370E+02  0.50000004272E+02 0.  0.
         12    1    1    2    0    0 -0.30319158515E+02 -0.64260722216E+01  0.74949742373E+01  0.31886053630E+02  0.00000000000E+00 0. -1.
         11    1    3    3    0    0 -0.20120297138E+01 -0.12453798110E+02 -0.13638327767E+02  0.18578195162E+02  0.51100000000E-03 0. -1.
        -11    1    3    3    0    0  0.43901001890E+01  0.74978887768E+01  0.59894336105E+01  0.10552944187E+02  0.51100000000E-03 0.  1.
         12    1    3    3    0    0  0.27941088040E+02  0.11381981554E+02  0.15391991936E+00  0.30170807021E+02  0.00000000000E+00 0. -1.
</event>
<event>
 7    1  0.7819001E-012  0.5930207E+02  0.7816164E-02  0.1266604E+00
        -11   -1    0    0    0    0  0.00000000000E+00  0.00000000000E+00  0.45593999997E+02  0.45594000000E+02  0.51100000000E-03 0.  1.
         11   -1    0    0    0    0 -0.00000000000E+00 -0.00000000000E+00 -0.45593999997E+02  0.45594000000E+02  0.51100000000E-03 0. -1.
    9900012    2    1    2    0    0 -0.10048332707E+02  0.83236006797E+01  0.29094002538E+02  0.59302073604E+02  0.50000236315E+02 0.  0.
         12    1    1    2    0    0  0.10048332707E+02 -0.83236006797E+01 -0.29094002538E+02  0.31885926396E+02  0.00000000000E+00 0. -1.
         11    1    3    3    0    0 -0.73198868734E+01  0.13289108167E+01 -0.10400567388E+02  0.12787437197E+02  0.51100000000E-03 0. -1.
        -11    1    3    3    0    0  0.14996163664E+01  0.15134650484E+02  0.27364931278E+02  0.31307282837E+02  0.51100000000E-03 0.  1.
         12    1    3    3    0    0 -0.42280621997E+01 -0.81399606209E+01  0.12129638648E+02  0.15207353570E+02  0.00000000000E+00 0. -1.
</event>
<event>
 7    1  0.7819001E-012  0.5930203E+02  0.7816164E-02  0.1266604E+00
        -11   -1    0    0    0    0  0.00000000000E+00  0.00000000000E+00  0.45593999997E+02  0.45594000000E+02  0.51100000000E-03 0.  1.
         11   -1    0    0    0    0 -0.00000000000E+00 -0.00000000000E+00 -0.45593999997E+02  0.45594000000E+02  0.51100000000E-03 0. -1.
    9900012    2    1    2    0    0 -0.72292106394E+01 -0.14762211046E+02  0.27322715461E+02  0.59302029078E+02  0.50000155112E+02 0.  0.
         12    1    1    2    0    0  0.72292106394E+01  0.14762211046E+02 -0.27322715461E+02  0.31885970922E+02  0.00000000000E+00 0. -1.
         11    1    3    3    0    0 -0.61564591669E+01 -0.18912415678E+02 -0.96663526630E-01  0.19889464557E+02  0.51100000000E-03 0. -1.
        -11    1    3    3    0    0  0.75713955556E+01 -0.13469022271E+01  0.28112279185E+02  0.29145161133E+02  0.51100000000E-03 0.  1.
        -12    1    3    3    0    0 -0.86441470281E+01  0.54971068586E+01 -0.69290019717E+00  0.10267403388E+02  0.00000000000E+00 0.  1.
</event>
<event>
 7    1  0.7819001E-012  0.5930199E+02  0.7816164E-02  0.1266605E+00
        -11   -1    0    0    0    0  0.00000000000E+00  0.00000000000E+00  0.45593999997E+02  0.45594000000E+02  0.51100000000E-03 0.  1.
         11   -1    0    0    0    0 -0.00000000000E+00 -0.00000000000E+00 -0.45593999997E+02  0.45594000000E+02  0.51100000000E-03 0. -1.
    9900012    2    1    2    0    0  0.12570164761E+02  0.26741208117E+02  0.11984016522E+02  0.59301985735E+02  0.50000076065E+02 0.  0.
         12    1    1    2    0    0 -0.12570164761E+02 -0.26741208117E+02 -0.11984016522E+02  0.31886014265E+02  0.00000000000E+00 0. -1.
         11    1    3    3    0    0  0.10703907066E+02 -0.65869597770E+01  0.66036538796E+01  0.14197531842E+02  0.51100000000E-03 0. -1.
        -11    1    3    3    0    0 -0.10989065550E+02  0.13200247687E+02 -0.65813689090E+01  0.18393491175E+02  0.51100000000E-03 0.  1.
        -12    1    3    3    0    0  0.12855323244E+02  0.20127920207E+02  0.11961731551E+02  0.26710962718E+02  0.00000000000E+00 0.  1.
</event>
<event>
 7    1  0.7819001E-012  0.5930195E+02  0.7816164E-02  0.1266605E+00
        -11   -1    0    0    0    0  0.00000000000E+00  0.00000000000E+00  0.45593999997E+02  0.45594000000E+02  0.51100000000E-03 0. -1.
         11   -1    0    0    0    0 -0.00000000000E+00 -0.00000000000E+00 -0.45593999997E+02  0.45594000000E+02  0.51100000000E-03 0.  1.
    9900012    2    1    2    0    0  0.11041575444E+02 -0.15611634166E+01 -0.29872502756E+02  0.59301952261E+02  0.50000015015E+02 0.  0.
         12    1    1    2    0    0 -0.11041575444E+02  0.15611634166E+01  0.29872502756E+02  0.31886047739E+02  0.00000000000E+00 0. -1.
         11    1    3    3    0    0  0.32920587019E+01  0.10982607968E+02 -0.13710612115E+02  0.17872778550E+02  0.51100000000E-03 0. -1.
        -11    1    3    3    0    0  0.15656849107E+02 -0.88289658047E+01  0.48971930437E+01  0.18629816454E+02  0.51100000000E-03 0.  1.
        -12    1    3    3    0    0 -0.79073323653E+01 -0.37148055802E+01 -0.21059083685E+02  0.22799357256E+02  0.00000000000E+00 0.  1.
</event>
<event>
 7    1  0.7819001E-012  0.5930192E+02  0.7816164E-02  0.1266605E+00
        -11   -1    0    0    0    0  0.00000000000E+00  0.00000000000E+00  0.45593999997E+02  0.45594000000E+02  0.51100000000E-03 0. -1.
         11   -1    0    0    0    0 -0.00000000000E+00 -0.00000000000E+00 -0.45593999997E+02  0.45594000000E+02  0.51100000000E-03 0.  1.
    9900012    2    1    2    0    0  0.28944010736E+02  0.64053239483E+01 -0.11744710048E+02  0.59301919236E+02  0.49999954786E+02 0.  0.
         12    1    1    2    0    0 -0.28944010736E+02 -0.64053239483E+01  0.11744710048E+02  0.31886080764E+02  0.00000000000E+00 0. -1.
         11    1    3    3    0    0 -0.53045963224E+01  0.20475552503E+00 -0.99420429098E+01  0.11270531685E+02  0.51100000000E-03 0.  1.
        -11    1    3    3    0    0  0.16300470520E+02  0.19664492313E+02 -0.29234221866E+00  0.25543747989E+02  0.51100000000E-03 0. -1.
        -12    1    3    3    0    0  0.17948136539E+02 -0.13463923890E+02 -0.15103249200E+01  0.22487639562E+02  0.00000000000E+00 0.  1.
</event>
<event>
 7    1  0.7819001E-012  0.5930193E+02  0.7816164E-02  0.1266605E+00
        -11   -1    0    0    0    0  0.00000000000E+00  0.00000000000E+00  0.45593999997E+02  0.45594000000E+02  0.51100000000E-03 0. -1.
         11   -1    0    0    0    0 -0.00000000000E+00 -0.00000000000E+00 -0.45593999997E+02  0.45594000000E+02  0.51100000000E-03 0.  1.
    9900012    2    1    2    0    0  0.26728749442E+02  0.61612098941E+01  0.16258376196E+02  0.59301931716E+02  0.49999977546E+02 0.  0.
         12    1    1    2    0    0 -0.26728749442E+02 -0.61612098941E+01 -0.16258376196E+02  0.31886068284E+02  0.00000000000E+00 0. -1.
         11    1    3    3    0    0  0.22713536594E+02 -0.76153695389E+01  0.20586161667E+02  0.31586209811E+02  0.51100000000E-03 0. -1.
        -11    1    3    3    0    0  0.10386593661E+02  0.13436357697E+02  0.37800019950E+01  0.17398432441E+02  0.51100000000E-03 0.  1.
         12    1    3    3    0    0 -0.63713808124E+01  0.34022173557E+00 -0.81077874659E+01  0.10317289464E+02  0.00000000000E+00 0. -1.
</event>
<event>
 7    1  0.7819001E-012  0.5930195E+02  0.7816164E-02  0.1266605E+00
        -11   -1    0    0    0    0  0.00000000000E+00  0.00000000000E+00  0.45593999997E+02  0.45594000000E+02  0.51100000000E-03 0.  1.
         11   -1    0    0    0    0 -0.00000000000E+00 -0.00000000000E+00 -0.45593999997E+02  0.45594000000E+02  0.51100000000E-03 0. -1.
    9900012    2    1    2    0    0  0.26509362982E+02  0.90341169978E+01  0.15243319495E+02  0.59301946860E+02  0.50000005165E+02 0.  0.
         12    1    1    2    0    0 -0.26509362982E+02 -0.90341169978E+01 -0.15243319495E+02  0.31886053140E+02  0.00000000000E+00 0. -1.
         11    1    3    3    0    0 -0.57819146156E+01 -0.45037155798E+01 -0.12477762416E+02  0.14470955249E+02  0.51100000000E-03 0. -1.
        -11    1    3    3    0    0  0.16720031697E+01 -0.27797569479E-01  0.19792701556E+01  0.25911151873E+01  0.51100000000E-03 0.  1.
         12    1    3    3    0    0  0.30619274428E+02  0.13565630147E+02  0.25741811756E+02  0.42239876423E+02  0.00000000000E+00 0. -1.
</event>
<event>
 7    1  0.7819001E-012  0.5930198E+02  0.7816164E-02  0.1266605E+00
        -11   -1    0    0    0    0  0.00000000000E+00  0.00000000000E+00  0.45593999997E+02  0.45594000000E+02  0.51100000000E-03 0.  1.
         11   -1    0    0    0    0 -0.00000000000E+00 -0.00000000000E+00 -0.45593999997E+02  0.45594000000E+02  0.51100000000E-03 0. -1.
    9900012    2    1    2    0    0  0.24622209859E+02 -0.33976286815E+01  0.19973005213E+02  0.59301983688E+02  0.50000072331E+02 0.  0.
         12    1    1    2    0    0 -0.24622209859E+02  0.33976286815E+01 -0.19973005213E+02  0.31886016312E+02  0.00000000000E+00 0. -1.
         11    1    3    3    0    0 -0.17390982232E+00 -0.79312129596E+01 -0.25565267676E+01  0.83348793039E+01  0.51100000000E-03 0. -1.
        -11    1    3    3    0    0  0.31644097964E+01  0.46954135872E+01  0.28070944625E+02  0.28636311398E+02  0.51100000000E-03 0.  1.
        -12    1    3    3    0    0  0.21631709885E+02 -0.16182930914E+00 -0.55414126445E+01  0.22330792986E+02  0.00000000000E+00 0.  1.
</event>
<event>
 7    1  0.7819001E-012  0.5930193E+02  0.7816164E-02  0.1266605E+00
        -11   -1    0    0    0    0  0.00000000000E+00  0.00000000000E+00  0.45593999997E+02  0.45594000000E+02  0.51100000000E-03 0. -1.
         11   -1    0    0    0    0 -0.00000000000E+00 -0.00000000000E+00 -0.45593999997E+02  0.45594000000E+02  0.51100000000E-03 0.  1.
    9900012    2    1    2    0    0 -0.30164007126E+02  0.65967761291E+01  0.79584341677E+01  0.59301930069E+02  0.49999974543E+02 0.  0.
         12    1    1    2    0    0  0.30164007126E+02 -0.65967761291E+01 -0.79584341677E+01  0.31886069931E+02  0.00000000000E+00 0. -1.
         11    1    3    3    0    0  0.50868979392E+01 -0.59387711147E+01  0.15604660613E+02  0.17454253525E+02  0.51100000000E-03 0. -1.
        -11    1    3    3    0    0 -0.26348006957E+02  0.16389769834E+02 -0.32588858370E+01  0.31200358379E+02  0.51100000000E-03 0.  1.
        -12    1    3    3    0    0 -0.89028981090E+01 -0.38542225899E+01 -0.43873406085E+01  0.10647318166E+02  0.00000000000E+00 0.  1.
</event>
<event>
 7    1  0.7819001E-012  0.5930196E+02  0.7816164E-02  0.1266605E+00
        -11   -1    0    0    0    0  0.00000000000E+00  0.00000000000E+00  0.45593999997E+02  0.45594000000E+02  0.51100000000E-03 0.  1.
         11   -1    0    0    0    0 -0.00000000000E+00 -0.00000000000E+00 -0.45593999997E+02  0.45594000000E+02  0.51100000000E-03 0. -1.
    9900012    2    1    2    0    0 -0.13132035788E+02  0.26955781931E+02  0.10846880032E+02  0.59301963089E+02  0.50000034763E+02 0.  0.
         12    1    1    2    0    0  0.13132035788E+02 -0.26955781931E+02 -0.10846880032E+02  0.31886036911E+02  0.00000000000E+00 0. -1.
         11    1    3    3    0    0 -0.55642156666E+01  0.55944296586E+01 -0.66418478320E+01  0.10313693910E+02  0.51100000000E-03 0. -1.
        -11    1    3    3    0    0 -0.17226079332E+02  0.28236773800E+02  0.16836126063E+02  0.37114799539E+02  0.51100000000E-03 0.  1.
        -12    1    3    3    0    0  0.96582592107E+01 -0.68754215274E+01  0.65260180164E+00  0.11873469639E+02  0.00000000000E+00 0.  1.
</event>
<event>
 7    1  0.7819001E-012  0.5930191E+02  0.7816164E-02  0.1266605E+00
        -11   -1    0    0    0    0  0.00000000000E+00  0.00000000000E+00  0.45593999997E+02  0.45594000000E+02  0.51100000000E-03 0.  1.
         11   -1    0    0    0    0 -0.00000000000E+00 -0.00000000000E+00 -0.45593999997E+02  0.45594000000E+02  0.51100000000E-03 0. -1.
    9900012    2    1    2    0    0 -0.35193307515E+01 -0.57816932341E+01  0.31159408925E+02  0.59301914788E+02  0.49999946674E+02 0.  0.
         12    1    1    2    0    0  0.35193307515E+01  0.57816932341E+01 -0.31159408925E+02  0.31886085212E+02  0.00000000000E+00 0. -1.
         11    1    3    3    0    0 -0.97627608601E+01 -0.93302619898E+00 -0.10158866029E+02  0.14120361070E+02  0.51100000000E-03 0. -1.
        -11    1    3    3    0    0 -0.20284171451E+01 -0.69128021802E+01  0.30854190879E+02  0.31684103351E+02  0.51100000000E-03 0.  1.
         12    1    3    3    0    0  0.82718472537E+01  0.20641351451E+01  0.10464084075E+02  0.13497450367E+02  0.00000000000E+00 0. -1.
</event>
<event>
 7    1  0.7870755E-012  0.5930195E+02  0.7816164E-02  0.1266605E+00
        -11   -1    0    0    0    0  0.00000000000E+00  0.00000000000E+00  0.45593999997E+02  0.45594000000E+02  0.51100000000E-03 0. -1.
         11   -1    0    0    0    0 -0.00000000000E+00 -0.00000000000E+00 -0.45593999997E+02  0.45594000000E+02  0.51100000000E-03 0.  1.
    9900012    2    1    2    0    0  0.63186612143E+01 -0.18224002243E+02 -0.25390560495E+02  0.59301948198E+02  0.50000007605E+02 0.  0.
         12    1    1    2    0    0 -0.63186612143E+01  0.18224002243E+02  0.25390560495E+02  0.31886051802E+02  0.00000000000E+00 0. -1.
         11    1    3    3    0    0  0.11057611968E+01 -0.66611214728E+01  0.12516009397E+02  0.14221242512E+02  0.51100000000E-03 0. -1.
        -11    1    3    3    0    0 -0.32577225648E+01 -0.14755406543E+02 -0.20577683915E+02  0.25529901177E+02  0.51100000000E-03 0.  1.
        -12    1    3    3    0    0  0.84706225823E+01  0.31925257725E+01 -0.17328885977E+02  0.19550804509E+02  0.00000000000E+00 0.  1.
</event>
<event>
 7    1  0.7819001E-012  0.5930195E+02  0.7816164E-02  0.1266605E+00
        -11   -1    0    0    0    0  0.00000000000E+00  0.00000000000E+00  0.45593999997E+02  0.45594000000E+02  0.51100000000E-03 0.  1.
         11   -1    0    0    0    0 -0.00000000000E+00 -0.00000000000E+00 -0.45593999997E+02  0.45594000000E+02  0.51100000000E-03 0. -1.
    9900012    2    1    2    0    0 -0.56903169695E+01  0.23647838344E+02  0.20618436573E+02  0.59301954584E+02  0.50000019251E+02 0.  0.
         12    1    1    2    0    0  0.56903169695E+01 -0.23647838344E+02 -0.20618436573E+02  0.31886045416E+02  0.00000000000E+00 0. -1.
         11    1    3    3    0    0 -0.11562644354E+02  0.21309953419E+02 -0.11184103788E+02  0.26700056872E+02  0.51100000000E-03 0. -1.
        -11    1    3    3    0    0  0.30941916997E+01  0.29028955406E+01  0.21602941607E+02  0.22015628793E+02  0.51100000000E-03 0.  1.
         12    1    3    3    0    0  0.27781356848E+01 -0.56501061484E+00  0.10199598754E+02  0.10586268919E+02  0.00000000000E+00 0. -1.
</event>
<event>
 7    1  0.8833727E-012  0.5930194E+02  0.7816164E-02  0.1266605E+00
        -11   -1    0    0    0    0  0.00000000000E+00  0.00000000000E+00  0.45593999997E+02  0.45594000000E+02  0.51100000000E-03 0. -1.
         11   -1    0    0    0    0 -0.00000000000E+00 -0.00000000000E+00 -0.45593999997E+02  0.45594000000E+02  0.51100000000E-03 0.  1.
    9900012    2    1    2    0    0  0.15871259824E+02 -0.22954585090E+02 -0.15424352365E+02  0.59301944883E+02  0.50000001559E+02 0.  0.
         12    1    1    2    0    0 -0.15871259824E+02  0.22954585090E+02  0.15424352365E+02  0.31886055117E+02  0.00000000000E+00 0. -1.
         11    1    3    3    0    0  0.18400916059E+02 -0.51132434411E+01  0.10416245445E+02  0.21754014336E+02  0.51100000000E-03 0. -1.
        -11    1    3    3    0    0  0.78377216182E+01 -0.12576694978E+02 -0.99178763065E+01  0.17831640627E+02  0.51100000000E-03 0.  1.
         12    1    3    3    0    0 -0.10367377854E+02 -0.52646466709E+01 -0.15922721503E+02  0.19716289920E+02  0.00000000000E+00 0. -1.
</event>
<event>
 7    1  0.7819001E-012  0.5930195E+02  0.7816164E-02  0.1266605E+00
        -11   -1    0    0    0    0  0.00000000000E+00  0.00000000000E+00  0.45593999997E+02  0.45594000000E+02  0.51100000000E-03 0. -1.
         11   -1    0    0    0    0 -0.00000000000E+00 -0.00000000000E+00 -0.45593999997E+02  0.45594000000E+02  0.51100000000E-03 0.  1.
    9900012    2    1    2    0    0  0.27829062877E+02  0.39498641341E+01 -0.15055295165E+02  0.59301951644E+02  0.50000013890E+02 0.  0.
         12    1    1    2    0    0 -0.27829062877E+02 -0.39498641341E+01  0.15055295165E+02  0.31886048356E+02  0.00000000000E+00 0. -1.
         11    1    3    3    0    0 -0.39001491431E+01 -0.16622691581E+01 -0.23814340569E+02  0.24188780852E+02  0.51100000000E-03 0. -1.
        -11    1    3    3    0    0  0.23678186804E+02 -0.49599108750E+00  0.43146067818E+01  0.24073187770E+02  0.51100000000E-03 0.  1.
         12    1    3    3    0    0  0.80510252158E+01  0.61081243797E+01  0.44444386225E+01  0.11039983022E+02  0.00000000000E+00 0. -1.
</event>
<event>
 7    1  0.7819001E-012  0.5930183E+02  0.7816164E-02  0.1266605E+00
        -11   -1    0    0    0    0  0.00000000000E+00  0.00000000000E+00  0.45593999997E+02  0.45594000000E+02  0.51100000000E-03 0. -1.
         11   -1    0    0    0    0 -0.00000000000E+00 -0.00000000000E+00 -0.45593999997E+02  0.45594000000E+02  0.51100000000E-03 0.  1.
    9900012    2    1    2    0    0  0.70045540945E+01 -0.76562910413E+00 -0.31097870572E+02  0.59301834974E+02  0.49999801111E+02 0.  0.
         12    1    1    2    0    0 -0.70045540945E+01  0.76562910413E+00  0.31097870572E+02  0.31886165026E+02  0.00000000000E+00 0. -1.
         11    1    3    3    0    0 -0.17603382314E+02 -0.19250781246E+01 -0.39463797270E+01  0.18142737056E+02  0.51100000000E-03 0.  1.
        -11    1    3    3    0    0  0.14227857976E+02 -0.56870213539E+01 -0.56690989358E+01  0.16337467290E+02  0.51100000000E-03 0. -1.
        -12    1    3    3    0    0  0.10380078433E+02  0.68464703744E+01 -0.21482391909E+02  0.24821630627E+02  0.00000000000E+00 0.  1.
</event>
<event>
 7    1  0.7819001E-012  0.5930196E+02  0.7816164E-02  0.1266605E+00
        -11   -1    0    0    0    0  0.00000000000E+00  0.00000000000E+00  0.45593999997E+02  0.45594000000E+02  0.51100000000E-03 0. -1.
         11   -1    0    0    0    0 -0.00000000000E+00 -0.00000000000E+00 -0.45593999997E+02  0.45594000000E+02  0.51100000000E-03 0.  1.
    9900012    2    1    2    0    0 -0.14354206203E+02 -0.21851127986E+02 -0.18253888711E+02  0.59301961001E+02  0.50000030955E+02 0.  0.
         12    1    1    2    0    0  0.14354206203E+02  0.21851127986E+02  0.18253888711E+02  0.31886038999E+02  0.00000000000E+00 0. -1.
         11    1    3    3    0    0 -0.31417042052E+01 -0.14569799900E+01  0.88012429860E+01  0.94580639860E+01  0.51100000000E-03 0. -1.
        -11    1    3    3    0    0 -0.22300722628E+02 -0.98066209314E+01 -0.24026528057E+02  0.34216459410E+02  0.51100000000E-03 0.  1.
         12    1    3    3    0    0  0.11088220630E+02 -0.10587527064E+02 -0.30286036399E+01  0.15627437605E+02  0.00000000000E+00 0. -1.
</event>
<event>
 7    1  0.7819001E-012  0.5930186E+02  0.7816164E-02  0.1266605E+00
        -11   -1    0    0    0    0  0.00000000000E+00  0.00000000000E+00  0.45593999997E+02  0.45594000000E+02  0.51100000000E-03 0. -1.
         11   -1    0    0    0    0 -0.00000000000E+00 -0.00000000000E+00 -0.45593999997E+02  0.45594000000E+02  0.51100000000E-03 0.  1.
    9900012    2    1    2    0    0 -0.10588529312E+01  0.21935016496E+02 -0.23118390986E+02  0.59301856928E+02  0.49999841151E+02 0.  0.
         12    1    1    2    0    0  0.10588529312E+01 -0.21935016496E+02  0.23118390986E+02  0.31886143072E+02  0.00000000000E+00 0. -1.
         11    1    3    3    0    0  0.15597831011E+02  0.51946477985E+01  0.15980864574E+01  0.16517583921E+02  0.51100000000E-03 0. -1.
        -11    1    3    3    0    0 -0.49372792558E+01  0.62451610007E+01 -0.25814364495E+02  0.27014073682E+02  0.51100000000E-03 0.  1.
         12    1    3    3    0    0 -0.11719404686E+02  0.10495207697E+02  0.10978870513E+01  0.15770199326E+02  0.00000000000E+00 0. -1.
</event>
<event>
 7    1  0.7819001E-012  0.5930208E+02  0.7816164E-02  0.1266604E+00
        -11   -1    0    0    0    0  0.00000000000E+00  0.00000000000E+00  0.45593999997E+02  0.45594000000E+02  0.51100000000E-03 0.  1.
         11   -1    0    0    0    0 -0.00000000000E+00 -0.00000000000E+00 -0.45593999997E+02  0.45594000000E+02  0.51100000000E-03 0. -1.
    9900012    2    1    2    0    0 -0.20239014747E+02 -0.24145069415E+02 -0.49101911205E+01  0.59302077215E+02  0.50000242902E+02 0.  0.
         12    1    1    2    0    0  0.20239014747E+02  0.24145069415E+02  0.49101911205E+01  0.31885922785E+02  0.00000000000E+00 0. -1.
         11    1    3    3    0    0 -0.10627560994E+02 -0.21856331636E+02 -0.12810975117E+02  0.27472993448E+02  0.51100000000E-03 0. -1.
        -11    1    3    3    0    0 -0.14873956647E+02  0.82687832629E+01  0.10157534246E+02  0.19818750344E+02  0.51100000000E-03 0.  1.
         12    1    3    3    0    0  0.52625028941E+01 -0.10557521042E+02 -0.22567502499E+01  0.12010333424E+02  0.00000000000E+00 0. -1.
</event>
<event>
 7    1  0.7819001E-012  0.5930193E+02  0.7816164E-02  0.1266605E+00
        -11   -1    0    0    0    0  0.00000000000E+00  0.00000000000E+00  0.45593999997E+02  0.45594000000E+02  0.51100000000E-03 0. -1.
         11   -1    0    0    0    0 -0.00000000000E+00 -0.00000000000E+00 -0.45593999997E+02  0.45594000000E+02  0.51100000000E-03 0.  1.
    9900012    2    1    2    0    0  0.20712987454E+02  0.21983774574E+02 -0.10217983685E+02  0.59301931186E+02  0.49999976580E+02 0.  0.
         12    1    1    2    0    0 -0.20712987454E+02 -0.21983774574E+02  0.10217983685E+02  0.31886068814E+02  0.00000000000E+00 0. -1.
         11    1    3    3    0    0 -0.83946391708E+00  0.13819946995E+02  0.62193732748E+01  0.15178150045E+02  0.51100000000E-03 0. -1.
        -11    1    3    3    0    0  0.25026401985E+02 -0.39657224721E+01 -0.27169080239E+01  0.25483903557E+02  0.51100000000E-03 0.  1.
        -12    1    3    3    0    0 -0.34739506133E+01  0.12129550052E+02 -0.13720448936E+02  0.18639877584E+02  0.00000000000E+00 0.  1.
</event>
<event>
 7    1  0.7819001E-012  0.5930194E+02  0.7816164E-02  0.1266605E+00
        -11   -1    0    0    0    0  0.00000000000E+00  0.00000000000E+00  0.45593999997E+02  0.45594000000E+02  0.51100000000E-03 0.  1.
         11   -1    0    0    0    0 -0.00000000000E+00 -0.00000000000E+00 -0.45593999997E+02  0.45594000000E+02  0.51100000000E-03 0. -1.
    9900012    2    1    2    0    0 -0.20084436200E+01  0.27252918362E+02  0.16430628328E+02  0.59301937962E+02  0.49999988937E+02 0.  0.
         12    1    1    2    0    0  0.20084436200E+01 -0.27252918362E+02 -0.16430628328E+02  0.31886062038E+02  0.00000000000E+00 0. -1.
         11    1    3    3    0    0 -0.85942960486E-01 -0.42036062740E-01 -0.33884024587E+01  0.33897528975E+01  0.51100000000E-03 0. -1.
        -11    1    3    3    0    0  0.93022268339E+01  0.19237989016E+02  0.31333356793E+02  0.37926387827E+02  0.51100000000E-03 0.  1.
        -12    1    3    3    0    0 -0.11224727493E+02  0.80569654092E+01 -0.11514326006E+02  0.17985797238E+02  0.00000000000E+00 0.  1.
</event>
<event>
 7    1  0.7819001E-012  0.5930194E+02  0.7816164E-02  0.1266605E+00
        -11   -1    0    0    0    0  0.00000000000E+00  0.00000000000E+00  0.45593999997E+02  0.45594000000E+02  0.51100000000E-03 0. -1.
         11   -1    0    0    0    0 -0.00000000000E+00 -0.00000000000E+00 -0.45593999997E+02  0.45594000000E+02  0.51100000000E-03 0.  1.
    9900012    2    1    2    0    0  0.24823971653E+02 -0.16366913943E+02 -0.11515865737E+02  0.59301943419E+02  0.49999998890E+02 0.  0.
         12    1    1    2    0    0 -0.24823971653E+02  0.16366913943E+02  0.11515865737E+02  0.31886056581E+02  0.00000000000E+00 0. -1.
         11    1    3    3    0    0  0.15293757811E+02  0.54099301709E+01 -0.98085811287E+01  0.18957179021E+02  0.51100000000E-03 0. -1.
        -11    1    3    3    0    0  0.16512253744E+01 -0.11924233131E+02  0.15111606723E+02  0.19320314154E+02  0.51100000000E-03 0.  1.
        -12    1    3    3    0    0  0.78789884672E+01 -0.98526109825E+01 -0.16818891331E+02  0.21024450243E+02  0.00000000000E+00 0.  1.
</event>
<event>
 7    1  0.7819001E-012  0.5930192E+02  0.7816164E-02  0.1266605E+00
        -11   -1    0    0    0    0  0.00000000000E+00  0.00000000000E+00  0.45593999997E+02  0.45594000000E+02  0.51100000000E-03 0.  1.
         11   -1    0    0    0    0 -0.00000000000E+00 -0.00000000000E+00 -0.45593999997E+02  0.45594000000E+02  0.51100000000E-03 0. -1.
    9900012    2    1    2    0    0  0.28032362685E+02  0.14491606028E+02 -0.45718498250E+01  0.59301924452E+02  0.49999964299E+02 0.  0.
         12    1    1    2    0    0 -0.28032362685E+02 -0.14491606028E+02  0.45718498250E+01  0.31886075548E+02  0.00000000000E+00 0. -1.
         11    1    3    3    0    0 -0.42853758227E+01  0.83610549361E+01 -0.16730195442E+02  0.19187785838E+02  0.51100000000E-03 0. -1.
        -11    1    3    3    0    0  0.28361523145E+02  0.84224573195E+01  0.28239992499E+01  0.29720174199E+02  0.51100000000E-03 0.  1.
         12    1    3    3    0    0  0.39562153632E+01 -0.22919062273E+01  0.93343463672E+01  0.10393964415E+02  0.00000000000E+00 0. -1.
</event>
<event>
 7    1  0.7819001E-012  0.5930204E+02  0.7816164E-02  0.1266604E+00
        -11   -1    0    0    0    0  0.00000000000E+00  0.00000000000E+00  0.45593999997E+02  0.45594000000E+02  0.51100000000E-03 0.  1.
         11   -1    0    0    0    0 -0.00000000000E+00 -0.00000000000E+00 -0.45593999997E+02  0.45594000000E+02  0.51100000000E-03 0. -1.
    9900012    2    1    2    0    0  0.30767697518E+02  0.76305013952E+01  0.34407342997E+01  0.59302040478E+02  0.50000175902E+02 0.  0.
         12    1    1    2    0    0 -0.30767697518E+02 -0.76305013952E+01 -0.34407342997E+01  0.31885959522E+02  0.00000000000E+00 0. -1.
         11    1    3    3    0    0  0.51760768125E+01 -0.65842183431E+01  0.20186610347E+01  0.86150272775E+01  0.51100000000E-03 0. -1.
        -11    1    3    3    0    0  0.74907099615E-01  0.13166844249E+02 -0.15281211796E+02  0.20171436061E+02  0.51100000000E-03 0.  1.
        -12    1    3    3    0    0  0.25516713606E+02  0.10478754893E+01  0.16703285061E+02  0.30515577139E+02  0.00000000000E+00 0.  1.
</event>
<event>
 7    1  0.7819001E-012  0.5930221E+02  0.7816164E-02  0.1266604E+00
        -11   -1    0    0    0    0  0.00000000000E+00  0.00000000000E+00  0.45593999997E+02  0.45594000000E+02  0.51100000000E-03 0.  1.
         11   -1    0    0    0    0 -0.00000000000E+00 -0.00000000000E+00 -0.45593999997E+02  0.45594000000E+02  0.51100000000E-03 0. -1.
    9900012    2    1    2    0    0  0.22176252225E+02  0.22675150979E+02  0.32795196244E+01  0.59302205614E+02  0.50000477068E+02 0.  0.
         12    1    1    2    0    0 -0.22176252225E+02 -0.22675150979E+02 -0.32795196244E+01  0.31885794386E+02  0.00000000000E+00 0. -1.
         11    1    3    3    0    0  0.12705645490E+02  0.27575627853E+02 -0.13191870938E+02  0.33103989758E+02  0.51100000000E-03 0. -1.
        -11    1    3    3    0    0 -0.14085721613E+01  0.20552831631E+00  0.13817796823E+02  0.13890926057E+02  0.51100000000E-03 0.  1.
        -12    1    3    3    0    0  0.10879178896E+02 -0.51060051896E+01  0.26535937390E+01  0.12307289798E+02  0.00000000000E+00 0.  1.
</event>
<event>
 7    1  0.7819001E-012  0.5930195E+02  0.7816164E-02  0.1266605E+00
        -11   -1    0    0    0    0  0.00000000000E+00  0.00000000000E+00  0.45593999997E+02  0.45594000000E+02  0.51100000000E-03 0.  1.
         11   -1    0    0    0    0 -0.00000000000E+00 -0.00000000000E+00 -0.45593999997E+02  0.45594000000E+02  0.51100000000E-03 0. -1.
    9900012    2    1    2    0    0  0.28131621728E+02 -0.14114125420E+02  0.51111048319E+01  0.59301951797E+02  0.50000014169E+02 0.  0.
         12    1    1    2    0    0 -0.28131621728E+02  0.14114125420E+02 -0.51111048319E+01  0.31886048203E+02  0.00000000000E+00 0. -1.
         11    1    3    3    0    0  0.23285609247E+02 -0.20527991358E+02 -0.76137143375E+01  0.31962269529E+02  0.51100000000E-03 0. -1.
        -11    1    3    3    0    0 -0.81742883615E+01 -0.15048291709E+01  0.75981329517E+01  0.11261222210E+02  0.51100000000E-03 0.  1.
         12    1    3    3    0    0  0.13020300843E+02  0.79186951085E+01  0.51266862176E+01  0.16078460058E+02  0.00000000000E+00 0. -1.
</event>
<event>
 7    1  0.7819001E-012  0.5930195E+02  0.7816164E-02  0.1266605E+00
        -11   -1    0    0    0    0  0.00000000000E+00  0.00000000000E+00  0.45593999997E+02  0.45594000000E+02  0.51100000000E-03 0.  1.
         11   -1    0    0    0    0 -0.00000000000E+00 -0.00000000000E+00 -0.45593999997E+02  0.45594000000E+02  0.51100000000E-03 0. -1.
    9900012    2    1    2    0    0 -0.12249923096E+01  0.16385233284E+02  0.27326616211E+02  0.59301946160E+02  0.50000003889E+02 0.  0.
         12    1    1    2    0    0  0.12249923096E+01 -0.16385233284E+02 -0.27326616211E+02  0.31886053840E+02  0.00000000000E+00 0. -1.
         11    1    3    3    0    0  0.55068193172E+01  0.94402294083E+01 -0.35610174995E+01  0.11494513307E+02  0.51100000000E-03 0. -1.
        -11    1    3    3    0    0 -0.34493067781E+01  0.13659768637E+02  0.36062404344E+02  0.38716714786E+02  0.51100000000E-03 0.  1.
        -12    1    3    3    0    0 -0.32825048486E+01 -0.67147647611E+01 -0.51747706335E+01  0.90907180677E+01  0.00000000000E+00 0.  1.
</event>
<event>
 7    1  0.7819001E-012  0.5930193E+02  0.7816164E-02  0.1266605E+00
        -11   -1    0    0    0    0  0.00000000000E+00  0.00000000000E+00  0.45593999997E+02  0.45594000000E+02  0.51100000000E-03 0.  1.
         11   -1    0    0    0    0 -0.00000000000E+00 -0.00000000000E+00 -0.45593999997E+02  0.45594000000E+02  0.51100000000E-03 0. -1.
    9900012    2    1    2    0    0 -0.31491952485E+02 -0.29694506907E+01 -0.40200184018E+01  0.59301933189E+02  0.49999980232E+02 0.  0.
         12    1    1    2    0    0  0.31491952485E+02  0.29694506907E+01  0.40200184018E+01  0.31886066811E+02  0.00000000000E+00 0. -1.
         11    1    3    3    0    0  0.59859325603E+00  0.22373326371E+01 -0.21242868590E+02  0.21368749084E+02  0.51100000000E-03 0. -1.
        -11    1    3    3    0    0 -0.21884588022E+02 -0.20832881480E+01  0.16001085578E+02  0.27190256018E+02  0.51100000000E-03 0.  1.
        -12    1    3    3    0    0 -0.10205957719E+02 -0.31234951799E+01  0.12217646106E+01  0.10742928087E+02  0.00000000000E+00 0.  1.
</event>
<event>
 7    1  0.7819001E-012  0.5930194E+02  0.7816164E-02  0.1266605E+00
        -11   -1    0    0    0    0  0.00000000000E+00  0.00000000000E+00  0.45593999997E+02  0.45594000000E+02  0.51100000000E-03 0.  1.
         11   -1    0    0    0    0 -0.00000000000E+00 -0.00000000000E+00 -0.45593999997E+02  0.45594000000E+02  0.51100000000E-03 0. -1.
    9900012    2    1    2    0    0  0.22565167283E+02 -0.69036635932E+01  0.21444663924E+02  0.59301937899E+02  0.49999988823E+02 0.  0.
         12    1    1    2    0    0 -0.22565167283E+02  0.69036635932E+01 -0.21444663924E+02  0.31886062101E+02  0.00000000000E+00 0. -1.
         11    1    3    3    0    0 -0.89174689050E+01  0.49058681642E+01  0.16291115834E+02  0.19209092885E+02  0.51100000000E-03 0. -1.
        -11    1    3    3    0    0  0.10178029940E+02 -0.45452474183E+01  0.12181829891E+02  0.16512072774E+02  0.51100000000E-03 0.  1.
         12    1    3    3    0    0  0.21304606248E+02 -0.72642843391E+01 -0.70282818007E+01  0.23580772239E+02  0.00000000000E+00 0. -1.
</event>
<event>
 7    1  0.8063556E-012  0.5930193E+02  0.7816164E-02  0.1266605E+00
        -11   -1    0    0    0    0  0.00000000000E+00  0.00000000000E+00  0.45593999997E+02  0.45594000000E+02  0.51100000000E-03 0. -1.
         11   -1    0    0    0    0 -0.00000000000E+00 -0.00000000000E+00 -0.45593999997E+02  0.45594000000E+02  0.51100000000E-03 0.  1.
    9900012    2    1    2    0    0 -0.21117104520E+02  0.13024220729E+02 -0.20028949666E+02  0.59301933237E+02  0.49999980320E+02 0.  0.
         12    1    1    2    0    0  0.21117104520E+02 -0.13024220729E+02  0.20028949666E+02  0.31886066763E+02  0.00000000000E+00 0. -1.
         11    1    3    3    0    0  0.12443807137E+02 -0.13013937042E+01 -0.55623061932E+01  0.13692377883E+02  0.51100000000E-03 0. -1.
        -11    1    3    3    0    0 -0.18445181526E+02  0.18029402926E+02 -0.15361459962E+02  0.30020968402E+02  0.51100000000E-03 0.  1.
         12    1    3    3    0    0 -0.15115730131E+02 -0.37037884922E+01  0.89481648964E+00  0.15588586951E+02  0.00000000000E+00 0. -1.
</event>
<event>
 7    1  0.7819001E-012  0.5930221E+02  0.7816164E-02  0.1266604E+00
        -11   -1    0    0    0    0  0.00000000000E+00  0.00000000000E+00  0.45593999997E+02  0.45594000000E+02  0.51100000000E-03 0.  1.
         11   -1    0    0    0    0 -0.00000000000E+00 -0.00000000000E+00 -0.45593999997E+02  0.45594000000E+02  0.51100000000E-03 0. -1.
    9900012    2    1    2    0    0 -0.10107795053E+02  0.11663336418E+02  0.27901656532E+02  0.59302213598E+02  0.50000491629E+02 0.  0.
         12    1    1    2    0    0  0.10107795053E+02 -0.11663336418E+02 -0.27901656532E+02  0.31885786402E+02  0.00000000000E+00 0. -1.
         11    1    3    3    0    0  0.17151475089E+02  0.43670752247E+01  0.13158194964E+01  0.17747558282E+02  0.51100000000E-03 0. -1.
        -11    1    3    3    0    0 -0.16374015919E+02  0.18921749675E+01  0.57941204587E+01  0.17471707289E+02  0.51100000000E-03 0.  1.
         12    1    3    3    0    0 -0.10885254223E+02  0.54040862260E+01  0.20791716577E+02  0.24082948027E+02  0.00000000000E+00 0. -1.
</event>
<event>
 7    1  0.7819001E-012  0.5930197E+02  0.7816164E-02  0.1266605E+00
        -11   -1    0    0    0    0  0.00000000000E+00  0.00000000000E+00  0.45593999997E+02  0.45594000000E+02  0.51100000000E-03 0.  1.
         11   -1    0    0    0    0 -0.00000000000E+00 -0.00000000000E+00 -0.45593999997E+02  0.45594000000E+02  0.51100000000E-03 0. -1.
    9900012    2    1    2    0    0  0.18898413203E+02 -0.34928558713E+01  0.25443446918E+02  0.59301967716E+02  0.50000043202E+02 0.  0.
         12    1    1    2    0    0 -0.18898413203E+02  0.34928558713E+01 -0.25443446918E+02  0.31886032284E+02  0.00000000000E+00 0. -1.
         11    1    3    3    0    0  0.24489661819E+02 -0.21191478763E+01 -0.36321291675E+01  0.24848072084E+02  0.51100000000E-03 0. -1.
        -11    1    3    3    0    0  0.27762727298E+01  0.64239147690E+01  0.12270887750E+02  0.14126183408E+02  0.51100000000E-03 0.  1.
         12    1    3    3    0    0 -0.83675213456E+01 -0.77976227640E+01  0.16804688335E+02  0.20327712224E+02  0.00000000000E+00 0. -1.
</event>
<event>
 7    1  0.7819001E-012  0.5930192E+02  0.7816164E-02  0.1266605E+00
        -11   -1    0    0    0    0  0.00000000000E+00  0.00000000000E+00  0.45593999997E+02  0.45594000000E+02  0.51100000000E-03 0.  1.
         11   -1    0    0    0    0 -0.00000000000E+00 -0.00000000000E+00 -0.45593999997E+02  0.45594000000E+02  0.51100000000E-03 0. -1.
    9900012    2    1    2    0    0  0.94352520974E+01  0.18171854297E+02  0.24443446298E+02  0.59301916238E+02  0.49999949319E+02 0.  0.
         12    1    1    2    0    0 -0.94352520974E+01 -0.18171854297E+02 -0.24443446298E+02  0.31886083762E+02  0.00000000000E+00 0. -1.
         11    1    3    3    0    0 -0.62026975978E+00 -0.64469818212E+01 -0.38911571114E+01  0.75557536424E+01  0.51100000000E-03 0. -1.
        -11    1    3    3    0    0  0.22388591341E+02  0.20324572240E+02  0.19569455067E+02  0.36018062564E+02  0.51100000000E-03 0.  1.
        -12    1    3    3    0    0 -0.12333069484E+02  0.42942638778E+01  0.87651483422E+01  0.15728100032E+02  0.00000000000E+00 0.  1.
</event>
<event>
 7    1  0.7819001E-012  0.5930195E+02  0.7816164E-02  0.1266605E+00
        -11   -1    0    0    0    0  0.00000000000E+00  0.00000000000E+00  0.45593999997E+02  0.45594000000E+02  0.51100000000E-03 0. -1.
         11   -1    0    0    0    0 -0.00000000000E+00 -0.00000000000E+00 -0.45593999997E+02  0.45594000000E+02  0.51100000000E-03 0.  1.
    9900012    2    1    2    0    0 -0.20257426006E+02 -0.13126960408E+02 -0.20833623651E+02  0.59301948624E+02  0.50000008382E+02 0.  0.
         12    1    1    2    0    0  0.20257426006E+02  0.13126960408E+02  0.20833623651E+02  0.31886051376E+02  0.00000000000E+00 0. -1.
         11    1    3    3    0    0  0.11498005494E+02 -0.69282514417E+01 -0.11457712457E+02  0.17648908561E+02  0.51100000000E-03 0. -1.
        -11    1    3    3    0    0 -0.83206789041E+01 -0.11468419494E+02 -0.10455314925E+02  0.17608860087E+02  0.51100000000E-03 0.  1.
         12    1    3    3    0    0 -0.23434752596E+02  0.52697105274E+01  0.10794037314E+01  0.24044179976E+02  0.00000000000E+00 0. -1.
</event>
<event>
 7    1  0.7819001E-012  0.5930194E+02  0.7816164E-02  0.1266605E+00
        -11   -1    0    0    0    0  0.00000000000E+00  0.00000000000E+00  0.45593999997E+02  0.45594000000E+02  0.51100000000E-03 0. -1.
         11   -1    0    0    0    0 -0.00000000000E+00 -0.00000000000E+00 -0.45593999997E+02  0.45594000000E+02  0.51100000000E-03 0.  1.
    9900012    2    1    2    0    0  0.26963602288E+02  0.13236159084E+01  0.16968585758E+02  0.59301941761E+02  0.49999995866E+02 0.  0.
         12    1    1    2    0    0 -0.26963602288E+02 -0.13236159084E+01 -0.16968585758E+02  0.31886058239E+02  0.00000000000E+00 0. -1.
         11    1    3    3    0    0 -0.16336940158E+01 -0.10035153348E+00  0.22652932892E+02  0.22711987924E+02  0.51100000000E-03 0. -1.
        -11    1    3    3    0    0  0.14997758507E+02 -0.88454069404E+01  0.26624477873E+01  0.17614272981E+02  0.51100000000E-03 0.  1.
         12    1    3    3    0    0  0.13599537797E+02  0.10269374382E+02 -0.83467949217E+01  0.18975680856E+02  0.00000000000E+00 0. -1.
</event>
<event>
 7    1  0.7819001E-012  0.5930190E+02  0.7816164E-02  0.1266605E+00
        -11   -1    0    0    0    0  0.00000000000E+00  0.00000000000E+00  0.45593999997E+02  0.45594000000E+02  0.51100000000E-03 0. -1.
         11   -1    0    0    0    0 -0.00000000000E+00 -0.00000000000E+00 -0.45593999997E+02  0.45594000000E+02  0.51100000000E-03 0.  1.
    9900012    2    1    2    0    0  0.14249530287E+02  0.28364830235E+02  0.30183772796E+01  0.59301901006E+02  0.49999921539E+02 0.  0.
         12    1    1    2    0    0 -0.14249530287E+02 -0.28364830235E+02 -0.30183772796E+01  0.31886098994E+02  0.00000000000E+00 0. -1.
         11    1    3    3    0    0 -0.37398829829E+01  0.92985130569E+00  0.34336861741E+01  0.51615452318E+01  0.51100000000E-03 0. -1.
        -11    1    3    3    0    0  0.23238616934E+02  0.69550176607E+01 -0.14940982826E+02  0.28489270888E+02  0.51100000000E-03 0.  1.
        -12    1    3    3    0    0 -0.52492036645E+01  0.20479961268E+02  0.14525673932E+02  0.25651084886E+02  0.00000000000E+00 0.  1.
</event>
<event>
 7    1  0.7819001E-012  0.5930194E+02  0.7816164E-02  0.1266605E+00
        -11   -1    0    0    0    0  0.00000000000E+00  0.00000000000E+00  0.45593999997E+02  0.45594000000E+02  0.51100000000E-03 0. -1.
         11   -1    0    0    0    0 -0.00000000000E+00 -0.00000000000E+00 -0.45593999997E+02  0.45594000000E+02  0.51100000000E-03 0.  1.
    9900012    2    1    2    0    0 -0.74448355843E+01  0.21631642948E+02 -0.22211866667E+02  0.59301943889E+02  0.49999999747E+02 0.  0.
         12    1    1    2    0    0  0.74448355843E+01 -0.21631642948E+02  0.22211866667E+02  0.31886056111E+02  0.00000000000E+00 0. -1.
         11    1    3    3    0    0  0.74937644025E+01  0.80819946584E+01 -0.46558815098E+01  0.11964630185E+02  0.51100000000E-03 0. -1.
        -11    1    3    3    0    0 -0.69994091716E+01 -0.86463463120E+01 -0.20754833202E+02  0.23548123806E+02  0.51100000000E-03 0.  1.
        -12    1    3    3    0    0 -0.79391908152E+01  0.22195994601E+02  0.31988480450E+01  0.23789189897E+02  0.00000000000E+00 0.  1.
</event>
<event>
 7    1  0.7819001E-012  0.5930194E+02  0.7816164E-02  0.1266605E+00
        -11   -1    0    0    0    0  0.00000000000E+00  0.00000000000E+00  0.45593999997E+02  0.45594000000E+02  0.51100000000E-03 0. -1.
         11   -1    0    0    0    0 -0.00000000000E+00 -0.00000000000E+00 -0.45593999997E+02  0.45594000000E+02  0.51100000000E-03 0.  1.
    9900012    2    1    2    0    0 -0.81079529079E+01 -0.13977125356E+02 -0.27488572750E+02  0.59301944029E+02  0.50000000002E+02 0.  0.
         12    1    1    2    0    0  0.81079529079E+01  0.13977125356E+02  0.27488572750E+02  0.31886055971E+02  0.00000000000E+00 0. -1.
         11    1    3    3    0    0 -0.13362860619E+02 -0.34693835238E+01 -0.73507511126E+01  0.15640850621E+02  0.51100000000E-03 0. -1.
        -11    1    3    3    0    0  0.85515553094E+01  0.12678819707E+02 -0.71658305988E+01  0.16888774254E+02  0.51100000000E-03 0.  1.
        -12    1    3    3    0    0 -0.32966475984E+01 -0.23186561539E+02 -0.12971991039E+02  0.26772319154E+02  0.00000000000E+00 0.  1.
</event>
<event>
 7    1  0.7819001E-012  0.5930199E+02  0.7816164E-02  0.1266605E+00
        -11   -1    0    0    0    0  0.00000000000E+00  0.00000000000E+00  0.45593999997E+02  0.45594000000E+02  0.51100000000E-03 0. -1.
         11   -1    0    0    0    0 -0.00000000000E+00 -0.00000000000E+00 -0.45593999997E+02  0.45594000000E+02  0.51100000000E-03 0.  1.
    9900012    2    1    2    0    0  0.24802438395E+02  0.19224073159E+02  0.56561461487E+01  0.59301985379E+02  0.50000075415E+02 0.  0.
         12    1    1    2    0    0 -0.24802438395E+02 -0.19224073159E+02 -0.56561461487E+01  0.31886014621E+02  0.00000000000E+00 0. -1.
         11    1    3    3    0    0  0.32365339003E+01 -0.44086519621E+01  0.14924895952E+02  0.15895404470E+02  0.51100000000E-03 0. -1.
        -11    1    3    3    0    0  0.22868292418E+02  0.57018759118E+01 -0.95411345252E+01  0.25426431825E+02  0.51100000000E-03 0.  1.
         12    1    3    3    0    0 -0.13023879236E+01  0.17930849209E+02  0.27238472184E+00  0.17980149085E+02  0.00000000000E+00 0. -1.
</event>
<event>
 7    1  0.7819001E-012  0.5930195E+02  0.7816164E-02  0.1266605E+00
        -11   -1    0    0    0    0  0.00000000000E+00  0.00000000000E+00  0.45593999997E+02  0.45594000000E+02  0.51100000000E-03 0.  1.
         11   -1    0    0    0    0 -0.00000000000E+00 -0.00000000000E+00 -0.45593999997E+02  0.45594000000E+02  0.51100000000E-03 0. -1.
    9900012    2    1    2    0    0  0.48342383295E+01  0.21422966775E+02  0.23117246497E+02  0.59301945819E+02  0.50000003266E+02 0.  0.
         12    1    1    2    0    0 -0.48342383295E+01 -0.21422966775E+02 -0.23117246497E+02  0.31886054181E+02  0.00000000000E+00 0. -1.
         11    1    3    3    0    0 -0.15038657304E+01 -0.66380594771E+00 -0.54000820608E+01  0.56447441922E+01  0.51100000000E-03 0. -1.
        -11    1    3    3    0    0 -0.90213352014E+01  0.66617861505E+01  0.29811287214E+02  0.31850851309E+02  0.51100000000E-03 0.  1.
        -12    1    3    3    0    0  0.15359439261E+02  0.15424986572E+02 -0.12939586559E+01  0.21806350317E+02  0.00000000000E+00 0.  1.
</event>
<event>
 7    1  0.7819001E-012  0.5930195E+02  0.7816164E-02  0.1266605E+00
        -11   -1    0    0    0    0  0.00000000000E+00  0.00000000000E+00  0.45593999997E+02  0.45594000000E+02  0.51100000000E-03 0.  1.
         11   -1    0    0    0    0 -0.00000000000E+00 -0.00000000000E+00 -0.45593999997E+02  0.45594000000E+02  0.51100000000E-03 0. -1.
    9900012    2    1    2    0    0  0.93373885356E+00 -0.30173518239E+02  0.10266783856E+02  0.59301954120E+02  0.50000018405E+02 0.  0.
         12    1    1    2    0    0 -0.93373885356E+00  0.30173518239E+02 -0.10266783856E+02  0.31886045880E+02  0.00000000000E+00 0. -1.
         11    1    3    3    0    0  0.19159325032E+01 -0.19666700723E+02 -0.10025401260E+02  0.22157585278E+02  0.51100000000E-03 0. -1.
        -11    1    3    3    0    0 -0.51393974133E+01 -0.14337000164E+02  0.25340713932E+02  0.29565431881E+02  0.51100000000E-03 0.  1.
        -12    1    3    3    0    0  0.41572037637E+01  0.38301826476E+01 -0.50485288163E+01  0.75789369608E+01  0.00000000000E+00 0.  1.
</event>
<event>
 7    1  0.7819001E-012  0.5930192E+02  0.7816164E-02  0.1266605E+00
        -11   -1    0    0    0    0  0.00000000000E+00  0.00000000000E+00  0.45593999997E+02  0.45594000000E+02  0.51100000000E-03 0. -1.
         11   -1    0    0    0    0 -0.00000000000E+00 -0.00000000000E+00 -0.45593999997E+02  0.45594000000E+02  0.51100000000E-03 0.  1.
    9900012    2    1    2    0    0 -0.29510608616E+02 -0.22340030886E+01  0.11868252424E+02  0.59301918298E+02  0.49999953075E+02 0.  0.
         12    1    1    2    0    0  0.29510608616E+02  0.22340030886E+01 -0.11868252424E+02  0.31886081702E+02  0.00000000000E+00 0. -1.
         11    1    3    3    0    0 -0.23910050522E+02  0.49334660888E+01  0.95973911821E+01  0.26232413563E+02  0.51100000000E-03 0. -1.
        -11    1    3    3    0    0  0.85751947790E+00 -0.19098243171E+02  0.35446739920E+01  0.19443326512E+02  0.51100000000E-03 0.  1.
         12    1    3    3    0    0 -0.64580775727E+01  0.11930773994E+02 -0.12738127500E+01  0.13626178223E+02  0.00000000000E+00 0. -1.
</event>
<event>
 7    1  0.7819001E-012  0.5930164E+02  0.7816164E-02  0.1266606E+00
        -11   -1    0    0    0    0  0.00000000000E+00  0.00000000000E+00  0.45593999997E+02  0.45594000000E+02  0.51100000000E-03 0. -1.
         11   -1    0    0    0    0 -0.00000000000E+00 -0.00000000000E+00 -0.45593999997E+02  0.45594000000E+02  0.51100000000E-03 0.  1.
    9900012    2    1    2    0    0  0.35185170243E+01 -0.96152653764E+01 -0.30197790351E+02  0.59301641907E+02  0.49999449002E+02 0.  0.
         12    1    1    2    0    0 -0.35185170243E+01  0.96152653764E+01  0.30197790351E+02  0.31886358093E+02  0.00000000000E+00 0. -1.
         11    1    3    3    0    0  0.28168960859E+01  0.13348446386E+02 -0.30443386976E+01  0.13977979927E+02  0.51100000000E-03 0. -1.
        -11    1    3    3    0    0  0.99352667461E+01 -0.24665691204E+02 -0.22555285226E+02  0.34868993960E+02  0.51100000000E-03 0.  1.
         12    1    3    3    0    0 -0.92336458077E+01  0.17019794414E+01 -0.45981664277E+01  0.10454668020E+02  0.00000000000E+00 0. -1.
</event>
<event>
 7    1  0.7819001E-012  0.5930194E+02  0.7816164E-02  0.1266605E+00
        -11   -1    0    0    0    0  0.00000000000E+00  0.00000000000E+00  0.45593999997E+02  0.45594000000E+02  0.51100000000E-03 0.  1.
         11   -1    0    0    0    0 -0.00000000000E+00 -0.00000000000E+00 -0.45593999997E+02  0.45594000000E+02  0.51100000000E-03 0. -1.
    9900012    2    1    2    0    0 -0.21895231718E+02  0.14260303432E+01 -0.23136250205E+02  0.59301940224E+02  0.49999993062E+02 0.  0.
         12    1    1    2    0    0  0.21895231718E+02 -0.14260303432E+01  0.23136250205E+02  0.31886059776E+02  0.00000000000E+00 0. -1.
         11    1    3    3    0    0  0.11791351470E+02 -0.53664337837E+01 -0.33139416043E+01  0.13372239538E+02  0.51100000000E-03 0. -1.
        -11    1    3    3    0    0 -0.30307849424E+02  0.14797669072E+01 -0.23728703007E+02  0.38520212791E+02  0.51100000000E-03 0.  1.
        -12    1    3    3    0    0 -0.33787337640E+01  0.53126972197E+01  0.39063944063E+01  0.74094878942E+01  0.00000000000E+00 0.  1.
</event>
<event>
 7    1  0.7819001E-012  0.5930198E+02  0.7816164E-02  0.1266605E+00
        -11   -1    0    0    0    0  0.00000000000E+00  0.00000000000E+00  0.45593999997E+02  0.45594000000E+02  0.51100000000E-03 0.  1.
         11   -1    0    0    0    0 -0.00000000000E+00 -0.00000000000E+00 -0.45593999997E+02  0.45594000000E+02  0.51100000000E-03 0. -1.
    9900012    2    1    2    0    0  0.24661005476E+02 -0.17268299391E+02 -0.10505172973E+02  0.59301984034E+02  0.50000072962E+02 0.  0.
         12    1    1    2    0    0 -0.24661005476E+02  0.17268299391E+02  0.10505172973E+02  0.31886015966E+02  0.00000000000E+00 0. -1.
         11    1    3    3    0    0  0.71149395044E+01  0.78751971955E+01 -0.18155299585E+02  0.21029883459E+02  0.51100000000E-03 0. -1.
        -11    1    3    3    0    0  0.97213984272E+01 -0.17749250114E+02 -0.57925759260E+01  0.21049831427E+02  0.51100000000E-03 0.  1.
        -12    1    3    3    0    0  0.78246675446E+01 -0.73942464722E+01  0.13442702538E+02  0.17222269148E+02  0.00000000000E+00 0.  1.
</event>
<event>
 7    1  0.7819001E-012  0.5930194E+02  0.7816164E-02  0.1266605E+00
        -11   -1    0    0    0    0  0.00000000000E+00  0.00000000000E+00  0.45593999997E+02  0.45594000000E+02  0.51100000000E-03 0.  1.
         11   -1    0    0    0    0 -0.00000000000E+00 -0.00000000000E+00 -0.45593999997E+02  0.45594000000E+02  0.51100000000E-03 0. -1.
    9900012    2    1    2    0    0  0.24083497139E+02 -0.20887427517E+02  0.64889347523E+00  0.59301944655E+02  0.50000001143E+02 0.  0.
         12    1    1    2    0    0 -0.24083497139E+02  0.20887427517E+02 -0.64889347523E+00  0.31886055345E+02  0.00000000000E+00 0. -1.
         11    1    3    3    0    0  0.15386444741E+02  0.98405657273E+01 -0.18747010054E+01  0.18360117639E+02  0.51100000000E-03 0. -1.
        -11    1    3    3    0    0  0.17420298319E+02 -0.19637928496E+02  0.46902485224E+01  0.26666710719E+02  0.51100000000E-03 0.  1.
         12    1    3    3    0    0 -0.87232459208E+01 -0.11090064749E+02 -0.21666540418E+01  0.14275116296E+02  0.00000000000E+00 0. -1.
</event>
<event>
 7    1  0.7819001E-012  0.5930196E+02  0.7816164E-02  0.1266605E+00
        -11   -1    0    0    0    0  0.00000000000E+00  0.00000000000E+00  0.45593999997E+02  0.45594000000E+02  0.51100000000E-03 0. -1.
         11   -1    0    0    0    0 -0.00000000000E+00 -0.00000000000E+00 -0.45593999997E+02  0.45594000000E+02  0.51100000000E-03 0.  1.
    9900012    2    1    2    0    0 -0.29381825390E+02  0.75558625016E+01 -0.98151413881E+01  0.59301957256E+02  0.50000024125E+02 0.  0.
         12    1    1    2    0    0  0.29381825390E+02 -0.75558625016E+01  0.98151413881E+01  0.31886042744E+02  0.00000000000E+00 0. -1.
         11    1    3    3    0    0  0.64687623681E+01 -0.41498480655E+01 -0.81495384177E+01  0.11201834770E+02  0.51100000000E-03 0. -1.
        -11    1    3    3    0    0 -0.40820698846E+02  0.96969818664E+01 -0.42079099918E+01  0.42167136710E+02  0.51100000000E-03 0.  1.
        -12    1    3    3    0    0  0.49701110878E+01  0.20087287007E+01  0.25423070215E+01  0.59329857753E+01  0.00000000000E+00 0.  1.
</event>
<event>
 7    1  0.7819001E-012  0.5930197E+02  0.7816164E-02  0.1266605E+00
        -11   -1    0    0    0    0  0.00000000000E+00  0.00000000000E+00  0.45593999997E+02  0.45594000000E+02  0.51100000000E-03 0.  1.
         11   -1    0    0    0    0 -0.00000000000E+00 -0.00000000000E+00 -0.45593999997E+02  0.45594000000E+02  0.51100000000E-03 0. -1.
    9900012    2    1    2    0    0 -0.70174682483E+01  0.13249861235E+02  0.28140985967E+02  0.59301972110E+02  0.50000051216E+02 0.  0.
         12    1    1    2    0    0  0.70174682483E+01 -0.13249861235E+02 -0.28140985967E+02  0.31886027890E+02  0.00000000000E+00 0. -1.
         11    1    3    3    0    0  0.93248757210E+00 -0.83347462601E+00 -0.20182117403E+01  0.23743192528E+01  0.51100000000E-03 0. -1.
        -11    1    3    3    0    0  0.11202188635E+02  0.80053977192E+01  0.33809282668E+02  0.36505383407E+02  0.51100000000E-03 0.  1.
        -12    1    3    3    0    0 -0.19152144456E+02  0.60779381415E+01 -0.36500849606E+01  0.20422269451E+02  0.00000000000E+00 0.  1.
</event>
<event>
 7    1  0.7819001E-012  0.5930195E+02  0.7816164E-02  0.1266605E+00
        -11   -1    0    0    0    0  0.00000000000E+00  0.00000000000E+00  0.45593999997E+02  0.45594000000E+02  0.51100000000E-03 0.  1.
         11   -1    0    0    0    0 -0.00000000000E+00 -0.00000000000E+00 -0.45593999997E+02  0.45594000000E+02  0.51100000000E-03 0. -1.
    9900012    2    1    2    0    0  0.14719588746E+02 -0.17104346553E+02  0.22527657551E+02  0.59301947899E+02  0.50000007061E+02 0.  0.
         12    1    1    2    0    0 -0.14719588746E+02  0.17104346553E+02 -0.22527657551E+02  0.31886052101E+02  0.00000000000E+00 0. -1.
         11    1    3    3    0    0 -0.14632430004E+02 -0.13085814373E+01  0.35542015445E+00  0.14695125619E+02  0.51100000000E-03 0. -1.
        -11    1    3    3    0    0  0.19998517145E+02 -0.13110255623E+02  0.43561904057E+01  0.24306293128E+02  0.51100000000E-03 0.  1.
         12    1    3    3    0    0  0.93535016050E+01 -0.26855094921E+01  0.17816046991E+02  0.20300529153E+02  0.00000000000E+00 0. -1.
</event>
<event>
 7    1  0.7819001E-012  0.5930181E+02  0.7816164E-02  0.1266605E+00
        -11   -1    0    0    0    0  0.00000000000E+00  0.00000000000E+00  0.45593999997E+02  0.45594000000E+02  0.51100000000E-03 0. -1.
         11   -1    0    0    0    0 -0.00000000000E+00 -0.00000000000E+00 -0.45593999997E+02  0.45594000000E+02  0.51100000000E-03 0.  1.
    9900012    2    1    2    0    0  0.95596450218E+01 -0.20861180240E+02 -0.22139410001E+02  0.59301809742E+02  0.49999755095E+02 0.  0.
         12    1    1    2    0    0 -0.95596450218E+01  0.20861180240E+02  0.22139410001E+02  0.31886190258E+02  0.00000000000E+00 0. -1.
         11    1    3    3    0    0  0.46646887528E+01  0.11232088906E+02  0.36934477152E+01  0.12710652959E+02  0.51100000000E-03 0. -1.
        -11    1    3    3    0    0  0.11318471781E+02 -0.21126691302E+02 -0.23695331266E+02  0.33703317536E+02  0.51100000000E-03 0.  1.
         12    1    3    3    0    0 -0.64235155119E+01 -0.10966577844E+02 -0.21375264502E+01  0.12887839248E+02  0.00000000000E+00 0. -1.
</event>
<event>
 7    1  0.7819001E-012  0.5930195E+02  0.7816164E-02  0.1266605E+00
        -11   -1    0    0    0    0  0.00000000000E+00  0.00000000000E+00  0.45593999997E+02  0.45594000000E+02  0.51100000000E-03 0. -1.
         11   -1    0    0    0    0 -0.00000000000E+00 -0.00000000000E+00 -0.45593999997E+02  0.45594000000E+02  0.51100000000E-03 0.  1.
    9900012    2    1    2    0    0  0.24095096265E+02 -0.34903131935E+01 -0.20590386099E+02  0.59301953680E+02  0.50000017604E+02 0.  0.
         12    1    1    2    0    0 -0.24095096265E+02  0.34903131935E+01  0.20590386099E+02  0.31886046320E+02  0.00000000000E+00 0. -1.
         11    1    3    3    0    0 -0.23100502645E+01 -0.35261853869E+01 -0.47863894130E+00  0.42425712845E+01  0.51100000000E-03 0. -1.
        -11    1    3    3    0    0  0.21443232254E+02 -0.10946239780E+02 -0.30702227266E+02  0.39016139407E+02  0.51100000000E-03 0.  1.
        -12    1    3    3    0    0  0.49619142749E+01  0.10982111974E+02  0.10590480109E+02  0.16043242989E+02  0.00000000000E+00 0.  1.
</event>
<event>
 7    1  0.7819001E-012  0.5930191E+02  0.7816164E-02  0.1266605E+00
        -11   -1    0    0    0    0  0.00000000000E+00  0.00000000000E+00  0.45593999997E+02  0.45594000000E+02  0.51100000000E-03 0.  1.
         11   -1    0    0    0    0 -0.00000000000E+00 -0.00000000000E+00 -0.45593999997E+02  0.45594000000E+02  0.51100000000E-03 0. -1.
    9900012    2    1    2    0    0  0.89722452505E+01 -0.58494927291E+01  0.30033393939E+02  0.59301913668E+02  0.49999944632E+02 0.  0.
         12    1    1    2    0    0 -0.89722452505E+01  0.58494927291E+01 -0.30033393939E+02  0.31886086332E+02  0.00000000000E+00 0. -1.
         11    1    3    3    0    0 -0.55670909584E+01 -0.16511124222E+02  0.29230787881E+02  0.34030114388E+02  0.51100000000E-03 0. -1.
        -11    1    3    3    0    0  0.12887041290E+02  0.12736846227E+02  0.62875672656E+01  0.19179066385E+02  0.51100000000E-03 0.  1.
         12    1    3    3    0    0  0.16522949190E+01 -0.20752147342E+01 -0.54849612076E+01  0.60927328959E+01  0.00000000000E+00 0. -1.
</event>
<event>
 7    1  0.7819001E-012  0.5930191E+02  0.7816164E-02  0.1266605E+00
        -11   -1    0    0    0    0  0.00000000000E+00  0.00000000000E+00  0.45593999997E+02  0.45594000000E+02  0.51100000000E-03 0.  1.
         11   -1    0    0    0    0 -0.00000000000E+00 -0.00000000000E+00 -0.45593999997E+02  0.45594000000E+02  0.51100000000E-03 0. -1.
    9900012    2    1    2    0    0  0.39067140587E+01  0.20699224097E+02  0.23937465791E+02  0.59301912729E+02  0.49999942919E+02 0.  0.
         12    1    1    2    0    0 -0.39067140587E+01 -0.20699224097E+02 -0.23937465791E+02  0.31886087271E+02  0.00000000000E+00 0. -1.
         11    1    3    3    0    0 -0.10154722246E+02 -0.10098192559E+02  0.62075843686E+01  0.15608522697E+02  0.51100000000E-03 0. -1.
        -11    1    3    3    0    0  0.19318422154E+02  0.19983263290E+02  0.10828123530E+02  0.29829188820E+02  0.51100000000E-03 0.  1.
        -12    1    3    3    0    0 -0.52569858490E+01  0.10814153365E+02  0.69017578925E+01  0.13864201212E+02  0.00000000000E+00 0.  1.
</event>
<event>
 7    1  0.7819001E-012  0.5930192E+02  0.7816164E-02  0.1266605E+00
        -11   -1    0    0    0    0  0.00000000000E+00  0.00000000000E+00  0.45593999997E+02  0.45594000000E+02  0.51100000000E-03 0.  1.
         11   -1    0    0    0    0 -0.00000000000E+00 -0.00000000000E+00 -0.45593999997E+02  0.45594000000E+02  0.51100000000E-03 0. -1.
    9900012    2    1    2    0    0  0.31036920361E+02 -0.51583447198E+01  0.51790996425E+01  0.59301921237E+02  0.49999958436E+02 0.  0.
         12    1    1    2    0    0 -0.31036920361E+02  0.51583447198E+01 -0.51790996425E+01  0.31886078763E+02  0.00000000000E+00 0. -1.
         11    1    3    3    0    0 -0.66071907920E+01  0.31561250711E+01 -0.64715408103E+01  0.97722533914E+01  0.51100000000E-03 0. -1.
        -11    1    3    3    0    0  0.26048509031E+02 -0.11441546656E+02  0.20109421850E+02  0.34839957807E+02  0.51100000000E-03 0.  1.
        -12    1    3    3    0    0  0.11595602122E+02  0.31270768651E+01 -0.84587813973E+01  0.14689710039E+02  0.00000000000E+00 0.  1.
</event>
<event>
 7    1  0.7819001E-012  0.5930183E+02  0.7816164E-02  0.1266605E+00
        -11   -1    0    0    0    0  0.00000000000E+00  0.00000000000E+00  0.45593999997E+02  0.45594000000E+02  0.51100000000E-03 0.  1.
         11   -1    0    0    0    0 -0.00000000000E+00 -0.00000000000E+00 -0.45593999997E+02  0.45594000000E+02  0.51100000000E-03 0. -1.
    9900012    2    1    2    0    0  0.13419473460E+02 -0.24567578765E+02  0.15266954934E+02  0.59301825765E+02  0.49999784318E+02 0.  0.
         12    1    1    2    0    0 -0.13419473460E+02  0.24567578765E+02 -0.15266954934E+02  0.31886174235E+02  0.00000000000E+00 0. -1.
         11    1    3    3    0    0  0.20394762968E+02  0.13713310612E+01  0.73526771509E+01  0.21723000874E+02  0.51100000000E-03 0. -1.
        -11    1    3    3    0    0  0.52234033822E+01 -0.17376946858E+02 -0.39014269391E+01  0.18559724067E+02  0.51100000000E-03 0.  1.
        -12    1    3    3    0    0 -0.12198692890E+02 -0.85619629680E+01  0.11815704723E+02  0.19019100825E+02  0.00000000000E+00 0.  1.
</event>
<event>
 7    1  0.7819001E-012  0.5930195E+02  0.7816164E-02  0.1266605E+00
        -11   -1    0    0    0    0  0.00000000000E+00  0.00000000000E+00  0.45593999997E+02  0.45594000000E+02  0.51100000000E-03 0.  1.
         11   -1    0    0    0    0 -0.00000000000E+00 -0.00000000000E+00 -0.45593999997E+02  0.45594000000E+02  0.51100000000E-03 0. -1.
    9900012    2    1    2    0    0  0.28683631664E+02  0.47186244876E+01 -0.13103591690E+02  0.59301948854E+02  0.50000008802E+02 0.  0.
         12    1    1    2    0    0 -0.28683631664E+02 -0.47186244876E+01  0.13103591690E+02  0.31886051146E+02  0.00000000000E+00 0. -1.
         11    1    3    3    0    0  0.14010382613E+02 -0.89268273238E+01  0.96467580220E+01  0.19210388014E+02  0.51100000000E-03 0.  1.
        -11    1    3    3    0    0  0.21784582980E+02  0.89471818871E+01 -0.12181947156E+02  0.26514523493E+02  0.51100000000E-03 0. -1.
         12    1    3    3    0    0 -0.71113339291E+01  0.46982699243E+01 -0.10568402556E+02  0.13577037347E+02  0.00000000000E+00 0. -1.
</event>
<event>
 7    1  0.7819001E-012  0.5930193E+02  0.7816164E-02  0.1266605E+00
        -11   -1    0    0    0    0  0.00000000000E+00  0.00000000000E+00  0.45593999997E+02  0.45594000000E+02  0.51100000000E-03 0.  1.
         11   -1    0    0    0    0 -0.00000000000E+00 -0.00000000000E+00 -0.45593999997E+02  0.45594000000E+02  0.51100000000E-03 0. -1.
    9900012    2    1    2    0    0 -0.76475630270E+01  0.49321710596E+01  0.30559934967E+02  0.59301934755E+02  0.49999983089E+02 0.  0.
         12    1    1    2    0    0  0.76475630270E+01 -0.49321710596E+01 -0.30559934967E+02  0.31886065245E+02  0.00000000000E+00 0. -1.
         11    1    3    3    0    0  0.25381281982E+01  0.25263967604E+01 -0.13325899610E+02  0.13798709215E+02  0.51100000000E-03 0. -1.
        -11    1    3    3    0    0 -0.47590100660E+01 -0.16606942616E+01  0.14706970906E+02  0.15546738427E+02  0.51100000000E-03 0.  1.
         12    1    3    3    0    0 -0.54266811592E+01  0.40664685608E+01  0.29178863671E+02  0.29956487112E+02  0.00000000000E+00 0. -1.
</event>
<event>
 7    1  0.7819001E-012  0.5930188E+02  0.7816164E-02  0.1266605E+00
        -11   -1    0    0    0    0  0.00000000000E+00  0.00000000000E+00  0.45593999997E+02  0.45594000000E+02  0.51100000000E-03 0.  1.
         11   -1    0    0    0    0 -0.00000000000E+00 -0.00000000000E+00 -0.45593999997E+02  0.45594000000E+02  0.51100000000E-03 0. -1.
    9900012    2    1    2    0    0 -0.13394203520E+00 -0.26590166595E+02  0.17597428526E+02  0.59301884044E+02  0.49999890603E+02 0.  0.
         12    1    1    2    0    0  0.13394203520E+00  0.26590166595E+02 -0.17597428526E+02  0.31886115956E+02  0.00000000000E+00 0. -1.
         11    1    3    3    0    0 -0.10630377798E+02 -0.15057060932E+02 -0.13229419642E+02  0.22687828463E+02  0.51100000000E-03 0. -1.
        -11    1    3    3    0    0  0.75919030273E+01 -0.88313619359E+01  0.30483491216E+02  0.32632394674E+02  0.51100000000E-03 0.  1.
         12    1    3    3    0    0  0.29045327353E+01 -0.27017437272E+01  0.34335695262E+00  0.39816609066E+01  0.00000000000E+00 0. -1.
</event>
<event>
 7    1  0.7819001E-012  0.5930192E+02  0.7816164E-02  0.1266605E+00
        -11   -1    0    0    0    0  0.00000000000E+00  0.00000000000E+00  0.45593999997E+02  0.45594000000E+02  0.51100000000E-03 0. -1.
         11   -1    0    0    0    0 -0.00000000000E+00 -0.00000000000E+00 -0.45593999997E+02  0.45594000000E+02  0.51100000000E-03 0.  1.
    9900012    2    1    2    0    0 -0.30319659869E+02  0.94645454259E+01  0.28040424914E+01  0.59301920765E+02  0.49999957574E+02 0.  0.
         12    1    1    2    0    0  0.30319659869E+02 -0.94645454259E+01 -0.28040424914E+01  0.31886079235E+02  0.00000000000E+00 0. -1.
         11    1    3    3    0    0 -0.24355633681E+02  0.87701228372E+01 -0.14615653139E+01  0.25927748070E+02  0.51100000000E-03 0. -1.
        -11    1    3    3    0    0  0.88983934987E+01  0.11608283923E+02  0.11276343246E+01  0.14669874639E+02  0.51100000000E-03 0.  1.
        -12    1    3    3    0    0 -0.14862419687E+02 -0.10913861335E+02  0.31379734806E+01  0.18704298055E+02  0.00000000000E+00 0.  1.
</event>
<event>
 7    1  0.7819001E-012  0.5930190E+02  0.7816164E-02  0.1266605E+00
        -11   -1    0    0    0    0  0.00000000000E+00  0.00000000000E+00  0.45593999997E+02  0.45594000000E+02  0.51100000000E-03 0. -1.
         11   -1    0    0    0    0 -0.00000000000E+00 -0.00000000000E+00 -0.45593999997E+02  0.45594000000E+02  0.51100000000E-03 0.  1.
    9900012    2    1    2    0    0 -0.19040110793E+02  0.18418589863E+02 -0.17746913290E+02  0.59301902671E+02  0.49999924575E+02 0.  0.
         12    1    1    2    0    0  0.19040110793E+02 -0.18418589863E+02  0.17746913290E+02  0.31886097329E+02  0.00000000000E+00 0. -1.
         11    1    3    3    0    0  0.36207614064E+01 -0.42265208392E+01  0.96442646990E+00  0.56483192405E+01  0.51100000000E-03 0. -1.
        -11    1    3    3    0    0 -0.26491477207E+02  0.17802345904E+02 -0.28027737362E+02  0.42476769488E+02  0.51100000000E-03 0.  1.
        -12    1    3    3    0    0  0.38306050075E+01  0.48427647984E+01  0.93163976016E+01  0.11176813942E+02  0.00000000000E+00 0.  1.
</event>
<event>
 7    1  0.7819001E-012  0.5930192E+02  0.7816164E-02  0.1266605E+00
        -11   -1    0    0    0    0  0.00000000000E+00  0.00000000000E+00  0.45593999997E+02  0.45594000000E+02  0.51100000000E-03 0.  1.
         11   -1    0    0    0    0 -0.00000000000E+00 -0.00000000000E+00 -0.45593999997E+02  0.45594000000E+02  0.51100000000E-03 0. -1.
    9900012    2    1    2    0    0  0.24358395533E+02 -0.14977370124E+02  0.14109193906E+02  0.59301915238E+02  0.49999947495E+02 0.  0.
         12    1    1    2    0    0 -0.24358395533E+02  0.14977370124E+02 -0.14109193906E+02  0.31886084762E+02  0.00000000000E+00 0. -1.
         11    1    3    3    0    0  0.49390313077E+01 -0.15732535244E+02 -0.10506909433E+02  0.19552540540E+02  0.51100000000E-03 0. -1.
        -11    1    3    3    0    0  0.20225225974E+02  0.92704478979E+01  0.20516602056E+02  0.30264367334E+02  0.51100000000E-03 0.  1.
        -12    1    3    3    0    0 -0.80586174916E+00 -0.85152827778E+01  0.40995012829E+01  0.94850073650E+01  0.00000000000E+00 0.  1.
</event>
<event>
 7    1  0.7819001E-012  0.5930196E+02  0.7816164E-02  0.1266605E+00
        -11   -1    0    0    0    0  0.00000000000E+00  0.00000000000E+00  0.45593999997E+02  0.45594000000E+02  0.51100000000E-03 0.  1.
         11   -1    0    0    0    0 -0.00000000000E+00 -0.00000000000E+00 -0.45593999997E+02  0.45594000000E+02  0.51100000000E-03 0. -1.
    9900012    2    1    2    0    0 -0.24272332643E+02 -0.18532265562E+02  0.91721445625E+01  0.59301964896E+02  0.50000038058E+02 0.  0.
         12    1    1    2    0    0  0.24272332643E+02  0.18532265562E+02 -0.91721445625E+01  0.31886035104E+02  0.00000000000E+00 0. -1.
         11    1    3    3    0    0  0.10392107333E+02 -0.13531772622E+02  0.78704476271E+01  0.18789590501E+02  0.51100000000E-03 0. -1.
        -11    1    3    3    0    0 -0.34839316339E+02 -0.46195606629E+01 -0.38401868195E+01  0.35353434611E+02  0.51100000000E-03 0.  1.
        -12    1    3    3    0    0  0.17487636367E+00 -0.38093227771E+00  0.51418837549E+01  0.51589397837E+01  0.00000000000E+00 0.  1.
</event>
<event>
 7    1  0.7819001E-012  0.5930201E+02  0.7816164E-02  0.1266605E+00
        -11   -1    0    0    0    0  0.00000000000E+00  0.00000000000E+00  0.45593999997E+02  0.45594000000E+02  0.51100000000E-03 0.  1.
         11   -1    0    0    0    0 -0.00000000000E+00 -0.00000000000E+00 -0.45593999997E+02  0.45594000000E+02  0.51100000000E-03 0. -1.
    9900012    2    1    2    0    0  0.16091579570E+02 -0.16166621343E+02  0.22280432188E+02  0.59302011899E+02  0.50000123781E+02 0.  0.
         12    1    1    2    0    0 -0.16091579570E+02  0.16166621343E+02 -0.22280432188E+02  0.31885988101E+02  0.00000000000E+00 0. -1.
         11    1    3    3    0    0  0.91622548091E+01 -0.83423579463E+01 -0.87321360330E+01  0.15158893405E+02  0.51100000000E-03 0. -1.
        -11    1    3    3    0    0  0.16663298384E+02 -0.92794929413E+00  0.26643478268E+02  0.31438853946E+02  0.51100000000E-03 0.  1.
         12    1    3    3    0    0 -0.97339736238E+01 -0.68963141023E+01  0.43690899527E+01  0.12704264549E+02  0.00000000000E+00 0. -1.
</event>
<event>
 7    1  0.7819001E-012  0.5930189E+02  0.7816164E-02  0.1266605E+00
        -11   -1    0    0    0    0  0.00000000000E+00  0.00000000000E+00  0.45593999997E+02  0.45594000000E+02  0.51100000000E-03 0.  1.
         11   -1    0    0    0    0 -0.00000000000E+00 -0.00000000000E+00 -0.45593999997E+02  0.45594000000E+02  0.51100000000E-03 0. -1.
    9900012    2    1    2    0    0 -0.11133285479E+00  0.22545909452E+02  0.22547590099E+02  0.59301886294E+02  0.49999894707E+02 0.  0.
         12    1    1    2    0    0  0.11133285479E+00 -0.22545909452E+02 -0.22547590099E+02  0.31886113706E+02  0.00000000000E+00 0. -1.
         11    1    3    3    0    0  0.76758954106E+00  0.10962398756E+02 -0.95715642883E+01  0.14573202235E+02  0.51100000000E-03 0. -1.
        -11    1    3    3    0    0  0.73502110356E+01  0.16716697322E+02  0.29479033507E+02  0.34676894157E+02  0.51100000000E-03 0.  1.
        -12    1    3    3    0    0 -0.82291334315E+01 -0.51331866260E+01  0.26401208800E+01  0.10051789902E+02  0.00000000000E+00 0.  1.
</event>
<event>
 7    1  0.7819001E-012  0.5930194E+02  0.7816164E-02  0.1266605E+00
        -11   -1    0    0    0    0  0.00000000000E+00  0.00000000000E+00  0.45593999997E+02  0.45594000000E+02  0.51100000000E-03 0. -1.
         11   -1    0    0    0    0 -0.00000000000E+00 -0.00000000000E+00 -0.45593999997E+02  0.45594000000E+02  0.51100000000E-03 0.  1.
    9900012    2    1    2    0    0  0.21390266187E+02  0.12908025317E+02 -0.19813137916E+02  0.59301936599E+02  0.49999986452E+02 0.  0.
         12    1    1    2    0    0 -0.21390266187E+02 -0.12908025317E+02  0.19813137916E+02  0.31886063401E+02  0.00000000000E+00 0. -1.
         11    1    3    3    0    0 -0.63274994012E+00 -0.62933682869E+01 -0.38214284167E+01  0.73898695716E+01  0.51100000000E-03 0. -1.
        -11    1    3    3    0    0 -0.64439877244E+00  0.20579183518E+02  0.47789188726E+01  0.21136605922E+02  0.51100000000E-03 0.  1.
        -12    1    3    3    0    0  0.22667414899E+02 -0.13777899146E+01 -0.20770628372E+02  0.30775461105E+02  0.00000000000E+00 0.  1.
</event>
<event>
 7    1  0.7819001E-012  0.5930193E+02  0.7816164E-02  0.1266605E+00
        -11   -1    0    0    0    0  0.00000000000E+00  0.00000000000E+00  0.45593999997E+02  0.45594000000E+02  0.51100000000E-03 0.  1.
         11   -1    0    0    0    0 -0.00000000000E+00 -0.00000000000E+00 -0.45593999997E+02  0.45594000000E+02  0.51100000000E-03 0. -1.
    9900012    2    1    2    0    0 -0.46938346607E+00  0.28834646062E+02 -0.13603824775E+02  0.59301934346E+02  0.49999982343E+02 0.  0.
         12    1    1    2    0    0  0.46938346607E+00 -0.28834646062E+02  0.13603824775E+02  0.31886065654E+02  0.00000000000E+00 0. -1.
         11    1    3    3    0    0 -0.19454062447E+02  0.23436480482E+02  0.39331953938E+01  0.30711548143E+02  0.51100000000E-03 0. -1.
        -11    1    3    3    0    0 -0.79085651194E+00  0.16218660255E-01  0.77429548223E+00  0.11069104852E+01  0.51100000000E-03 0.  1.
         12    1    3    3    0    0  0.19775535493E+02  0.53819469207E+01 -0.18311315651E+02  0.27483475718E+02  0.00000000000E+00 0. -1.
</event>
<event>
 7    1  0.7819001E-012  0.5930195E+02  0.7816164E-02  0.1266605E+00
        -11   -1    0    0    0    0  0.00000000000E+00  0.00000000000E+00  0.45593999997E+02  0.45594000000E+02  0.51100000000E-03 0. -1.
         11   -1    0    0    0    0 -0.00000000000E+00 -0.00000000000E+00 -0.45593999997E+02  0.45594000000E+02  0.51100000000E-03 0.  1.
    9900012    2    1    2    0    0  0.26921071199E+02  0.11872067094E+02 -0.12289419574E+02  0.59301954697E+02  0.50000019459E+02 0.  0.
         12    1    1    2    0    0 -0.26921071199E+02 -0.11872067094E+02  0.12289419574E+02  0.31886045303E+02  0.00000000000E+00 0. -1.
         11    1    3    3    0    0  0.26478356757E+02  0.18293608066E+02 -0.81818965780E+01  0.33206970721E+02  0.51100000000E-03 0.  1.
        -11    1    3    3    0    0  0.61985062267E+01 -0.10411656875E+02  0.62171892388E+01  0.13619013203E+02  0.51100000000E-03 0. -1.
         12    1    3    3    0    0 -0.57557917846E+01  0.39901159035E+01 -0.10324712235E+02  0.12475970773E+02  0.00000000000E+00 0. -1.
</event>
<event>
 7    1  0.7819001E-012  0.5930192E+02  0.7816164E-02  0.1266605E+00
        -11   -1    0    0    0    0  0.00000000000E+00  0.00000000000E+00  0.45593999997E+02  0.45594000000E+02  0.51100000000E-03 0.  1.
         11   -1    0    0    0    0 -0.00000000000E+00 -0.00000000000E+00 -0.45593999997E+02  0.45594000000E+02  0.51100000000E-03 0. -1.
    9900012    2    1    2    0    0 -0.16532574178E+02 -0.75011302014E+01  0.26213145285E+02  0.59301922333E+02  0.49999960433E+02 0.  0.
         12    1    1    2    0    0  0.16532574178E+02  0.75011302014E+01 -0.26213145285E+02  0.31886077667E+02  0.00000000000E+00 0. -1.
         11    1    3    3    0    0  0.38766412197E+00 -0.17420647006E+02  0.26719915381E+01  0.17628634791E+02  0.51100000000E-03 0. -1.
        -11    1    3    3    0    0 -0.15135849440E+02  0.19178117835E+02  0.20096319434E+02  0.31634730867E+02  0.51100000000E-03 0.  1.
        -12    1    3    3    0    0 -0.17843888604E+01 -0.92586010309E+01  0.34448343129E+01  0.10038556674E+02  0.00000000000E+00 0.  1.
</event>
<event>
 7    1  0.7819001E-012  0.5930195E+02  0.7816164E-02  0.1266605E+00
        -11   -1    0    0    0    0  0.00000000000E+00  0.00000000000E+00  0.45593999997E+02  0.45594000000E+02  0.51100000000E-03 0.  1.
         11   -1    0    0    0    0 -0.00000000000E+00 -0.00000000000E+00 -0.45593999997E+02  0.45594000000E+02  0.51100000000E-03 0. -1.
    9900012    2    1    2    0    0 -0.64483095521E+01 -0.28990898526E+02 -0.11604625008E+02  0.59301949524E+02  0.50000010023E+02 0.  0.
         12    1    1    2    0    0  0.64483095521E+01  0.28990898526E+02  0.11604625008E+02  0.31886050476E+02  0.00000000000E+00 0. -1.
         11    1    3    3    0    0 -0.34992338544E+00 -0.17053968058E+02 -0.27758573105E+02  0.32580648459E+02  0.51100000000E-03 0. -1.
        -11    1    3    3    0    0 -0.18041814913E+01 -0.90547866554E+01  0.18775698932E+02  0.20922980258E+02  0.51100000000E-03 0.  1.
         12    1    3    3    0    0 -0.42942046754E+01 -0.28821438117E+01 -0.26217508339E+01  0.57983208070E+01  0.00000000000E+00 0. -1.
</event>
<event>
 7    1  0.7819001E-012  0.5930196E+02  0.7816164E-02  0.1266605E+00
        -11   -1    0    0    0    0  0.00000000000E+00  0.00000000000E+00  0.45593999997E+02  0.45594000000E+02  0.51100000000E-03 0. -1.
         11   -1    0    0    0    0 -0.00000000000E+00 -0.00000000000E+00 -0.45593999997E+02  0.45594000000E+02  0.51100000000E-03 0.  1.
    9900012    2    1    2    0    0 -0.20367698975E+01  0.25250553728E+02 -0.19364422588E+02  0.59301956699E+02  0.50000023110E+02 0.  0.
         12    1    1    2    0    0  0.20367698975E+01 -0.25250553728E+02  0.19364422588E+02  0.31886043301E+02  0.00000000000E+00 0. -1.
         11    1    3    3    0    0 -0.41176758427E+01 -0.41705810567E+01  0.46103243575E+01  0.74568151136E+01  0.51100000000E-03 0. -1.
        -11    1    3    3    0    0 -0.37249411019E+01  0.35856703115E+02 -0.23759313735E+02  0.43175031371E+02  0.51100000000E-03 0.  1.
        -12    1    3    3    0    0  0.58058470472E+01 -0.64355683298E+01 -0.21543321012E+00  0.86701102144E+01  0.00000000000E+00 0.  1.
</event>
<event>
 7    1  0.7819001E-012  0.5930194E+02  0.7816164E-02  0.1266605E+00
        -11   -1    0    0    0    0  0.00000000000E+00  0.00000000000E+00  0.45593999997E+02  0.45594000000E+02  0.51100000000E-03 0. -1.
         11   -1    0    0    0    0 -0.00000000000E+00 -0.00000000000E+00 -0.45593999997E+02  0.45594000000E+02  0.51100000000E-03 0.  1.
    9900012    2    1    2    0    0 -0.17242180505E+02  0.22186193800E+01 -0.26730243924E+02  0.59301937202E+02  0.49999987552E+02 0.  0.
         12    1    1    2    0    0  0.17242180505E+02 -0.22186193800E+01  0.26730243924E+02  0.31886062798E+02  0.00000000000E+00 0. -1.
         11    1    3    3    0    0 -0.16750174828E+02  0.56416983430E+01  0.95849989336E+01  0.20106449756E+02  0.51100000000E-03 0. -1.
        -11    1    3    3    0    0 -0.47376539581E+01  0.91192916012E+00 -0.30191993380E+02  0.30575046105E+02  0.51100000000E-03 0.  1.
         12    1    3    3    0    0  0.42456482810E+01 -0.43350081231E+01 -0.61232494779E+01  0.86204413415E+01  0.00000000000E+00 0. -1.
</event>
<event>
 7    1  0.7819001E-012  0.5930194E+02  0.7816164E-02  0.1266605E+00
        -11   -1    0    0    0    0  0.00000000000E+00  0.00000000000E+00  0.45593999997E+02  0.45594000000E+02  0.51100000000E-03 0.  1.
         11   -1    0    0    0    0 -0.00000000000E+00 -0.00000000000E+00 -0.45593999997E+02  0.45594000000E+02  0.51100000000E-03 0. -1.
    9900012    2    1    2    0    0 -0.26742803927E+02 -0.17239047499E+02 -0.20876422286E+01  0.59301943947E+02  0.49999999853E+02 0.  0.
         12    1    1    2    0    0  0.26742803927E+02  0.17239047499E+02  0.20876422286E+01  0.31886056053E+02  0.00000000000E+00 0. -1.
         11    1    3    3    0    0  0.45974332387E+01  0.49973270523E+01  0.11195599838E+02  0.13093934704E+02  0.51100000000E-03 0. -1.
        -11    1    3    3    0    0 -0.29235940030E+02 -0.18204290180E+02 -0.18656020532E+02  0.39168654212E+02  0.51100000000E-03 0.  1.
         12    1    3    3    0    0 -0.21042971349E+01 -0.40320843718E+01  0.53727784654E+01  0.70393550309E+01  0.00000000000E+00 0. -1.
</event>
<event>
 7    1  0.7819001E-012  0.5930188E+02  0.7816164E-02  0.1266605E+00
        -11   -1    0    0    0    0  0.00000000000E+00  0.00000000000E+00  0.45593999997E+02  0.45594000000E+02  0.51100000000E-03 0.  1.
         11   -1    0    0    0    0 -0.00000000000E+00 -0.00000000000E+00 -0.45593999997E+02  0.45594000000E+02  0.51100000000E-03 0. -1.
    9900012    2    1    2    0    0  0.18290176538E+02 -0.22991313780E+02  0.12393298392E+02  0.59301875868E+02  0.49999875693E+02 0.  0.
         12    1    1    2    0    0 -0.18290176538E+02  0.22991313780E+02 -0.12393298392E+02  0.31886124132E+02  0.00000000000E+00 0. -1.
         11    1    3    3    0    0 -0.19579733069E+00  0.62993561766E+01 -0.48099719192E+01  0.79281810625E+01  0.51100000000E-03 0. -1.
        -11    1    3    3    0    0  0.23457923341E+02 -0.32481534871E+02  0.20064293637E+02  0.44809598910E+02  0.51100000000E-03 0.  1.
        -12    1    3    3    0    0 -0.49719494724E+01  0.31908649138E+01 -0.28610233260E+01  0.65640958955E+01  0.00000000000E+00 0.  1.
</event>
<event>
 7    1  0.7819001E-012  0.5930194E+02  0.7816164E-02  0.1266605E+00
        -11   -1    0    0    0    0  0.00000000000E+00  0.00000000000E+00  0.45593999997E+02  0.45594000000E+02  0.51100000000E-03 0.  1.
         11   -1    0    0    0    0 -0.00000000000E+00 -0.00000000000E+00 -0.45593999997E+02  0.45594000000E+02  0.51100000000E-03 0. -1.
    9900012    2    1    2    0    0 -0.28570186462E+02  0.95294216475E+01  0.10471654914E+02  0.59301937401E+02  0.49999987914E+02 0.  0.
         12    1    1    2    0    0  0.28570186462E+02 -0.95294216475E+01 -0.10471654914E+02  0.31886062599E+02  0.00000000000E+00 0. -1.
         11    1    3    3    0    0 -0.34514144813E+02  0.57662994073E+01 -0.10247629155E+02  0.36462176356E+02  0.51100000000E-03 0.  1.
        -11    1    3    3    0    0  0.73795710026E+01  0.32490501856E+01  0.17965599364E+02  0.19692058198E+02  0.51100000000E-03 0. -1.
        -12    1    3    3    0    0 -0.14356126520E+01  0.51407205462E+00  0.27536847044E+01  0.31477028474E+01  0.00000000000E+00 0.  1.
</event>
<event>
 7    1  0.7819001E-012  0.5930195E+02  0.7816164E-02  0.1266605E+00
        -11   -1    0    0    0    0  0.00000000000E+00  0.00000000000E+00  0.45593999997E+02  0.45594000000E+02  0.51100000000E-03 0.  1.
         11   -1    0    0    0    0 -0.00000000000E+00 -0.00000000000E+00 -0.45593999997E+02  0.45594000000E+02  0.51100000000E-03 0. -1.
    9900012    2    1    2    0    0  0.28742892666E+02  0.13701302326E+02 -0.16854473483E+01  0.59301948237E+02  0.50000007677E+02 0.  0.
         12    1    1    2    0    0 -0.28742892666E+02 -0.13701302326E+02  0.16854473483E+01  0.31886051763E+02  0.00000000000E+00 0. -1.
         11    1    3    3    0    0 -0.53446177408E+01  0.84748677285E+01 -0.13896666838E+02  0.17132007217E+02  0.51100000000E-03 0. -1.
        -11    1    3    3    0    0  0.16677699596E+02  0.36466879182E+01 -0.48454339807E+01  0.17746048217E+02  0.51100000000E-03 0.  1.
         12    1    3    3    0    0  0.17409810811E+02  0.15797466791E+01  0.17056653471E+02  0.24423892803E+02  0.00000000000E+00 0. -1.
</event>
<event>
 7    1  0.7819001E-012  0.5930194E+02  0.7816164E-02  0.1266605E+00
        -11   -1    0    0    0    0  0.00000000000E+00  0.00000000000E+00  0.45593999997E+02  0.45594000000E+02  0.51100000000E-03 0. -1.
         11   -1    0    0    0    0 -0.00000000000E+00 -0.00000000000E+00 -0.45593999997E+02  0.45594000000E+02  0.51100000000E-03 0.  1.
    9900012    2    1    2    0    0  0.26851537408E+02  0.14904717094E+02  0.85770219348E+01  0.59301937871E+02  0.49999988771E+02 0.  0.
         12    1    1    2    0    0 -0.26851537408E+02 -0.14904717094E+02 -0.85770219348E+01  0.31886062129E+02  0.00000000000E+00 0. -1.
         11    1    3    3    0    0 -0.36603936889E+01 -0.25422330373E+01  0.16825782812E+02  0.17405987426E+02  0.51100000000E-03 0. -1.
        -11    1    3    3    0    0  0.29325070812E+02  0.21181345724E+02 -0.10105719349E+02  0.37559749049E+02  0.51100000000E-03 0.  1.
        -12    1    3    3    0    0  0.11868602855E+01 -0.37343955927E+01  0.18569584716E+01  0.43362013958E+01  0.00000000000E+00 0.  1.
</event>
<event>
 7    1  0.7819001E-012  0.5930192E+02  0.7816164E-02  0.1266605E+00
        -11   -1    0    0    0    0  0.00000000000E+00  0.00000000000E+00  0.45593999997E+02  0.45594000000E+02  0.51100000000E-03 0.  1.
         11   -1    0    0    0    0 -0.00000000000E+00 -0.00000000000E+00 -0.45593999997E+02  0.45594000000E+02  0.51100000000E-03 0. -1.
    9900012    2    1    2    0    0 -0.10668601366E+02  0.34702822652E+01  0.29847276947E+02  0.59301923803E+02  0.49999963115E+02 0.  0.
         12    1    1    2    0    0  0.10668601366E+02 -0.34702822652E+01 -0.29847276947E+02  0.31886076197E+02  0.00000000000E+00 0. -1.
         11    1    3    3    0    0  0.11097267579E+02  0.23729654946E+01 -0.37688609047E+01  0.11957617895E+02  0.51100000000E-03 0. -1.
        -11    1    3    3    0    0 -0.24981238395E+01  0.79419094743E+01  0.22672000812E+02  0.24152311895E+02  0.51100000000E-03 0.  1.
         12    1    3    3    0    0 -0.19267745105E+02 -0.68445927037E+01  0.10944137040E+02  0.23191994012E+02  0.00000000000E+00 0. -1.
</event>
<event>
 7    1  0.7819001E-012  0.5930196E+02  0.7816164E-02  0.1266605E+00
        -11   -1    0    0    0    0  0.00000000000E+00  0.00000000000E+00  0.45593999997E+02  0.45594000000E+02  0.51100000000E-03 0. -1.
         11   -1    0    0    0    0 -0.00000000000E+00 -0.00000000000E+00 -0.45593999997E+02  0.45594000000E+02  0.51100000000E-03 0.  1.
    9900012    2    1    2    0    0  0.31174774808E+01 -0.27215890294E+02 -0.16318575268E+02  0.59301964669E+02  0.50000037645E+02 0.  0.
         12    1    1    2    0    0 -0.31174774808E+01  0.27215890294E+02  0.16318575268E+02  0.31886035331E+02  0.00000000000E+00 0. -1.
         11    1    3    3    0    0 -0.75058374283E+00  0.49727376743E+01  0.70570586425E+01  0.86656547864E+01  0.51100000000E-03 0. -1.
        -11    1    3    3    0    0  0.16314976192E+02 -0.26411880872E+02 -0.18094957842E+02  0.35933179638E+02  0.51100000000E-03 0.  1.
        -12    1    3    3    0    0 -0.12446914968E+02 -0.57767470966E+01 -0.52806760692E+01  0.14703130245E+02  0.00000000000E+00 0.  1.
</event>
<event>
 7    1  0.7819001E-012  0.5930195E+02  0.7816164E-02  0.1266605E+00
        -11   -1    0    0    0    0  0.00000000000E+00  0.00000000000E+00  0.45593999997E+02  0.45594000000E+02  0.51100000000E-03 0.  1.
         11   -1    0    0    0    0 -0.00000000000E+00 -0.00000000000E+00 -0.45593999997E+02  0.45594000000E+02  0.51100000000E-03 0. -1.
    9900012    2    1    2    0    0 -0.12503975513E+01  0.30041594311E+02  0.10614113523E+02  0.59301948368E+02  0.50000007916E+02 0.  0.
         12    1    1    2    0    0  0.12503975513E+01 -0.30041594311E+02 -0.10614113523E+02  0.31886051632E+02  0.00000000000E+00 0. -1.
         11    1    3    3    0    0  0.33194011156E+01 -0.64272953878E+01  0.13199332033E+02  0.15051608424E+02  0.51100000000E-03 0. -1.
        -11    1    3    3    0    0 -0.13053435505E+02  0.32030616193E+02 -0.24487451621E+01  0.34674903105E+02  0.51100000000E-03 0.  1.
         12    1    3    3    0    0  0.84836368378E+01  0.44382735055E+01 -0.13647334729E+00  0.95754368401E+01  0.00000000000E+00 0. -1.
</event>
<event>
 7    1  0.7819001E-012  0.5930193E+02  0.7816164E-02  0.1266605E+00
        -11   -1    0    0    0    0  0.00000000000E+00  0.00000000000E+00  0.45593999997E+02  0.45594000000E+02  0.51100000000E-03 0.  1.
         11   -1    0    0    0    0 -0.00000000000E+00 -0.00000000000E+00 -0.45593999997E+02  0.45594000000E+02  0.51100000000E-03 0. -1.
    9900012    2    1    2    0    0  0.12791747288E+02  0.92431895076E+01  0.27706611181E+02  0.59301926957E+02  0.49999968867E+02 0.  0.
         12    1    1    2    0    0 -0.12791747288E+02 -0.92431895076E+01 -0.27706611181E+02  0.31886073043E+02  0.00000000000E+00 0. -1.
         11    1    3    3    0    0  0.15756685460E+02 -0.11618421446E+02  0.90814597708E+01  0.21580865724E+02  0.51100000000E-03 0. -1.
        -11    1    3    3    0    0 -0.76567447584E+01  0.90689648498E+01  0.21635473409E+02  0.24677227835E+02  0.51100000000E-03 0.  1.
         12    1    3    3    0    0  0.46918065865E+01  0.11792646103E+02 -0.30103219982E+01  0.13043833397E+02  0.00000000000E+00 0. -1.
</event>
<event>
 7    1  0.7819001E-012  0.5930196E+02  0.7816164E-02  0.1266605E+00
        -11   -1    0    0    0    0  0.00000000000E+00  0.00000000000E+00  0.45593999997E+02  0.45594000000E+02  0.51100000000E-03 0. -1.
         11   -1    0    0    0    0 -0.00000000000E+00 -0.00000000000E+00 -0.45593999997E+02  0.45594000000E+02  0.51100000000E-03 0.  1.
    9900012    2    1    2    0    0  0.22144309857E+02 -0.10412454607E+02 -0.20443327373E+02  0.59301963807E+02  0.50000036073E+02 0.  0.
         12    1    1    2    0    0 -0.22144309857E+02  0.10412454607E+02  0.20443327373E+02  0.31886036193E+02  0.00000000000E+00 0. -1.
         11    1    3    3    0    0 -0.36883319199E+00  0.71234779093E+01  0.89272773585E+01  0.11426996838E+02  0.51100000000E-03 0. -1.
        -11    1    3    3    0    0 -0.98473415727E+00 -0.95027546749E+01 -0.18387917614E+02  0.20721668905E+02  0.51100000000E-03 0.  1.
         12    1    3    3    0    0  0.23497877206E+02 -0.80331778419E+01 -0.10982687118E+02  0.27153298064E+02  0.00000000000E+00 0. -1.
</event>
<event>
 7    1  0.7819001E-012  0.5930194E+02  0.7816164E-02  0.1266605E+00
        -11   -1    0    0    0    0  0.00000000000E+00  0.00000000000E+00  0.45593999997E+02  0.45594000000E+02  0.51100000000E-03 0.  1.
         11   -1    0    0    0    0 -0.00000000000E+00 -0.00000000000E+00 -0.45593999997E+02  0.45594000000E+02  0.51100000000E-03 0. -1.
    9900012    2    1    2    0    0 -0.58209751993E+01  0.31319425611E+02  0.13895319215E+01  0.59301937655E+02  0.49999988378E+02 0.  0.
         12    1    1    2    0    0  0.58209751993E+01 -0.31319425611E+02 -0.13895319215E+01  0.31886062345E+02  0.00000000000E+00 0. -1.
         11    1    3    3    0    0 -0.16596497533E+01 -0.44365056893E+01 -0.17464333336E+02  0.18095302130E+02  0.51100000000E-03 0. -1.
        -11    1    3    3    0    0 -0.34060824855E+01  0.97940576152E+01  0.78182667880E+01  0.12986541429E+02  0.51100000000E-03 0.  1.
         12    1    3    3    0    0 -0.75524296048E+00  0.25961873686E+02  0.11035598470E+02  0.28220094096E+02  0.00000000000E+00 0. -1.
</event>
<event>
 7    1  0.7819001E-012  0.5930193E+02  0.7816164E-02  0.1266605E+00
        -11   -1    0    0    0    0  0.00000000000E+00  0.00000000000E+00  0.45593999997E+02  0.45594000000E+02  0.51100000000E-03 0.  1.
         11   -1    0    0    0    0 -0.00000000000E+00 -0.00000000000E+00 -0.45593999997E+02  0.45594000000E+02  0.51100000000E-03 0. -1.
    9900012    2    1    2    0    0  0.93420465711E+01 -0.23818011799E+02  0.19030234821E+02  0.59301931607E+02  0.49999977348E+02 0.  0.
         12    1    1    2    0    0 -0.93420465711E+01  0.23818011799E+02 -0.19030234821E+02  0.31886068393E+02  0.00000000000E+00 0. -1.
         11    1    3    3    0    0  0.18254309235E+01  0.13490224944E+02  0.43430609308E+01  0.14289175819E+02  0.51100000000E-03 0. -1.
        -11    1    3    3    0    0  0.29513024944E+01 -0.32492442785E+02  0.46147774312E+01  0.32950951360E+02  0.51100000000E-03 0.  1.
        -12    1    3    3    0    0  0.45653131533E+01 -0.48157939576E+01  0.10072396459E+02  0.12061804428E+02  0.00000000000E+00 0.  1.
</event>
<event>
 7    1  0.7819001E-012  0.5930196E+02  0.7816164E-02  0.1266605E+00
        -11   -1    0    0    0    0  0.00000000000E+00  0.00000000000E+00  0.45593999997E+02  0.45594000000E+02  0.51100000000E-03 0. -1.
         11   -1    0    0    0    0 -0.00000000000E+00 -0.00000000000E+00 -0.45593999997E+02  0.45594000000E+02  0.51100000000E-03 0.  1.
    9900012    2    1    2    0    0 -0.29061546082E+02 -0.24265249753E+01 -0.12894109681E+02  0.59301959973E+02  0.50000029080E+02 0.  0.
         12    1    1    2    0    0  0.29061546082E+02  0.24265249753E+01  0.12894109681E+02  0.31886040027E+02  0.00000000000E+00 0. -1.
         11    1    3    3    0    0 -0.29143676811E+02 -0.13645138178E+02  0.57910912621E+01  0.32696795443E+02  0.51100000000E-03 0. -1.
        -11    1    3    3    0    0  0.82350765407E+00  0.20296344239E+01 -0.17113752729E+02  0.17253350790E+02  0.51100000000E-03 0.  1.
        -12    1    3    3    0    0 -0.74137692515E+00  0.91889787788E+01 -0.15714482148E+01  0.93518137403E+01  0.00000000000E+00 0.  1.
</event>
<event>
 7    1  0.7819001E-012  0.5930193E+02  0.7816164E-02  0.1266605E+00
        -11   -1    0    0    0    0  0.00000000000E+00  0.00000000000E+00  0.45593999997E+02  0.45594000000E+02  0.51100000000E-03 0. -1.
         11   -1    0    0    0    0 -0.00000000000E+00 -0.00000000000E+00 -0.45593999997E+02  0.45594000000E+02  0.51100000000E-03 0.  1.
    9900012    2    1    2    0    0 -0.43381106859E+01 -0.14545306631E+02 -0.28041691328E+02  0.59301927777E+02  0.49999970362E+02 0.  0.
         12    1    1    2    0    0  0.43381106859E+01  0.14545306631E+02  0.28041691328E+02  0.31886072223E+02  0.00000000000E+00 0. -1.
         11    1    3    3    0    0 -0.66785933759E+01  0.48208208182E+01  0.92152023837E+01  0.12359768528E+02  0.51100000000E-03 0. -1.
        -11    1    3    3    0    0  0.58212317400E+01 -0.10971822465E+02 -0.35600672040E+02  0.37705112083E+02  0.51100000000E-03 0.  1.
        -12    1    3    3    0    0 -0.34807490499E+01 -0.83943049840E+01 -0.16562216712E+01  0.92370471655E+01  0.00000000000E+00 0.  1.
</event>
<event>
 7    1  0.7819001E-012  0.5930180E+02  0.7816164E-02  0.1266605E+00
        -11   -1    0    0    0    0  0.00000000000E+00  0.00000000000E+00  0.45593999997E+02  0.45594000000E+02  0.51100000000E-03 0.  1.
         11   -1    0    0    0    0 -0.00000000000E+00 -0.00000000000E+00 -0.45593999997E+02  0.45594000000E+02  0.51100000000E-03 0. -1.
    9900012    2    1    2    0    0  0.11849425077E+02  0.25853000260E+02  0.14420230525E+02  0.59301803214E+02  0.49999743188E+02 0.  0.
         12    1    1    2    0    0 -0.11849425077E+02 -0.25853000260E+02 -0.14420230525E+02  0.31886196786E+02  0.00000000000E+00 0. -1.
         11    1    3    3    0    0  0.28662865205E+01 -0.57875931849E+00  0.18332291362E+01  0.34512736915E+01  0.51100000000E-03 0. -1.
        -11    1    3    3    0    0  0.10862197148E+02  0.38827976638E+02  0.37115511649E+01  0.40489192496E+02  0.51100000000E-03 0.  1.
        -12    1    3    3    0    0 -0.18790585915E+01 -0.12396217059E+02  0.88754502236E+01  0.15361337026E+02  0.00000000000E+00 0.  1.
</event>
<event>
 7    1  0.7819001E-012  0.5930197E+02  0.7816164E-02  0.1266605E+00
        -11   -1    0    0    0    0  0.00000000000E+00  0.00000000000E+00  0.45593999997E+02  0.45594000000E+02  0.51100000000E-03 0. -1.
         11   -1    0    0    0    0 -0.00000000000E+00 -0.00000000000E+00 -0.45593999997E+02  0.45594000000E+02  0.51100000000E-03 0.  1.
    9900012    2    1    2    0    0 -0.15467988864E+02  0.45251710793E+01 -0.27513328451E+02  0.59301967083E+02  0.50000042046E+02 0.  0.
         12    1    1    2    0    0  0.15467988864E+02 -0.45251710793E+01  0.27513328451E+02  0.31886032917E+02  0.00000000000E+00 0. -1.
         11    1    3    3    0    0  0.13172609182E+02 -0.96181660509E+01 -0.53215076570E+01  0.17156491333E+02  0.51100000000E-03 0. -1.
        -11    1    3    3    0    0 -0.63227320327E+01  0.11564906361E+02 -0.10288725358E+02  0.16720701817E+02  0.51100000000E-03 0.  1.
         12    1    3    3    0    0 -0.22317866013E+02  0.25784307691E+01 -0.11903095436E+02  0.25424773933E+02  0.00000000000E+00 0. -1.
</event>
<event>
 7    1  0.7819001E-012  0.5930193E+02  0.7816164E-02  0.1266605E+00
        -11   -1    0    0    0    0  0.00000000000E+00  0.00000000000E+00  0.45593999997E+02  0.45594000000E+02  0.51100000000E-03 0.  1.
         11   -1    0    0    0    0 -0.00000000000E+00 -0.00000000000E+00 -0.45593999997E+02  0.45594000000E+02  0.51100000000E-03 0. -1.
    9900012    2    1    2    0    0  0.27435128964E+02 -0.16233087729E+02 -0.72245359716E+00  0.59301931291E+02  0.49999976772E+02 0.  0.
         12    1    1    2    0    0 -0.27435128964E+02  0.16233087729E+02  0.72245359716E+00  0.31886068709E+02  0.00000000000E+00 0. -1.
         11    1    3    3    0    0  0.52328853079E+01 -0.20146590585E+02 -0.11341139929E+02  0.23704211777E+02  0.51100000000E-03 0. -1.
        -11    1    3    3    0    0  0.17341725326E+02  0.89287662432E+01  0.17196709760E+02  0.26003559963E+02  0.51100000000E-03 0.  1.
        -12    1    3    3    0    0  0.48605183301E+01 -0.50152633874E+01 -0.65780234281E+01  0.95941595516E+01  0.00000000000E+00 0.  1.
</event>
<event>
 7    1  0.7819001E-012  0.5930195E+02  0.7816164E-02  0.1266605E+00
        -11   -1    0    0    0    0  0.00000000000E+00  0.00000000000E+00  0.45593999997E+02  0.45594000000E+02  0.51100000000E-03 0.  1.
         11   -1    0    0    0    0 -0.00000000000E+00 -0.00000000000E+00 -0.45593999997E+02  0.45594000000E+02  0.51100000000E-03 0. -1.
    9900012    2    1    2    0    0  0.12814049461E+02  0.23613591506E+02  0.17173197764E+02  0.59301948365E+02  0.50000007911E+02 0.  0.
         12    1    1    2    0    0 -0.12814049461E+02 -0.23613591506E+02 -0.17173197764E+02  0.31886051635E+02  0.00000000000E+00 0. -1.
         11    1    3    3    0    0  0.14940084217E+02  0.15002643941E+02 -0.30484408392E+01  0.21391083036E+02  0.51100000000E-03 0. -1.
        -11    1    3    3    0    0  0.48976926664E+01  0.79244428017E+01  0.26732392345E+02  0.28309097264E+02  0.51100000000E-03 0.  1.
        -12    1    3    3    0    0 -0.70237274225E+01  0.68650476319E+00 -0.65107537413E+01  0.96017680651E+01  0.00000000000E+00 0.  1.
</event>
<event>
 7    1  0.7819001E-012  0.5930192E+02  0.7816164E-02  0.1266605E+00
        -11   -1    0    0    0    0  0.00000000000E+00  0.00000000000E+00  0.45593999997E+02  0.45594000000E+02  0.51100000000E-03 0.  1.
         11   -1    0    0    0    0 -0.00000000000E+00 -0.00000000000E+00 -0.45593999997E+02  0.45594000000E+02  0.51100000000E-03 0. -1.
    9900012    2    1    2    0    0 -0.83889568257E+01 -0.85354002128E+01  0.29554942343E+02  0.59301917294E+02  0.49999951245E+02 0.  0.
         12    1    1    2    0    0  0.83889568257E+01  0.85354002128E+01 -0.29554942343E+02  0.31886082706E+02  0.00000000000E+00 0. -1.
         11    1    3    3    0    0 -0.17643721405E+02  0.91148628721E+01  0.19743345344E+02  0.28003237596E+02  0.51100000000E-03 0.  1.
        -11    1    3    3    0    0 -0.21580048607E+01 -0.17380950305E+02  0.23762494614E+01  0.17674868607E+02  0.51100000000E-03 0. -1.
         12    1    3    3    0    0  0.11412769440E+02 -0.26931277942E+00  0.74353475374E+01  0.13623811092E+02  0.00000000000E+00 0. -1.
</event>
<event>
 7    1  0.7819001E-012  0.5930199E+02  0.7816164E-02  0.1266605E+00
        -11   -1    0    0    0    0  0.00000000000E+00  0.00000000000E+00  0.45593999997E+02  0.45594000000E+02  0.51100000000E-03 0. -1.
         11   -1    0    0    0    0 -0.00000000000E+00 -0.00000000000E+00 -0.45593999997E+02  0.45594000000E+02  0.51100000000E-03 0.  1.
    9900012    2    1    2    0    0  0.22278119117E+02  0.17800199205E+02  0.14267299794E+02  0.59301991680E+02  0.50000086907E+02 0.  0.
         12    1    1    2    0    0 -0.22278119117E+02 -0.17800199205E+02 -0.14267299794E+02  0.31886008320E+02  0.00000000000E+00 0. -1.
         11    1    3    3    0    0  0.93277522176E+01  0.26646451528E+02  0.22886212212E+02  0.36343074308E+02  0.51100000000E-03 0. -1.
        -11    1    3    3    0    0  0.43806303943E+01 -0.32561260780E+00 -0.98760844936E+01  0.10808931095E+02  0.51100000000E-03 0.  1.
        -12    1    3    3    0    0  0.85697365051E+01 -0.85206397152E+01  0.12571720763E+01  0.12149986278E+02  0.00000000000E+00 0.  1.
</event>
<event>
 7    1  0.7819001E-012  0.5930194E+02  0.7816164E-02  0.1266605E+00
        -11   -1    0    0    0    0  0.00000000000E+00  0.00000000000E+00  0.45593999997E+02  0.45594000000E+02  0.51100000000E-03 0. -1.
         11   -1    0    0    0    0 -0.00000000000E+00 -0.00000000000E+00 -0.45593999997E+02  0.45594000000E+02  0.51100000000E-03 0.  1.
    9900012    2    1    2    0    0 -0.55728187382E+00  0.46544258760E+01 -0.31539601790E+02  0.59301941536E+02  0.49999995455E+02 0.  0.
         12    1    1    2    0    0  0.55728187382E+00 -0.46544258760E+01  0.31539601790E+02  0.31886058464E+02  0.00000000000E+00 0. -1.
         11    1    3    3    0    0  0.35919547182E+01  0.11369943748E+00  0.19247257740E+01  0.40767187572E+01  0.51100000000E-03 0. -1.
        -11    1    3    3    0    0 -0.15926355574E+02 -0.41473667245E+01 -0.36713872775E+02  0.40233790612E+02  0.51100000000E-03 0.  1.
        -12    1    3    3    0    0  0.11777118982E+02  0.86880931630E+01  0.32495452112E+01  0.14991432166E+02  0.00000000000E+00 0.  1.
</event>
<event>
 7    1  0.7819001E-012  0.5930195E+02  0.7816164E-02  0.1266605E+00
        -11   -1    0    0    0    0  0.00000000000E+00  0.00000000000E+00  0.45593999997E+02  0.45594000000E+02  0.51100000000E-03 0.  1.
         11   -1    0    0    0    0 -0.00000000000E+00 -0.00000000000E+00 -0.45593999997E+02  0.45594000000E+02  0.51100000000E-03 0. -1.
    9900012    2    1    2    0    0 -0.21668780679E+02  0.76269441027E+01  0.22113663884E+02  0.59301945637E+02  0.50000002936E+02 0.  0.
         12    1    1    2    0    0  0.21668780679E+02 -0.76269441027E+01 -0.22113663884E+02  0.31886054363E+02  0.00000000000E+00 0. -1.
         11    1    3    3    0    0 -0.18481997716E+02 -0.61935147222E+00 -0.10993622411E+02  0.21513427663E+02  0.51100000000E-03 0. -1.
        -11    1    3    3    0    0 -0.96485659311E+01  0.59156813497E+01  0.21651194137E+02  0.24430806744E+02  0.51100000000E-03 0.  1.
         12    1    3    3    0    0  0.64617829685E+01  0.23306142253E+01  0.11456092157E+02  0.13357711230E+02  0.00000000000E+00 0. -1.
</event>
<event>
 7    1  0.7819001E-012  0.5930189E+02  0.7816164E-02  0.1266605E+00
        -11   -1    0    0    0    0  0.00000000000E+00  0.00000000000E+00  0.45593999997E+02  0.45594000000E+02  0.51100000000E-03 0.  1.
         11   -1    0    0    0    0 -0.00000000000E+00 -0.00000000000E+00 -0.45593999997E+02  0.45594000000E+02  0.51100000000E-03 0. -1.
    9900012    2    1    2    0    0 -0.26644138983E+02  0.49628103619E+01  0.16798337104E+02  0.59301893962E+02  0.49999908691E+02 0.  0.
         12    1    1    2    0    0  0.26644138983E+02 -0.49628103619E+01 -0.16798337104E+02  0.31886106038E+02  0.00000000000E+00 0. -1.
         11    1    3    3    0    0 -0.11529818834E+02 -0.11998648658E+02 -0.10759748737E+02  0.19816066338E+02  0.51100000000E-03 0. -1.
        -11    1    3    3    0    0 -0.77095106298E+00  0.12845550993E+02  0.91542510398E+01  0.15792493730E+02  0.51100000000E-03 0.  1.
         12    1    3    3    0    0 -0.14343369086E+02  0.41159080269E+01  0.18403834800E+02  0.23693333894E+02  0.00000000000E+00 0. -1.
</event>
<event>
 7    1  0.7819001E-012  0.5930203E+02  0.7816164E-02  0.1266604E+00
        -11   -1    0    0    0    0  0.00000000000E+00  0.00000000000E+00  0.45593999997E+02  0.45594000000E+02  0.51100000000E-03 0. -1.
         11   -1    0    0    0    0 -0.00000000000E+00 -0.00000000000E+00 -0.45593999997E+02  0.45594000000E+02  0.51100000000E-03 0.  1.
    9900012    2    1    2    0    0 -0.29030720040E+02 -0.10620759313E+02 -0.78186983341E+01  0.59302026939E+02  0.50000151210E+02 0.  0.
         12    1    1    2    0    0  0.29030720040E+02  0.10620759313E+02  0.78186983341E+01  0.31885973061E+02  0.00000000000E+00 0. -1.
         11    1    3    3    0    0 -0.15658309887E+02 -0.23385443544E+02  0.13331771539E+02  0.31141576243E+02  0.51100000000E-03 0. -1.
        -11    1    3    3    0    0 -0.49736801559E+01  0.60115741961E+01 -0.83677511660E+01  0.11440969297E+02  0.51100000000E-03 0.  1.
         12    1    3    3    0    0 -0.83987299971E+01  0.67531100348E+01 -0.12782718707E+02  0.16719481399E+02  0.00000000000E+00 0. -1.
</event>
<event>
 7    1  0.7819001E-012  0.5930195E+02  0.7816164E-02  0.1266605E+00
        -11   -1    0    0    0    0  0.00000000000E+00  0.00000000000E+00  0.45593999997E+02  0.45594000000E+02  0.51100000000E-03 0. -1.
         11   -1    0    0    0    0 -0.00000000000E+00 -0.00000000000E+00 -0.45593999997E+02  0.45594000000E+02  0.51100000000E-03 0.  1.
    9900012    2    1    2    0    0 -0.17058940653E+02 -0.21097023501E+02  0.16751972458E+02  0.59301946026E+02  0.50000003644E+02 0.  0.
         12    1    1    2    0    0  0.17058940653E+02  0.21097023501E+02 -0.16751972458E+02  0.31886053974E+02  0.00000000000E+00 0. -1.
         11    1    3    3    0    0 -0.19708856559E+02  0.34475536915E+01  0.25509126712E+02  0.32419750141E+02  0.51100000000E-03 0. -1.
        -11    1    3    3    0    0  0.16659160987E+01 -0.59320431631E+01 -0.48431913718E+01  0.78371497026E+01  0.51100000000E-03 0.  1.
         12    1    3    3    0    0  0.98399980736E+00 -0.18612534030E+02 -0.39139628824E+01  0.19045046182E+02  0.00000000000E+00 0. -1.
</event>
<event>
 7    1  0.7819001E-012  0.5930195E+02  0.7816164E-02  0.1266605E+00
        -11   -1    0    0    0    0  0.00000000000E+00  0.00000000000E+00  0.45593999997E+02  0.45594000000E+02  0.51100000000E-03 0.  1.
         11   -1    0    0    0    0 -0.00000000000E+00 -0.00000000000E+00 -0.45593999997E+02  0.45594000000E+02  0.51100000000E-03 0. -1.
    9900012    2    1    2    0    0 -0.18544154100E+02 -0.25556284640E+02 -0.44397071205E+01  0.59301947638E+02  0.50000006585E+02 0.  0.
         12    1    1    2    0    0  0.18544154100E+02  0.25556284640E+02  0.44397071205E+01  0.31886052362E+02  0.00000000000E+00 0. -1.
         11    1    3    3    0    0 -0.12690307835E+01 -0.17892367408E+02 -0.30666378885E+01  0.18197569036E+02  0.51100000000E-03 0. -1.
        -11    1    3    3    0    0  0.87118578772E+01  0.40334264892E+01  0.64330438193E+01  0.11556342413E+02  0.51100000000E-03 0.  1.
        -12    1    3    3    0    0 -0.25986981194E+02 -0.11697343721E+02 -0.78061130513E+01  0.29548036190E+02  0.00000000000E+00 0.  1.
</event>
<event>
 7    1  0.7819001E-012  0.5930208E+02  0.7816164E-02  0.1266604E+00
        -11   -1    0    0    0    0  0.00000000000E+00  0.00000000000E+00  0.45593999997E+02  0.45594000000E+02  0.51100000000E-03 0. -1.
         11   -1    0    0    0    0 -0.00000000000E+00 -0.00000000000E+00 -0.45593999997E+02  0.45594000000E+02  0.51100000000E-03 0.  1.
    9900012    2    1    2    0    0 -0.19312050780E+02  0.67591977577E+01 -0.24455471706E+02  0.59302075895E+02  0.50000240494E+02 0.  0.
         12    1    1    2    0    0  0.19312050780E+02 -0.67591977577E+01  0.24455471706E+02  0.31885924105E+02  0.00000000000E+00 0. -1.
         11    1    3    3    0    0 -0.15269717803E+01 -0.95330917754E+01  0.89037951960E+01  0.13133508700E+02  0.51100000000E-03 0. -1.
        -11    1    3    3    0    0 -0.18337302180E+01  0.13218206675E+02 -0.23892198970E+02  0.27366416026E+02  0.51100000000E-03 0.  1.
         12    1    3    3    0    0 -0.15951348782E+02  0.30740828578E+01 -0.94670679323E+01  0.18802151170E+02  0.00000000000E+00 0. -1.
</event>
<event>
 7    1  0.7819001E-012  0.5930194E+02  0.7816164E-02  0.1266605E+00
        -11   -1    0    0    0    0  0.00000000000E+00  0.00000000000E+00  0.45593999997E+02  0.45594000000E+02  0.51100000000E-03 0.  1.
         11   -1    0    0    0    0 -0.00000000000E+00 -0.00000000000E+00 -0.45593999997E+02  0.45594000000E+02  0.51100000000E-03 0. -1.
    9900012    2    1    2    0    0  0.90396415515E+01  0.34064518415E+01  0.30387522405E+02  0.59301944248E+02  0.50000000402E+02 0.  0.
         12    1    1    2    0    0 -0.90396415515E+01 -0.34064518415E+01 -0.30387522405E+02  0.31886055752E+02  0.00000000000E+00 0. -1.
         11    1    3    3    0    0  0.19442622791E+02 -0.40489633924E+01 -0.23680087215E+01  0.20000428773E+02  0.51100000000E-03 0. -1.
        -11    1    3    3    0    0 -0.34914212111E+01  0.87315152237E+01  0.30505117268E+02  0.31921647200E+02  0.51100000000E-03 0.  1.
        -12    1    3    3    0    0 -0.69115600286E+01 -0.12760999898E+01  0.22504138581E+01  0.73798682743E+01  0.00000000000E+00 0.  1.
</event>
<event>
 7    1  0.7819001E-012  0.5930157E+02  0.7816164E-02  0.1266606E+00
        -11   -1    0    0    0    0  0.00000000000E+00  0.00000000000E+00  0.45593999997E+02  0.45594000000E+02  0.51100000000E-03 0.  1.
         11   -1    0    0    0    0 -0.00000000000E+00 -0.00000000000E+00 -0.45593999997E+02  0.45594000000E+02  0.51100000000E-03 0. -1.
    9900012    2    1    2    0    0 -0.42103187590E+01  0.31593726225E+02 -0.92414502603E+00  0.59301570835E+02  0.49999319382E+02 0.  0.
         12    1    1    2    0    0  0.42103187590E+01 -0.31593726225E+02  0.92414502603E+00  0.31886429165E+02  0.00000000000E+00 0. -1.
         11    1    3    3    0    0 -0.25542327472E+02  0.16119578791E+02  0.63475895663E+00  0.30210167697E+02  0.51100000000E-03 0. -1.
        -11    1    3    3    0    0  0.88485614595E+01  0.19831711268E+01  0.39675531740E+01  0.98980546609E+01  0.51100000000E-03 0.  1.
         12    1    3    3    0    0  0.12483447254E+02  0.13490976307E+02 -0.55264571567E+01  0.19193348477E+02  0.00000000000E+00 0. -1.
</event>
<event>
 7    1  0.7819001E-012  0.5930198E+02  0.7816164E-02  0.1266605E+00
        -11   -1    0    0    0    0  0.00000000000E+00  0.00000000000E+00  0.45593999997E+02  0.45594000000E+02  0.51100000000E-03 0.  1.
         11   -1    0    0    0    0 -0.00000000000E+00 -0.00000000000E+00 -0.45593999997E+02  0.45594000000E+02  0.51100000000E-03 0. -1.
    9900012    2    1    2    0    0 -0.18963098890E+02 -0.44981563278E+01  0.25236599412E+02  0.59301976734E+02  0.50000059648E+02 0.  0.
         12    1    1    2    0    0  0.18963098890E+02  0.44981563278E+01 -0.25236599412E+02  0.31886023266E+02  0.00000000000E+00 0. -1.
         11    1    3    3    0    0  0.84611864854E+01 -0.87077727627E+01  0.27731042846E+02  0.30272557223E+02  0.51100000000E-03 0. -1.
        -11    1    3    3    0    0 -0.15761135656E+02  0.53171554186E+01  0.13768561457E+01  0.16690754088E+02  0.51100000000E-03 0.  1.
         12    1    3    3    0    0 -0.11663149719E+02 -0.11075389838E+01 -0.38712995798E+01  0.12338665423E+02  0.00000000000E+00 0. -1.
</event>
<event>
 7    1  0.7819001E-012  0.5930191E+02  0.7816164E-02  0.1266605E+00
        -11   -1    0    0    0    0  0.00000000000E+00  0.00000000000E+00  0.45593999997E+02  0.45594000000E+02  0.51100000000E-03 0.  1.
         11   -1    0    0    0    0 -0.00000000000E+00 -0.00000000000E+00 -0.45593999997E+02  0.45594000000E+02  0.51100000000E-03 0. -1.
    9900012    2    1    2    0    0  0.13185443445E+02  0.75972732050E+01  0.28020501702E+02  0.59301905937E+02  0.49999930531E+02 0.  0.
         12    1    1    2    0    0 -0.13185443445E+02 -0.75972732050E+01 -0.28020501702E+02  0.31886094063E+02  0.00000000000E+00 0. -1.
         11    1    3    3    0    0  0.78934867137E-01  0.11807624765E+02  0.83149631876E+01  0.14441774350E+02  0.51100000000E-03 0. -1.
        -11    1    3    3    0    0  0.20713391678E+02 -0.30141568644E+01  0.27060834043E+02  0.34211379332E+02  0.51100000000E-03 0.  1.
        -12    1    3    3    0    0 -0.76068831000E+01 -0.11961946960E+01 -0.73552955291E+01  0.10648752254E+02  0.00000000000E+00 0.  1.
</event>
<event>
 7    1  0.7819001E-012  0.5930193E+02  0.7816164E-02  0.1266605E+00
        -11   -1    0    0    0    0  0.00000000000E+00  0.00000000000E+00  0.45593999997E+02  0.45594000000E+02  0.51100000000E-03 0.  1.
         11   -1    0    0    0    0 -0.00000000000E+00 -0.00000000000E+00 -0.45593999997E+02  0.45594000000E+02  0.51100000000E-03 0. -1.
    9900012    2    1    2    0    0 -0.90863256507E+01 -0.97285621710E+01  0.28974387291E+02  0.59301931653E+02  0.49999977431E+02 0.  0.
         12    1    1    2    0    0  0.90863256507E+01  0.97285621710E+01 -0.28974387291E+02  0.31886068347E+02  0.00000000000E+00 0. -1.
         11    1    3    3    0    0 -0.21432468340E+02 -0.27187096022E+01  0.27449845352E+02  0.34931877865E+02  0.51100000000E-03 0. -1.
        -11    1    3    3    0    0  0.62372876145E+01 -0.89590039192E+00  0.10286255504E+02  0.12062895459E+02  0.51100000000E-03 0.  1.
         12    1    3    3    0    0  0.61088550747E+01 -0.61139521769E+01 -0.87617135652E+01  0.12307158329E+02  0.00000000000E+00 0. -1.
</event>
<event>
 7    1  0.7819001E-012  0.5930195E+02  0.7816164E-02  0.1266605E+00
        -11   -1    0    0    0    0  0.00000000000E+00  0.00000000000E+00  0.45593999997E+02  0.45594000000E+02  0.51100000000E-03 0.  1.
         11   -1    0    0    0    0 -0.00000000000E+00 -0.00000000000E+00 -0.45593999997E+02  0.45594000000E+02  0.51100000000E-03 0. -1.
    9900012    2    1    2    0    0 -0.17063035252E+02  0.24727031255E+02  0.10683960261E+02  0.59301948918E+02  0.50000008920E+02 0.  0.
         12    1    1    2    0    0  0.17063035252E+02 -0.24727031255E+02 -0.10683960261E+02  0.31886051082E+02  0.00000000000E+00 0. -1.
         11    1    3    3    0    0 -0.11355302517E+02 -0.29522063493E+01 -0.42818199982E+01  0.12489691764E+02  0.51100000000E-03 0. -1.
        -11    1    3    3    0    0 -0.15833817813E+02  0.27640395953E+02  0.17539790234E+02  0.36364069033E+02  0.51100000000E-03 0.  1.
        -12    1    3    3    0    0  0.10126085078E+02  0.38841651353E-01 -0.25740099741E+01  0.10448188122E+02  0.00000000000E+00 0.  1.
</event>
<event>
 7    1  0.7819001E-012  0.5930205E+02  0.7816164E-02  0.1266604E+00
        -11   -1    0    0    0    0  0.00000000000E+00  0.00000000000E+00  0.45593999997E+02  0.45594000000E+02  0.51100000000E-03 0.  1.
         11   -1    0    0    0    0 -0.00000000000E+00 -0.00000000000E+00 -0.45593999997E+02  0.45594000000E+02  0.51100000000E-03 0. -1.
    9900012    2    1    2    0    0  0.85658653483E+01  0.36671272301E+01  0.30494130994E+02  0.59302048605E+02  0.50000190723E+02 0.  0.
         12    1    1    2    0    0 -0.85658653483E+01 -0.36671272301E+01 -0.30494130994E+02  0.31885951395E+02  0.00000000000E+00 0. -1.
         11    1    3    3    0    0  0.10374386735E+01  0.13773342888E+02  0.17052167924E+02  0.21944422628E+02  0.51100000000E-03 0. -1.
        -11    1    3    3    0    0 -0.81556246149E+01 -0.14131023350E+02  0.40798004685E-02  0.16315638224E+02  0.51100000000E-03 0.  1.
        -12    1    3    3    0    0  0.15684051290E+02  0.40248076920E+01  0.13437883270E+02  0.21041987753E+02  0.00000000000E+00 0.  1.
</event>
<event>
 7    1  0.7819001E-012  0.5930196E+02  0.7816164E-02  0.1266605E+00
        -11   -1    0    0    0    0  0.00000000000E+00  0.00000000000E+00  0.45593999997E+02  0.45594000000E+02  0.51100000000E-03 0. -1.
         11   -1    0    0    0    0 -0.00000000000E+00 -0.00000000000E+00 -0.45593999997E+02  0.45594000000E+02  0.51100000000E-03 0.  1.
    9900012    2    1    2    0    0 -0.81645425172E+01 -0.29972979345E+02 -0.71889085821E+01  0.59301958352E+02  0.50000026125E+02 0.  0.
         12    1    1    2    0    0  0.81645425172E+01  0.29972979345E+02  0.71889085821E+01  0.31886041648E+02  0.00000000000E+00 0. -1.
         11    1    3    3    0    0  0.89772665665E+01 -0.34863063905E+01  0.67132569428E+01  0.11739398038E+02  0.51100000000E-03 0. -1.
        -11    1    3    3    0    0 -0.26394703461E+02 -0.14022906804E+02 -0.10429652068E+02  0.31655961975E+02  0.51100000000E-03 0.  1.
        -12    1    3    3    0    0  0.92528943774E+01 -0.12463766151E+02 -0.34725134566E+01  0.15906598339E+02  0.00000000000E+00 0.  1.
</event>
<event>
 7    1  0.7819001E-012  0.5930196E+02  0.7816164E-02  0.1266605E+00
        -11   -1    0    0    0    0  0.00000000000E+00  0.00000000000E+00  0.45593999997E+02  0.45594000000E+02  0.51100000000E-03 0. -1.
         11   -1    0    0    0    0 -0.00000000000E+00 -0.00000000000E+00 -0.45593999997E+02  0.45594000000E+02  0.51100000000E-03 0.  1.
    9900012    2    1    2    0    0  0.84730516202E+01  0.22048209162E+02 -0.21419697581E+02  0.59301959552E+02  0.50000028313E+02 0.  0.
         12    1    1    2    0    0 -0.84730516202E+01 -0.22048209162E+02  0.21419697581E+02  0.31886040448E+02  0.00000000000E+00 0. -1.
         11    1    3    3    0    0  0.20043103347E+02  0.28319727106E+02 -0.10430191128E+02  0.36228743041E+02  0.51100000000E-03 0. -1.
        -11    1    3    3    0    0 -0.21578714027E+01 -0.83492385471E+01 -0.10265963561E+02  0.13407318950E+02  0.51100000000E-03 0.  1.
         12    1    3    3    0    0 -0.94121803238E+01  0.20777206032E+01 -0.72354289165E+00  0.96658975615E+01  0.00000000000E+00 0. -1.
</event>
<event>
 7    1  0.7819001E-012  0.5930198E+02  0.7816164E-02  0.1266605E+00
        -11   -1    0    0    0    0  0.00000000000E+00  0.00000000000E+00  0.45593999997E+02  0.45594000000E+02  0.51100000000E-03 0.  1.
         11   -1    0    0    0    0 -0.00000000000E+00 -0.00000000000E+00 -0.45593999997E+02  0.45594000000E+02  0.51100000000E-03 0. -1.
    9900012    2    1    2    0    0  0.31706279186E+02  0.30977890933E+01  0.13541012890E+01  0.59301983827E+02  0.50000072584E+02 0.  0.
         12    1    1    2    0    0 -0.31706279186E+02 -0.30977890933E+01 -0.13541012890E+01  0.31886016173E+02  0.00000000000E+00 0. -1.
         11    1    3    3    0    0  0.18303144016E+02  0.19880644086E+02 -0.84788638700E+01  0.28322009514E+02  0.51100000000E-03 0. -1.
        -11    1    3    3    0    0  0.51101780283E+01 -0.19211688132E+02  0.33106782584E+01  0.20153497739E+02  0.51100000000E-03 0.  1.
         12    1    3    3    0    0  0.82929571422E+01  0.24288331391E+01  0.65222869005E+01  0.10826476573E+02  0.00000000000E+00 0. -1.
</event>
<event>
 7    1  0.7819001E-012  0.5930194E+02  0.7816164E-02  0.1266605E+00
        -11   -1    0    0    0    0  0.00000000000E+00  0.00000000000E+00  0.45593999997E+02  0.45594000000E+02  0.51100000000E-03 0.  1.
         11   -1    0    0    0    0 -0.00000000000E+00 -0.00000000000E+00 -0.45593999997E+02  0.45594000000E+02  0.51100000000E-03 0. -1.
    9900012    2    1    2    0    0 -0.15406510181E+02  0.11412130362E+02  0.25477908997E+02  0.59301935297E+02  0.49999984078E+02 0.  0.
         12    1    1    2    0    0  0.15406510181E+02 -0.11412130362E+02 -0.25477908997E+02  0.31886064703E+02  0.00000000000E+00 0. -1.
         11    1    3    3    0    0 -0.78187888801E+01  0.16657637683E+02 -0.17923551930E+00  0.18402241123E+02  0.51100000000E-03 0. -1.
        -11    1    3    3    0    0  0.10304108995E+02 -0.85717976863E+01  0.13437311493E+02  0.18979244405E+02  0.51100000000E-03 0.  1.
         12    1    3    3    0    0 -0.17891830296E+02  0.33262903652E+01  0.12219833023E+02  0.21920449769E+02  0.00000000000E+00 0. -1.
</event>
<event>
 7    1  0.7819001E-012  0.5930195E+02  0.7816164E-02  0.1266605E+00
        -11   -1    0    0    0    0  0.00000000000E+00  0.00000000000E+00  0.45593999997E+02  0.45594000000E+02  0.51100000000E-03 0.  1.
         11   -1    0    0    0    0 -0.00000000000E+00 -0.00000000000E+00 -0.45593999997E+02  0.45594000000E+02  0.51100000000E-03 0. -1.
    9900012    2    1    2    0    0 -0.10114529186E+01  0.95310588271E+01 -0.30411451199E+02  0.59301945315E+02  0.50000002347E+02 0.  0.
         12    1    1    2    0    0  0.10114529186E+01 -0.95310588271E+01  0.30411451199E+02  0.31886054685E+02  0.00000000000E+00 0. -1.
         11    1    3    3    0    0  0.11946899474E+02  0.13234217305E+01 -0.98396472508E+01  0.15533786093E+02  0.51100000000E-03 0. -1.
        -11    1    3    3    0    0 -0.20622107140E+02  0.16064705935E+02 -0.85827627323E+01  0.27513812823E+02  0.51100000000E-03 0.  1.
        -12    1    3    3    0    0  0.76637547476E+01 -0.78570688382E+01 -0.11989041216E+02  0.16254346398E+02  0.00000000000E+00 0.  1.
</event>
<event>
 7    1  0.7819001E-012  0.5930195E+02  0.7816164E-02  0.1266605E+00
        -11   -1    0    0    0    0  0.00000000000E+00  0.00000000000E+00  0.45593999997E+02  0.45594000000E+02  0.51100000000E-03 0.  1.
         11   -1    0    0    0    0 -0.00000000000E+00 -0.00000000000E+00 -0.45593999997E+02  0.45594000000E+02  0.51100000000E-03 0. -1.
    9900012    2    1    2    0    0  0.49432442576E+00  0.12151873989E+02  0.29475543582E+02  0.59301951835E+02  0.50000014239E+02 0.  0.
         12    1    1    2    0    0 -0.49432442576E+00 -0.12151873989E+02 -0.29475543582E+02  0.31886048165E+02  0.00000000000E+00 0. -1.
         11    1    3    3    0    0 -0.44916937127E+01  0.12563531842E+02 -0.15485987119E+01  0.13431894988E+02  0.51100000000E-03 0. -1.
        -11    1    3    3    0    0 -0.10754186098E+02 -0.10233576741E+02  0.17276800287E+02  0.22778639993E+02  0.51100000000E-03 0.  1.
        -12    1    3    3    0    0  0.15740204236E+02  0.98219188885E+01  0.13747342008E+02  0.23091416854E+02  0.00000000000E+00 0.  1.
</event>
<event>
 7    1  0.7819001E-012  0.5930194E+02  0.7816164E-02  0.1266605E+00
        -11   -1    0    0    0    0  0.00000000000E+00  0.00000000000E+00  0.45593999997E+02  0.45594000000E+02  0.51100000000E-03 0.  1.
         11   -1    0    0    0    0 -0.00000000000E+00 -0.00000000000E+00 -0.45593999997E+02  0.45594000000E+02  0.51100000000E-03 0. -1.
    9900012    2    1    2    0    0 -0.13633702729E+02  0.28193308154E+02 -0.59983567299E+01  0.59301941005E+02  0.49999994487E+02 0.  0.
         12    1    1    2    0    0  0.13633702729E+02 -0.28193308154E+02  0.59983567299E+01  0.31886058995E+02  0.00000000000E+00 0. -1.
         11    1    3    3    0    0 -0.30004602053E+01 -0.93612342958E+01  0.27186904292E+01  0.10199350317E+02  0.51100000000E-03 0. -1.
        -11    1    3    3    0    0  0.24207161093E+01  0.32196082994E+02 -0.12288958431E+02  0.34546579082E+02  0.51100000000E-03 0.  1.
        -12    1    3    3    0    0 -0.13053958633E+02  0.53584594552E+01  0.35719112723E+01  0.14556011606E+02  0.00000000000E+00 0.  1.
</event>
<event>
 7    1  0.7819001E-012  0.5930195E+02  0.7816164E-02  0.1266605E+00
        -11   -1    0    0    0    0  0.00000000000E+00  0.00000000000E+00  0.45593999997E+02  0.45594000000E+02  0.51100000000E-03 0.  1.
         11   -1    0    0    0    0 -0.00000000000E+00 -0.00000000000E+00 -0.45593999997E+02  0.45594000000E+02  0.51100000000E-03 0. -1.
    9900012    2    1    2    0    0  0.11376203073E+02 -0.83281378020E+01  0.28599724823E+02  0.59301950770E+02  0.50000012295E+02 0.  0.
         12    1    1    2    0    0 -0.11376203073E+02  0.83281378020E+01 -0.28599724823E+02  0.31886049230E+02  0.00000000000E+00 0. -1.
         11    1    3    3    0    0 -0.12202567606E+02 -0.93716767288E+01 -0.56770424016E+01  0.16399993646E+02  0.51100000000E-03 0. -1.
        -11    1    3    3    0    0  0.15571803644E+02 -0.37412308560E+01  0.25388722580E+02  0.30017746610E+02  0.51100000000E-03 0.  1.
         12    1    3    3    0    0  0.80069670348E+01  0.47847697827E+01  0.88880446437E+01  0.12884210514E+02  0.00000000000E+00 0. -1.
</event>
<event>
 7    1  0.7819001E-012  0.5930199E+02  0.7816164E-02  0.1266605E+00
        -11   -1    0    0    0    0  0.00000000000E+00  0.00000000000E+00  0.45593999997E+02  0.45594000000E+02  0.51100000000E-03 0. -1.
         11   -1    0    0    0    0 -0.00000000000E+00 -0.00000000000E+00 -0.45593999997E+02  0.45594000000E+02  0.51100000000E-03 0.  1.
    9900012    2    1    2    0    0  0.16139570461E+02  0.42119549150E+01 -0.27175198827E+02  0.59301988488E+02  0.50000081085E+02 0.  0.
         12    1    1    2    0    0 -0.16139570461E+02 -0.42119549150E+01  0.27175198827E+02  0.31886011512E+02  0.00000000000E+00 0. -1.
         11    1    3    3    0    0  0.90826468741E+01 -0.73024418502E+01  0.57606444614E+01  0.13000198310E+02  0.51100000000E-03 0. -1.
        -11    1    3    3    0    0  0.10354196299E+02 -0.27960698367E+01 -0.29259481679E+02  0.31163193930E+02  0.51100000000E-03 0.  1.
         12    1    3    3    0    0 -0.32972727127E+01  0.14310466602E+02 -0.36763616095E+01  0.15138596249E+02  0.00000000000E+00 0. -1.
</event>
<event>
 7    1  0.7819001E-012  0.5930200E+02  0.7816164E-02  0.1266605E+00
        -11   -1    0    0    0    0  0.00000000000E+00  0.00000000000E+00  0.45593999997E+02  0.45594000000E+02  0.51100000000E-03 0.  1.
         11   -1    0    0    0    0 -0.00000000000E+00 -0.00000000000E+00 -0.45593999997E+02  0.45594000000E+02  0.51100000000E-03 0. -1.
    9900012    2    1    2    0    0  0.31776061616E+02 -0.24208749799E+01  0.10668409540E+01  0.59302001865E+02  0.50000105481E+02 0.  0.
         12    1    1    2    0    0 -0.31776061616E+02  0.24208749799E+01 -0.10668409540E+01  0.31885998135E+02  0.00000000000E+00 0. -1.
         11    1    3    3    0    0 -0.84964938775E+01  0.26156236075E+01  0.36255658888E+01  0.96008657600E+01  0.51100000000E-03 0. -1.
        -11    1    3    3    0    0  0.33859550864E+02 -0.13077870119E+02  0.53989611739E+01  0.36696711754E+02  0.51100000000E-03 0.  1.
         12    1    3    3    0    0  0.64130046289E+01  0.80413715314E+01 -0.79576861087E+01  0.13004424350E+02  0.00000000000E+00 0. -1.
</event>
<event>
 7    1  0.7819001E-012  0.5930194E+02  0.7816164E-02  0.1266605E+00
        -11   -1    0    0    0    0  0.00000000000E+00  0.00000000000E+00  0.45593999997E+02  0.45594000000E+02  0.51100000000E-03 0. -1.
         11   -1    0    0    0    0 -0.00000000000E+00 -0.00000000000E+00 -0.45593999997E+02  0.45594000000E+02  0.51100000000E-03 0.  1.
    9900012    2    1    2    0    0 -0.10520240786E+02 -0.29962152379E+02  0.28835759272E+01  0.59301936407E+02  0.49999986101E+02 0.  0.
         12    1    1    2    0    0  0.10520240786E+02  0.29962152379E+02 -0.28835759272E+01  0.31886063593E+02  0.00000000000E+00 0. -1.
         11    1    3    3    0    0  0.50421010761E+01 -0.69338303541E+01  0.12654771972E+02  0.15285419215E+02  0.51100000000E-03 0. -1.
        -11    1    3    3    0    0 -0.75594828553E+01  0.66780656757E+01 -0.85564419117E+01  0.13227057143E+02  0.51100000000E-03 0.  1.
        -12    1    3    3    0    0 -0.80028590063E+01 -0.29706387701E+02 -0.12147541336E+01  0.30789460049E+02  0.00000000000E+00 0.  1.
</event>
<event>
 7    1  0.7819001E-012  0.5930187E+02  0.7816164E-02  0.1266605E+00
        -11   -1    0    0    0    0  0.00000000000E+00  0.00000000000E+00  0.45593999997E+02  0.45594000000E+02  0.51100000000E-03 0.  1.
         11   -1    0    0    0    0 -0.00000000000E+00 -0.00000000000E+00 -0.45593999997E+02  0.45594000000E+02  0.51100000000E-03 0. -1.
    9900012    2    1    2    0    0  0.55462414635E+01  0.16237416584E+01  0.31358058853E+02  0.59301871568E+02  0.49999867851E+02 0.  0.
         12    1    1    2    0    0 -0.55462414635E+01 -0.16237416584E+01 -0.31358058853E+02  0.31886128432E+02  0.00000000000E+00 0. -1.
         11    1    3    3    0    0  0.69932682384E+01  0.20236887168E+01  0.71283767358E+01  0.10188958329E+02  0.51100000000E-03 0. -1.
        -11    1    3    3    0    0 -0.39057613493E+01 -0.11647285196E+02 -0.81533490905E+01  0.14744196343E+02  0.51100000000E-03 0.  1.
        -12    1    3    3    0    0  0.24587345744E+01  0.11247338137E+02  0.32383031208E+02  0.34368716896E+02  0.00000000000E+00 0.  1.
</event>
<event>
 7    1  0.7819001E-012  0.5930194E+02  0.7816164E-02  0.1266605E+00
        -11   -1    0    0    0    0  0.00000000000E+00  0.00000000000E+00  0.45593999997E+02  0.45594000000E+02  0.51100000000E-03 0.  1.
         11   -1    0    0    0    0 -0.00000000000E+00 -0.00000000000E+00 -0.45593999997E+02  0.45594000000E+02  0.51100000000E-03 0. -1.
    9900012    2    1    2    0    0 -0.21505252317E+02 -0.51949476630E+00  0.23536678234E+02  0.59301937616E+02  0.49999988307E+02 0.  0.
         12    1    1    2    0    0  0.21505252317E+02  0.51949476630E+00 -0.23536678234E+02  0.31886062384E+02  0.00000000000E+00 0. -1.
         11    1    3    3    0    0 -0.77520747727E+01  0.61856978210E+01 -0.28613233234E+01  0.10322048839E+02  0.51100000000E-03 0.  1.
        -11    1    3    3    0    0  0.81477138863E+01 -0.15091416672E+02  0.69182535524E+01  0.18493196890E+02  0.51100000000E-03 0. -1.
        -12    1    3    3    0    0 -0.21900891430E+02  0.83862240850E+01  0.19479748005E+02  0.30486691887E+02  0.00000000000E+00 0.  1.
</event>
<event>
 7    1  0.7819001E-012  0.5930195E+02  0.7816164E-02  0.1266605E+00
        -11   -1    0    0    0    0  0.00000000000E+00  0.00000000000E+00  0.45593999997E+02  0.45594000000E+02  0.51100000000E-03 0. -1.
         11   -1    0    0    0    0 -0.00000000000E+00 -0.00000000000E+00 -0.45593999997E+02  0.45594000000E+02  0.51100000000E-03 0.  1.
    9900012    2    1    2    0    0  0.28950680129E+02  0.13346040589E+02 -0.67934015243E+00  0.59301950035E+02  0.50000010956E+02 0.  0.
         12    1    1    2    0    0 -0.28950680129E+02 -0.13346040589E+02  0.67934015243E+00  0.31886049965E+02  0.00000000000E+00 0. -1.
         11    1    3    3    0    0  0.60645371729E+01 -0.15559590564E+02  0.91310682285E+01  0.19033020698E+02  0.51100000000E-03 0. -1.
        -11    1    3    3    0    0  0.21626291574E+02  0.18741434008E+02 -0.54211339671E+01  0.29126045555E+02  0.51100000000E-03 0.  1.
         12    1    3    3    0    0  0.12598513817E+01  0.10164197145E+02 -0.43892744138E+01  0.11142883782E+02  0.00000000000E+00 0. -1.
</event>
<event>
 7    1  0.7819001E-012  0.5930201E+02  0.7816164E-02  0.1266605E+00
        -11   -1    0    0    0    0  0.00000000000E+00  0.00000000000E+00  0.45593999997E+02  0.45594000000E+02  0.51100000000E-03 0. -1.
         11   -1    0    0    0    0 -0.00000000000E+00 -0.00000000000E+00 -0.45593999997E+02  0.45594000000E+02  0.51100000000E-03 0.  1.
    9900012    2    1    2    0    0 -0.23890177198E+02  0.17545578176E+02  0.11752806452E+02  0.59302010293E+02  0.50000120852E+02 0.  0.
         12    1    1    2    0    0  0.23890177198E+02 -0.17545578176E+02 -0.11752806452E+02  0.31885989707E+02  0.00000000000E+00 0. -1.
         11    1    3    3    0    0 -0.39596978198E+01 -0.11473055509E+02 -0.78505258697E+01  0.14454790425E+02  0.51100000000E-03 0. -1.
        -11    1    3    3    0    0 -0.15309992018E+02  0.65823375704E+01  0.40229896171E+01  0.17143729734E+02  0.51100000000E-03 0.  1.
         12    1    3    3    0    0 -0.46204873600E+01  0.22436296115E+02  0.15580342705E+02  0.27703490134E+02  0.00000000000E+00 0. -1.
</event>
<event>
 7    1  0.7819001E-012  0.5930196E+02  0.7816164E-02  0.1266605E+00
        -11   -1    0    0    0    0  0.00000000000E+00  0.00000000000E+00  0.45593999997E+02  0.45594000000E+02  0.51100000000E-03 0.  1.
         11   -1    0    0    0    0 -0.00000000000E+00 -0.00000000000E+00 -0.45593999997E+02  0.45594000000E+02  0.51100000000E-03 0. -1.
    9900012    2    1    2    0    0  0.21798782777E+02  0.23032520678E+02 -0.33219424712E+01  0.59301964794E+02  0.50000037873E+02 0.  0.
         12    1    1    2    0    0 -0.21798782777E+02 -0.23032520678E+02  0.33219424712E+01  0.31886035206E+02  0.00000000000E+00 0. -1.
         11    1    3    3    0    0 -0.91793002047E+00  0.15046414217E+02 -0.26976796496E+01  0.15313871231E+02  0.51100000000E-03 0. -1.
        -11    1    3    3    0    0  0.19486656538E+02 -0.12547379778E+02  0.34659007422E+00  0.23179444499E+02  0.51100000000E-03 0.  1.
        -12    1    3    3    0    0  0.32300562592E+01  0.20533486239E+02 -0.97085289578E+00  0.20808649065E+02  0.00000000000E+00 0.  1.
</event>
<event>
 7    1  0.7819001E-012  0.5930198E+02  0.7816164E-02  0.1266605E+00
        -11   -1    0    0    0    0  0.00000000000E+00  0.00000000000E+00  0.45593999997E+02  0.45594000000E+02  0.51100000000E-03 0. -1.
         11   -1    0    0    0    0 -0.00000000000E+00 -0.00000000000E+00 -0.45593999997E+02  0.45594000000E+02  0.51100000000E-03 0.  1.
    9900012    2    1    2    0    0 -0.78781246017E+01 -0.18431533933E+02  0.24797827593E+02  0.59301975731E+02  0.50000057819E+02 0.  0.
         12    1    1    2    0    0  0.78781246017E+01  0.18431533933E+02 -0.24797827593E+02  0.31886024269E+02  0.00000000000E+00 0. -1.
         11    1    3    3    0    0  0.15285201230E+02 -0.81110588280E+01  0.50521015281E+01  0.18026380171E+02  0.51100000000E-03 0. -1.
        -11    1    3    3    0    0 -0.17151998049E+02 -0.16457032933E+02  0.51226020043E+01  0.24315962279E+02  0.51100000000E-03 0.  1.
         12    1    3    3    0    0 -0.60113277834E+01  0.61365578286E+01  0.14623124061E+02  0.16959633280E+02  0.00000000000E+00 0. -1.
</event>
<event>
 7    1  0.7819001E-012  0.5930194E+02  0.7816164E-02  0.1266605E+00
        -11   -1    0    0    0    0  0.00000000000E+00  0.00000000000E+00  0.45593999997E+02  0.45594000000E+02  0.51100000000E-03 0. -1.
         11   -1    0    0    0    0 -0.00000000000E+00 -0.00000000000E+00 -0.45593999997E+02  0.45594000000E+02  0.51100000000E-03 0.  1.
    9900012    2    1    2    0    0 -0.29050670355E+02 -0.89035581183E+01 -0.96698383687E+01  0.59301943968E+02  0.49999999890E+02 0.  0.
         12    1    1    2    0    0  0.29050670355E+02  0.89035581183E+01  0.96698383687E+01  0.31886056032E+02  0.00000000000E+00 0. -1.
         11    1    3    3    0    0 -0.21108864636E+02 -0.74875997533E+01 -0.74758400712E+01  0.23612210852E+02  0.51100000000E-03 0. -1.
        -11    1    3    3    0    0  0.55144728088E+01  0.13754964011E+02 -0.39456127715E+01  0.15335459097E+02  0.51100000000E-03 0.  1.
        -12    1    3    3    0    0 -0.13456278528E+02 -0.15170922376E+02  0.17516144741E+01  0.20354274019E+02  0.00000000000E+00 0.  1.
</event>
<event>
 7    1  0.7819001E-012  0.5930194E+02  0.7816164E-02  0.1266605E+00
        -11   -1    0    0    0    0  0.00000000000E+00  0.00000000000E+00  0.45593999997E+02  0.45594000000E+02  0.51100000000E-03 0.  1.
         11   -1    0    0    0    0 -0.00000000000E+00 -0.00000000000E+00 -0.45593999997E+02  0.45594000000E+02  0.51100000000E-03 0. -1.
    9900012    2    1    2    0    0 -0.23075231853E+02  0.22002969650E+02 -0.35150342711E+00  0.59301944221E+02  0.50000000352E+02 0.  0.
         12    1    1    2    0    0  0.23075231853E+02 -0.22002969650E+02  0.35150342711E+00  0.31886055779E+02  0.00000000000E+00 0. -1.
         11    1    3    3    0    0 -0.10315404398E+00  0.80613697386E+01  0.11154349128E+01  0.81388278103E+01  0.51100000000E-03 0. -1.
        -11    1    3    3    0    0 -0.12503469775E+02 -0.50997799702E+01 -0.18953203942E+02  0.23271623323E+02  0.51100000000E-03 0.  1.
        -12    1    3    3    0    0 -0.10468608033E+02  0.19041379882E+02  0.17486265602E+02  0.27891493088E+02  0.00000000000E+00 0.  1.
</event>
<event>
 7    1  0.7819001E-012  0.5930194E+02  0.7816164E-02  0.1266605E+00
        -11   -1    0    0    0    0  0.00000000000E+00  0.00000000000E+00  0.45593999997E+02  0.45594000000E+02  0.51100000000E-03 0.  1.
         11   -1    0    0    0    0 -0.00000000000E+00 -0.00000000000E+00 -0.45593999997E+02  0.45594000000E+02  0.51100000000E-03 0. -1.
    9900012    2    1    2    0    0  0.10592163756E+02 -0.17803794282E+02  0.24239470277E+02  0.59301938104E+02  0.49999989197E+02 0.  0.
         12    1    1    2    0    0 -0.10592163756E+02  0.17803794282E+02 -0.24239470277E+02  0.31886061896E+02  0.00000000000E+00 0. -1.
         11    1    3    3    0    0  0.45425149291E+00  0.62540847598E+01  0.17097712308E+02  0.18211306572E+02  0.51100000000E-03 0. -1.
        -11    1    3    3    0    0  0.20858689196E+02 -0.20278020857E+02  0.47988189699E+01  0.29484092467E+02  0.51100000000E-03 0.  1.
        -12    1    3    3    0    0 -0.10720776932E+02 -0.37798581854E+01  0.23429389992E+01  0.11606539066E+02  0.00000000000E+00 0.  1.
</event>
<event>
 7    1  0.7819001E-012  0.5930194E+02  0.7816164E-02  0.1266605E+00
        -11   -1    0    0    0    0  0.00000000000E+00  0.00000000000E+00  0.45593999997E+02  0.45594000000E+02  0.51100000000E-03 0. -1.
         11   -1    0    0    0    0 -0.00000000000E+00 -0.00000000000E+00 -0.45593999997E+02  0.45594000000E+02  0.51100000000E-03 0.  1.
    9900012    2    1    2    0    0 -0.49412919472E+01  0.30169100973E+02 -0.90625482037E+01  0.59301940357E+02  0.49999993306E+02 0.  0.
         12    1    1    2    0    0  0.49412919472E+01 -0.30169100973E+02  0.90625482037E+01  0.31886059643E+02  0.00000000000E+00 0. -1.
         11    1    3    3    0    0 -0.34373754434E+01  0.50838014762E+01  0.15955368143E+02  0.17094863563E+02  0.51100000000E-03 0. -1.
        -11    1    3    3    0    0 -0.84093368166E+01  0.25574819443E+02 -0.18242214905E+02  0.32520251231E+02  0.51100000000E-03 0.  1.
        -12    1    3    3    0    0  0.69054203128E+01 -0.48951994639E+00 -0.67757014411E+01  0.96868255632E+01  0.00000000000E+00 0.  1.
</event>
<event>
 7    1  0.7819001E-012  0.5930195E+02  0.7816164E-02  0.1266605E+00
        -11   -1    0    0    0    0  0.00000000000E+00  0.00000000000E+00  0.45593999997E+02  0.45594000000E+02  0.51100000000E-03 0.  1.
         11   -1    0    0    0    0 -0.00000000000E+00 -0.00000000000E+00 -0.45593999997E+02  0.45594000000E+02  0.51100000000E-03 0. -1.
    9900012    2    1    2    0    0 -0.15181660288E+02 -0.68393725605E+01  0.27193017323E+02  0.59301952624E+02  0.50000015678E+02 0.  0.
         12    1    1    2    0    0  0.15181660288E+02  0.68393725605E+01 -0.27193017323E+02  0.31886047376E+02  0.00000000000E+00 0. -1.
         11    1    3    3    0    0 -0.17375113603E+01  0.38598524592E+01 -0.28302922101E+01  0.50919506075E+01  0.51100000000E-03 0. -1.
        -11    1    3    3    0    0 -0.22583870399E+02 -0.20697721527E+02  0.15436531856E+02  0.34303256327E+02  0.51100000000E-03 0.  1.
         12    1    3    3    0    0  0.91397214710E+01  0.99984965071E+01  0.14586777677E+02  0.19906745690E+02  0.00000000000E+00 0. -1.
</event>
<event>
 7    1  0.7819001E-012  0.5930194E+02  0.7816164E-02  0.1266605E+00
        -11   -1    0    0    0    0  0.00000000000E+00  0.00000000000E+00  0.45593999997E+02  0.45594000000E+02  0.51100000000E-03 0.  1.
         11   -1    0    0    0    0 -0.00000000000E+00 -0.00000000000E+00 -0.45593999997E+02  0.45594000000E+02  0.51100000000E-03 0. -1.
    9900012    2    1    2    0    0 -0.26342191860E+02  0.44041597254E+01  0.17418759215E+02  0.59301939292E+02  0.49999991364E+02 0.  0.
         12    1    1    2    0    0  0.26342191860E+02 -0.44041597254E+01 -0.17418759215E+02  0.31886060708E+02  0.00000000000E+00 0. -1.
         11    1    3    3    0    0  0.35571448331E+01 -0.78679383546E+01  0.11288799760E+02  0.14212485131E+02  0.51100000000E-03 0. -1.
        -11    1    3    3    0    0 -0.22214022883E+02  0.20431283502E+02 -0.34065333119E+01  0.30372761278E+02  0.51100000000E-03 0.  1.
         12    1    3    3    0    0 -0.76853138105E+01 -0.81591854225E+01  0.95364927664E+01  0.14716692883E+02  0.00000000000E+00 0. -1.
</event>
<event>
 7    1  0.7819001E-012  0.5930195E+02  0.7816164E-02  0.1266605E+00
        -11   -1    0    0    0    0  0.00000000000E+00  0.00000000000E+00  0.45593999997E+02  0.45594000000E+02  0.51100000000E-03 0. -1.
         11   -1    0    0    0    0 -0.00000000000E+00 -0.00000000000E+00 -0.45593999997E+02  0.45594000000E+02  0.51100000000E-03 0.  1.
    9900012    2    1    2    0    0  0.72499995315E+01  0.16165524165E+02 -0.26511010540E+02  0.59301947491E+02  0.50000006317E+02 0.  0.
         12    1    1    2    0    0 -0.72499995315E+01 -0.16165524165E+02  0.26511010540E+02  0.31886052509E+02  0.00000000000E+00 0. -1.
         11    1    3    3    0    0  0.12952114396E+02  0.38875478853E+01 -0.22449948450E+01  0.13708037715E+02  0.51100000000E-03 0. -1.
        -11    1    3    3    0    0 -0.14696194310E+02 -0.53807333320E+01 -0.19860149645E+01  0.15775762235E+02  0.51100000000E-03 0.  1.
        -12    1    3    3    0    0  0.89940794460E+01  0.17658709612E+02 -0.22280000730E+02  0.29818147541E+02  0.00000000000E+00 0.  1.
</event>
<event>
 7    1  0.7819001E-012  0.5930195E+02  0.7816164E-02  0.1266605E+00
        -11   -1    0    0    0    0  0.00000000000E+00  0.00000000000E+00  0.45593999997E+02  0.45594000000E+02  0.51100000000E-03 0.  1.
         11   -1    0    0    0    0 -0.00000000000E+00 -0.00000000000E+00 -0.45593999997E+02  0.45594000000E+02  0.51100000000E-03 0. -1.
    9900012    2    1    2    0    0  0.30072984900E+02 -0.41647816352E+01 -0.97463101994E+01  0.59301946790E+02  0.50000005037E+02 0.  0.
         12    1    1    2    0    0 -0.30072984900E+02  0.41647816352E+01  0.97463101994E+01  0.31886053210E+02  0.00000000000E+00 0. -1.
         11    1    3    3    0    0  0.11750593529E+01 -0.17511440355E+02 -0.17609985928E+02  0.24862480014E+02  0.51100000000E-03 0. -1.
        -11    1    3    3    0    0  0.39586693316E+01  0.54478463634E+01 -0.10219811223E+01  0.68113536504E+01  0.51100000000E-03 0.  1.
         12    1    3    3    0    0  0.24939256215E+02  0.78988123559E+01  0.88856568511E+01  0.27628113125E+02  0.00000000000E+00 0. -1.
</event>
<event>
 7    1  0.7819001E-012  0.5930193E+02  0.7816164E-02  0.1266605E+00
        -11   -1    0    0    0    0  0.00000000000E+00  0.00000000000E+00  0.45593999997E+02  0.45594000000E+02  0.51100000000E-03 0.  1.
         11   -1    0    0    0    0 -0.00000000000E+00 -0.00000000000E+00 -0.45593999997E+02  0.45594000000E+02  0.51100000000E-03 0. -1.
    9900012    2    1    2    0    0 -0.12699242946E+01 -0.25632282551E+02  0.18923398382E+02  0.59301927448E+02  0.49999969762E+02 0.  0.
         12    1    1    2    0    0  0.12699242946E+01  0.25632282551E+02 -0.18923398382E+02  0.31886072552E+02  0.00000000000E+00 0. -1.
         11    1    3    3    0    0  0.59948075991E+01  0.54551243620E+01  0.25351072042E+01  0.84925183988E+01  0.51100000000E-03 0. -1.
        -11    1    3    3    0    0  0.13942887967E+01 -0.37337038599E+02  0.11752930197E+02  0.39167969836E+02  0.51100000000E-03 0.  1.
        -12    1    3    3    0    0 -0.86590206904E+01  0.62496316858E+01  0.46353609800E+01  0.11641439213E+02  0.00000000000E+00 0.  1.
</event>
<event>
 7    1  0.7819001E-012  0.5930192E+02  0.7816164E-02  0.1266605E+00
        -11   -1    0    0    0    0  0.00000000000E+00  0.00000000000E+00  0.45593999997E+02  0.45594000000E+02  0.51100000000E-03 0.  1.
         11   -1    0    0    0    0 -0.00000000000E+00 -0.00000000000E+00 -0.45593999997E+02  0.45594000000E+02  0.51100000000E-03 0. -1.
    9900012    2    1    2    0    0  0.19508206599E+02 -0.69538643484E+01  0.24244501092E+02  0.59301918596E+02  0.49999953619E+02 0.  0.
         12    1    1    2    0    0 -0.19508206599E+02  0.69538643484E+01 -0.24244501092E+02  0.31886081404E+02  0.00000000000E+00 0. -1.
         11    1    3    3    0    0  0.46964124827E+01 -0.18313768153E+02  0.42099628910E+01  0.19369413568E+02  0.51100000000E-03 0. -1.
        -11    1    3    3    0    0  0.19111687583E+02  0.25947065356E+01  0.19556991419E+01  0.19385919211E+02  0.51100000000E-03 0.  1.
         12    1    3    3    0    0 -0.42998934664E+01  0.87651972690E+01  0.18078839059E+02  0.20546585816E+02  0.00000000000E+00 0. -1.
</event>
<event>
 7    1  0.7819001E-012  0.5930197E+02  0.7816164E-02  0.1266605E+00
        -11   -1    0    0    0    0  0.00000000000E+00  0.00000000000E+00  0.45593999997E+02  0.45594000000E+02  0.51100000000E-03 0. -1.
         11   -1    0    0    0    0 -0.00000000000E+00 -0.00000000000E+00 -0.45593999997E+02  0.45594000000E+02  0.51100000000E-03 0.  1.
    9900012    2    1    2    0    0 -0.92963544620E+00  0.23309337605E+02 -0.21737737604E+02  0.59301973628E+02  0.50000053984E+02 0.  0.
         12    1    1    2    0    0  0.92963544620E+00 -0.23309337605E+02  0.21737737604E+02  0.31886026372E+02  0.00000000000E+00 0. -1.
         11    1    3    3    0    0  0.59966834535E+01 -0.11299283447E+02 -0.42777627463E+01  0.13488264278E+02  0.51100000000E-03 0. -1.
        -11    1    3    3    0    0 -0.87089397975E+01  0.31749647095E+02 -0.54880182324E+01  0.33376699468E+02  0.51100000000E-03 0.  1.
        -12    1    3    3    0    0  0.17826208978E+01  0.28589739580E+01 -0.11971956625E+02  0.12437009881E+02  0.00000000000E+00 0.  1.
</event>
<event>
 7    1  0.7819001E-012  0.5930204E+02  0.7816164E-02  0.1266604E+00
        -11   -1    0    0    0    0  0.00000000000E+00  0.00000000000E+00  0.45593999997E+02  0.45594000000E+02  0.51100000000E-03 0.  1.
         11   -1    0    0    0    0 -0.00000000000E+00 -0.00000000000E+00 -0.45593999997E+02  0.45594000000E+02  0.51100000000E-03 0. -1.
    9900012    2    1    2    0    0  0.14887306074E+02 -0.19778489910E+02  0.20097112523E+02  0.59302039500E+02  0.50000174119E+02 0.  0.
         12    1    1    2    0    0 -0.14887306074E+02  0.19778489910E+02 -0.20097112523E+02  0.31885960500E+02  0.00000000000E+00 0. -1.
         11    1    3    3    0    0 -0.31659982903E+01  0.55423139787E+01  0.16789014643E+02  0.17961397561E+02  0.51100000000E-03 0. -1.
        -11    1    3    3    0    0  0.68228137694E+01 -0.26296421380E+02 -0.46226336139E+01  0.27557599804E+02  0.51100000000E-03 0.  1.
         12    1    3    3    0    0  0.11230490595E+02  0.97561749217E+00  0.79307314939E+01  0.13783042136E+02  0.00000000000E+00 0. -1.
</event>
<event>
 7    1  0.7819001E-012  0.5930195E+02  0.7816164E-02  0.1266605E+00
        -11   -1    0    0    0    0  0.00000000000E+00  0.00000000000E+00  0.45593999997E+02  0.45594000000E+02  0.51100000000E-03 0.  1.
         11   -1    0    0    0    0 -0.00000000000E+00 -0.00000000000E+00 -0.45593999997E+02  0.45594000000E+02  0.51100000000E-03 0. -1.
    9900012    2    1    2    0    0 -0.27859551374E+02 -0.11507032267E+02  0.10399707270E+02  0.59301948102E+02  0.50000007430E+02 0.  0.
         12    1    1    2    0    0  0.27859551374E+02  0.11507032267E+02 -0.10399707270E+02  0.31886051898E+02  0.00000000000E+00 0. -1.
         11    1    3    3    0    0 -0.10549511069E+02 -0.19663664418E+02 -0.11967075745E+02  0.25321192395E+02  0.51100000000E-03 0. -1.
        -11    1    3    3    0    0 -0.13622340614E+02  0.67634339693E+01  0.47575960727E+01  0.15935712206E+02  0.51100000000E-03 0.  1.
         12    1    3    3    0    0 -0.36876996904E+01  0.13931981815E+01  0.17609186942E+02  0.18045043501E+02  0.00000000000E+00 0. -1.
</event>
<event>
 7    1  0.7819001E-012  0.5930193E+02  0.7816164E-02  0.1266605E+00
        -11   -1    0    0    0    0  0.00000000000E+00  0.00000000000E+00  0.45593999997E+02  0.45594000000E+02  0.51100000000E-03 0.  1.
         11   -1    0    0    0    0 -0.00000000000E+00 -0.00000000000E+00 -0.45593999997E+02  0.45594000000E+02  0.51100000000E-03 0. -1.
    9900012    2    1    2    0    0 -0.67608717324E+01  0.60687634148E+01  0.30564394138E+02  0.59301929922E+02  0.49999974275E+02 0.  0.
         12    1    1    2    0    0  0.67608717324E+01 -0.60687634148E+01 -0.30564394138E+02  0.31886070078E+02  0.00000000000E+00 0. -1.
         11    1    3    3    0    0  0.21726993313E+00 -0.14747664511E+02  0.18957988228E+02  0.24019703010E+02  0.51100000000E-03 0. -1.
        -11    1    3    3    0    0 -0.71677308961E+01  0.24490361410E+02  0.27173658025E+01  0.25662000026E+02  0.51100000000E-03 0.  1.
        -12    1    3    3    0    0  0.18958923057E+00 -0.36739334839E+01  0.88890401075E+01  0.96202268868E+01  0.00000000000E+00 0.  1.
</event>
<event>
 7    1  0.7819001E-012  0.5930197E+02  0.7816164E-02  0.1266605E+00
        -11   -1    0    0    0    0  0.00000000000E+00  0.00000000000E+00  0.45593999997E+02  0.45594000000E+02  0.51100000000E-03 0. -1.
         11   -1    0    0    0    0 -0.00000000000E+00 -0.00000000000E+00 -0.45593999997E+02  0.45594000000E+02  0.51100000000E-03 0.  1.
    9900012    2    1    2    0    0  0.48606755589E+01  0.14721764688E+00 -0.31513032098E+02  0.59301968075E+02  0.50000043856E+02 0.  0.
         12    1    1    2    0    0 -0.48606755589E+01 -0.14721764688E+00  0.31513032098E+02  0.31886031925E+02  0.00000000000E+00 0. -1.
         11    1    3    3    0    0 -0.12809979695E+02 -0.47629563505E+01 -0.30393727493E+02  0.33325065704E+02  0.51100000000E-03 0. -1.
        -11    1    3    3    0    0  0.13965030869E+01 -0.52517887965E+01  0.32054574738E+01  0.63092364286E+01  0.51100000000E-03 0.  1.
         12    1    3    3    0    0  0.16274152167E+02  0.10161962794E+02 -0.43247620790E+01  0.19667665942E+02  0.00000000000E+00 0. -1.
</event>
<event>
 7    1  0.7819001E-012  0.5930188E+02  0.7816164E-02  0.1266605E+00
        -11   -1    0    0    0    0  0.00000000000E+00  0.00000000000E+00  0.45593999997E+02  0.45594000000E+02  0.51100000000E-03 0. -1.
         11   -1    0    0    0    0 -0.00000000000E+00 -0.00000000000E+00 -0.45593999997E+02  0.45594000000E+02  0.51100000000E-03 0.  1.
    9900012    2    1    2    0    0 -0.25828319583E+02 -0.48499915397E+01 -0.18058244033E+02  0.59301879383E+02  0.49999882104E+02 0.  0.
         12    1    1    2    0    0  0.25828319583E+02  0.48499915397E+01  0.18058244033E+02  0.31886120617E+02  0.00000000000E+00 0. -1.
         11    1    3    3    0    0  0.26475597963E+01 -0.82200953291E+01  0.13136544082E+02  0.15720951968E+02  0.51100000000E-03 0. -1.
        -11    1    3    3    0    0 -0.11855855604E+02  0.78542358973E-01 -0.61847893969E+01  0.13372325944E+02  0.51100000000E-03 0.  1.
         12    1    3    3    0    0 -0.16620023776E+02  0.32915614304E+01 -0.25009998718E+02  0.30208601471E+02  0.00000000000E+00 0. -1.
</event>
<event>
 7    1  0.7819001E-012  0.5930194E+02  0.7816164E-02  0.1266605E+00
        -11   -1    0    0    0    0  0.00000000000E+00  0.00000000000E+00  0.45593999997E+02  0.45594000000E+02  0.51100000000E-03 0. -1.
         11   -1    0    0    0    0 -0.00000000000E+00 -0.00000000000E+00 -0.45593999997E+02  0.45594000000E+02  0.51100000000E-03 0.  1.
    9900012    2    1    2    0    0 -0.69347795700E+01 -0.29863758981E+02  0.87627479998E+01  0.59301936890E+02  0.49999986983E+02 0.  0.
         12    1    1    2    0    0  0.69347795700E+01  0.29863758981E+02 -0.87627479998E+01  0.31886063110E+02  0.00000000000E+00 0. -1.
         11    1    3    3    0    0 -0.16047537126E+02 -0.13899375396E+01  0.13468036540E+02  0.20996270685E+02  0.51100000000E-03 0. -1.
        -11    1    3    3    0    0  0.15654156224E+02 -0.13112644980E+02 -0.66987609005E+01  0.21491101957E+02  0.51100000000E-03 0.  1.
         12    1    3    3    0    0 -0.65413986681E+01 -0.15361176461E+02  0.19934723606E+01  0.16814564249E+02  0.00000000000E+00 0. -1.
</event>
<event>
 7    1  0.7819001E-012  0.5930195E+02  0.7816164E-02  0.1266605E+00
        -11   -1    0    0    0    0  0.00000000000E+00  0.00000000000E+00  0.45593999997E+02  0.45594000000E+02  0.51100000000E-03 0. -1.
         11   -1    0    0    0    0 -0.00000000000E+00 -0.00000000000E+00 -0.45593999997E+02  0.45594000000E+02  0.51100000000E-03 0.  1.
    9900012    2    1    2    0    0 -0.19373795620E+02  0.83826903621E+01 -0.23897841615E+02  0.59301948374E+02  0.50000007927E+02 0.  0.
         12    1    1    2    0    0  0.19373795620E+02 -0.83826903621E+01  0.23897841615E+02  0.31886051626E+02  0.00000000000E+00 0. -1.
         11    1    3    3    0    0 -0.13117156622E+02  0.15828988827E+02  0.90238387383E+01  0.22450976615E+02  0.51100000000E-03 0. -1.
        -11    1    3    3    0    0  0.36601915505E+00  0.31660599650E+01 -0.12522618033E+02  0.12921836881E+02  0.51100000000E-03 0.  1.
         12    1    3    3    0    0 -0.66226581532E+01 -0.10612358430E+02 -0.20399062320E+02  0.23929134878E+02  0.00000000000E+00 0. -1.
</event>
<event>
 7    1  0.7819001E-012  0.5930192E+02  0.7816164E-02  0.1266605E+00
        -11   -1    0    0    0    0  0.00000000000E+00  0.00000000000E+00  0.45593999997E+02  0.45594000000E+02  0.51100000000E-03 0. -1.
         11   -1    0    0    0    0 -0.00000000000E+00 -0.00000000000E+00 -0.45593999997E+02  0.45594000000E+02  0.51100000000E-03 0.  1.
    9900012    2    1    2    0    0 -0.21266998352E+02 -0.21417966902E+02 -0.10281421664E+02  0.59301919079E+02  0.49999954499E+02 0.  0.
         12    1    1    2    0    0  0.21266998352E+02  0.21417966902E+02  0.10281421664E+02  0.31886080921E+02  0.00000000000E+00 0. -1.
         11    1    3    3    0    0  0.20963212151E+01 -0.21180002110E+02  0.39900263839E+01  0.21654268928E+02  0.51100000000E-03 0. -1.
        -11    1    3    3    0    0 -0.17264899507E+02 -0.77255021272E+01 -0.19074303231E+02  0.26862412068E+02  0.51100000000E-03 0.  1.
         12    1    3    3    0    0 -0.60984200602E+01  0.74875373352E+01  0.48028551836E+01  0.10785238082E+02  0.00000000000E+00 0. -1.
</event>
<event>
 7    1  0.7819001E-012  0.5930194E+02  0.7816164E-02  0.1266605E+00
        -11   -1    0    0    0    0  0.00000000000E+00  0.00000000000E+00  0.45593999997E+02  0.45594000000E+02  0.51100000000E-03 0.  1.
         11   -1    0    0    0    0 -0.00000000000E+00 -0.00000000000E+00 -0.45593999997E+02  0.45594000000E+02  0.51100000000E-03 0. -1.
    9900012    2    1    2    0    0 -0.10264257052E+00  0.24434365248E+02  0.20485892557E+02  0.59301944515E+02  0.50000000888E+02 0.  0.
         12    1    1    2    0    0  0.10264257052E+00 -0.24434365248E+02 -0.20485892557E+02  0.31886055485E+02  0.00000000000E+00 0. -1.
         11    1    3    3    0    0  0.11314965308E+02  0.84648906194E+01 -0.49734241895E+01  0.14980579479E+02  0.51100000000E-03 0. -1.
        -11    1    3    3    0    0 -0.14926089808E+02  0.21044526556E+02  0.27609061836E+02  0.37787836014E+02  0.51100000000E-03 0.  1.
         12    1    3    3    0    0  0.35084819300E+01 -0.50750519273E+01 -0.21497450896E+01  0.65335290210E+01  0.00000000000E+00 0. -1.
</event>
<event>
 7    1  0.7819001E-012  0.5930193E+02  0.7816164E-02  0.1266605E+00
        -11   -1    0    0    0    0  0.00000000000E+00  0.00000000000E+00  0.45593999997E+02  0.45594000000E+02  0.51100000000E-03 0. -1.
         11   -1    0    0    0    0 -0.00000000000E+00 -0.00000000000E+00 -0.45593999997E+02  0.45594000000E+02  0.51100000000E-03 0.  1.
    9900012    2    1    2    0    0  0.21817995153E+02  0.23236905755E+02  0.86170201046E+00  0.59301933577E+02  0.49999980940E+02 0.  0.
         12    1    1    2    0    0 -0.21817995153E+02 -0.23236905755E+02 -0.86170201046E+00  0.31886066423E+02  0.00000000000E+00 0. -1.
         11    1    3    3    0    0 -0.33179611245E+01  0.12628232926E+02  0.16163884527E+02  0.20778650007E+02  0.51100000000E-03 0. -1.
        -11    1    3    3    0    0  0.76365283758E-01 -0.37446374803E+01 -0.78507074200E+01  0.86983762146E+01  0.51100000000E-03 0.  1.
         12    1    3    3    0    0  0.25059590994E+02  0.14353310309E+02 -0.74514750965E+01  0.29824907355E+02  0.00000000000E+00 0. -1.
</event>
<event>
 7    1  0.7819001E-012  0.5930194E+02  0.7816164E-02  0.1266605E+00
        -11   -1    0    0    0    0  0.00000000000E+00  0.00000000000E+00  0.45593999997E+02  0.45594000000E+02  0.51100000000E-03 0.  1.
         11   -1    0    0    0    0 -0.00000000000E+00 -0.00000000000E+00 -0.45593999997E+02  0.45594000000E+02  0.51100000000E-03 0. -1.
    9900012    2    1    2    0    0  0.24535403999E+02  0.18410417709E+02  0.87058093802E+01  0.59301942756E+02  0.49999997680E+02 0.  0.
         12    1    1    2    0    0 -0.24535403999E+02 -0.18410417709E+02 -0.87058093802E+01  0.31886057244E+02  0.00000000000E+00 0. -1.
         11    1    3    3    0    0  0.21444163745E+02 -0.39628610666E+00  0.24023477620E+02  0.32204606481E+02  0.51100000000E-03 0. -1.
        -11    1    3    3    0    0  0.32921358054E+00  0.18000315433E+02 -0.89403973978E+01  0.20101006024E+02  0.51100000000E-03 0.  1.
         12    1    3    3    0    0  0.27620266741E+01  0.80638838256E+00 -0.63772708424E+01  0.69963302502E+01  0.00000000000E+00 0. -1.
</event>
<event>
 7    1  0.7819001E-012  0.5930184E+02  0.7816164E-02  0.1266605E+00
        -11   -1    0    0    0    0  0.00000000000E+00  0.00000000000E+00  0.45593999997E+02  0.45594000000E+02  0.51100000000E-03 0.  1.
         11   -1    0    0    0    0 -0.00000000000E+00 -0.00000000000E+00 -0.45593999997E+02  0.45594000000E+02  0.51100000000E-03 0. -1.
    9900012    2    1    2    0    0  0.31498476618E+01 -0.24278908859E+02  0.20428911381E+02  0.59301837235E+02  0.49999805235E+02 0.  0.
         12    1    1    2    0    0 -0.31498476618E+01  0.24278908859E+02 -0.20428911381E+02  0.31886162765E+02  0.00000000000E+00 0. -1.
         11    1    3    3    0    0  0.21205431941E+02  0.35355570939E+00  0.17267585232E+01  0.21278558238E+02  0.51100000000E-03 0. -1.
        -11    1    3    3    0    0 -0.94286869824E+01 -0.16974253405E+02  0.48821656932E+01  0.20021512405E+02  0.51100000000E-03 0.  1.
        -12    1    3    3    0    0 -0.86268972966E+01 -0.76582111630E+01  0.13819987165E+02  0.18001766592E+02  0.00000000000E+00 0.  1.
</event>
<event>
 7    1  0.7819001E-012  0.5930204E+02  0.7816164E-02  0.1266604E+00
        -11   -1    0    0    0    0  0.00000000000E+00  0.00000000000E+00  0.45593999997E+02  0.45594000000E+02  0.51100000000E-03 0. -1.
         11   -1    0    0    0    0 -0.00000000000E+00 -0.00000000000E+00 -0.45593999997E+02  0.45594000000E+02  0.51100000000E-03 0.  1.
    9900012    2    1    2    0    0 -0.93694288419E+01  0.24698137497E+02 -0.17858614630E+02  0.59302042132E+02  0.50000178918E+02 0.  0.
         12    1    1    2    0    0  0.93694288419E+01 -0.24698137497E+02  0.17858614630E+02  0.31885957868E+02  0.00000000000E+00 0. -1.
         11    1    3    3    0    0 -0.43795636344E+01 -0.29318070033E+01 -0.24190707689E+02  0.24758158427E+02  0.51100000000E-03 0. -1.
        -11    1    3    3    0    0  0.73546407362E+01  0.11417765076E+02  0.24871300490E+01  0.13807313853E+02  0.51100000000E-03 0.  1.
         12    1    3    3    0    0 -0.12344505944E+02  0.16212179425E+02  0.38449630099E+01  0.20736569852E+02  0.00000000000E+00 0. -1.
</event>
<event>
 7    1  0.7819001E-012  0.5930205E+02  0.7816164E-02  0.1266604E+00
        -11   -1    0    0    0    0  0.00000000000E+00  0.00000000000E+00  0.45593999997E+02  0.45594000000E+02  0.51100000000E-03 0.  1.
         11   -1    0    0    0    0 -0.00000000000E+00 -0.00000000000E+00 -0.45593999997E+02  0.45594000000E+02  0.51100000000E-03 0. -1.
    9900012    2    1    2    0    0 -0.98128031845E+01  0.42498719937E+01  0.30039325391E+02  0.59302053436E+02  0.50000199535E+02 0.  0.
         12    1    1    2    0    0  0.98128031845E+01 -0.42498719937E+01 -0.30039325391E+02  0.31885946564E+02  0.00000000000E+00 0. -1.
         11    1    3    3    0    0 -0.15057246618E+02  0.73996024420E+01  0.13332700209E+02  0.21429785046E+02  0.51100000000E-03 0. -1.
        -11    1    3    3    0    0 -0.15753470560E+01 -0.12910149676E+02  0.21425748823E+02  0.25064245368E+02  0.51100000000E-03 0.  1.
        -12    1    3    3    0    0  0.68197904891E+01  0.97604192274E+01 -0.47191236403E+01  0.12808023022E+02  0.00000000000E+00 0.  1.
</event>
<event>
 7    1  0.7819001E-012  0.5930218E+02  0.7816164E-02  0.1266604E+00
        -11   -1    0    0    0    0  0.00000000000E+00  0.00000000000E+00  0.45593999997E+02  0.45594000000E+02  0.51100000000E-03 0.  1.
         11   -1    0    0    0    0 -0.00000000000E+00 -0.00000000000E+00 -0.45593999997E+02  0.45594000000E+02  0.51100000000E-03 0. -1.
    9900012    2    1    2    0    0 -0.18232171280E+02 -0.17706745793E+02  0.19255246073E+02  0.59302181562E+02  0.50000433204E+02 0.  0.
         12    1    1    2    0    0  0.18232171280E+02  0.17706745793E+02 -0.19255246073E+02  0.31885818438E+02  0.00000000000E+00 0. -1.
         11    1    3    3    0    0 -0.91457137158E+01 -0.19561433898E+02 -0.12055759665E+02  0.24731257891E+02  0.51100000000E-03 0. -1.
        -11    1    3    3    0    0 -0.13849030797E+01 -0.42542376116E+01  0.13570092096E+02  0.14288593141E+02  0.51100000000E-03 0.  1.
         12    1    3    3    0    0 -0.77015544845E+01  0.61089257169E+01  0.17740913641E+02  0.20282330530E+02  0.00000000000E+00 0. -1.
</event>
<event>
 7    1  0.7819001E-012  0.5930194E+02  0.7816164E-02  0.1266605E+00
        -11   -1    0    0    0    0  0.00000000000E+00  0.00000000000E+00  0.45593999997E+02  0.45594000000E+02  0.51100000000E-03 0. -1.
         11   -1    0    0    0    0 -0.00000000000E+00 -0.00000000000E+00 -0.45593999997E+02  0.45594000000E+02  0.51100000000E-03 0.  1.
    9900012    2    1    2    0    0 -0.31386055627E+02  0.13080550594E+01 -0.54704187475E+01  0.59301937573E+02  0.49999988228E+02 0.  0.
         12    1    1    2    0    0  0.31386055627E+02 -0.13080550594E+01  0.54704187475E+01  0.31886062427E+02  0.00000000000E+00 0. -1.
         11    1    3    3    0    0 -0.82413605059E+00 -0.39142802270E+01  0.12251585378E+02  0.12888061703E+02  0.51100000000E-03 0. -1.
        -11    1    3    3    0    0 -0.28399223999E+02 -0.53928750887E+01 -0.20244524834E+02  0.35290789329E+02  0.51100000000E-03 0.  1.
         12    1    3    3    0    0 -0.21626955775E+01  0.10615210375E+02  0.25225207083E+01  0.11123086541E+02  0.00000000000E+00 0. -1.
</event>
<event>
 7    1  0.7819001E-012  0.5930196E+02  0.7816164E-02  0.1266605E+00
        -11   -1    0    0    0    0  0.00000000000E+00  0.00000000000E+00  0.45593999997E+02  0.45594000000E+02  0.51100000000E-03 0. -1.
         11   -1    0    0    0    0 -0.00000000000E+00 -0.00000000000E+00 -0.45593999997E+02  0.45594000000E+02  0.51100000000E-03 0.  1.
    9900012    2    1    2    0    0  0.74624662783E+01  0.24488193668E+02  0.19009450683E+02  0.59301964698E+02  0.50000037697E+02 0.  0.
         12    1    1    2    0    0 -0.74624662783E+01 -0.24488193668E+02 -0.19009450683E+02  0.31886035302E+02  0.00000000000E+00 0. -1.
         11    1    3    3    0    0 -0.21931166540E+01  0.21632045990E+01  0.54352665325E+00  0.31280403257E+01  0.51100000000E-03 0. -1.
        -11    1    3    3    0    0  0.89260626609E+01  0.10403841842E+02  0.33953337008E+02  0.36616166019E+02  0.51100000000E-03 0.  1.
        -12    1    3    3    0    0  0.72952027141E+00  0.11921147226E+02 -0.15487412979E+02  0.19557758353E+02  0.00000000000E+00 0.  1.
</event>
<event>
 7    1  0.7819001E-012  0.5930186E+02  0.7816164E-02  0.1266605E+00
        -11   -1    0    0    0    0  0.00000000000E+00  0.00000000000E+00  0.45593999997E+02  0.45594000000E+02  0.51100000000E-03 0.  1.
         11   -1    0    0    0    0 -0.00000000000E+00 -0.00000000000E+00 -0.45593999997E+02  0.45594000000E+02  0.51100000000E-03 0. -1.
    9900012    2    1    2    0    0  0.26218580805E+02  0.15480757932E+02  0.94688035620E+01  0.59301857454E+02  0.49999842110E+02 0.  0.
         12    1    1    2    0    0 -0.26218580805E+02 -0.15480757932E+02 -0.94688035620E+01  0.31886142546E+02  0.00000000000E+00 0. -1.
         11    1    3    3    0    0  0.48160331634E+01 -0.10738685903E+02  0.17224014036E+02  0.20860973374E+02  0.51100000000E-03 0. -1.
        -11    1    3    3    0    0  0.21943660024E+02  0.20383711591E+02 -0.16767753668E+01  0.29997191358E+02  0.51100000000E-03 0.  1.
        -12    1    3    3    0    0 -0.54111238287E+00  0.58357322431E+01 -0.60784351070E+01  0.84436927215E+01  0.00000000000E+00 0.  1.
</event>
<event>
 7    1  0.7819001E-012  0.5930197E+02  0.7816164E-02  0.1266605E+00
        -11   -1    0    0    0    0  0.00000000000E+00  0.00000000000E+00  0.45593999997E+02  0.45594000000E+02  0.51100000000E-03 0.  1.
         11   -1    0    0    0    0 -0.00000000000E+00 -0.00000000000E+00 -0.45593999997E+02  0.45594000000E+02  0.51100000000E-03 0. -1.
    9900012    2    1    2    0    0  0.13942561260E+02  0.22518307131E+01  0.28587638461E+02  0.59301971259E+02  0.50000049664E+02 0.  0.
         12    1    1    2    0    0 -0.13942561260E+02 -0.22518307131E+01 -0.28587638461E+02  0.31886028741E+02  0.00000000000E+00 0. -1.
         11    1    3    3    0    0  0.80309015838E+01  0.30951750460E+01 -0.74650697598E+01  0.11393101228E+02  0.51100000000E-03 0. -1.
        -11    1    3    3    0    0  0.64564671922E+01 -0.10813555731E+02  0.35767090015E+02  0.37919700480E+02  0.51100000000E-03 0.  1.
        -12    1    3    3    0    0 -0.54480751566E+00  0.99702113983E+01  0.28561820642E+00  0.99891695508E+01  0.00000000000E+00 0.  1.
</event>
<event>
 7    1  0.7819001E-012  0.5930196E+02  0.7816164E-02  0.1266605E+00
        -11   -1    0    0    0    0  0.00000000000E+00  0.00000000000E+00  0.45593999997E+02  0.45594000000E+02  0.51100000000E-03 0. -1.
         11   -1    0    0    0    0 -0.00000000000E+00 -0.00000000000E+00 -0.45593999997E+02  0.45594000000E+02  0.51100000000E-03 0.  1.
    9900012    2    1    2    0    0  0.25935363995E+02 -0.99578598736E+01 -0.15649844710E+02  0.59301957313E+02  0.50000024229E+02 0.  0.
         12    1    1    2    0    0 -0.25935363995E+02  0.99578598736E+01  0.15649844710E+02  0.31886042687E+02  0.00000000000E+00 0. -1.
         11    1    3    3    0    0  0.47467326715E+01 -0.22360320645E+01  0.61586970282E+01  0.80907885768E+01  0.51100000000E-03 0. -1.
        -11    1    3    3    0    0  0.29607478204E+01  0.14683739338E+02 -0.15678966163E+02  0.21684284835E+02  0.51100000000E-03 0.  1.
        -12    1    3    3    0    0  0.18227883503E+02 -0.22405567147E+02 -0.61295755747E+01  0.29526883901E+02  0.00000000000E+00 0.  1.
</event>
<event>
 7    1  0.7819001E-012  0.5930195E+02  0.7816164E-02  0.1266605E+00
        -11   -1    0    0    0    0  0.00000000000E+00  0.00000000000E+00  0.45593999997E+02  0.45594000000E+02  0.51100000000E-03 0.  1.
         11   -1    0    0    0    0 -0.00000000000E+00 -0.00000000000E+00 -0.45593999997E+02  0.45594000000E+02  0.51100000000E-03 0. -1.
    9900012    2    1    2    0    0  0.17110191485E+02  0.23888206940E+02  0.12382040628E+02  0.59301952682E+02  0.50000015783E+02 0.  0.
         12    1    1    2    0    0 -0.17110191485E+02 -0.23888206940E+02 -0.12382040628E+02  0.31886047318E+02  0.00000000000E+00 0. -1.
         11    1    3    3    0    0 -0.75656325913E+01  0.25430701669E+02  0.76686286207E+01  0.27618241238E+02  0.51100000000E-03 0. -1.
        -11    1    3    3    0    0  0.13227662346E+02 -0.74561163757E+01 -0.45071348602E+01  0.15839159936E+02  0.51100000000E-03 0.  1.
        -12    1    3    3    0    0  0.11448161730E+02  0.59136216465E+01  0.92205468676E+01  0.15844551509E+02  0.00000000000E+00 0.  1.
</event>
<event>
 7    1  0.7819001E-012  0.5930197E+02  0.7816164E-02  0.1266605E+00
        -11   -1    0    0    0    0  0.00000000000E+00  0.00000000000E+00  0.45593999997E+02  0.45594000000E+02  0.51100000000E-03 0.  1.
         11   -1    0    0    0    0 -0.00000000000E+00 -0.00000000000E+00 -0.45593999997E+02  0.45594000000E+02  0.51100000000E-03 0. -1.
    9900012    2    1    2    0    0 -0.18087363285E+02 -0.31252480483E+01  0.26072957816E+02  0.59301968337E+02  0.50000044334E+02 0.  0.
         12    1    1    2    0    0  0.18087363285E+02  0.31252480483E+01 -0.26072957816E+02  0.31886031663E+02  0.00000000000E+00 0. -1.
         11    1    3    3    0    0 -0.15866882274E+02  0.12508218086E+02 -0.76035004711E+01  0.21587651389E+02  0.51100000000E-03 0. -1.
        -11    1    3    3    0    0 -0.18160832036E-01 -0.13647449507E+02  0.30228446160E+02  0.33166431303E+02  0.51100000000E-03 0.  1.
         12    1    3    3    0    0 -0.22023201786E+01 -0.19860166281E+01  0.34480121267E+01  0.45478856452E+01  0.00000000000E+00 0. -1.
</event>
<event>
 7    1  0.7819001E-012  0.5930195E+02  0.7816164E-02  0.1266605E+00
        -11   -1    0    0    0    0  0.00000000000E+00  0.00000000000E+00  0.45593999997E+02  0.45594000000E+02  0.51100000000E-03 0.  1.
         11   -1    0    0    0    0 -0.00000000000E+00 -0.00000000000E+00 -0.45593999997E+02  0.45594000000E+02  0.51100000000E-03 0. -1.
    9900012    2    1    2    0    0 -0.98142927508E+01 -0.27231837281E+02  0.13372621216E+02  0.59301948158E+02  0.50000007532E+02 0.  0.
         12    1    1    2    0    0  0.98142927508E+01  0.27231837281E+02 -0.13372621216E+02  0.31886051842E+02  0.00000000000E+00 0. -1.
         11    1    3    3    0    0 -0.11447889106E+02  0.12576392233E+02  0.55139852536E+01  0.17878026743E+02  0.51100000000E-03 0. -1.
        -11    1    3    3    0    0  0.26843285027E+01 -0.83481209907E+01  0.42356691580E+01  0.97384617401E+01  0.51100000000E-03 0.  1.
         12    1    3    3    0    0 -0.10507321479E+01 -0.31460108523E+02  0.36229668049E+01  0.31685459675E+02  0.00000000000E+00 0. -1.
</event>
<event>
 7    1  0.7819001E-012  0.5930192E+02  0.7816164E-02  0.1266605E+00
        -11   -1    0    0    0    0  0.00000000000E+00  0.00000000000E+00  0.45593999997E+02  0.45594000000E+02  0.51100000000E-03 0.  1.
         11   -1    0    0    0    0 -0.00000000000E+00 -0.00000000000E+00 -0.45593999997E+02  0.45594000000E+02  0.51100000000E-03 0. -1.
    9900012    2    1    2    0    0  0.11418297652E+02 -0.20047986549E+02  0.22009604733E+02  0.59301921746E+02  0.49999959363E+02 0.  0.
         12    1    1    2    0    0 -0.11418297652E+02  0.20047986549E+02 -0.22009604733E+02  0.31886078254E+02  0.00000000000E+00 0. -1.
         11    1    3    3    0    0 -0.15871683703E+02 -0.12089335152E+02  0.66783614069E+01  0.21039555112E+02  0.51100000000E-03 0. -1.
        -11    1    3    3    0    0  0.20183585582E+02  0.34678093653E+01  0.44498915271E+01  0.20957203144E+02  0.51100000000E-03 0.  1.
         12    1    3    3    0    0  0.71063957726E+01 -0.11426460762E+02  0.10881351799E+02  0.17305163490E+02  0.00000000000E+00 0. -1.
</event>
<event>
 7    1  0.7819001E-012  0.5930194E+02  0.7816164E-02  0.1266605E+00
        -11   -1    0    0    0    0  0.00000000000E+00  0.00000000000E+00  0.45593999997E+02  0.45594000000E+02  0.51100000000E-03 0. -1.
         11   -1    0    0    0    0 -0.00000000000E+00 -0.00000000000E+00 -0.45593999997E+02  0.45594000000E+02  0.51100000000E-03 0.  1.
    9900012    2    1    2    0    0 -0.28059960233E+02 -0.56160212185E+01 -0.14064844902E+02  0.59301938394E+02  0.49999989726E+02 0.  0.
         12    1    1    2    0    0  0.28059960233E+02  0.56160212185E+01  0.14064844902E+02  0.31886061606E+02  0.00000000000E+00 0. -1.
         11    1    3    3    0    0  0.59576610336E+01 -0.16434694217E+01  0.47808514922E+01  0.78135304430E+01  0.51100000000E-03 0. -1.
        -11    1    3    3    0    0 -0.26112237599E+02  0.81571923687E+01  0.45536367219E+00  0.27360484208E+02  0.51100000000E-03 0.  1.
        -12    1    3    3    0    0 -0.79053836679E+01 -0.12129744166E+02 -0.19301060066E+02  0.24127923743E+02  0.00000000000E+00 0.  1.
</event>
<event>
 7    1  0.7819001E-012  0.5930191E+02  0.7816164E-02  0.1266605E+00
        -11   -1    0    0    0    0  0.00000000000E+00  0.00000000000E+00  0.45593999997E+02  0.45594000000E+02  0.51100000000E-03 0. -1.
         11   -1    0    0    0    0 -0.00000000000E+00 -0.00000000000E+00 -0.45593999997E+02  0.45594000000E+02  0.51100000000E-03 0.  1.
    9900012    2    1    2    0    0 -0.17790845707E+02  0.25566382496E+02 -0.68241276066E+01  0.59301908635E+02  0.49999935452E+02 0.  0.
         12    1    1    2    0    0  0.17790845707E+02 -0.25566382496E+02  0.68241276066E+01  0.31886091365E+02  0.00000000000E+00 0. -1.
         11    1    3    3    0    0 -0.13169089835E+02 -0.11170856022E+02 -0.65323612984E+01  0.18463063011E+02  0.51100000000E-03 0. -1.
        -11    1    3    3    0    0 -0.32422773086E+01  0.26694726243E+02  0.76540329916E+01  0.27958987690E+02  0.51100000000E-03 0.  1.
        -12    1    3    3    0    0 -0.13794785635E+01  0.10042512275E+02 -0.79457992998E+01  0.12879857935E+02  0.00000000000E+00 0.  1.
</event>
<event>
 7    1  0.7819001E-012  0.5930181E+02  0.7816164E-02  0.1266605E+00
        -11   -1    0    0    0    0  0.00000000000E+00  0.00000000000E+00  0.45593999997E+02  0.45594000000E+02  0.51100000000E-03 0. -1.
         11   -1    0    0    0    0 -0.00000000000E+00 -0.00000000000E+00 -0.45593999997E+02  0.45594000000E+02  0.51100000000E-03 0.  1.
    9900012    2    1    2    0    0 -0.26223326131E+02 -0.24095478604E+01 -0.17979445674E+02  0.59301808302E+02  0.49999752467E+02 0.  0.
         12    1    1    2    0    0  0.26223326131E+02  0.24095478604E+01  0.17979445674E+02  0.31886191698E+02  0.00000000000E+00 0. -1.
         11    1    3    3    0    0 -0.24180121508E+02 -0.98859833455E+01 -0.11663528196E+02  0.28608544756E+02  0.51100000000E-03 0. -1.
        -11    1    3    3    0    0  0.13379649360E+02  0.49283095101E+01 -0.45241111127E+01  0.14958971664E+02  0.51100000000E-03 0.  1.
         12    1    3    3    0    0 -0.15422853983E+02  0.25481259750E+01 -0.17918063660E+01  0.15734291882E+02  0.00000000000E+00 0. -1.
</event>
<event>
 7    1  0.7819001E-012  0.5930185E+02  0.7816164E-02  0.1266605E+00
        -11   -1    0    0    0    0  0.00000000000E+00  0.00000000000E+00  0.45593999997E+02  0.45594000000E+02  0.51100000000E-03 0.  1.
         11   -1    0    0    0    0 -0.00000000000E+00 -0.00000000000E+00 -0.45593999997E+02  0.45594000000E+02  0.51100000000E-03 0. -1.
    9900012    2    1    2    0    0  0.27018212783E+02  0.93032470790E+01  0.14148933452E+02  0.59301850247E+02  0.49999828967E+02 0.  0.
         12    1    1    2    0    0 -0.27018212783E+02 -0.93032470790E+01 -0.14148933452E+02  0.31886149753E+02  0.00000000000E+00 0. -1.
         11    1    3    3    0    0  0.13628849176E+02  0.26714236619E+01 -0.50979978744E+01  0.14794310286E+02  0.51100000000E-03 0. -1.
        -11    1    3    3    0    0  0.16752122127E+02 -0.97823262902E+00  0.27865669551E+02  0.32528235037E+02  0.51100000000E-03 0.  1.
        -12    1    3    3    0    0 -0.33627585195E+01  0.76100560461E+01 -0.86187382246E+01  0.11979304924E+02  0.00000000000E+00 0.  1.
</event>
<event>
 7    1  0.7819001E-012  0.5930195E+02  0.7816164E-02  0.1266605E+00
        -11   -1    0    0    0    0  0.00000000000E+00  0.00000000000E+00  0.45593999997E+02  0.45594000000E+02  0.51100000000E-03 0. -1.
         11   -1    0    0    0    0 -0.00000000000E+00 -0.00000000000E+00 -0.45593999997E+02  0.45594000000E+02  0.51100000000E-03 0.  1.
    9900012    2    1    2    0    0  0.26641744841E+02  0.53716866772E+01 -0.16675813914E+02  0.59301947318E+02  0.50000006001E+02 0.  0.
         12    1    1    2    0    0 -0.26641744841E+02 -0.53716866772E+01  0.16675813914E+02  0.31886052682E+02  0.00000000000E+00 0. -1.
         11    1    3    3    0    0  0.18639592438E+02 -0.20210496553E+02 -0.27621596565E+00  0.27494997230E+02  0.51100000000E-03 0. -1.
        -11    1    3    3    0    0  0.23344094364E+01  0.10450034128E+02 -0.91989750054E+01  0.14116438011E+02  0.51100000000E-03 0.  1.
         12    1    3    3    0    0  0.56677429667E+01  0.15132149102E+02 -0.72006229430E+01  0.17690512077E+02  0.00000000000E+00 0. -1.
</event>
<event>
 7    1  0.7819001E-012  0.5930194E+02  0.7816164E-02  0.1266605E+00
        -11   -1    0    0    0    0  0.00000000000E+00  0.00000000000E+00  0.45593999997E+02  0.45594000000E+02  0.51100000000E-03 0.  1.
         11   -1    0    0    0    0 -0.00000000000E+00 -0.00000000000E+00 -0.45593999997E+02  0.45594000000E+02  0.51100000000E-03 0. -1.
    9900012    2    1    2    0    0 -0.20400386278E+02  0.12828212962E+02  0.20880175816E+02  0.59301944267E+02  0.50000000437E+02 0.  0.
         12    1    1    2    0    0  0.20400386278E+02 -0.12828212962E+02 -0.20880175816E+02  0.31886055733E+02  0.00000000000E+00 0. -1.
         11    1    3    3    0    0  0.50273077046E+01  0.66645063608E+00  0.17623794565E+00  0.50743511193E+01  0.51100000000E-03 0. -1.
        -11    1    3    3    0    0 -0.27007342616E+02 -0.92845729818E+01  0.13081662295E+02  0.31412254604E+02  0.51100000000E-03 0.  1.
        -12    1    3    3    0    0  0.15796486331E+01  0.21446335308E+02  0.76222755747E+01  0.22815338544E+02  0.00000000000E+00 0.  1.
</event>
<event>
 7    1  0.7819001E-012  0.5930194E+02  0.7816164E-02  0.1266605E+00
        -11   -1    0    0    0    0  0.00000000000E+00  0.00000000000E+00  0.45593999997E+02  0.45594000000E+02  0.51100000000E-03 0. -1.
         11   -1    0    0    0    0 -0.00000000000E+00 -0.00000000000E+00 -0.45593999997E+02  0.45594000000E+02  0.51100000000E-03 0.  1.
    9900012    2    1    2    0    0  0.21807650675E+02  0.23140054501E+02 -0.23843414235E+01  0.59301939812E+02  0.49999992311E+02 0.  0.
         12    1    1    2    0    0 -0.21807650675E+02 -0.23140054501E+02  0.23843414235E+01  0.31886060188E+02  0.00000000000E+00 0. -1.
         11    1    3    3    0    0 -0.45949821130E+01  0.18801823649E+01  0.65714301843E+01  0.82360573864E+01  0.51100000000E-03 0. -1.
        -11    1    3    3    0    0  0.17315896908E+02  0.17547596274E+02 -0.23143296269E+02  0.33813763221E+02  0.51100000000E-03 0.  1.
        -12    1    3    3    0    0  0.90867358798E+01  0.37122758625E+01  0.14187524661E+02  0.17252119204E+02  0.00000000000E+00 0.  1.
</event>
<event>
 7    1  0.7819001E-012  0.5930194E+02  0.7816164E-02  0.1266605E+00
        -11   -1    0    0    0    0  0.00000000000E+00  0.00000000000E+00  0.45593999997E+02  0.45594000000E+02  0.51100000000E-03 0.  1.
         11   -1    0    0    0    0 -0.00000000000E+00 -0.00000000000E+00 -0.45593999997E+02  0.45594000000E+02  0.51100000000E-03 0. -1.
    9900012    2    1    2    0    0 -0.22741126112E+02  0.81039521062E+01  0.20829983359E+02  0.59301936222E+02  0.49999985763E+02 0.  0.
         12    1    1    2    0    0  0.22741126112E+02 -0.81039521062E+01 -0.20829983359E+02  0.31886063778E+02  0.00000000000E+00 0. -1.
         11    1    3    3    0    0 -0.99970205059E+01  0.33597171641E+01 -0.13620191618E+02  0.17226077278E+02  0.51100000000E-03 0. -1.
        -11    1    3    3    0    0 -0.22003237237E+01 -0.75798148151E+01  0.12509633813E+02  0.14791414926E+02  0.51100000000E-03 0.  1.
         12    1    3    3    0    0 -0.10543781882E+02  0.12324049757E+02  0.21940541163E+02  0.27284444017E+02  0.00000000000E+00 0. -1.
</event>
<event>
 7    1  0.7819001E-012  0.5930198E+02  0.7816164E-02  0.1266605E+00
        -11   -1    0    0    0    0  0.00000000000E+00  0.00000000000E+00  0.45593999997E+02  0.45594000000E+02  0.51100000000E-03 0.  1.
         11   -1    0    0    0    0 -0.00000000000E+00 -0.00000000000E+00 -0.45593999997E+02  0.45594000000E+02  0.51100000000E-03 0. -1.
    9900012    2    1    2    0    0  0.10715571379E+02 -0.21024366603E+02  0.21444605081E+02  0.59301975661E+02  0.50000057692E+02 0.  0.
         12    1    1    2    0    0 -0.10715571379E+02  0.21024366603E+02 -0.21444605081E+02  0.31886024339E+02  0.00000000000E+00 0. -1.
         11    1    3    3    0    0  0.46342224046E+01  0.28484738374E+01 -0.79236136858E+01  0.96111120377E+01  0.51100000000E-03 0. -1.
        -11    1    3    3    0    0 -0.45423819805E+01 -0.28170379412E+02  0.22424265118E+02  0.36291199713E+02  0.51100000000E-03 0.  1.
        -12    1    3    3    0    0  0.10623730955E+02  0.42975389717E+01  0.69439536493E+01  0.13399663910E+02  0.00000000000E+00 0.  1.
</event>
<event>
 7    1  0.7819001E-012  0.5930194E+02  0.7816164E-02  0.1266605E+00
        -11   -1    0    0    0    0  0.00000000000E+00  0.00000000000E+00  0.45593999997E+02  0.45594000000E+02  0.51100000000E-03 0.  1.
         11   -1    0    0    0    0 -0.00000000000E+00 -0.00000000000E+00 -0.45593999997E+02  0.45594000000E+02  0.51100000000E-03 0. -1.
    9900012    2    1    2    0    0  0.13228646619E+01 -0.22392751839E+02  0.22661321431E+02  0.59301940431E+02  0.49999993440E+02 0.  0.
         12    1    1    2    0    0 -0.13228646619E+01  0.22392751839E+02 -0.22661321431E+02  0.31886059569E+02  0.00000000000E+00 0. -1.
         11    1    3    3    0    0  0.77691576077E+01 -0.25597683950E+02  0.27338432038E+02  0.38249066656E+02  0.51100000000E-03 0.  1.
        -11    1    3    3    0    0 -0.69234446633E+01  0.69973623269E+01 -0.10304171914E+02  0.14250372789E+02  0.51100000000E-03 0. -1.
         12    1    3    3    0    0  0.47715171753E+00 -0.37924302161E+01  0.56270613068E+01  0.68025009853E+01  0.00000000000E+00 0. -1.
</event>
<event>
 7    1  0.7819001E-012  0.5930195E+02  0.7816164E-02  0.1266605E+00
        -11   -1    0    0    0    0  0.00000000000E+00  0.00000000000E+00  0.45593999997E+02  0.45594000000E+02  0.51100000000E-03 0. -1.
         11   -1    0    0    0    0 -0.00000000000E+00 -0.00000000000E+00 -0.45593999997E+02  0.45594000000E+02  0.51100000000E-03 0.  1.
    9900012    2    1    2    0    0  0.22489849623E+02  0.22251471210E+02  0.39747894687E+01  0.59301948843E+02  0.50000008781E+02 0.  0.
         12    1    1    2    0    0 -0.22489849623E+02 -0.22251471210E+02 -0.39747894687E+01  0.31886051157E+02  0.00000000000E+00 0. -1.
         11    1    3    3    0    0 -0.44605912340E+01  0.13213750402E+02  0.18134251515E+02  0.22876869369E+02  0.51100000000E-03 0. -1.
        -11    1    3    3    0    0  0.29348368939E+01 -0.21177519809E+00 -0.99147119145E+01  0.10342128840E+02  0.51100000000E-03 0.  1.
         12    1    3    3    0    0  0.24015603963E+02  0.92494960059E+01 -0.42447501318E+01  0.26082950634E+02  0.00000000000E+00 0. -1.
</event>
<event>
 7    1  0.7819001E-012  0.5930162E+02  0.7816164E-02  0.1266606E+00
        -11   -1    0    0    0    0  0.00000000000E+00  0.00000000000E+00  0.45593999997E+02  0.45594000000E+02  0.51100000000E-03 0.  1.
         11   -1    0    0    0    0 -0.00000000000E+00 -0.00000000000E+00 -0.45593999997E+02  0.45594000000E+02  0.51100000000E-03 0. -1.
    9900012    2    1    2    0    0 -0.97272827722E+01 -0.93266658601E-01  0.30366309783E+02  0.59301615779E+02  0.49999401350E+02 0.  0.
         12    1    1    2    0    0  0.97272827722E+01  0.93266658601E-01 -0.30366309783E+02  0.31886384221E+02  0.00000000000E+00 0. -1.
         11    1    3    3    0    0 -0.72059359212E+01  0.14259726207E+02  0.29307817823E+02  0.33379836575E+02  0.51100000000E-03 0. -1.
        -11    1    3    3    0    0  0.89409392825E+01 -0.48594347299E+01  0.36570831164E+01  0.10813360177E+02  0.51100000000E-03 0.  1.
         12    1    3    3    0    0 -0.11462286133E+02 -0.94935581359E+01 -0.25985911558E+01  0.15108419027E+02  0.00000000000E+00 0. -1.
</event>
<event>
 7    1  0.7819001E-012  0.5930201E+02  0.7816164E-02  0.1266605E+00
        -11   -1    0    0    0    0  0.00000000000E+00  0.00000000000E+00  0.45593999997E+02  0.45594000000E+02  0.51100000000E-03 0.  1.
         11   -1    0    0    0    0 -0.00000000000E+00 -0.00000000000E+00 -0.45593999997E+02  0.45594000000E+02  0.51100000000E-03 0. -1.
    9900012    2    1    2    0    0  0.16439429216E+02 -0.27130259798E+02 -0.32265812799E+01  0.59302005325E+02  0.50000111792E+02 0.  0.
         12    1    1    2    0    0 -0.16439429216E+02  0.27130259798E+02  0.32265812799E+01  0.31885994675E+02  0.00000000000E+00 0. -1.
         11    1    3    3    0    0 -0.93426399761E+01 -0.48515381888E+01  0.14494270841E+02  0.17913855866E+02  0.51100000000E-03 0.  1.
        -11    1    3    3    0    0  0.14598887041E+02 -0.20135954544E+02 -0.16695705840E+02  0.29955479665E+02  0.51100000000E-03 0. -1.
        -12    1    3    3    0    0  0.11183182151E+02 -0.21427670652E+01 -0.10251462812E+01  0.11432669794E+02  0.00000000000E+00 0.  1.
</event>
<event>
 7    1  0.7819001E-012  0.5930196E+02  0.7816164E-02  0.1266605E+00
        -11   -1    0    0    0    0  0.00000000000E+00  0.00000000000E+00  0.45593999997E+02  0.45594000000E+02  0.51100000000E-03 0.  1.
         11   -1    0    0    0    0 -0.00000000000E+00 -0.00000000000E+00 -0.45593999997E+02  0.45594000000E+02  0.51100000000E-03 0. -1.
    9900012    2    1    2    0    0 -0.35976754198E+00  0.28782523020E+02  0.13717012212E+02  0.59301960922E+02  0.50000030810E+02 0.  0.
         12    1    1    2    0    0  0.35976754198E+00 -0.28782523020E+02 -0.13717012212E+02  0.31886039078E+02  0.00000000000E+00 0. -1.
         11    1    3    3    0    0  0.26699543796E+01  0.66437126660E+01 -0.13025828556E+02  0.14864043333E+02  0.51100000000E-03 0. -1.
        -11    1    3    3    0    0 -0.12067925775E+02  0.94631819247E+01  0.24219881756E+02  0.28666867935E+02  0.51100000000E-03 0.  1.
        -12    1    3    3    0    0  0.90382038539E+01  0.12675628429E+02  0.25229590124E+01  0.15771049653E+02  0.00000000000E+00 0.  1.
</event>
<event>
 7    1  0.7819001E-012  0.5930195E+02  0.7816164E-02  0.1266605E+00
        -11   -1    0    0    0    0  0.00000000000E+00  0.00000000000E+00  0.45593999997E+02  0.45594000000E+02  0.51100000000E-03 0. -1.
         11   -1    0    0    0    0 -0.00000000000E+00 -0.00000000000E+00 -0.45593999997E+02  0.45594000000E+02  0.51100000000E-03 0.  1.
    9900012    2    1    2    0    0 -0.97408233910E+00  0.92951031887E+01 -0.30485607830E+02  0.59301951884E+02  0.50000014328E+02 0.  0.
         12    1    1    2    0    0  0.97408233910E+00 -0.92951031887E+01  0.30485607830E+02  0.31886048116E+02  0.00000000000E+00 0. -1.
         11    1    3    3    0    0  0.64071347543E+00  0.14559413892E+02 -0.40166844425E+01  0.15116904472E+02  0.51100000000E-03 0. -1.
        -11    1    3    3    0    0  0.91610289350E+01 -0.13476042338E+02 -0.25931481833E+02  0.30626294561E+02  0.51100000000E-03 0.  1.
        -12    1    3    3    0    0 -0.10775824750E+02  0.82117316344E+01 -0.53744155460E+00  0.13558752852E+02  0.00000000000E+00 0.  1.
</event>
<event>
 7    1  0.7819001E-012  0.5930195E+02  0.7816164E-02  0.1266605E+00
        -11   -1    0    0    0    0  0.00000000000E+00  0.00000000000E+00  0.45593999997E+02  0.45594000000E+02  0.51100000000E-03 0.  1.
         11   -1    0    0    0    0 -0.00000000000E+00 -0.00000000000E+00 -0.45593999997E+02  0.45594000000E+02  0.51100000000E-03 0. -1.
    9900012    2    1    2    0    0 -0.11554216261E+02 -0.18913942691E+02  0.22923413895E+02  0.59301952171E+02  0.50000014852E+02 0.  0.
         12    1    1    2    0    0  0.11554216261E+02  0.18913942691E+02 -0.22923413895E+02  0.31886047829E+02  0.00000000000E+00 0. -1.
         11    1    3    3    0    0 -0.12108598898E+02 -0.17287142624E+02  0.26943706421E+02  0.34226112594E+02  0.51100000000E-03 0.  1.
        -11    1    3    3    0    0 -0.82667052616E+01  0.77948515694E+01 -0.43466123573E+01  0.12165161985E+02  0.51100000000E-03 0. -1.
        -12    1    3    3    0    0  0.88210878979E+01 -0.94216516362E+01  0.32631983176E+00  0.12910677592E+02  0.00000000000E+00 0.  1.
</event>
<event>
 7    1  0.7819001E-012  0.5930163E+02  0.7816164E-02  0.1266606E+00
        -11   -1    0    0    0    0  0.00000000000E+00  0.00000000000E+00  0.45593999997E+02  0.45594000000E+02  0.51100000000E-03 0. -1.
         11   -1    0    0    0    0 -0.00000000000E+00 -0.00000000000E+00 -0.45593999997E+02  0.45594000000E+02  0.51100000000E-03 0.  1.
    9900012    2    1    2    0    0  0.16626714687E+02 -0.25806265516E+02 -0.86214657241E+01  0.59301629049E+02  0.49999425552E+02 0.  0.
         12    1    1    2    0    0 -0.16626714687E+02  0.25806265516E+02  0.86214657241E+01  0.31886370951E+02  0.00000000000E+00 0. -1.
         11    1    3    3    0    0 -0.13606751198E+02 -0.22444912115E+02  0.21786966635E+01  0.26337510844E+02  0.51100000000E-03 0. -1.
        -11    1    3    3    0    0  0.10917700367E+02 -0.33678947256E+01 -0.66080324472E+01  0.13198673769E+02  0.51100000000E-03 0.  1.
         12    1    3    3    0    0  0.19315765518E+02  0.65413246882E-02 -0.41921299404E+01  0.19765444436E+02  0.00000000000E+00 0. -1.
</event>
<event>
 7    1  0.7819001E-012  0.5930195E+02  0.7816164E-02  0.1266605E+00
        -11   -1    0    0    0    0  0.00000000000E+00  0.00000000000E+00  0.45593999997E+02  0.45594000000E+02  0.51100000000E-03 0.  1.
         11   -1    0    0    0    0 -0.00000000000E+00 -0.00000000000E+00 -0.45593999997E+02  0.45594000000E+02  0.51100000000E-03 0. -1.
    9900012    2    1    2    0    0 -0.55341731746E+01  0.21161282236E+02  0.23201147740E+02  0.59301949836E+02  0.50000010594E+02 0.  0.
         12    1    1    2    0    0  0.55341731746E+01 -0.21161282236E+02 -0.23201147740E+02  0.31886050164E+02  0.00000000000E+00 0. -1.
         11    1    3    3    0    0 -0.20655071255E-01  0.17127687845E+02  0.40348205578E+01  0.17596530759E+02  0.51100000000E-03 0. -1.
        -11    1    3    3    0    0 -0.17903122251E+01 -0.14236467524E+02  0.18005879498E+02  0.23023768636E+02  0.51100000000E-03 0.  1.
        -12    1    3    3    0    0 -0.37232058782E+01  0.18270061915E+02  0.11604476836E+01  0.18681650442E+02  0.00000000000E+00 0.  1.
</event>
<event>
 7    1  0.7819001E-012  0.5930192E+02  0.7816164E-02  0.1266605E+00
        -11   -1    0    0    0    0  0.00000000000E+00  0.00000000000E+00  0.45593999997E+02  0.45594000000E+02  0.51100000000E-03 0. -1.
         11   -1    0    0    0    0 -0.00000000000E+00 -0.00000000000E+00 -0.45593999997E+02  0.45594000000E+02  0.51100000000E-03 0.  1.
    9900012    2    1    2    0    0  0.25005885055E+01  0.82758818868E+01 -0.30691673910E+02  0.59301921357E+02  0.49999958653E+02 0.  0.
         12    1    1    2    0    0 -0.25005885055E+01 -0.82758818868E+01  0.30691673910E+02  0.31886078643E+02  0.00000000000E+00 0. -1.
         11    1    3    3    0    0  0.42133419550E+01  0.35567242994E+01  0.13006532696E+02  0.14127010696E+02  0.51100000000E-03 0. -1.
        -11    1    3    3    0    0  0.16016732720E+01  0.67077626706E+01 -0.34748152431E+02  0.35425887920E+02  0.51100000000E-03 0.  1.
         12    1    3    3    0    0 -0.33144267215E+01 -0.19886050832E+01 -0.89500541746E+01  0.97490227407E+01  0.00000000000E+00 0. -1.
</event>
<event>
 7    1  0.7819001E-012  0.5930192E+02  0.7816164E-02  0.1266605E+00
        -11   -1    0    0    0    0  0.00000000000E+00  0.00000000000E+00  0.45593999997E+02  0.45594000000E+02  0.51100000000E-03 0. -1.
         11   -1    0    0    0    0 -0.00000000000E+00 -0.00000000000E+00 -0.45593999997E+02  0.45594000000E+02  0.51100000000E-03 0.  1.
    9900012    2    1    2    0    0 -0.28765363455E+01 -0.11003514277E+02 -0.29788759784E+02  0.59301921576E+02  0.49999959053E+02 0.  0.
         12    1    1    2    0    0  0.28765363455E+01  0.11003514277E+02  0.29788759784E+02  0.31886078424E+02  0.00000000000E+00 0. -1.
         11    1    3    3    0    0 -0.87599736939E+01 -0.14232763183E+02 -0.96294988073E+01  0.19288233057E+02  0.51100000000E-03 0. -1.
        -11    1    3    3    0    0  0.54766029524E+01  0.17424736193E+02 -0.18009345622E+02  0.25650558303E+02  0.51100000000E-03 0.  1.
        -12    1    3    3    0    0  0.40683439598E+00 -0.14195487287E+02 -0.21499153552E+01  0.14363130215E+02  0.00000000000E+00 0.  1.
</event>
<event>
 7    1  0.7819001E-012  0.5930195E+02  0.7816164E-02  0.1266605E+00
        -11   -1    0    0    0    0  0.00000000000E+00  0.00000000000E+00  0.45593999997E+02  0.45594000000E+02  0.51100000000E-03 0. -1.
         11   -1    0    0    0    0 -0.00000000000E+00 -0.00000000000E+00 -0.45593999997E+02  0.45594000000E+02  0.51100000000E-03 0.  1.
    9900012    2    1    2    0    0 -0.46431039632E+01 -0.34456507682E+01 -0.31357441022E+02  0.59301952408E+02  0.50000015283E+02 0.  0.
         12    1    1    2    0    0  0.46431039632E+01  0.34456507682E+01  0.31357441022E+02  0.31886047592E+02  0.00000000000E+00 0. -1.
         11    1    3    3    0    0 -0.54651736220E+01  0.64977183831E+01 -0.37573015945E+01  0.92847069118E+01  0.51100000000E-03 0. -1.
        -11    1    3    3    0    0  0.19790205411E+02  0.99304601365E+00 -0.13390326311E+02  0.23915250565E+02  0.51100000000E-03 0.  1.
        -12    1    3    3    0    0 -0.18968135752E+02 -0.10936415165E+02 -0.14209813116E+02  0.26101994931E+02  0.00000000000E+00 0.  1.
</event>
<event>
 7    1  0.7819001E-012  0.5930184E+02  0.7816164E-02  0.1266605E+00
        -11   -1    0    0    0    0  0.00000000000E+00  0.00000000000E+00  0.45593999997E+02  0.45594000000E+02  0.51100000000E-03 0.  1.
         11   -1    0    0    0    0 -0.00000000000E+00 -0.00000000000E+00 -0.45593999997E+02  0.45594000000E+02  0.51100000000E-03 0. -1.
    9900012    2    1    2    0    0 -0.10815270028E+02 -0.20101713421E+01  0.29928516911E+02  0.59301843457E+02  0.49999816582E+02 0.  0.
         12    1    1    2    0    0  0.10815270028E+02  0.20101713421E+01 -0.29928516911E+02  0.31886156543E+02  0.00000000000E+00 0. -1.
         11    1    3    3    0    0 -0.82025698426E+01  0.90591598110E+01  0.13224855461E+02  0.18006868987E+02  0.51100000000E-03 0.  1.
        -11    1    3    3    0    0  0.16383768410E+02 -0.39108176915E+01  0.38857383426E+01  0.17286449174E+02  0.51100000000E-03 0. -1.
        -12    1    3    3    0    0 -0.18996468595E+02 -0.71585134615E+01  0.12817923108E+02  0.24008525295E+02  0.00000000000E+00 0.  1.
</event>
<event>
 7    1  0.7819001E-012  0.5930200E+02  0.7816164E-02  0.1266605E+00
        -11   -1    0    0    0    0  0.00000000000E+00  0.00000000000E+00  0.45593999997E+02  0.45594000000E+02  0.51100000000E-03 0.  1.
         11   -1    0    0    0    0 -0.00000000000E+00 -0.00000000000E+00 -0.45593999997E+02  0.45594000000E+02  0.51100000000E-03 0. -1.
    9900012    2    1    2    0    0 -0.27837401701E+02 -0.73796594567E+01  0.13687100347E+02  0.59301999576E+02  0.50000101306E+02 0.  0.
         12    1    1    2    0    0  0.27837401701E+02  0.73796594567E+01 -0.13687100347E+02  0.31886000424E+02  0.00000000000E+00 0. -1.
         11    1    3    3    0    0  0.80828512886E+01 -0.10491703796E+02  0.74526451499E+01  0.15197047525E+02  0.51100000000E-03 0. -1.
        -11    1    3    3    0    0 -0.27518401463E+02  0.29498540367E+01  0.15398367638E+02  0.31671340106E+02  0.51100000000E-03 0.  1.
        -12    1    3    3    0    0 -0.84018515263E+01  0.16219030277E+00 -0.91639124407E+01  0.12433611944E+02  0.00000000000E+00 0.  1.
</event>
<event>
 7    1  0.7819001E-012  0.5930210E+02  0.7816164E-02  0.1266604E+00
        -11   -1    0    0    0    0  0.00000000000E+00  0.00000000000E+00  0.45593999997E+02  0.45594000000E+02  0.51100000000E-03 0. -1.
         11   -1    0    0    0    0 -0.00000000000E+00 -0.00000000000E+00 -0.45593999997E+02  0.45594000000E+02  0.51100000000E-03 0.  1.
    9900012    2    1    2    0    0  0.23604079228E+02 -0.15722403770E+02  0.14572711808E+02  0.59302102397E+02  0.50000288826E+02 0.  0.
         12    1    1    2    0    0 -0.23604079228E+02  0.15722403770E+02 -0.14572711808E+02  0.31885897603E+02  0.00000000000E+00 0. -1.
         11    1    3    3    0    0  0.39377132197E+00  0.24264167567E+01  0.24633069945E+02  0.24755417373E+02  0.51100000000E-03 0. -1.
        -11    1    3    3    0    0  0.12967527557E+02 -0.15105000850E+02 -0.12604520891E+02  0.23562507693E+02  0.51100000000E-03 0.  1.
         12    1    3    3    0    0  0.10242780349E+02 -0.30438196768E+01  0.25441627547E+01  0.10984177331E+02  0.00000000000E+00 0. -1.
</event>
<event>
 7    1  0.7819001E-012  0.5930179E+02  0.7816164E-02  0.1266605E+00
        -11   -1    0    0    0    0  0.00000000000E+00  0.00000000000E+00  0.45593999997E+02  0.45594000000E+02  0.51100000000E-03 0. -1.
         11   -1    0    0    0    0 -0.00000000000E+00 -0.00000000000E+00 -0.45593999997E+02  0.45594000000E+02  0.51100000000E-03 0.  1.
    9900012    2    1    2    0    0  0.11407208200E+01  0.28686825109E+02  0.13874273764E+02  0.59301785874E+02  0.49999711564E+02 0.  0.
         12    1    1    2    0    0 -0.11407208200E+01 -0.28686825109E+02 -0.13874273764E+02  0.31886214126E+02  0.00000000000E+00 0. -1.
         11    1    3    3    0    0  0.24130391297E+02  0.22835262204E+02  0.82648357200E+01  0.34234960111E+02  0.51100000000E-03 0. -1.
        -11    1    3    3    0    0 -0.13470404057E+02  0.14459465019E+01  0.92593096544E+00  0.13579392298E+02  0.51100000000E-03 0.  1.
         12    1    3    3    0    0 -0.95192664197E+01  0.44056164029E+01  0.46835070787E+01  0.11487433465E+02  0.00000000000E+00 0. -1.
</event>
<event>
 7    1  0.7819001E-012  0.5930194E+02  0.7816164E-02  0.1266605E+00
        -11   -1    0    0    0    0  0.00000000000E+00  0.00000000000E+00  0.45593999997E+02  0.45594000000E+02  0.51100000000E-03 0. -1.
         11   -1    0    0    0    0 -0.00000000000E+00 -0.00000000000E+00 -0.45593999997E+02  0.45594000000E+02  0.51100000000E-03 0.  1.
    9900012    2    1    2    0    0  0.11424756606E+02 -0.27055425366E+02 -0.12417718489E+02  0.59301939759E+02  0.49999992214E+02 0.  0.
         12    1    1    2    0    0 -0.11424756606E+02  0.27055425366E+02  0.12417718489E+02  0.31886060241E+02  0.00000000000E+00 0. -1.
         11    1    3    3    0    0  0.12296027655E+02  0.16124837773E+01  0.69718346199E+01  0.14226695971E+02  0.51100000000E-03 0. -1.
        -11    1    3    3    0    0 -0.11787828927E+02 -0.24294484213E+01 -0.80396098811E+01  0.14473785191E+02  0.51100000000E-03 0.  1.
        -12    1    3    3    0    0  0.10916557878E+02 -0.26238460722E+02 -0.11349943228E+02  0.30601458597E+02  0.00000000000E+00 0.  1.
</event>
<event>
 7    1  0.7819001E-012  0.5930194E+02  0.7816164E-02  0.1266605E+00
        -11   -1    0    0    0    0  0.00000000000E+00  0.00000000000E+00  0.45593999997E+02  0.45594000000E+02  0.51100000000E-03 0.  1.
         11   -1    0    0    0    0 -0.00000000000E+00 -0.00000000000E+00 -0.45593999997E+02  0.45594000000E+02  0.51100000000E-03 0. -1.
    9900012    2    1    2    0    0  0.76471595476E+01 -0.23717778354E+02  0.19892437481E+02  0.59301935205E+02  0.49999983910E+02 0.  0.
         12    1    1    2    0    0 -0.76471595476E+01  0.23717778354E+02 -0.19892437481E+02  0.31886064795E+02  0.00000000000E+00 0. -1.
         11    1    3    3    0    0  0.19168023276E+02  0.46388597240E+01  0.41651297875E+01  0.20156399536E+02  0.51100000000E-03 0. -1.
        -11    1    3    3    0    0 -0.11652118476E+02 -0.99723274242E+01  0.61908118320E+00  0.15349346599E+02  0.51100000000E-03 0.  1.
        -12    1    3    3    0    0  0.13125474816E+00 -0.18384310654E+02  0.15108226510E+02  0.23796189071E+02  0.00000000000E+00 0.  1.
</event>
<event>
 7    1  0.9023659E-012  0.5930197E+02  0.7816164E-02  0.1266605E+00
        -11   -1    0    0    0    0  0.00000000000E+00  0.00000000000E+00  0.45593999997E+02  0.45594000000E+02  0.51100000000E-03 0. -1.
         11   -1    0    0    0    0 -0.00000000000E+00 -0.00000000000E+00 -0.45593999997E+02  0.45594000000E+02  0.51100000000E-03 0.  1.
    9900012    2    1    2    0    0 -0.27705113249E+02  0.15665033551E+02  0.19370379758E+01  0.59301973399E+02  0.50000053566E+02 0.  0.
         12    1    1    2    0    0  0.27705113249E+02 -0.15665033551E+02 -0.19370379758E+01  0.31886026601E+02  0.00000000000E+00 0. -1.
         11    1    3    3    0    0  0.20535992243E+01  0.24408194459E+00 -0.14607192054E+02  0.14752860934E+02  0.51100000000E-03 0. -1.
        -11    1    3    3    0    0 -0.25221704077E+02  0.14270028696E+02  0.17494009529E+01  0.29031508391E+02  0.51100000000E-03 0.  1.
         12    1    3    3    0    0 -0.45370083967E+01  0.11509229099E+01  0.14794829077E+02  0.15517604073E+02  0.00000000000E+00 0. -1.
</event>
<event>
 7    1  0.7819001E-012  0.5930191E+02  0.7816164E-02  0.1266605E+00
        -11   -1    0    0    0    0  0.00000000000E+00  0.00000000000E+00  0.45593999997E+02  0.45594000000E+02  0.51100000000E-03 0.  1.
         11   -1    0    0    0    0 -0.00000000000E+00 -0.00000000000E+00 -0.45593999997E+02  0.45594000000E+02  0.51100000000E-03 0. -1.
    9900012    2    1    2    0    0 -0.26511746394E+02 -0.33336232722E+01  0.17399347629E+02  0.59301905243E+02  0.49999929266E+02 0.  0.
         12    1    1    2    0    0  0.26511746394E+02  0.33336232722E+01 -0.17399347629E+02  0.31886094757E+02  0.00000000000E+00 0. -1.
         11    1    3    3    0    0  0.10137681185E+02 -0.18518990962E+01  0.10977838556E+02  0.15057059796E+02  0.51100000000E-03 0. -1.
        -11    1    3    3    0    0 -0.32455695559E+02 -0.60647324517E+01 -0.27891320047E+01  0.33135063174E+02  0.51100000000E-03 0.  1.
        -12    1    3    3    0    0 -0.41937320196E+01  0.45830082756E+01  0.92106410774E+01  0.11109782273E+02  0.00000000000E+00 0.  1.
</event>
<event>
 7    1  0.7819001E-012  0.5930193E+02  0.7816164E-02  0.1266605E+00
        -11   -1    0    0    0    0  0.00000000000E+00  0.00000000000E+00  0.45593999997E+02  0.45594000000E+02  0.51100000000E-03 0.  1.
         11   -1    0    0    0    0 -0.00000000000E+00 -0.00000000000E+00 -0.45593999997E+02  0.45594000000E+02  0.51100000000E-03 0. -1.
    9900012    2    1    2    0    0  0.29743042617E+02 -0.63720208370E+01 -0.95640086879E+01  0.59301929438E+02  0.49999973392E+02 0.  0.
         12    1    1    2    0    0 -0.29743042617E+02  0.63720208370E+01  0.95640086879E+01  0.31886070562E+02  0.00000000000E+00 0. -1.
         11    1    3    3    0    0  0.25711042421E+01  0.18903763434E+02  0.16779036050E+01  0.19151454508E+02  0.51100000000E-03 0. -1.
        -11    1    3    3    0    0  0.22638738375E+02 -0.18501357722E+02 -0.45187476427E+01  0.29584316678E+02  0.51100000000E-03 0.  1.
         12    1    3    3    0    0  0.45332000006E+01 -0.67744265486E+01 -0.67231646503E+01  0.10566158253E+02  0.00000000000E+00 0. -1.
</event>
<event>
 7    1  0.7819001E-012  0.5930195E+02  0.7816164E-02  0.1266605E+00
        -11   -1    0    0    0    0  0.00000000000E+00  0.00000000000E+00  0.45593999997E+02  0.45594000000E+02  0.51100000000E-03 0. -1.
         11   -1    0    0    0    0 -0.00000000000E+00 -0.00000000000E+00 -0.45593999997E+02  0.45594000000E+02  0.51100000000E-03 0.  1.
    9900012    2    1    2    0    0  0.19669380406E+01 -0.44690043324E+00 -0.31822189599E+02  0.59301947938E+02  0.50000007132E+02 0.  0.
         12    1    1    2    0    0 -0.19669380406E+01  0.44690043324E+00  0.31822189599E+02  0.31886052062E+02  0.00000000000E+00 0. -1.
         11    1    3    3    0    0 -0.61725661906E+01 -0.36069199349E+01  0.77862278568E+01  0.10570515091E+02  0.51100000000E-03 0. -1.
        -11    1    3    3    0    0  0.18002147950E+02  0.40185228828E+01 -0.27044762106E+02  0.32735989592E+02  0.51100000000E-03 0.  1.
         12    1    3    3    0    0 -0.98626437184E+01 -0.85850338114E+00 -0.12563655349E+02  0.15995443255E+02  0.00000000000E+00 0. -1.
</event>
<event>
 7    1  0.7819001E-012  0.5930198E+02  0.7816164E-02  0.1266605E+00
        -11   -1    0    0    0    0  0.00000000000E+00  0.00000000000E+00  0.45593999997E+02  0.45594000000E+02  0.51100000000E-03 0. -1.
         11   -1    0    0    0    0 -0.00000000000E+00 -0.00000000000E+00 -0.45593999997E+02  0.45594000000E+02  0.51100000000E-03 0.  1.
    9900012    2    1    2    0    0 -0.14449520843E+02 -0.27023477818E+02 -0.88125758776E+01  0.59301976423E+02  0.50000059081E+02 0.  0.
         12    1    1    2    0    0  0.14449520843E+02  0.27023477818E+02  0.88125758776E+01  0.31886023577E+02  0.00000000000E+00 0. -1.
         11    1    3    3    0    0  0.11981948033E+02 -0.16905583119E+01  0.85529402513E+01  0.14818159578E+02  0.51100000000E-03 0. -1.
        -11    1    3    3    0    0 -0.20402283875E+02 -0.20286693297E+02 -0.40983768518E+01  0.29061999334E+02  0.51100000000E-03 0.  1.
         12    1    3    3    0    0 -0.60291850015E+01 -0.50462262087E+01 -0.13267139277E+02  0.15421817511E+02  0.00000000000E+00 0. -1.
</event>
<event>
 7    1  0.7819001E-012  0.5930186E+02  0.7816164E-02  0.1266605E+00
        -11   -1    0    0    0    0  0.00000000000E+00  0.00000000000E+00  0.45593999997E+02  0.45594000000E+02  0.51100000000E-03 0.  1.
         11   -1    0    0    0    0 -0.00000000000E+00 -0.00000000000E+00 -0.45593999997E+02  0.45594000000E+02  0.51100000000E-03 0. -1.
    9900012    2    1    2    0    0 -0.43427927174E+01 -0.28413315508E+02  0.13803977660E+02  0.59301856521E+02  0.49999840408E+02 0.  0.
         12    1    1    2    0    0  0.43427927174E+01  0.28413315508E+02 -0.13803977660E+02  0.31886143479E+02  0.00000000000E+00 0. -1.
         11    1    3    3    0    0 -0.17032973725E-01 -0.22468337092E+01  0.22799728403E+02  0.22910176066E+02  0.51100000000E-03 0.  1.
        -11    1    3    3    0    0  0.64524572570E+01 -0.10131165850E+02 -0.11835861142E+02  0.16863046444E+02  0.51100000000E-03 0. -1.
        -12    1    3    3    0    0 -0.10778217001E+02 -0.16035315949E+02  0.28401103982E+01  0.19528634012E+02  0.00000000000E+00 0.  1.
</event>
<event>
 7    1  0.7819001E-012  0.5930192E+02  0.7816164E-02  0.1266605E+00
        -11   -1    0    0    0    0  0.00000000000E+00  0.00000000000E+00  0.45593999997E+02  0.45594000000E+02  0.51100000000E-03 0. -1.
         11   -1    0    0    0    0 -0.00000000000E+00 -0.00000000000E+00 -0.45593999997E+02  0.45594000000E+02  0.51100000000E-03 0.  1.
    9900012    2    1    2    0    0  0.79941352253E+01 -0.28089934828E+02 -0.12797319321E+02  0.59301921244E+02  0.49999958448E+02 0.  0.
         12    1    1    2    0    0 -0.79941352253E+01  0.28089934828E+02  0.12797319321E+02  0.31886078756E+02  0.00000000000E+00 0. -1.
         11    1    3    3    0    0  0.13140156995E+01  0.10562745074E+01  0.27284472251E+00  0.17078634598E+01  0.51100000000E-03 0. -1.
        -11    1    3    3    0    0 -0.16329036868E+01 -0.41262382678E+02 -0.80934692350E+01  0.42080337965E+02  0.51100000000E-03 0.  1.
        -12    1    3    3    0    0  0.83130232126E+01  0.12116173343E+02 -0.49766948083E+01  0.15513719819E+02  0.00000000000E+00 0.  1.
</event>
<event>
 7    1  0.7819001E-012  0.5930195E+02  0.7816164E-02  0.1266605E+00
        -11   -1    0    0    0    0  0.00000000000E+00  0.00000000000E+00  0.45593999997E+02  0.45594000000E+02  0.51100000000E-03 0.  1.
         11   -1    0    0    0    0 -0.00000000000E+00 -0.00000000000E+00 -0.45593999997E+02  0.45594000000E+02  0.51100000000E-03 0. -1.
    9900012    2    1    2    0    0  0.18359841835E+02 -0.11944061178E+02  0.23172740140E+02  0.59301948579E+02  0.50000008301E+02 0.  0.
         12    1    1    2    0    0 -0.18359841835E+02  0.11944061178E+02 -0.23172740140E+02  0.31886051421E+02  0.00000000000E+00 0. -1.
         11    1    3    3    0    0  0.16229976672E+02  0.69998420443E+01  0.22104980917E+01  0.17812810938E+02  0.51100000000E-03 0. -1.
        -11    1    3    3    0    0 -0.91158049686E+01 -0.37513974611E+00  0.17181717228E+02  0.19453792361E+02  0.51100000000E-03 0.  1.
        -12    1    3    3    0    0  0.11245670131E+02 -0.18568763476E+02  0.37805248204E+01  0.22035345281E+02  0.00000000000E+00 0.  1.
</event>
<event>
 7    1  0.7819001E-012  0.5930192E+02  0.7816164E-02  0.1266605E+00
        -11   -1    0    0    0    0  0.00000000000E+00  0.00000000000E+00  0.45593999997E+02  0.45594000000E+02  0.51100000000E-03 0.  1.
         11   -1    0    0    0    0 -0.00000000000E+00 -0.00000000000E+00 -0.45593999997E+02  0.45594000000E+02  0.51100000000E-03 0. -1.
    9900012    2    1    2    0    0  0.84957397965E+01 -0.13594706223E+02  0.27563169278E+02  0.59301922590E+02  0.49999960902E+02 0.  0.
         12    1    1    2    0    0 -0.84957397965E+01  0.13594706223E+02 -0.27563169278E+02  0.31886077410E+02  0.00000000000E+00 0. -1.
         11    1    3    3    0    0 -0.14282626848E+02 -0.19020948709E+02  0.30038466527E+01  0.23975258381E+02  0.51100000000E-03 0. -1.
        -11    1    3    3    0    0  0.54349292087E+01 -0.28157237739E+01  0.48483423815E+01  0.78085325116E+01  0.51100000000E-03 0.  1.
         12    1    3    3    0    0  0.17343437436E+02  0.82419662597E+01  0.19710980243E+02  0.27518131697E+02  0.00000000000E+00 0. -1.
</event>
<event>
 7    1  0.9659078E-012  0.5930200E+02  0.7816164E-02  0.1266605E+00
        -11   -1    0    0    0    0  0.00000000000E+00  0.00000000000E+00  0.45593999997E+02  0.45594000000E+02  0.51100000000E-03 0. -1.
         11   -1    0    0    0    0 -0.00000000000E+00 -0.00000000000E+00 -0.45593999997E+02  0.45594000000E+02  0.51100000000E-03 0.  1.
    9900012    2    1    2    0    0  0.19391432987E+02  0.12199526969E+02 -0.22177942593E+02  0.59301995716E+02  0.50000094266E+02 0.  0.
         12    1    1    2    0    0 -0.19391432987E+02 -0.12199526969E+02  0.22177942593E+02  0.31886004284E+02  0.00000000000E+00 0. -1.
         11    1    3    3    0    0  0.91232229084E+01 -0.10754381108E+02  0.61710137989E+01  0.15393872834E+02  0.51100000000E-03 0. -1.
        -11    1    3    3    0    0  0.11238763536E+01  0.45172380856E+01 -0.21829545330E+02  0.22320340221E+02  0.51100000000E-03 0.  1.
         12    1    3    3    0    0  0.91443337252E+01  0.18436669991E+02 -0.65194110616E+01  0.21587782661E+02  0.00000000000E+00 0. -1.
</event>
<event>
 7    1  0.7819001E-012  0.5930206E+02  0.7816164E-02  0.1266604E+00
        -11   -1    0    0    0    0  0.00000000000E+00  0.00000000000E+00  0.45593999997E+02  0.45594000000E+02  0.51100000000E-03 0. -1.
         11   -1    0    0    0    0 -0.00000000000E+00 -0.00000000000E+00 -0.45593999997E+02  0.45594000000E+02  0.51100000000E-03 0.  1.
    9900012    2    1    2    0    0  0.20285315440E+02  0.22412657121E+02  0.10143570593E+02  0.59302058802E+02  0.50000209320E+02 0.  0.
         12    1    1    2    0    0 -0.20285315440E+02 -0.22412657121E+02 -0.10143570593E+02  0.31885941198E+02  0.00000000000E+00 0. -1.
         11    1    3    3    0    0  0.12915750638E+02 -0.57312169023E+01  0.20203003900E+02  0.24654103686E+02  0.51100000000E-03 0. -1.
        -11    1    3    3    0    0 -0.39986529387E+01  0.14116721846E+02 -0.72832310835E+01  0.16380369846E+02  0.51100000000E-03 0.  1.
         12    1    3    3    0    0  0.11368217741E+02  0.14027152177E+02 -0.27762022239E+01  0.18267585270E+02  0.00000000000E+00 0. -1.
</event>
<event>
 7    1  0.7819001E-012  0.5930196E+02  0.7816164E-02  0.1266605E+00
        -11   -1    0    0    0    0  0.00000000000E+00  0.00000000000E+00  0.45593999997E+02  0.45594000000E+02  0.51100000000E-03 0.  1.
         11   -1    0    0    0    0 -0.00000000000E+00 -0.00000000000E+00 -0.45593999997E+02  0.45594000000E+02  0.51100000000E-03 0. -1.
    9900012    2    1    2    0    0 -0.21598253186E+02 -0.65176779116E+01  0.22533422947E+02  0.59301955784E+02  0.50000021441E+02 0.  0.
         12    1    1    2    0    0  0.21598253186E+02  0.65176779116E+01 -0.22533422947E+02  0.31886044216E+02  0.00000000000E+00 0. -1.
         11    1    3    3    0    0  0.37283642759E+01 -0.65566393383E+01 -0.56681375012E+01  0.94349352186E+01  0.51100000000E-03 0. -1.
        -11    1    3    3    0    0 -0.10772510430E+02  0.16065904295E+02  0.11303469327E+02  0.22403764882E+02  0.51100000000E-03 0.  1.
        -12    1    3    3    0    0 -0.14554107032E+02 -0.16026942869E+02  0.16898091121E+02  0.27463255684E+02  0.00000000000E+00 0.  1.
</event>
<event>
 7    1  0.7819001E-012  0.5930188E+02  0.7816164E-02  0.1266605E+00
        -11   -1    0    0    0    0  0.00000000000E+00  0.00000000000E+00  0.45593999997E+02  0.45594000000E+02  0.51100000000E-03 0.  1.
         11   -1    0    0    0    0 -0.00000000000E+00 -0.00000000000E+00 -0.45593999997E+02  0.45594000000E+02  0.51100000000E-03 0. -1.
    9900012    2    1    2    0    0 -0.27697828067E+02  0.13153092241E+02  0.87493571192E+01  0.59301878173E+02  0.49999879897E+02 0.  0.
         12    1    1    2    0    0  0.27697828067E+02 -0.13153092241E+02 -0.87493571192E+01  0.31886121827E+02  0.00000000000E+00 0. -1.
         11    1    3    3    0    0 -0.33680340616E+02  0.15892742669E+02  0.14570018694E+01  0.37270195441E+02  0.51100000000E-03 0. -1.
        -11    1    3    3    0    0  0.42340039402E+01  0.84565714456E+01  0.34004342550E+01  0.10050041958E+02  0.51100000000E-03 0.  1.
         12    1    3    3    0    0  0.17485086080E+01 -0.11196221873E+02  0.38919209947E+01  0.11981640773E+02  0.00000000000E+00 0. -1.
</event>
<event>
 7    1  0.8658253E-012  0.5930200E+02  0.7816164E-02  0.1266605E+00
        -11   -1    0    0    0    0  0.00000000000E+00  0.00000000000E+00  0.45593999997E+02  0.45594000000E+02  0.51100000000E-03 0. -1.
         11   -1    0    0    0    0 -0.00000000000E+00 -0.00000000000E+00 -0.45593999997E+02  0.45594000000E+02  0.51100000000E-03 0.  1.
    9900012    2    1    2    0    0 -0.80763939271E+01 -0.15066856733E+02 -0.26916144942E+02  0.59301997284E+02  0.50000097126E+02 0.  0.
         12    1    1    2    0    0  0.80763939271E+01  0.15066856733E+02  0.26916144942E+02  0.31886002716E+02  0.00000000000E+00 0. -1.
         11    1    3    3    0    0 -0.18815240445E-01 -0.30430004217E+01  0.11784163227E+02  0.12170731646E+02  0.51100000000E-03 0. -1.
        -11    1    3    3    0    0  0.77332229191E+01 -0.63167403453E+01 -0.16672362629E+02  0.19433775269E+02  0.51100000000E-03 0.  1.
         12    1    3    3    0    0 -0.15790801606E+02 -0.57071159655E+01 -0.22027945540E+02  0.27697490369E+02  0.00000000000E+00 0. -1.
</event>
<event>
 7    1  0.7819001E-012  0.5930191E+02  0.7816164E-02  0.1266605E+00
        -11   -1    0    0    0    0  0.00000000000E+00  0.00000000000E+00  0.45593999997E+02  0.45594000000E+02  0.51100000000E-03 0. -1.
         11   -1    0    0    0    0 -0.00000000000E+00 -0.00000000000E+00 -0.45593999997E+02  0.45594000000E+02  0.51100000000E-03 0.  1.
    9900012    2    1    2    0    0  0.17630309621E+01 -0.30937266725E+02  0.75166475141E+01  0.59301909923E+02  0.49999937801E+02 0.  0.
         12    1    1    2    0    0 -0.17630309621E+01  0.30937266725E+02 -0.75166475141E+01  0.31886090077E+02  0.00000000000E+00 0. -1.
         11    1    3    3    0    0 -0.63223868915E+00  0.17648425659E+01  0.19578977661E+01  0.27106750019E+01  0.51100000000E-03 0.  1.
        -11    1    3    3    0    0 -0.23426730776E+01 -0.36561881983E+02  0.19403395348E+02  0.41457822935E+02  0.51100000000E-03 0. -1.
        -12    1    3    3    0    0  0.47379427288E+01  0.38597726919E+01 -0.13844645600E+02  0.15133411985E+02  0.00000000000E+00 0.  1.
</event>
<event>
 7    1  0.7819001E-012  0.5930200E+02  0.7816164E-02  0.1266605E+00
        -11   -1    0    0    0    0  0.00000000000E+00  0.00000000000E+00  0.45593999997E+02  0.45594000000E+02  0.51100000000E-03 0.  1.
         11   -1    0    0    0    0 -0.00000000000E+00 -0.00000000000E+00 -0.45593999997E+02  0.45594000000E+02  0.51100000000E-03 0. -1.
    9900012    2    1    2    0    0 -0.11621859066E+02  0.73530995221E+01  0.28767716802E+02  0.59301996633E+02  0.50000095940E+02 0.  0.
         12    1    1    2    0    0  0.11621859066E+02 -0.73530995221E+01 -0.28767716802E+02  0.31886003367E+02  0.00000000000E+00 0. -1.
         11    1    3    3    0    0 -0.25091056548E+02  0.10771039233E+02  0.92210800400E+01  0.28820213778E+02  0.51100000000E-03 0. -1.
        -11    1    3    3    0    0 -0.27791453159E+01 -0.25695902599E+01  0.11931382893E+02  0.12517361574E+02  0.51100000000E-03 0.  1.
         12    1    3    3    0    0  0.16248342798E+02 -0.84834945058E+00  0.76152538690E+01  0.17964421281E+02  0.00000000000E+00 0. -1.
</event>
<event>
 7    1  0.7819001E-012  0.5930192E+02  0.7816164E-02  0.1266605E+00
        -11   -1    0    0    0    0  0.00000000000E+00  0.00000000000E+00  0.45593999997E+02  0.45594000000E+02  0.51100000000E-03 0.  1.
         11   -1    0    0    0    0 -0.00000000000E+00 -0.00000000000E+00 -0.45593999997E+02  0.45594000000E+02  0.51100000000E-03 0. -1.
    9900012    2    1    2    0    0  0.29357326783E+02 -0.12315755470E+02 -0.17865071158E+01  0.59301920336E+02  0.49999956792E+02 0.  0.
         12    1    1    2    0    0 -0.29357326783E+02  0.12315755470E+02  0.17865071158E+01  0.31886079664E+02  0.00000000000E+00 0. -1.
         11    1    3    3    0    0  0.30265409932E+02 -0.28835349861E+02 -0.35037078679E+01  0.41949355288E+02  0.51100000000E-03 0. -1.
        -11    1    3    3    0    0 -0.19979821728E+01  0.84890396498E+01  0.28382314361E+01  0.91712204686E+01  0.51100000000E-03 0.  1.
         12    1    3    3    0    0  0.10898990241E+01  0.80305547412E+01 -0.11210306839E+01  0.81813445795E+01  0.00000000000E+00 0. -1.
</event>
<event>
 7    1  0.7819001E-012  0.5930194E+02  0.7816164E-02  0.1266605E+00
        -11   -1    0    0    0    0  0.00000000000E+00  0.00000000000E+00  0.45593999997E+02  0.45594000000E+02  0.51100000000E-03 0.  1.
         11   -1    0    0    0    0 -0.00000000000E+00 -0.00000000000E+00 -0.45593999997E+02  0.45594000000E+02  0.51100000000E-03 0. -1.
    9900012    2    1    2    0    0 -0.20992094317E+02 -0.21602008995E+02  0.10459735575E+02  0.59301939022E+02  0.49999990870E+02 0.  0.
         12    1    1    2    0    0  0.20992094317E+02  0.21602008995E+02 -0.10459735575E+02  0.31886060978E+02  0.00000000000E+00 0. -1.
         11    1    3    3    0    0  0.60314567657E+01 -0.24819259353E+01  0.11612677195E+02  0.13318885050E+02  0.51100000000E-03 0. -1.
        -11    1    3    3    0    0 -0.26058203630E+02 -0.27197598173E+02 -0.24479871357E+01  0.37745621787E+02  0.51100000000E-03 0.  1.
        -12    1    3    3    0    0 -0.96534745219E+00  0.80775151134E+01  0.12950455151E+01  0.82374321847E+01  0.00000000000E+00 0.  1.
</event>
<event>
 7    1  0.7819001E-012  0.5930197E+02  0.7816164E-02  0.1266605E+00
        -11   -1    0    0    0    0  0.00000000000E+00  0.00000000000E+00  0.45593999997E+02  0.45594000000E+02  0.51100000000E-03 0. -1.
         11   -1    0    0    0    0 -0.00000000000E+00 -0.00000000000E+00 -0.45593999997E+02  0.45594000000E+02  0.51100000000E-03 0.  1.
    9900012    2    1    2    0    0  0.30647256371E+02 -0.29478634803E+01 -0.82930688226E+01  0.59301965240E+02  0.50000038687E+02 0.  0.
         12    1    1    2    0    0 -0.30647256371E+02  0.29478634803E+01  0.82930688226E+01  0.31886034760E+02  0.00000000000E+00 0. -1.
         11    1    3    3    0    0  0.22153485826E+01  0.16706779762E+02  0.47163529420E+01  0.17500521269E+02  0.51100000000E-03 0. -1.
        -11    1    3    3    0    0  0.95233620250E+01 -0.73322078461E+01 -0.14911314395E+02  0.19152101540E+02  0.51100000000E-03 0.  1.
        -12    1    3    3    0    0  0.18908545764E+02 -0.12322435396E+02  0.19018926301E+01  0.22649342431E+02  0.00000000000E+00 0.  1.
</event>
<event>
 7    1  0.7819001E-012  0.5930189E+02  0.7816164E-02  0.1266605E+00
        -11   -1    0    0    0    0  0.00000000000E+00  0.00000000000E+00  0.45593999997E+02  0.45594000000E+02  0.51100000000E-03 0.  1.
         11   -1    0    0    0    0 -0.00000000000E+00 -0.00000000000E+00 -0.45593999997E+02  0.45594000000E+02  0.51100000000E-03 0. -1.
    9900012    2    1    2    0    0 -0.10014154041E+01 -0.15581640119E+02  0.27801680358E+02  0.59301893741E+02  0.49999908290E+02 0.  0.
         12    1    1    2    0    0  0.10014154041E+01  0.15581640119E+02 -0.27801680358E+02  0.31886106259E+02  0.00000000000E+00 0. -1.
         11    1    3    3    0    0 -0.69131055083E+01 -0.67581559376E+00  0.18632791741E+02  0.19885388676E+02  0.51100000000E-03 0.  1.
        -11    1    3    3    0    0  0.13966463798E+02 -0.22765551844E+02  0.39051541382E+01  0.26992270947E+02  0.51100000000E-03 0. -1.
         12    1    3    3    0    0 -0.80547736934E+01  0.78597273182E+01  0.52637344785E+01  0.12424234118E+02  0.00000000000E+00 0. -1.
</event>
<event>
 7    1  0.7819001E-012  0.5930195E+02  0.7816164E-02  0.1266605E+00
        -11   -1    0    0    0    0  0.00000000000E+00  0.00000000000E+00  0.45593999997E+02  0.45594000000E+02  0.51100000000E-03 0.  1.
         11   -1    0    0    0    0 -0.00000000000E+00 -0.00000000000E+00 -0.45593999997E+02  0.45594000000E+02  0.51100000000E-03 0. -1.
    9900012    2    1    2    0    0 -0.56113906145E+01  0.26416581798E+02  0.16952771058E+02  0.59301953756E+02  0.50000017742E+02 0.  0.
         12    1    1    2    0    0  0.56113906145E+01 -0.26416581798E+02 -0.16952771058E+02  0.31886046244E+02  0.00000000000E+00 0. -1.
         11    1    3    3    0    0 -0.14071362143E+02  0.11060344424E+01 -0.32001329971E+01  0.14472988503E+02  0.51100000000E-03 0. -1.
        -11    1    3    3    0    0  0.54803847728E+01  0.31915122275E+02  0.13827976848E+02  0.35211114595E+02  0.51100000000E-03 0.  1.
         12    1    3    3    0    0  0.29795867561E+01 -0.66045749188E+01  0.63249272068E+01  0.96178506573E+01  0.00000000000E+00 0. -1.
</event>
<event>
 7    1  0.7819001E-012  0.5930195E+02  0.7816164E-02  0.1266605E+00
        -11   -1    0    0    0    0  0.00000000000E+00  0.00000000000E+00  0.45593999997E+02  0.45594000000E+02  0.51100000000E-03 0.  1.
         11   -1    0    0    0    0 -0.00000000000E+00 -0.00000000000E+00 -0.45593999997E+02  0.45594000000E+02  0.51100000000E-03 0. -1.
    9900012    2    1    2    0    0 -0.12306823253E+01 -0.13297513061E+02  0.28954821044E+02  0.59301951416E+02  0.50000013475E+02 0.  0.
         12    1    1    2    0    0  0.12306823253E+01  0.13297513061E+02 -0.28954821044E+02  0.31886048584E+02  0.00000000000E+00 0. -1.
         11    1    3    3    0    0 -0.11154643976E+02 -0.44125807784E+01 -0.97908996129E+01  0.15484142432E+02  0.51100000000E-03 0. -1.
        -11    1    3    3    0    0  0.39642860863E+01 -0.12502584440E+02  0.29070804645E+02  0.31892661614E+02  0.51100000000E-03 0.  1.
        -12    1    3    3    0    0  0.59596755646E+01  0.36176521579E+01  0.96749160117E+01  0.11925147370E+02  0.00000000000E+00 0.  1.
</event>
<event>
 7    1  0.7819001E-012  0.5930195E+02  0.7816164E-02  0.1266605E+00
        -11   -1    0    0    0    0  0.00000000000E+00  0.00000000000E+00  0.45593999997E+02  0.45594000000E+02  0.51100000000E-03 0.  1.
         11   -1    0    0    0    0 -0.00000000000E+00 -0.00000000000E+00 -0.45593999997E+02  0.45594000000E+02  0.51100000000E-03 0. -1.
    9900012    2    1    2    0    0  0.31585627130E+02  0.32518193831E+01 -0.29144756893E+01  0.59301947578E+02  0.50000006475E+02 0.  0.
         12    1    1    2    0    0 -0.31585627130E+02 -0.32518193831E+01  0.29144756893E+01  0.31886052422E+02  0.00000000000E+00 0. -1.
         11    1    3    3    0    0  0.58348063773E+01 -0.15373054312E+02  0.81342508094E+01  0.18345075657E+02  0.51100000000E-03 0. -1.
        -11    1    3    3    0    0  0.21190621734E+02  0.14280071161E+02  0.28362490601E+01  0.25710060110E+02  0.51100000000E-03 0.  1.
        -12    1    3    3    0    0  0.45601990186E+01  0.43448025343E+01 -0.13884975559E+02  0.15246811812E+02  0.00000000000E+00 0.  1.
</event>
<event>
 7    1  0.7819001E-012  0.5930195E+02  0.7816164E-02  0.1266605E+00
        -11   -1    0    0    0    0  0.00000000000E+00  0.00000000000E+00  0.45593999997E+02  0.45594000000E+02  0.51100000000E-03 0.  1.
         11   -1    0    0    0    0 -0.00000000000E+00 -0.00000000000E+00 -0.45593999997E+02  0.45594000000E+02  0.51100000000E-03 0. -1.
    9900012    2    1    2    0    0 -0.24274620716E+02 -0.20609276456E+02 -0.16494645632E+01  0.59301949440E+02  0.50000009871E+02 0.  0.
         12    1    1    2    0    0  0.24274620716E+02  0.20609276456E+02  0.16494645632E+01  0.31886050560E+02  0.00000000000E+00 0. -1.
         11    1    3    3    0    0 -0.13408329494E+02  0.19845629894E+01 -0.10565779581E+02  0.17185967779E+02  0.51100000000E-03 0. -1.
        -11    1    3    3    0    0 -0.20014104306E+02 -0.18299606187E+02  0.14308013483E+02  0.30662015718E+02  0.51100000000E-03 0.  1.
        -12    1    3    3    0    0  0.91478130844E+01 -0.42942332586E+01 -0.53916984649E+01  0.11453965944E+02  0.00000000000E+00 0.  1.
</event>
<event>
 7    1  0.7819001E-012  0.5930196E+02  0.7816164E-02  0.1266605E+00
        -11   -1    0    0    0    0  0.00000000000E+00  0.00000000000E+00  0.45593999997E+02  0.45594000000E+02  0.51100000000E-03 0.  1.
         11   -1    0    0    0    0 -0.00000000000E+00 -0.00000000000E+00 -0.45593999997E+02  0.45594000000E+02  0.51100000000E-03 0. -1.
    9900012    2    1    2    0    0  0.28687364359E+02  0.13913923644E+02 -0.39676150322E+00  0.59301959720E+02  0.50000028619E+02 0.  0.
         12    1    1    2    0    0 -0.28687364359E+02 -0.13913923644E+02  0.39676150322E+00  0.31886040280E+02  0.00000000000E+00 0. -1.
         11    1    3    3    0    0  0.41334207411E+01  0.16873107773E+02 -0.19541499762E+02  0.26146838168E+02  0.51100000000E-03 0. -1.
        -11    1    3    3    0    0  0.25113482156E+02 -0.11556092488E+01  0.18248005343E+02  0.31064644180E+02  0.51100000000E-03 0.  1.
         12    1    3    3    0    0 -0.55953853828E+00 -0.18035748802E+01  0.89673291561E+00  0.20904773728E+01  0.00000000000E+00 0. -1.
</event>
<event>
 7    1  0.7819001E-012  0.5930187E+02  0.7816164E-02  0.1266605E+00
        -11   -1    0    0    0    0  0.00000000000E+00  0.00000000000E+00  0.45593999997E+02  0.45594000000E+02  0.51100000000E-03 0. -1.
         11   -1    0    0    0    0 -0.00000000000E+00 -0.00000000000E+00 -0.45593999997E+02  0.45594000000E+02  0.51100000000E-03 0.  1.
    9900012    2    1    2    0    0  0.23895296799E+02  0.21081699458E+02  0.11410694380E+01  0.59301869777E+02  0.49999864584E+02 0.  0.
         12    1    1    2    0    0 -0.23895296799E+02 -0.21081699458E+02 -0.11410694380E+01  0.31886130223E+02  0.00000000000E+00 0. -1.
         11    1    3    3    0    0 -0.73280016616E+01  0.10708656350E+02  0.42388220722E+00  0.12982858143E+02  0.51100000000E-03 0. -1.
        -11    1    3    3    0    0  0.33802168213E+02  0.13947012524E+02  0.83476752249E+01  0.37507191526E+02  0.51100000000E-03 0.  1.
        -12    1    3    3    0    0 -0.25788697524E+01 -0.35739694159E+01 -0.76304879941E+01  0.88118201079E+01  0.00000000000E+00 0.  1.
</event>
<event>
 7    1  0.7819001E-012  0.5930195E+02  0.7816164E-02  0.1266605E+00
        -11   -1    0    0    0    0  0.00000000000E+00  0.00000000000E+00  0.45593999997E+02  0.45594000000E+02  0.51100000000E-03 0.  1.
         11   -1    0    0    0    0 -0.00000000000E+00 -0.00000000000E+00 -0.45593999997E+02  0.45594000000E+02  0.51100000000E-03 0. -1.
    9900012    2    1    2    0    0  0.25330799473E+02  0.19104150362E+02  0.31784414270E+01  0.59301945793E+02  0.50000003219E+02 0.  0.
         12    1    1    2    0    0 -0.25330799473E+02 -0.19104150362E+02 -0.31784414270E+01  0.31886054207E+02  0.00000000000E+00 0. -1.
         11    1    3    3    0    0  0.10850488727E+02 -0.91589527284E+01  0.72810025390E+01  0.15957208996E+02  0.51100000000E-03 0. -1.
        -11    1    3    3    0    0  0.18282055396E+02  0.25850334888E+02 -0.12320143153E+02  0.33974391693E+02  0.51100000000E-03 0.  1.
        -12    1    3    3    0    0 -0.38017446494E+01  0.24127682024E+01  0.82175820407E+01  0.93703451043E+01  0.00000000000E+00 0.  1.
</event>
<event>
 7    1  0.7819001E-012  0.5930192E+02  0.7816164E-02  0.1266605E+00
        -11   -1    0    0    0    0  0.00000000000E+00  0.00000000000E+00  0.45593999997E+02  0.45594000000E+02  0.51100000000E-03 0. -1.
         11   -1    0    0    0    0 -0.00000000000E+00 -0.00000000000E+00 -0.45593999997E+02  0.45594000000E+02  0.51100000000E-03 0.  1.
    9900012    2    1    2    0    0 -0.82858852430E+01 -0.26181736974E+02 -0.16204405870E+02  0.59301921300E+02  0.49999958551E+02 0.  0.
         12    1    1    2    0    0  0.82858852430E+01  0.26181736974E+02  0.16204405870E+02  0.31886078700E+02  0.00000000000E+00 0. -1.
         11    1    3    3    0    0 -0.20499510468E+02 -0.17384012639E+02  0.89302263102E+01  0.28322831198E+02  0.51100000000E-03 0. -1.
        -11    1    3    3    0    0  0.36792545444E+01 -0.74174397379E+01 -0.68216324130E+01  0.10728000527E+02  0.51100000000E-03 0.  1.
         12    1    3    3    0    0  0.85343706810E+01 -0.13802845970E+01 -0.18312999768E+02  0.20251089575E+02  0.00000000000E+00 0. -1.
</event>
<event>
 7    1  0.7819001E-012  0.5930193E+02  0.7816164E-02  0.1266605E+00
        -11   -1    0    0    0    0  0.00000000000E+00  0.00000000000E+00  0.45593999997E+02  0.45594000000E+02  0.51100000000E-03 0.  1.
         11   -1    0    0    0    0 -0.00000000000E+00 -0.00000000000E+00 -0.45593999997E+02  0.45594000000E+02  0.51100000000E-03 0. -1.
    9900012    2    1    2    0    0 -0.11951243407E+02 -0.22335114664E+02  0.19365739608E+02  0.59301930368E+02  0.49999975087E+02 0.  0.
         12    1    1    2    0    0  0.11951243407E+02  0.22335114664E+02 -0.19365739608E+02  0.31886069632E+02  0.00000000000E+00 0. -1.
         11    1    3    3    0    0  0.33672095478E+01  0.14796524604E+01 -0.75077799808E+01  0.83602770315E+01  0.51100000000E-03 0. -1.
        -11    1    3    3    0    0  0.98832965718E+00 -0.28592106335E+01  0.24049685216E+02  0.24239208737E+02  0.51100000000E-03 0.  1.
        -12    1    3    3    0    0 -0.16306782612E+02 -0.20955556491E+02  0.28238343729E+01  0.26702444599E+02  0.00000000000E+00 0.  1.
</event>
<event>
 7    1  0.7819001E-012  0.5930193E+02  0.7816164E-02  0.1266605E+00
        -11   -1    0    0    0    0  0.00000000000E+00  0.00000000000E+00  0.45593999997E+02  0.45594000000E+02  0.51100000000E-03 0. -1.
         11   -1    0    0    0    0 -0.00000000000E+00 -0.00000000000E+00 -0.45593999997E+02  0.45594000000E+02  0.51100000000E-03 0.  1.
    9900012    2    1    2    0    0  0.10272060351E+02 -0.16865999936E+02 -0.25034856579E+02  0.59301933739E+02  0.49999981236E+02 0.  0.
         12    1    1    2    0    0 -0.10272060351E+02  0.16865999936E+02  0.25034856579E+02  0.31886066261E+02  0.00000000000E+00 0. -1.
         11    1    3    3    0    0  0.52495142423E+01 -0.16327102001E+02  0.24614755637E+01  0.17326007092E+02  0.51100000000E-03 0. -1.
        -11    1    3    3    0    0 -0.12894075209E+02 -0.49094245856E+00 -0.16528452763E+02  0.20968737467E+02  0.51100000000E-03 0.  1.
        -12    1    3    3    0    0  0.17916621317E+02 -0.47955475853E-01 -0.10967879380E+02  0.21007189180E+02  0.00000000000E+00 0.  1.
</event>
<event>
 7    1  0.7819001E-012  0.5930196E+02  0.7816164E-02  0.1266605E+00
        -11   -1    0    0    0    0  0.00000000000E+00  0.00000000000E+00  0.45593999997E+02  0.45594000000E+02  0.51100000000E-03 0.  1.
         11   -1    0    0    0    0 -0.00000000000E+00 -0.00000000000E+00 -0.45593999997E+02  0.45594000000E+02  0.51100000000E-03 0. -1.
    9900012    2    1    2    0    0 -0.18992722273E+02  0.24221971347E+02  0.83241934915E+01  0.59301959284E+02  0.50000027824E+02 0.  0.
         12    1    1    2    0    0  0.18992722273E+02 -0.24221971347E+02 -0.83241934915E+01  0.31886040716E+02  0.00000000000E+00 0. -1.
         11    1    3    3    0    0  0.47556584856E+01 -0.60831176450E+00  0.51755817574E+01  0.70549966423E+01  0.51100000000E-03 0. -1.
        -11    1    3    3    0    0 -0.21089560233E+02 -0.57051104607E+00  0.13104005337E+02  0.24835659641E+02  0.51100000000E-03 0.  1.
        -12    1    3    3    0    0 -0.26588205258E+01  0.25400794157E+02 -0.99553936030E+01  0.27411303001E+02  0.00000000000E+00 0.  1.
</event>
<event>
 7    1  0.7819001E-012  0.5930204E+02  0.7816164E-02  0.1266604E+00
        -11   -1    0    0    0    0  0.00000000000E+00  0.00000000000E+00  0.45593999997E+02  0.45594000000E+02  0.51100000000E-03 0.  1.
         11   -1    0    0    0    0 -0.00000000000E+00 -0.00000000000E+00 -0.45593999997E+02  0.45594000000E+02  0.51100000000E-03 0. -1.
    9900012    2    1    2    0    0  0.23110412353E+02  0.18011176744E+02 -0.12578596749E+02  0.59302035329E+02  0.50000166512E+02 0.  0.
         12    1    1    2    0    0 -0.23110412353E+02 -0.18011176744E+02  0.12578596749E+02  0.31885964671E+02  0.00000000000E+00 0. -1.
         11    1    3    3    0    0  0.22369682615E+02  0.29920527112E+02 -0.80477637005E+01  0.38215273698E+02  0.51100000000E-03 0. -1.
        -11    1    3    3    0    0 -0.47886651003E+01  0.49557503568E+00  0.28850609918E+01  0.56125293092E+01  0.51100000000E-03 0.  1.
         12    1    3    3    0    0  0.55293948384E+01 -0.12404925404E+02 -0.74158940398E+01  0.15474232322E+02  0.00000000000E+00 0. -1.
</event>
<event>
 7    1  0.7819001E-012  0.5930193E+02  0.7816164E-02  0.1266605E+00
        -11   -1    0    0    0    0  0.00000000000E+00  0.00000000000E+00  0.45593999997E+02  0.45594000000E+02  0.51100000000E-03 0. -1.
         11   -1    0    0    0    0 -0.00000000000E+00 -0.00000000000E+00 -0.45593999997E+02  0.45594000000E+02  0.51100000000E-03 0.  1.
    9900012    2    1    2    0    0  0.30193745791E+02  0.11898265222E+01 -0.10180535229E+02  0.59301932987E+02  0.49999979864E+02 0.  0.
         12    1    1    2    0    0 -0.30193745791E+02 -0.11898265222E+01  0.10180535229E+02  0.31886067013E+02  0.00000000000E+00 0. -1.
         11    1    3    3    0    0 -0.35277441546E+01  0.93692810147E+01 -0.35758057502E+01  0.10630841574E+02  0.51100000000E-03 0. -1.
        -11    1    3    3    0    0  0.34560085499E+02 -0.22462072043E+00 -0.14456465687E+02  0.37462506117E+02  0.51100000000E-03 0.  1.
        -12    1    3    3    0    0 -0.83859555305E+00 -0.79548337721E+01  0.78517362083E+01  0.11208585296E+02  0.00000000000E+00 0.  1.
</event>
<event>
 7    1  0.7819001E-012  0.5930189E+02  0.7816164E-02  0.1266605E+00
        -11   -1    0    0    0    0  0.00000000000E+00  0.00000000000E+00  0.45593999997E+02  0.45594000000E+02  0.51100000000E-03 0.  1.
         11   -1    0    0    0    0 -0.00000000000E+00 -0.00000000000E+00 -0.45593999997E+02  0.45594000000E+02  0.51100000000E-03 0. -1.
    9900012    2    1    2    0    0 -0.29149341256E+02 -0.12013372547E+02 -0.47663922842E+01  0.59301894703E+02  0.49999910044E+02 0.  0.
         12    1    1    2    0    0  0.29149341256E+02  0.12013372547E+02  0.47663922842E+01  0.31886105297E+02  0.00000000000E+00 0. -1.
         11    1    3    3    0    0 -0.12751647585E+02  0.68548048811E+00 -0.15077817751E+02  0.19758921733E+02  0.51100000000E-03 0. -1.
        -11    1    3    3    0    0 -0.83688622482E+01  0.73506043658E+01  0.13726577199E+02  0.17677334690E+02  0.51100000000E-03 0.  1.
        -12    1    3    3    0    0 -0.80288314225E+01 -0.20049457401E+02 -0.34151517322E+01  0.21865638281E+02  0.00000000000E+00 0.  1.
</event>
<event>
 7    1  0.7819001E-012  0.5930197E+02  0.7816164E-02  0.1266605E+00
        -11   -1    0    0    0    0  0.00000000000E+00  0.00000000000E+00  0.45593999997E+02  0.45594000000E+02  0.51100000000E-03 0.  1.
         11   -1    0    0    0    0 -0.00000000000E+00 -0.00000000000E+00 -0.45593999997E+02  0.45594000000E+02  0.51100000000E-03 0. -1.
    9900012    2    1    2    0    0  0.20389904948E+02 -0.21260277017E+02 -0.12205386367E+02  0.59301967651E+02  0.50000043082E+02 0.  0.
         12    1    1    2    0    0 -0.20389904948E+02  0.21260277017E+02  0.12205386367E+02  0.31886032349E+02  0.00000000000E+00 0. -1.
         11    1    3    3    0    0 -0.91535374631E+01  0.53914781332E+00 -0.12744773934E+02  0.15700547486E+02  0.51100000000E-03 0. -1.
        -11    1    3    3    0    0  0.28003747575E+02 -0.10428202790E+02 -0.58763052688E+01  0.30454691848E+02  0.51100000000E-03 0.  1.
         12    1    3    3    0    0  0.15396948361E+01 -0.11371222040E+02  0.64156928362E+01  0.13146728317E+02  0.00000000000E+00 0. -1.
</event>
<event>
 7    1  0.7819001E-012  0.5930193E+02  0.7816164E-02  0.1266605E+00
        -11   -1    0    0    0    0  0.00000000000E+00  0.00000000000E+00  0.45593999997E+02  0.45594000000E+02  0.51100000000E-03 0.  1.
         11   -1    0    0    0    0 -0.00000000000E+00 -0.00000000000E+00 -0.45593999997E+02  0.45594000000E+02  0.51100000000E-03 0. -1.
    9900012    2    1    2    0    0 -0.20622968052E+02 -0.55129003558E+00  0.24312764172E+02  0.59301933549E+02  0.49999980890E+02 0.  0.
         12    1    1    2    0    0  0.20622968052E+02  0.55129003558E+00 -0.24312764172E+02  0.31886066451E+02  0.00000000000E+00 0. -1.
         11    1    3    3    0    0 -0.27515955603E+02 -0.82843248286E+00  0.19510097773E+01  0.27597473662E+02  0.51100000000E-03 0. -1.
        -11    1    3    3    0    0  0.55115626181E+01  0.57475454638E+01  0.24430097095E+02  0.25695159967E+02  0.51100000000E-03 0.  1.
        -12    1    3    3    0    0  0.13814249325E+01 -0.54704030165E+01 -0.20683427003E+01  0.60092999204E+01  0.00000000000E+00 0.  1.
</event>
<event>
 7    1  0.7819001E-012  0.5930196E+02  0.7816164E-02  0.1266605E+00
        -11   -1    0    0    0    0  0.00000000000E+00  0.00000000000E+00  0.45593999997E+02  0.45594000000E+02  0.51100000000E-03 0.  1.
         11   -1    0    0    0    0 -0.00000000000E+00 -0.00000000000E+00 -0.45593999997E+02  0.45594000000E+02  0.51100000000E-03 0. -1.
    9900012    2    1    2    0    0 -0.23592995732E+02 -0.45538802402E+01  0.20960733680E+02  0.59301958708E+02  0.50000026774E+02 0.  0.
         12    1    1    2    0    0  0.23592995732E+02  0.45538802402E+01 -0.20960733680E+02  0.31886041292E+02  0.00000000000E+00 0. -1.
         11    1    3    3    0    0 -0.11177360530E+02  0.46675369290E+01 -0.10037799117E+02  0.15731392207E+02  0.51100000000E-03 0. -1.
        -11    1    3    3    0    0 -0.31754449629E+01  0.79345235265E+01  0.18613298016E+02  0.20481576541E+02  0.51100000000E-03 0.  1.
         12    1    3    3    0    0 -0.92401902393E+01 -0.17155940696E+02  0.12385234781E+02  0.23088989961E+02  0.00000000000E+00 0. -1.
</event>
<event>
 7    1  0.7819001E-012  0.5930192E+02  0.7816164E-02  0.1266605E+00
        -11   -1    0    0    0    0  0.00000000000E+00  0.00000000000E+00  0.45593999997E+02  0.45594000000E+02  0.51100000000E-03 0.  1.
         11   -1    0    0    0    0 -0.00000000000E+00 -0.00000000000E+00 -0.45593999997E+02  0.45594000000E+02  0.51100000000E-03 0. -1.
    9900012    2    1    2    0    0 -0.89040399352E+01  0.22253437311E+02  0.21029141455E+02  0.59301918559E+02  0.49999953552E+02 0.  0.
         12    1    1    2    0    0  0.89040399352E+01 -0.22253437311E+02 -0.21029141455E+02  0.31886081441E+02  0.00000000000E+00 0. -1.
         11    1    3    3    0    0  0.83413064624E+01 -0.58453778076E+01 -0.61991444909E+01  0.11923725420E+02  0.51100000000E-03 0. -1.
        -11    1    3    3    0    0 -0.18184076428E+02  0.21364401949E+02  0.11644967919E+02  0.30376036349E+02  0.51100000000E-03 0.  1.
         12    1    3    3    0    0  0.93873003021E+00  0.67344131698E+01  0.15583318026E+02  0.17002156790E+02  0.00000000000E+00 0. -1.
</event>
<event>
 7    1  0.7819001E-012  0.5930195E+02  0.7816164E-02  0.1266605E+00
        -11   -1    0    0    0    0  0.00000000000E+00  0.00000000000E+00  0.45593999997E+02  0.45594000000E+02  0.51100000000E-03 0.  1.
         11   -1    0    0    0    0 -0.00000000000E+00 -0.00000000000E+00 -0.45593999997E+02  0.45594000000E+02  0.51100000000E-03 0. -1.
    9900012    2    1    2    0    0 -0.13771933289E+02 -0.17682794164E+02  0.22679782990E+02  0.59301954267E+02  0.50000018675E+02 0.  0.
         12    1    1    2    0    0  0.13771933289E+02  0.17682794164E+02 -0.22679782990E+02  0.31886045733E+02  0.00000000000E+00 0. -1.
         11    1    3    3    0    0  0.11755910574E+02  0.27858996692E+01 -0.52322279656E+01  0.13165822426E+02  0.51100000000E-03 0. -1.
        -11    1    3    3    0    0 -0.82339039893E+01 -0.15204901919E+02  0.19900377899E+02  0.26363066173E+02  0.51100000000E-03 0.  1.
        -12    1    3    3    0    0 -0.17293939874E+02 -0.52637919142E+01  0.80116330571E+01  0.19773065669E+02  0.00000000000E+00 0.  1.
</event>
<event>
 7    1  0.7819001E-012  0.5930186E+02  0.7816164E-02  0.1266605E+00
        -11   -1    0    0    0    0  0.00000000000E+00  0.00000000000E+00  0.45593999997E+02  0.45594000000E+02  0.51100000000E-03 0. -1.
         11   -1    0    0    0    0 -0.00000000000E+00 -0.00000000000E+00 -0.45593999997E+02  0.45594000000E+02  0.51100000000E-03 0.  1.
    9900012    2    1    2    0    0 -0.25779728875E+02  0.16304036603E+02 -0.92903045860E+01  0.59301862107E+02  0.49999850596E+02 0.  0.
         12    1    1    2    0    0  0.25779728875E+02 -0.16304036603E+02  0.92903045860E+01  0.31886137893E+02  0.00000000000E+00 0. -1.
         11    1    3    3    0    0 -0.17531064350E+02  0.20934082833E+02  0.51317848220E+01  0.27783254975E+02  0.51100000000E-03 0. -1.
        -11    1    3    3    0    0 -0.13456723926E+02 -0.99174512221E+01 -0.17166201950E+01  0.16804345948E+02  0.51100000000E-03 0.  1.
         12    1    3    3    0    0  0.52080594008E+01  0.52874049917E+01 -0.12705469213E+02  0.14714261184E+02  0.00000000000E+00 0. -1.
</event>
<event>
 7    1  0.7819001E-012  0.5930194E+02  0.7816164E-02  0.1266605E+00
        -11   -1    0    0    0    0  0.00000000000E+00  0.00000000000E+00  0.45593999997E+02  0.45594000000E+02  0.51100000000E-03 0.  1.
         11   -1    0    0    0    0 -0.00000000000E+00 -0.00000000000E+00 -0.45593999997E+02  0.45594000000E+02  0.51100000000E-03 0. -1.
    9900012    2    1    2    0    0 -0.23065788981E+02 -0.21819330858E+02  0.29337362912E+01  0.59301943031E+02  0.49999998183E+02 0.  0.
         12    1    1    2    0    0  0.23065788981E+02  0.21819330858E+02 -0.29337362912E+01  0.31886056969E+02  0.00000000000E+00 0. -1.
         11    1    3    3    0    0 -0.14002505928E+02  0.78567620882E+01 -0.78531020142E+01  0.17873726368E+02  0.51100000000E-03 0. -1.
        -11    1    3    3    0    0 -0.16699762943E+02 -0.13793680196E+02  0.98112779878E+01  0.23778327774E+02  0.51100000000E-03 0.  1.
         12    1    3    3    0    0  0.76364798905E+01 -0.15882412750E+02  0.97556031757E+00  0.17649888890E+02  0.00000000000E+00 0. -1.
</event>
<event>
 7    1  0.7819001E-012  0.5930198E+02  0.7816164E-02  0.1266605E+00
        -11   -1    0    0    0    0  0.00000000000E+00  0.00000000000E+00  0.45593999997E+02  0.45594000000E+02  0.51100000000E-03 0.  1.
         11   -1    0    0    0    0 -0.00000000000E+00 -0.00000000000E+00 -0.45593999997E+02  0.45594000000E+02  0.51100000000E-03 0. -1.
    9900012    2    1    2    0    0 -0.11847195857E+01  0.22718258382E+02  0.22342686049E+02  0.59301977290E+02  0.50000060662E+02 0.  0.
         12    1    1    2    0    0  0.11847195857E+01 -0.22718258382E+02 -0.22342686049E+02  0.31886022710E+02  0.00000000000E+00 0. -1.
         11    1    3    3    0    0  0.14431903661E+02 -0.42894479126E+01 -0.63043930310E+01  0.16322517527E+02  0.51100000000E-03 0. -1.
        -11    1    3    3    0    0 -0.22589222473E+01  0.10581763830E+02  0.85854043156E+01  0.13812516895E+02  0.51100000000E-03 0.  1.
         12    1    3    3    0    0 -0.13357700999E+02  0.16425942465E+02  0.20061674765E+02  0.29166942867E+02  0.00000000000E+00 0. -1.
</event>
<event>
 7    1  0.7819001E-012  0.5930188E+02  0.7816164E-02  0.1266605E+00
        -11   -1    0    0    0    0  0.00000000000E+00  0.00000000000E+00  0.45593999997E+02  0.45594000000E+02  0.51100000000E-03 0. -1.
         11   -1    0    0    0    0 -0.00000000000E+00 -0.00000000000E+00 -0.45593999997E+02  0.45594000000E+02  0.51100000000E-03 0.  1.
    9900012    2    1    2    0    0  0.61854913612E+00  0.31778061397E+02  0.25489257324E+01  0.59301877445E+02  0.49999878570E+02 0.  0.
         12    1    1    2    0    0 -0.61854913612E+00 -0.31778061397E+02 -0.25489257324E+01  0.31886122555E+02  0.00000000000E+00 0. -1.
         11    1    3    3    0    0 -0.46845819068E+01  0.15493705656E+02  0.96569941746E+01  0.18848282663E+02  0.51100000000E-03 0. -1.
        -11    1    3    3    0    0  0.26157513974E+01  0.51734835570E+01 -0.21389182883E+02  0.22160871647E+02  0.51100000000E-03 0.  1.
        -12    1    3    3    0    0  0.26873796456E+01  0.11110872184E+02  0.14281114441E+02  0.18292723136E+02  0.00000000000E+00 0.  1.
</event>
<event>
 7    1  0.7819001E-012  0.5930197E+02  0.7816164E-02  0.1266605E+00
        -11   -1    0    0    0    0  0.00000000000E+00  0.00000000000E+00  0.45593999997E+02  0.45594000000E+02  0.51100000000E-03 0. -1.
         11   -1    0    0    0    0 -0.00000000000E+00 -0.00000000000E+00 -0.45593999997E+02  0.45594000000E+02  0.51100000000E-03 0.  1.
    9900012    2    1    2    0    0  0.16599735378E+02 -0.25250046920E+02 -0.10178543739E+02  0.59301971136E+02  0.50000049439E+02 0.  0.
         12    1    1    2    0    0 -0.16599735378E+02  0.25250046920E+02  0.10178543739E+02  0.31886028864E+02  0.00000000000E+00 0. -1.
         11    1    3    3    0    0 -0.14185298695E+02 -0.16781380989E+02 -0.17420714073E+01  0.22042510293E+02  0.51100000000E-03 0. -1.
        -11    1    3    3    0    0  0.27279217970E+02 -0.22177738411E+01 -0.11208160495E+02  0.29575278795E+02  0.51100000000E-03 0.  1.
        -12    1    3    3    0    0  0.35058161031E+01 -0.62508920898E+01  0.27716881636E+01  0.76841820478E+01  0.00000000000E+00 0.  1.
</event>
<event>
 7    1  0.7819001E-012  0.5930196E+02  0.7816164E-02  0.1266605E+00
        -11   -1    0    0    0    0  0.00000000000E+00  0.00000000000E+00  0.45593999997E+02  0.45594000000E+02  0.51100000000E-03 0. -1.
         11   -1    0    0    0    0 -0.00000000000E+00 -0.00000000000E+00 -0.45593999997E+02  0.45594000000E+02  0.51100000000E-03 0.  1.
    9900012    2    1    2    0    0  0.19459442604E+02  0.17575864491E+02 -0.18142186185E+02  0.59301955425E+02  0.50000020786E+02 0.  0.
         12    1    1    2    0    0 -0.19459442604E+02 -0.17575864491E+02  0.18142186185E+02  0.31886044575E+02  0.00000000000E+00 0. -1.
         11    1    3    3    0    0 -0.48553496246E+01  0.92982801590E+01 -0.85919014022E+01  0.13559247909E+02  0.51100000000E-03 0. -1.
        -11    1    3    3    0    0  0.18066521557E+02 -0.71647678479E+01 -0.18499804160E+02  0.26832365787E+02  0.51100000000E-03 0.  1.
        -12    1    3    3    0    0  0.62482706720E+01  0.15442352179E+02  0.89495193777E+01  0.18910341729E+02  0.00000000000E+00 0.  1.
</event>
<event>
 7    1  0.7819001E-012  0.5930195E+02  0.7816164E-02  0.1266605E+00
        -11   -1    0    0    0    0  0.00000000000E+00  0.00000000000E+00  0.45593999997E+02  0.45594000000E+02  0.51100000000E-03 0. -1.
         11   -1    0    0    0    0 -0.00000000000E+00 -0.00000000000E+00 -0.45593999997E+02  0.45594000000E+02  0.51100000000E-03 0.  1.
    9900012    2    1    2    0    0  0.74224793514E+01 -0.30897153654E+02 -0.26444310160E+01  0.59301947892E+02  0.50000007047E+02 0.  0.
         12    1    1    2    0    0 -0.74224793514E+01  0.30897153654E+02  0.26444310160E+01  0.31886052108E+02  0.00000000000E+00 0. -1.
         11    1    3    3    0    0  0.20270797728E+02 -0.13034577668E+02 -0.18102010821E+02  0.30141138856E+02  0.51100000000E-03 0. -1.
        -11    1    3    3    0    0 -0.13110884704E+02 -0.17573261091E+02  0.10717221478E+02  0.24404377467E+02  0.51100000000E-03 0.  1.
        -12    1    3    3    0    0  0.26256632684E+00 -0.28931489501E+00  0.47403583279E+01  0.47564315681E+01  0.00000000000E+00 0.  1.
</event>
<event>
 7    1  0.7819001E-012  0.5930193E+02  0.7816164E-02  0.1266605E+00
        -11   -1    0    0    0    0  0.00000000000E+00  0.00000000000E+00  0.45593999997E+02  0.45594000000E+02  0.51100000000E-03 0. -1.
         11   -1    0    0    0    0 -0.00000000000E+00 -0.00000000000E+00 -0.45593999997E+02  0.45594000000E+02  0.51100000000E-03 0.  1.
    9900012    2    1    2    0    0  0.10171151564E+02 -0.24272502518E+02 -0.18003190687E+02  0.59301928157E+02  0.49999971056E+02 0.  0.
         12    1    1    2    0    0 -0.10171151564E+02  0.24272502518E+02  0.18003190687E+02  0.31886071843E+02  0.00000000000E+00 0. -1.
         11    1    3    3    0    0  0.26053113453E+02 -0.25662199965E+02 -0.34244834448E+01  0.36729284158E+02  0.51100000000E-03 0. -1.
        -11    1    3    3    0    0 -0.60766868223E+01  0.37449249355E+01 -0.64435514076E+01  0.96161291855E+01  0.51100000000E-03 0.  1.
         12    1    3    3    0    0 -0.98052750668E+01 -0.23552274883E+01 -0.81351558349E+01  0.12956514814E+02  0.00000000000E+00 0. -1.
</event>
<event>
 7    1  0.7819001E-012  0.5930193E+02  0.7816164E-02  0.1266605E+00
        -11   -1    0    0    0    0  0.00000000000E+00  0.00000000000E+00  0.45593999997E+02  0.45594000000E+02  0.51100000000E-03 0.  1.
         11   -1    0    0    0    0 -0.00000000000E+00 -0.00000000000E+00 -0.45593999997E+02  0.45594000000E+02  0.51100000000E-03 0. -1.
    9900012    2    1    2    0    0  0.11689369785E+02  0.22048660636E+02  0.19847845469E+02  0.59301925115E+02  0.49999965508E+02 0.  0.
         12    1    1    2    0    0 -0.11689369785E+02 -0.22048660636E+02 -0.19847845469E+02  0.31886074885E+02  0.00000000000E+00 0. -1.
         11    1    3    3    0    0  0.14173274590E+02  0.87083698222E+01  0.31970027922E+01  0.16939251597E+02  0.51100000000E-03 0. -1.
        -11    1    3    3    0    0 -0.15567330932E+02  0.15594215710E+02  0.13080662809E+01  0.22073341242E+02  0.51100000000E-03 0.  1.
        -12    1    3    3    0    0  0.13083426127E+02 -0.22539248962E+01  0.15342776396E+02  0.20289332276E+02  0.00000000000E+00 0.  1.
</event>
<event>
 7    1  0.7819001E-012  0.5930193E+02  0.7816164E-02  0.1266605E+00
        -11   -1    0    0    0    0  0.00000000000E+00  0.00000000000E+00  0.45593999997E+02  0.45594000000E+02  0.51100000000E-03 0. -1.
         11   -1    0    0    0    0 -0.00000000000E+00 -0.00000000000E+00 -0.45593999997E+02  0.45594000000E+02  0.51100000000E-03 0.  1.
    9900012    2    1    2    0    0 -0.33635921954E+01 -0.81704989294E+01 -0.30637409332E+02  0.59301926931E+02  0.49999968819E+02 0.  0.
         12    1    1    2    0    0  0.33635921954E+01  0.81704989294E+01  0.30637409332E+02  0.31886073069E+02  0.00000000000E+00 0. -1.
         11    1    3    3    0    0  0.13653570539E+02  0.77844689391E+01 -0.69427710808E+00  0.15732131645E+02  0.51100000000E-03 0. -1.
        -11    1    3    3    0    0 -0.14340705991E+02 -0.16527061107E+02 -0.11112939332E+02  0.24541740322E+02  0.51100000000E-03 0.  1.
        -12    1    3    3    0    0 -0.26764567434E+01  0.57209323905E+00 -0.18830192892E+02  0.19028054964E+02  0.00000000000E+00 0.  1.
</event>
<event>
 7    1  0.7819001E-012  0.5930196E+02  0.7816164E-02  0.1266605E+00
        -11   -1    0    0    0    0  0.00000000000E+00  0.00000000000E+00  0.45593999997E+02  0.45594000000E+02  0.51100000000E-03 0. -1.
         11   -1    0    0    0    0 -0.00000000000E+00 -0.00000000000E+00 -0.45593999997E+02  0.45594000000E+02  0.51100000000E-03 0.  1.
    9900012    2    1    2    0    0 -0.27708213023E+02 -0.12925104344E+02  0.90507611654E+01  0.59301958086E+02  0.50000025640E+02 0.  0.
         12    1    1    2    0    0  0.27708213023E+02  0.12925104344E+02 -0.90507611654E+01  0.31886041914E+02  0.00000000000E+00 0. -1.
         11    1    3    3    0    0 -0.13607878488E+02 -0.50963865017E+01 -0.15168327990E+02  0.21005372804E+02  0.51100000000E-03 0. -1.
        -11    1    3    3    0    0 -0.11699563255E+02 -0.15777091453E+02  0.22408792284E+02  0.29798496053E+02  0.51100000000E-03 0.  1.
        -12    1    3    3    0    0 -0.24007712795E+01  0.79483736115E+01  0.18102968715E+01  0.84980892304E+01  0.00000000000E+00 0.  1.
</event>
<event>
 7    1  0.7819001E-012  0.5930191E+02  0.7816164E-02  0.1266605E+00
        -11   -1    0    0    0    0  0.00000000000E+00  0.00000000000E+00  0.45593999997E+02  0.45594000000E+02  0.51100000000E-03 0. -1.
         11   -1    0    0    0    0 -0.00000000000E+00 -0.00000000000E+00 -0.45593999997E+02  0.45594000000E+02  0.51100000000E-03 0.  1.
    9900012    2    1    2    0    0 -0.20681749421E+02  0.23698757976E+02  0.52303589539E+01  0.59301913010E+02  0.49999943431E+02 0.  0.
         12    1    1    2    0    0  0.20681749421E+02 -0.23698757976E+02 -0.52303589539E+01  0.31886086990E+02  0.00000000000E+00 0. -1.
         11    1    3    3    0    0  0.96001568402E+01  0.17989100244E+02  0.32923677279E+01  0.20654549728E+02  0.51100000000E-03 0. -1.
        -11    1    3    3    0    0 -0.86728594536E+01 -0.75694900043E+01 -0.46935919355E+01  0.12431632055E+02  0.51100000000E-03 0.  1.
        -12    1    3    3    0    0 -0.21609046808E+02  0.13279147737E+02  0.66315831614E+01  0.26215731227E+02  0.00000000000E+00 0.  1.
</event>
<event>
 7    1  0.7819001E-012  0.5930187E+02  0.7816164E-02  0.1266605E+00
        -11   -1    0    0    0    0  0.00000000000E+00  0.00000000000E+00  0.45593999997E+02  0.45594000000E+02  0.51100000000E-03 0. -1.
         11   -1    0    0    0    0 -0.00000000000E+00 -0.00000000000E+00 -0.45593999997E+02  0.45594000000E+02  0.51100000000E-03 0.  1.
    9900012    2    1    2    0    0 -0.11503529454E+02  0.10260300013E+02 -0.27912730694E+02  0.59301866947E+02  0.49999859423E+02 0.  0.
         12    1    1    2    0    0  0.11503529454E+02 -0.10260300013E+02  0.27912730694E+02  0.31886133053E+02  0.00000000000E+00 0. -1.
         11    1    3    3    0    0 -0.11264316323E+02  0.75271926912E+01 -0.27336621897E+02  0.30509577989E+02  0.51100000000E-03 0.  1.
        -11    1    3    3    0    0 -0.12045277146E+02 -0.21064964157E+01  0.68631813559E+01  0.14022456534E+02  0.51100000000E-03 0. -1.
         12    1    3    3    0    0  0.11806064015E+02  0.48396037378E+01 -0.74392901530E+01  0.14769832424E+02  0.00000000000E+00 0. -1.
</event>
<event>
 7    1  0.7819001E-012  0.5930195E+02  0.7816164E-02  0.1266605E+00
        -11   -1    0    0    0    0  0.00000000000E+00  0.00000000000E+00  0.45593999997E+02  0.45594000000E+02  0.51100000000E-03 0. -1.
         11   -1    0    0    0    0 -0.00000000000E+00 -0.00000000000E+00 -0.45593999997E+02  0.45594000000E+02  0.51100000000E-03 0.  1.
    9900012    2    1    2    0    0 -0.21210618047E+02 -0.95644345371E+01 -0.21802557075E+02  0.59301949430E+02  0.50000009852E+02 0.  0.
         12    1    1    2    0    0  0.21210618047E+02  0.95644345371E+01  0.21802557075E+02  0.31886050570E+02  0.00000000000E+00 0. -1.
         11    1    3    3    0    0 -0.14195703862E+02 -0.46393028414E+01  0.82623347190E+01  0.17067727273E+02  0.51100000000E-03 0. -1.
        -11    1    3    3    0    0  0.95459642342E+01 -0.71458380144E+01 -0.72510567343E+01  0.13955868232E+02  0.51100000000E-03 0.  1.
        -12    1    3    3    0    0 -0.16560878420E+02  0.22207063187E+01 -0.22813835059E+02  0.28278353925E+02  0.00000000000E+00 0.  1.
</event>
<event>
 7    1  0.7819001E-012  0.5930193E+02  0.7816164E-02  0.1266605E+00
        -11   -1    0    0    0    0  0.00000000000E+00  0.00000000000E+00  0.45593999997E+02  0.45594000000E+02  0.51100000000E-03 0.  1.
         11   -1    0    0    0    0 -0.00000000000E+00 -0.00000000000E+00 -0.45593999997E+02  0.45594000000E+02  0.51100000000E-03 0. -1.
    9900012    2    1    2    0    0 -0.68914087746E+01 -0.28902618643E+02  0.11570166467E+02  0.59301927313E+02  0.49999969517E+02 0.  0.
         12    1    1    2    0    0  0.68914087746E+01  0.28902618643E+02 -0.11570166467E+02  0.31886072687E+02  0.00000000000E+00 0. -1.
         11    1    3    3    0    0 -0.47840258522E+01 -0.87024928155E+01 -0.13956555745E+02  0.17129090258E+02  0.51100000000E-03 0. -1.
        -11    1    3    3    0    0 -0.65770064024E+00  0.38613185752E+01  0.15633197310E+02  0.16116426703E+02  0.51100000000E-03 0.  1.
        -12    1    3    3    0    0 -0.14496822822E+01 -0.24061444402E+02  0.98935249014E+01  0.26056410352E+02  0.00000000000E+00 0.  1.
</event>
<event>
 7    1  0.7819001E-012  0.5930195E+02  0.7816164E-02  0.1266605E+00
        -11   -1    0    0    0    0  0.00000000000E+00  0.00000000000E+00  0.45593999997E+02  0.45594000000E+02  0.51100000000E-03 0.  1.
         11   -1    0    0    0    0 -0.00000000000E+00 -0.00000000000E+00 -0.45593999997E+02  0.45594000000E+02  0.51100000000E-03 0. -1.
    9900012    2    1    2    0    0  0.22469550873E+02 -0.48275693284E+00  0.22618720045E+02  0.59301948705E+02  0.50000008531E+02 0.  0.
         12    1    1    2    0    0 -0.22469550873E+02  0.48275693284E+00 -0.22618720045E+02  0.31886051295E+02  0.00000000000E+00 0. -1.
         11    1    3    3    0    0  0.12852256503E+02  0.46270251786E-01  0.13416136857E+02  0.18578895731E+02  0.51100000000E-03 0. -1.
        -11    1    3    3    0    0 -0.13194743925E+02 -0.31990870690E+01  0.11293805604E+02  0.17660279460E+02  0.51100000000E-03 0.  1.
        -12    1    3    3    0    0  0.22812038296E+02  0.26700598844E+01 -0.20912224158E+01  0.23062773515E+02  0.00000000000E+00 0.  1.
</event>
<event>
 7    1  0.7819001E-012  0.5930201E+02  0.7816164E-02  0.1266605E+00
        -11   -1    0    0    0    0  0.00000000000E+00  0.00000000000E+00  0.45593999997E+02  0.45594000000E+02  0.51100000000E-03 0. -1.
         11   -1    0    0    0    0 -0.00000000000E+00 -0.00000000000E+00 -0.45593999997E+02  0.45594000000E+02  0.51100000000E-03 0.  1.
    9900012    2    1    2    0    0  0.27227873610E+02 -0.58359998751E+00 -0.16583692159E+02  0.59302007215E+02  0.50000115238E+02 0.  0.
         12    1    1    2    0    0 -0.27227873610E+02  0.58359998751E+00  0.16583692159E+02  0.31885992785E+02  0.00000000000E+00 0. -1.
         11    1    3    3    0    0  0.20910621810E+02 -0.94719549472E+01 -0.23657571699E+02  0.32964416178E+02  0.51100000000E-03 0.  1.
        -11    1    3    3    0    0  0.81641936018E+01  0.16009271556E+02  0.57060690314E+01  0.18854974330E+02  0.51100000000E-03 0. -1.
         12    1    3    3    0    0 -0.18469418017E+01 -0.71209165963E+01  0.13678105092E+01  0.74826167067E+01  0.00000000000E+00 0. -1.
</event>
<event>
 7    1  0.7819001E-012  0.5930192E+02  0.7816164E-02  0.1266605E+00
        -11   -1    0    0    0    0  0.00000000000E+00  0.00000000000E+00  0.45593999997E+02  0.45594000000E+02  0.51100000000E-03 0.  1.
         11   -1    0    0    0    0 -0.00000000000E+00 -0.00000000000E+00 -0.45593999997E+02  0.45594000000E+02  0.51100000000E-03 0. -1.
    9900012    2    1    2    0    0  0.21385163762E+02 -0.56197571918E+01  0.22974233482E+02  0.59301916765E+02  0.49999950279E+02 0.  0.
         12    1    1    2    0    0 -0.21385163762E+02  0.56197571918E+01 -0.22974233482E+02  0.31886083235E+02  0.00000000000E+00 0. -1.
         11    1    3    3    0    0 -0.13028991645E+02 -0.10124450612E+02  0.65141725875E+01  0.17739604512E+02  0.51100000000E-03 0. -1.
        -11    1    3    3    0    0  0.20854028058E+02  0.18515767450E-01  0.15447394275E+01  0.20911170441E+02  0.51100000000E-03 0.  1.
        -12    1    3    3    0    0  0.13560127349E+02  0.44861776527E+01  0.14915321467E+02  0.20651141811E+02  0.00000000000E+00 0.  1.
</event>
<event>
 7    1  0.7819001E-012  0.5930183E+02  0.7816164E-02  0.1266605E+00
        -11   -1    0    0    0    0  0.00000000000E+00  0.00000000000E+00  0.45593999997E+02  0.45594000000E+02  0.51100000000E-03 0.  1.
         11   -1    0    0    0    0 -0.00000000000E+00 -0.00000000000E+00 -0.45593999997E+02  0.45594000000E+02  0.51100000000E-03 0. -1.
    9900012    2    1    2    0    0 -0.20419554009E+02  0.23650045203E+02  0.63596287582E+01  0.59301832122E+02  0.49999795910E+02 0.  0.
         12    1    1    2    0    0  0.20419554009E+02 -0.23650045203E+02 -0.63596287582E+01  0.31886167878E+02  0.00000000000E+00 0. -1.
         11    1    3    3    0    0  0.83225505955E+01 -0.76761224802E+01  0.70491691305E+01  0.13337109523E+02  0.51100000000E-03 0. -1.
        -11    1    3    3    0    0 -0.30618027256E+02  0.28905617676E+02  0.16058346947E+01  0.42137596414E+02  0.51100000000E-03 0.  1.
         12    1    3    3    0    0  0.18759226509E+01  0.24205500071E+01 -0.22953750671E+01  0.38271261839E+01  0.00000000000E+00 0. -1.
</event>
<event>
 7    1  0.7819001E-012  0.5930195E+02  0.7816164E-02  0.1266605E+00
        -11   -1    0    0    0    0  0.00000000000E+00  0.00000000000E+00  0.45593999997E+02  0.45594000000E+02  0.51100000000E-03 0.  1.
         11   -1    0    0    0    0 -0.00000000000E+00 -0.00000000000E+00 -0.45593999997E+02  0.45594000000E+02  0.51100000000E-03 0. -1.
    9900012    2    1    2    0    0  0.13853560064E+02 -0.64455276302E+00  0.28712081038E+02  0.59301950194E+02  0.50000011245E+02 0.  0.
         12    1    1    2    0    0 -0.13853560064E+02  0.64455276302E+00 -0.28712081038E+02  0.31886049806E+02  0.00000000000E+00 0. -1.
         11    1    3    3    0    0  0.19897656923E+02  0.16728180055E+02  0.51161913667E+01  0.26493851614E+02  0.51100000000E-03 0. -1.
        -11    1    3    3    0    0 -0.69185533164E+01 -0.13795391395E+02  0.92406636354E+01  0.17988025696E+02  0.51100000000E-03 0.  1.
         12    1    3    3    0    0  0.87445645705E+00 -0.35773414228E+01  0.14355226036E+02  0.14820072884E+02  0.00000000000E+00 0. -1.
</event>
<event>
 7    1  0.7819001E-012  0.5930206E+02  0.7816164E-02  0.1266604E+00
        -11   -1    0    0    0    0  0.00000000000E+00  0.00000000000E+00  0.45593999997E+02  0.45594000000E+02  0.51100000000E-03 0.  1.
         11   -1    0    0    0    0 -0.00000000000E+00 -0.00000000000E+00 -0.45593999997E+02  0.45594000000E+02  0.51100000000E-03 0. -1.
    9900012    2    1    2    0    0 -0.36566529863E+01 -0.29065851256E+02  0.12590406864E+02  0.59302060069E+02  0.50000211631E+02 0.  0.
         12    1    1    2    0    0  0.36566529863E+01  0.29065851256E+02 -0.12590406864E+02  0.31885939931E+02  0.00000000000E+00 0. -1.
         11    1    3    3    0    0 -0.11032476823E+02 -0.28934200025E+01  0.15202893848E+02  0.19005667728E+02  0.51100000000E-03 0. -1.
        -11    1    3    3    0    0  0.12381788279E+02 -0.30861522541E+02 -0.32318426885E+01  0.33409385837E+02  0.51100000000E-03 0.  1.
        -12    1    3    3    0    0 -0.50059644422E+01  0.46890912883E+01  0.61935570495E+00  0.68870065047E+01  0.00000000000E+00 0.  1.
</event>
<event>
 7    1  0.7819001E-012  0.5930186E+02  0.7816164E-02  0.1266605E+00
        -11   -1    0    0    0    0  0.00000000000E+00  0.00000000000E+00  0.45593999997E+02  0.45594000000E+02  0.51100000000E-03 0.  1.
         11   -1    0    0    0    0 -0.00000000000E+00 -0.00000000000E+00 -0.45593999997E+02  0.45594000000E+02  0.51100000000E-03 0. -1.
    9900012    2    1    2    0    0  0.10091229573E+02 -0.14426211776E+02  0.26585289623E+02  0.59301856852E+02  0.49999841013E+02 0.  0.
         12    1    1    2    0    0 -0.10091229573E+02  0.14426211776E+02 -0.26585289623E+02  0.31886143148E+02  0.00000000000E+00 0. -1.
         11    1    3    3    0    0  0.69955978990E+01 -0.37724639638E+01 -0.14002086199E+02  0.16100568080E+02  0.51100000000E-03 0. -1.
        -11    1    3    3    0    0  0.65469213259E+01 -0.55680212765E+01  0.25529943513E+02  0.26937762636E+02  0.51100000000E-03 0.  1.
        -12    1    3    3    0    0 -0.34512896514E+01 -0.50857265359E+01  0.15057432308E+02  0.16263526136E+02  0.00000000000E+00 0.  1.
</event>
<event>
 7    1  0.7819001E-012  0.5930194E+02  0.7816164E-02  0.1266605E+00
        -11   -1    0    0    0    0  0.00000000000E+00  0.00000000000E+00  0.45593999997E+02  0.45594000000E+02  0.51100000000E-03 0.  1.
         11   -1    0    0    0    0 -0.00000000000E+00 -0.00000000000E+00 -0.45593999997E+02  0.45594000000E+02  0.51100000000E-03 0. -1.
    9900012    2    1    2    0    0  0.14237942020E+02  0.25369696904E+02  0.13052978188E+02  0.59301941079E+02  0.49999994621E+02 0.  0.
         12    1    1    2    0    0 -0.14237942020E+02 -0.25369696904E+02 -0.13052978188E+02  0.31886058921E+02  0.00000000000E+00 0. -1.
         11    1    3    3    0    0 -0.40272468110E+01  0.22381211180E+01 -0.60275556499E+01  0.75867865654E+01  0.51100000000E-03 0. -1.
        -11    1    3    3    0    0  0.15893124920E+02  0.31542161394E+02  0.22988684940E+02  0.42142365865E+02  0.51100000000E-03 0.  1.
        -12    1    3    3    0    0  0.23720639109E+01 -0.84105856080E+01 -0.39081511023E+01  0.95727886483E+01  0.00000000000E+00 0.  1.
</event>
<event>
 7    1  0.7819001E-012  0.5930192E+02  0.7816164E-02  0.1266605E+00
        -11   -1    0    0    0    0  0.00000000000E+00  0.00000000000E+00  0.45593999997E+02  0.45594000000E+02  0.51100000000E-03 0.  1.
         11   -1    0    0    0    0 -0.00000000000E+00 -0.00000000000E+00 -0.45593999997E+02  0.45594000000E+02  0.51100000000E-03 0. -1.
    9900012    2    1    2    0    0  0.21173841974E+02 -0.63885423890E+01  0.22969050548E+02  0.59301916188E+02  0.49999949227E+02 0.  0.
         12    1    1    2    0    0 -0.21173841974E+02  0.63885423890E+01 -0.22969050548E+02  0.31886083812E+02  0.00000000000E+00 0. -1.
         11    1    3    3    0    0 -0.51517997256E+01  0.26909486906E+01  0.27354392564E+02  0.27965068176E+02  0.51100000000E-03 0. -1.
        -11    1    3    3    0    0  0.76929817159E+01  0.35740304770E+01 -0.66603148075E+00  0.85087754540E+01  0.51100000000E-03 0.  1.
         12    1    3    3    0    0  0.18632659984E+02 -0.12653521557E+02 -0.37193105353E+01  0.22828072558E+02  0.00000000000E+00 0. -1.
</event>
<event>
 7    1  0.7819001E-012  0.5930193E+02  0.7816164E-02  0.1266605E+00
        -11   -1    0    0    0    0  0.00000000000E+00  0.00000000000E+00  0.45593999997E+02  0.45594000000E+02  0.51100000000E-03 0. -1.
         11   -1    0    0    0    0 -0.00000000000E+00 -0.00000000000E+00 -0.45593999997E+02  0.45594000000E+02  0.51100000000E-03 0.  1.
    9900012    2    1    2    0    0 -0.89056899272E+01  0.25956564942E+02 -0.16237829612E+02  0.59301926438E+02  0.49999967921E+02 0.  0.
         12    1    1    2    0    0  0.89056899272E+01 -0.25956564942E+02  0.16237829612E+02  0.31886073562E+02  0.00000000000E+00 0. -1.
         11    1    3    3    0    0 -0.19760605058E+02  0.35345306193E+02 -0.15623378497E+02  0.43403480714E+02  0.51100000000E-03 0.  1.
        -11    1    3    3    0    0  0.97437122595E+01 -0.87614655464E+01 -0.27703620727E+01  0.13393211467E+02  0.51100000000E-03 0. -1.
        -12    1    3    3    0    0  0.11112028716E+01 -0.62727570477E+00  0.21559109572E+01  0.25052342579E+01  0.00000000000E+00 0.  1.
</event>
<event>
 7    1  0.7819001E-012  0.5930195E+02  0.7816164E-02  0.1266605E+00
        -11   -1    0    0    0    0  0.00000000000E+00  0.00000000000E+00  0.45593999997E+02  0.45594000000E+02  0.51100000000E-03 0. -1.
         11   -1    0    0    0    0 -0.00000000000E+00 -0.00000000000E+00 -0.45593999997E+02  0.45594000000E+02  0.51100000000E-03 0.  1.
    9900012    2    1    2    0    0 -0.25693721613E+02 -0.58022671489E+01 -0.17969044796E+02  0.59301949676E+02  0.50000010301E+02 0.  0.
         12    1    1    2    0    0  0.25693721613E+02  0.58022671489E+01  0.17969044796E+02  0.31886050324E+02  0.00000000000E+00 0. -1.
         11    1    3    3    0    0 -0.72576175641E+01 -0.12184782821E+02  0.33593529377E+01  0.14574882419E+02  0.51100000000E-03 0. -1.
        -11    1    3    3    0    0  0.65311391315E+01  0.11868381650E+02 -0.52517645320E+01  0.14529118773E+02  0.51100000000E-03 0.  1.
        -12    1    3    3    0    0 -0.24967243180E+02 -0.54858659777E+01 -0.16076633202E+02  0.30197948484E+02  0.00000000000E+00 0.  1.
</event>
<event>
 7    1  0.7819001E-012  0.5930197E+02  0.7816164E-02  0.1266605E+00
        -11   -1    0    0    0    0  0.00000000000E+00  0.00000000000E+00  0.45593999997E+02  0.45594000000E+02  0.51100000000E-03 0. -1.
         11   -1    0    0    0    0 -0.00000000000E+00 -0.00000000000E+00 -0.45593999997E+02  0.45594000000E+02  0.51100000000E-03 0.  1.
    9900012    2    1    2    0    0 -0.19115682366E+02 -0.21368026167E+02 -0.13954106877E+02  0.59301969307E+02  0.50000046104E+02 0.  0.
         12    1    1    2    0    0  0.19115682366E+02  0.21368026167E+02  0.13954106877E+02  0.31886030693E+02  0.00000000000E+00 0. -1.
         11    1    3    3    0    0  0.14805976649E+02 -0.13488585286E+02  0.12862677792E+01  0.20070210827E+02  0.51100000000E-03 0. -1.
        -11    1    3    3    0    0 -0.24724240413E+02 -0.37416792230E+01 -0.14966997159E+02  0.29142738917E+02  0.51100000000E-03 0.  1.
         12    1    3    3    0    0 -0.91974186029E+01 -0.41377616577E+01 -0.27337749750E+00  0.10089019563E+02  0.00000000000E+00 0. -1.
</event>
<event>
 7    1  0.7819001E-012  0.5930193E+02  0.7816164E-02  0.1266605E+00
        -11   -1    0    0    0    0  0.00000000000E+00  0.00000000000E+00  0.45593999997E+02  0.45594000000E+02  0.51100000000E-03 0. -1.
         11   -1    0    0    0    0 -0.00000000000E+00 -0.00000000000E+00 -0.45593999997E+02  0.45594000000E+02  0.51100000000E-03 0.  1.
    9900012    2    1    2    0    0 -0.55105531980E+01 -0.25286250051E+02 -0.18626875980E+02  0.59301934909E+02  0.49999983369E+02 0.  0.
         12    1    1    2    0    0  0.55105531980E+01  0.25286250051E+02  0.18626875980E+02  0.31886065091E+02  0.00000000000E+00 0. -1.
         11    1    3    3    0    0 -0.12242843397E+02 -0.25738922609E+02  0.31014120613E+01  0.28670509388E+02  0.51100000000E-03 0. -1.
        -11    1    3    3    0    0  0.94013506889E+01  0.60827525126E+01 -0.21679496496E+02  0.24400529533E+02  0.51100000000E-03 0.  1.
        -12    1    3    3    0    0 -0.26690604899E+01 -0.56300799548E+01 -0.48791545370E-01  0.62308959878E+01  0.00000000000E+00 0.  1.
</event>
<event>
 7    1  0.7819001E-012  0.5930195E+02  0.7816164E-02  0.1266605E+00
        -11   -1    0    0    0    0  0.00000000000E+00  0.00000000000E+00  0.45593999997E+02  0.45594000000E+02  0.51100000000E-03 0.  1.
         11   -1    0    0    0    0 -0.00000000000E+00 -0.00000000000E+00 -0.45593999997E+02  0.45594000000E+02  0.51100000000E-03 0. -1.
    9900012    2    1    2    0    0  0.27138300860E+01 -0.27117862284E+01  0.31654406010E+02  0.59301951670E+02  0.50000013938E+02 0.  0.
         12    1    1    2    0    0 -0.27138300860E+01  0.27117862284E+01 -0.31654406010E+02  0.31886048330E+02  0.00000000000E+00 0. -1.
         11    1    3    3    0    0  0.87624505850E+01 -0.15668276358E+02  0.19415385202E+02  0.26443006771E+02  0.51100000000E-03 0. -1.
        -11    1    3    3    0    0 -0.12060008170E+02  0.50542725540E+01  0.17322923727E+02  0.21704219747E+02  0.51100000000E-03 0.  1.
         12    1    3    3    0    0  0.60113876708E+01  0.79022175754E+01 -0.50839029190E+01  0.11154725153E+02  0.00000000000E+00 0. -1.
</event>
<event>
 7    1  0.7819001E-012  0.5930188E+02  0.7816164E-02  0.1266605E+00
        -11   -1    0    0    0    0  0.00000000000E+00  0.00000000000E+00  0.45593999997E+02  0.45594000000E+02  0.51100000000E-03 0. -1.
         11   -1    0    0    0    0 -0.00000000000E+00 -0.00000000000E+00 -0.45593999997E+02  0.45594000000E+02  0.51100000000E-03 0.  1.
    9900012    2    1    2    0    0  0.23583590425E+02  0.57289152141E+01 -0.20681348084E+02  0.59301884441E+02  0.49999891327E+02 0.  0.
         12    1    1    2    0    0 -0.23583590425E+02 -0.57289152141E+01  0.20681348084E+02  0.31886115559E+02  0.00000000000E+00 0. -1.
         11    1    3    3    0    0  0.15849476873E+02  0.19142433548E+02 -0.82535859619E+01  0.26187026574E+02  0.51100000000E-03 0.  1.
        -11    1    3    3    0    0  0.10356291261E+02 -0.18335623058E+02 -0.16039066347E+02  0.26470728951E+02  0.51100000000E-03 0. -1.
        -12    1    3    3    0    0 -0.26221777088E+01  0.49221047244E+01  0.36113042251E+01  0.66441289166E+01  0.00000000000E+00 0.  1.
</event>
<event>
 7    1  0.7819001E-012  0.5930195E+02  0.7816164E-02  0.1266605E+00
        -11   -1    0    0    0    0  0.00000000000E+00  0.00000000000E+00  0.45593999997E+02  0.45594000000E+02  0.51100000000E-03 0. -1.
         11   -1    0    0    0    0 -0.00000000000E+00 -0.00000000000E+00 -0.45593999997E+02  0.45594000000E+02  0.51100000000E-03 0.  1.
    9900012    2    1    2    0    0 -0.28135716091E+02 -0.83771052682E+01  0.12446926322E+02  0.59301946819E+02  0.50000005090E+02 0.  0.
         12    1    1    2    0    0  0.28135716091E+02  0.83771052682E+01 -0.12446926322E+02  0.31886053181E+02  0.00000000000E+00 0. -1.
         11    1    3    3    0    0  0.77009460339E+01 -0.94706955048E+01 -0.40659896995E+01  0.12865881845E+02  0.51100000000E-03 0. -1.
        -11    1    3    3    0    0 -0.38235936613E+02  0.12959893409E+01  0.19218903812E+02  0.42813931156E+02  0.51100000000E-03 0.  1.
        -12    1    3    3    0    0  0.23992744876E+01 -0.20239910426E+00 -0.27059877912E+01  0.36221338173E+01  0.00000000000E+00 0.  1.
</event>
<event>
 7    1  0.7819001E-012  0.5930194E+02  0.7816164E-02  0.1266605E+00
        -11   -1    0    0    0    0  0.00000000000E+00  0.00000000000E+00  0.45593999997E+02  0.45594000000E+02  0.51100000000E-03 0.  1.
         11   -1    0    0    0    0 -0.00000000000E+00 -0.00000000000E+00 -0.45593999997E+02  0.45594000000E+02  0.51100000000E-03 0. -1.
    9900012    2    1    2    0    0  0.21420517443E+02 -0.14708632456E+02  0.18480755861E+02  0.59301940767E+02  0.49999994052E+02 0.  0.
         12    1    1    2    0    0 -0.21420517443E+02  0.14708632456E+02 -0.18480755861E+02  0.31886059233E+02  0.00000000000E+00 0. -1.
         11    1    3    3    0    0 -0.73291314809E+01  0.10037429433E+02  0.90978455993E+01  0.15402498261E+02  0.51100000000E-03 0. -1.
        -11    1    3    3    0    0  0.16314452829E+02 -0.25511731164E+02  0.82697934087E+01  0.31391070090E+02  0.51100000000E-03 0.  1.
        -12    1    3    3    0    0  0.12435196094E+02  0.76566927602E+00  0.11131168534E+01  0.12508372415E+02  0.00000000000E+00 0.  1.
</event>
<event>
 7    1  0.7819001E-012  0.5930195E+02  0.7816164E-02  0.1266605E+00
        -11   -1    0    0    0    0  0.00000000000E+00  0.00000000000E+00  0.45593999997E+02  0.45594000000E+02  0.51100000000E-03 0. -1.
         11   -1    0    0    0    0 -0.00000000000E+00 -0.00000000000E+00 -0.45593999997E+02  0.45594000000E+02  0.51100000000E-03 0.  1.
    9900012    2    1    2    0    0 -0.68061106282E+01 -0.28984876874E+02 -0.11413748721E+02  0.59301954633E+02  0.50000019341E+02 0.  0.
         12    1    1    2    0    0  0.68061106282E+01  0.28984876874E+02  0.11413748721E+02  0.31886045367E+02  0.00000000000E+00 0. -1.
         11    1    3    3    0    0 -0.21145341643E+02 -0.26064074259E+01 -0.65759556775E+01  0.22297130447E+02  0.51100000000E-03 0. -1.
        -11    1    3    3    0    0  0.19391198905E+02 -0.24540067094E+02 -0.35573654032E+01  0.31478378879E+02  0.51100000000E-03 0.  1.
        -12    1    3    3    0    0 -0.50519678910E+01 -0.18384023541E+01 -0.12804276407E+01  0.55264453069E+01  0.00000000000E+00 0.  1.
</event>
<event>
 7    1  0.7819001E-012  0.5930193E+02  0.7816164E-02  0.1266605E+00
        -11   -1    0    0    0    0  0.00000000000E+00  0.00000000000E+00  0.45593999997E+02  0.45594000000E+02  0.51100000000E-03 0.  1.
         11   -1    0    0    0    0 -0.00000000000E+00 -0.00000000000E+00 -0.45593999997E+02  0.45594000000E+02  0.51100000000E-03 0. -1.
    9900012    2    1    2    0    0 -0.15741271237E+02  0.13629398975E+02  0.24148975940E+02  0.59301934461E+02  0.49999982553E+02 0.  0.
         12    1    1    2    0    0  0.15741271237E+02 -0.13629398975E+02 -0.24148975940E+02  0.31886065539E+02  0.00000000000E+00 0. -1.
         11    1    3    3    0    0 -0.84809086371E+01  0.27838288818E+01 -0.10507313594E+02  0.13786919663E+02  0.51100000000E-03 0. -1.
        -11    1    3    3    0    0  0.73884570243E+01 -0.38887715093E+00  0.21793014685E+02  0.23014691220E+02  0.51100000000E-03 0.  1.
        -12    1    3    3    0    0 -0.14648819624E+02  0.11234447244E+02  0.12863274850E+02  0.22500323579E+02  0.00000000000E+00 0.  1.
</event>
<event>
 7    1  0.7819001E-012  0.5930188E+02  0.7816164E-02  0.1266605E+00
        -11   -1    0    0    0    0  0.00000000000E+00  0.00000000000E+00  0.45593999997E+02  0.45594000000E+02  0.51100000000E-03 0. -1.
         11   -1    0    0    0    0 -0.00000000000E+00 -0.00000000000E+00 -0.45593999997E+02  0.45594000000E+02  0.51100000000E-03 0.  1.
    9900012    2    1    2    0    0 -0.15055187197E+02  0.22564113934E+02 -0.16760877361E+02  0.59301875916E+02  0.49999875781E+02 0.  0.
         12    1    1    2    0    0  0.15055187197E+02 -0.22564113934E+02  0.16760877361E+02  0.31886124084E+02  0.00000000000E+00 0. -1.
         11    1    3    3    0    0 -0.12522547973E+02  0.88949025432E+01  0.54178235877E+01  0.16287612216E+02  0.51100000000E-03 0. -1.
        -11    1    3    3    0    0 -0.85505449006E+01  0.41489226623E+01 -0.28538825109E+02  0.30079726000E+02  0.51100000000E-03 0.  1.
        -12    1    3    3    0    0  0.60179056766E+01  0.95202887280E+01  0.63601241604E+01  0.12934537701E+02  0.00000000000E+00 0.  1.
</event>
<event>
 7    1  0.7819001E-012  0.5930193E+02  0.7816164E-02  0.1266605E+00
        -11   -1    0    0    0    0  0.00000000000E+00  0.00000000000E+00  0.45593999997E+02  0.45594000000E+02  0.51100000000E-03 0.  1.
         11   -1    0    0    0    0 -0.00000000000E+00 -0.00000000000E+00 -0.45593999997E+02  0.45594000000E+02  0.51100000000E-03 0. -1.
    9900012    2    1    2    0    0 -0.16889492190E+02 -0.24927153497E+02  0.10493026801E+02  0.59301928757E+02  0.49999972150E+02 0.  0.
         12    1    1    2    0    0  0.16889492190E+02  0.24927153497E+02 -0.10493026801E+02  0.31886071243E+02  0.00000000000E+00 0. -1.
         11    1    3    3    0    0 -0.11072999507E+01  0.51276074293E+01  0.93583820305E+01  0.10728363604E+02  0.51100000000E-03 0. -1.
        -11    1    3    3    0    0 -0.25033496224E+02 -0.27886556329E+02 -0.41455079696E+01  0.37703066105E+02  0.51100000000E-03 0.  1.
        -12    1    3    3    0    0  0.92513039854E+01 -0.21682045970E+01  0.52801527398E+01  0.10870499048E+02  0.00000000000E+00 0.  1.
</event>
<event>
 7    1  0.7819001E-012  0.5930190E+02  0.7816164E-02  0.1266605E+00
        -11   -1    0    0    0    0  0.00000000000E+00  0.00000000000E+00  0.45593999997E+02  0.45594000000E+02  0.51100000000E-03 0.  1.
         11   -1    0    0    0    0 -0.00000000000E+00 -0.00000000000E+00 -0.45593999997E+02  0.45594000000E+02  0.51100000000E-03 0. -1.
    9900012    2    1    2    0    0 -0.30460581231E+02  0.54020719045E+00  0.94119319619E+01  0.59301901211E+02  0.49999921912E+02 0.  0.
         12    1    1    2    0    0  0.30460581231E+02 -0.54020719045E+00 -0.94119319619E+01  0.31886098789E+02  0.00000000000E+00 0. -1.
         11    1    3    3    0    0 -0.37215283103E+02  0.28513565671E+01  0.15065646284E+02  0.40250232657E+02  0.51100000000E-03 0. -1.
        -11    1    3    3    0    0  0.78828441522E+01 -0.86457399159E+01 -0.29069565863E+01  0.12055639654E+02  0.51100000000E-03 0.  1.
         12    1    3    3    0    0 -0.11281422805E+01  0.63345905393E+01 -0.27467577357E+01  0.69960288996E+01  0.00000000000E+00 0. -1.
</event>
<event>
 7    1  0.7819001E-012  0.5930195E+02  0.7816164E-02  0.1266605E+00
        -11   -1    0    0    0    0  0.00000000000E+00  0.00000000000E+00  0.45593999997E+02  0.45594000000E+02  0.51100000000E-03 0. -1.
         11   -1    0    0    0    0 -0.00000000000E+00 -0.00000000000E+00 -0.45593999997E+02  0.45594000000E+02  0.51100000000E-03 0.  1.
    9900012    2    1    2    0    0  0.12641971063E+02  0.22672940578E+02 -0.18515898414E+02  0.59301950372E+02  0.50000011570E+02 0.  0.
         12    1    1    2    0    0 -0.12641971063E+02 -0.22672940578E+02  0.18515898414E+02  0.31886049628E+02  0.00000000000E+00 0. -1.
         11    1    3    3    0    0 -0.13521072886E+01 -0.96177983986E+01  0.19653034298E+01  0.99092208568E+01  0.51100000000E-03 0. -1.
        -11    1    3    3    0    0  0.16859073661E+02  0.88897222973E+01 -0.17042347031E+02  0.25567501243E+02  0.51100000000E-03 0.  1.
        -12    1    3    3    0    0 -0.28649953094E+01  0.23401016680E+02 -0.34388548125E+01  0.23825228271E+02  0.00000000000E+00 0.  1.
</event>
<event>
 7    1  0.7819001E-012  0.5930201E+02  0.7816164E-02  0.1266605E+00
        -11   -1    0    0    0    0  0.00000000000E+00  0.00000000000E+00  0.45593999997E+02  0.45594000000E+02  0.51100000000E-03 0.  1.
         11   -1    0    0    0    0 -0.00000000000E+00 -0.00000000000E+00 -0.45593999997E+02  0.45594000000E+02  0.51100000000E-03 0. -1.
    9900012    2    1    2    0    0  0.15862347642E+02  0.11120434100E+02  0.25326627810E+02  0.59302012427E+02  0.50000124744E+02 0.  0.
         12    1    1    2    0    0 -0.15862347642E+02 -0.11120434100E+02 -0.25326627810E+02  0.31885987573E+02  0.00000000000E+00 0. -1.
         11    1    3    3    0    0  0.17813731944E+02  0.22715784686E+02  0.15406970042E+02  0.32721715203E+02  0.51100000000E-03 0. -1.
        -11    1    3    3    0    0 -0.10277748263E+02  0.58112926656E-01  0.32372988650E+01  0.10775694441E+02  0.51100000000E-03 0.  1.
         12    1    3    3    0    0  0.83263639612E+01 -0.11653463513E+02  0.66823589023E+01  0.15804602784E+02  0.00000000000E+00 0. -1.
</event>
<event>
 7    1  0.7819001E-012  0.5930196E+02  0.7816164E-02  0.1266605E+00
        -11   -1    0    0    0    0  0.00000000000E+00  0.00000000000E+00  0.45593999997E+02  0.45594000000E+02  0.51100000000E-03 0. -1.
         11   -1    0    0    0    0 -0.00000000000E+00 -0.00000000000E+00 -0.45593999997E+02  0.45594000000E+02  0.51100000000E-03 0.  1.
    9900012    2    1    2    0    0 -0.14101604669E+02 -0.18634630448E+00 -0.28597719972E+02  0.59301959688E+02  0.50000028560E+02 0.  0.
         12    1    1    2    0    0  0.14101604669E+02  0.18634630448E+00  0.28597719972E+02  0.31886040312E+02  0.00000000000E+00 0. -1.
         11    1    3    3    0    0 -0.23986888711E+02 -0.32982147831E+01 -0.23204796677E+02  0.33536720767E+02  0.51100000000E-03 0.  1.
        -11    1    3    3    0    0  0.36413423310E+01  0.12998628043E+02 -0.30567328810E+01  0.13840784701E+02  0.51100000000E-03 0. -1.
         12    1    3    3    0    0  0.62439417103E+01 -0.98867595646E+01 -0.23361904145E+01  0.11924454219E+02  0.00000000000E+00 0. -1.
</event>
<event>
 7    1  0.7819001E-012  0.5930194E+02  0.7816164E-02  0.1266605E+00
        -11   -1    0    0    0    0  0.00000000000E+00  0.00000000000E+00  0.45593999997E+02  0.45594000000E+02  0.51100000000E-03 0.  1.
         11   -1    0    0    0    0 -0.00000000000E+00 -0.00000000000E+00 -0.45593999997E+02  0.45594000000E+02  0.51100000000E-03 0. -1.
    9900012    2    1    2    0    0  0.21442333953E+01 -0.14453220269E+02  0.28341272151E+02  0.59301936898E+02  0.49999986998E+02 0.  0.
         12    1    1    2    0    0 -0.21442333953E+01  0.14453220269E+02 -0.28341272151E+02  0.31886063102E+02  0.00000000000E+00 0. -1.
         11    1    3    3    0    0  0.14713709508E+02 -0.85182263817E+01 -0.75197626959E+01  0.18590327039E+02  0.51100000000E-03 0. -1.
        -11    1    3    3    0    0 -0.47921859903E+01  0.42283866872E+01  0.10208813043E+02  0.12044258572E+02  0.51100000000E-03 0.  1.
         12    1    3    3    0    0 -0.77772901221E+01 -0.10163380575E+02  0.25652221804E+02  0.28667351287E+02  0.00000000000E+00 0. -1.
</event>
<event>
 7    1  0.7819001E-012  0.5930196E+02  0.7816164E-02  0.1266605E+00
        -11   -1    0    0    0    0  0.00000000000E+00  0.00000000000E+00  0.45593999997E+02  0.45594000000E+02  0.51100000000E-03 0.  1.
         11   -1    0    0    0    0 -0.00000000000E+00 -0.00000000000E+00 -0.45593999997E+02  0.45594000000E+02  0.51100000000E-03 0. -1.
    9900012    2    1    2    0    0 -0.10045544467E+02  0.23251483545E+02  0.19369437963E+02  0.59301959517E+02  0.50000028249E+02 0.  0.
         12    1    1    2    0    0  0.10045544467E+02 -0.23251483545E+02 -0.19369437963E+02  0.31886040483E+02  0.00000000000E+00 0. -1.
         11    1    3    3    0    0  0.76496966383E+01  0.25019030963E+02  0.31407251038E+01  0.26350216763E+02  0.51100000000E-03 0. -1.
        -11    1    3    3    0    0 -0.19900701753E+02  0.86347710502E-01  0.38853934436E+01  0.20276628632E+02  0.51100000000E-03 0.  1.
        -12    1    3    3    0    0  0.22054606481E+01 -0.18538951292E+01  0.12343319416E+02  0.12675114122E+02  0.00000000000E+00 0.  1.
</event>
<event>
 7    1  0.7819001E-012  0.5930193E+02  0.7816164E-02  0.1266605E+00
        -11   -1    0    0    0    0  0.00000000000E+00  0.00000000000E+00  0.45593999997E+02  0.45594000000E+02  0.51100000000E-03 0.  1.
         11   -1    0    0    0    0 -0.00000000000E+00 -0.00000000000E+00 -0.45593999997E+02  0.45594000000E+02  0.51100000000E-03 0. -1.
    9900012    2    1    2    0    0  0.96245769093E+01 -0.28495625302E+02  0.10587187823E+02  0.59301926425E+02  0.49999967897E+02 0.  0.
         12    1    1    2    0    0 -0.96245769093E+01  0.28495625302E+02 -0.10587187823E+02  0.31886073575E+02  0.00000000000E+00 0. -1.
         11    1    3    3    0    0 -0.68591580202E+01  0.10106275126E+02  0.26600247670E+01  0.12500423100E+02  0.51100000000E-03 0. -1.
        -11    1    3    3    0    0  0.46321466682E+01 -0.22187911746E+02  0.12726853428E+02  0.25994865047E+02  0.51100000000E-03 0.  1.
         12    1    3    3    0    0  0.11851588261E+02 -0.16413988681E+02 -0.47996903714E+01  0.20806638278E+02  0.00000000000E+00 0. -1.
</event>
<event>
 7    1  0.7819001E-012  0.5930195E+02  0.7816164E-02  0.1266605E+00
        -11   -1    0    0    0    0  0.00000000000E+00  0.00000000000E+00  0.45593999997E+02  0.45594000000E+02  0.51100000000E-03 0.  1.
         11   -1    0    0    0    0 -0.00000000000E+00 -0.00000000000E+00 -0.45593999997E+02  0.45594000000E+02  0.51100000000E-03 0. -1.
    9900012    2    1    2    0    0  0.11809977523E+02  0.23891178054E+02  0.17505886676E+02  0.59301952483E+02  0.50000015421E+02 0.  0.
         12    1    1    2    0    0 -0.11809977523E+02 -0.23891178054E+02 -0.17505886676E+02  0.31886047517E+02  0.00000000000E+00 0. -1.
         11    1    3    3    0    0 -0.97241142559E+01 -0.45701197794E+01 -0.70306142010E+01  0.12840324340E+02  0.51100000000E-03 0. -1.
        -11    1    3    3    0    0  0.10276629785E+02  0.25514432139E+02  0.19830261759E+02  0.33909211857E+02  0.51100000000E-03 0.  1.
        -12    1    3    3    0    0  0.11257461994E+02  0.29468656945E+01  0.47062391188E+01  0.12552416286E+02  0.00000000000E+00 0.  1.
</event>
<event>
 7    1  0.7819001E-012  0.5930194E+02  0.7816164E-02  0.1266605E+00
        -11   -1    0    0    0    0  0.00000000000E+00  0.00000000000E+00  0.45593999997E+02  0.45594000000E+02  0.51100000000E-03 0.  1.
         11   -1    0    0    0    0 -0.00000000000E+00 -0.00000000000E+00 -0.45593999997E+02  0.45594000000E+02  0.51100000000E-03 0. -1.
    9900012    2    1    2    0    0 -0.31400066399E+02  0.40864281586E+01 -0.37493658012E+01  0.59301940211E+02  0.49999993039E+02 0.  0.
         12    1    1    2    0    0  0.31400066399E+02 -0.40864281586E+01  0.37493658012E+01  0.31886059789E+02  0.00000000000E+00 0. -1.
         11    1    3    3    0    0 -0.17711874709E+02  0.22538754550E+02 -0.25161196930E+01  0.28775628941E+02  0.51100000000E-03 0.  1.
        -11    1    3    3    0    0 -0.10876330045E+02 -0.18288187879E+02 -0.83613738376E+01  0.22861866587E+02  0.51100000000E-03 0. -1.
        -12    1    3    3    0    0 -0.28118616444E+01 -0.16413851302E+00  0.71281277294E+01  0.76644446821E+01  0.00000000000E+00 0.  1.
</event>
<event>
 7    1  0.7819001E-012  0.5930196E+02  0.7816164E-02  0.1266605E+00
        -11   -1    0    0    0    0  0.00000000000E+00  0.00000000000E+00  0.45593999997E+02  0.45594000000E+02  0.51100000000E-03 0.  1.
         11   -1    0    0    0    0 -0.00000000000E+00 -0.00000000000E+00 -0.45593999997E+02  0.45594000000E+02  0.51100000000E-03 0. -1.
    9900012    2    1    2    0    0  0.23191224315E+02  0.58396191186E+01  0.21089931537E+02  0.59301964673E+02  0.50000037651E+02 0.  0.
         12    1    1    2    0    0 -0.23191224315E+02 -0.58396191186E+01 -0.21089931537E+02  0.31886035327E+02  0.00000000000E+00 0. -1.
         11    1    3    3    0    0  0.30873592246E+02  0.53279431288E+00  0.74910973722E+01  0.31773874615E+02  0.51100000000E-03 0. -1.
        -11    1    3    3    0    0  0.13340023621E+01  0.36468618571E+01  0.17233798571E+02  0.17665870404E+02  0.51100000000E-03 0.  1.
         12    1    3    3    0    0 -0.90163702934E+01  0.16599629486E+01 -0.36349644058E+01  0.98622196533E+01  0.00000000000E+00 0. -1.
</event>
<event>
 7    1  0.7819001E-012  0.5930191E+02  0.7816164E-02  0.1266605E+00
        -11   -1    0    0    0    0  0.00000000000E+00  0.00000000000E+00  0.45593999997E+02  0.45594000000E+02  0.51100000000E-03 0. -1.
         11   -1    0    0    0    0 -0.00000000000E+00 -0.00000000000E+00 -0.45593999997E+02  0.45594000000E+02  0.51100000000E-03 0.  1.
    9900012    2    1    2    0    0 -0.18640098025E+02  0.25900628764E+01 -0.25740265978E+02  0.59301906281E+02  0.49999931158E+02 0.  0.
         12    1    1    2    0    0  0.18640098025E+02 -0.25900628764E+01  0.25740265978E+02  0.31886093719E+02  0.00000000000E+00 0. -1.
         11    1    3    3    0    0  0.14000623929E+02  0.11009215622E+02 -0.79173395735E+01  0.19491140685E+02  0.51100000000E-03 0. -1.
        -11    1    3    3    0    0 -0.91061331204E+01  0.25817870298E+01 -0.64364482715E+01  0.11446185010E+02  0.51100000000E-03 0.  1.
         12    1    3    3    0    0 -0.23534588834E+02 -0.11000939775E+02 -0.11386478133E+02  0.28364580585E+02  0.00000000000E+00 0. -1.
</event>
<event>
 7    1  0.7819001E-012  0.5930195E+02  0.7816164E-02  0.1266605E+00
        -11   -1    0    0    0    0  0.00000000000E+00  0.00000000000E+00  0.45593999997E+02  0.45594000000E+02  0.51100000000E-03 0.  1.
         11   -1    0    0    0    0 -0.00000000000E+00 -0.00000000000E+00 -0.45593999997E+02  0.45594000000E+02  0.51100000000E-03 0. -1.
    9900012    2    1    2    0    0  0.51346980089E+01 -0.12705909462E+02  0.28790887077E+02  0.59301946033E+02  0.50000003657E+02 0.  0.
         12    1    1    2    0    0 -0.51346980089E+01  0.12705909462E+02 -0.28790887077E+02  0.31886053967E+02  0.00000000000E+00 0. -1.
         11    1    3    3    0    0 -0.72733282520E+01  0.23961291610E+01 -0.52428468395E+01  0.92806347876E+01  0.51100000000E-03 0. -1.
        -11    1    3    3    0    0  0.17477958613E+02 -0.19762588298E+02  0.16335421720E+02  0.31030387309E+02  0.51100000000E-03 0.  1.
         12    1    3    3    0    0 -0.50699323523E+01  0.46605496749E+01  0.17698312196E+02  0.18990923936E+02  0.00000000000E+00 0. -1.
</event>
<event>
 7    1  0.7819001E-012  0.5930195E+02  0.7816164E-02  0.1266605E+00
        -11   -1    0    0    0    0  0.00000000000E+00  0.00000000000E+00  0.45593999997E+02  0.45594000000E+02  0.51100000000E-03 0. -1.
         11   -1    0    0    0    0 -0.00000000000E+00 -0.00000000000E+00 -0.45593999997E+02  0.45594000000E+02  0.51100000000E-03 0.  1.
    9900012    2    1    2    0    0  0.31632417164E+00  0.12724453000E+02 -0.29235394296E+02  0.59301952192E+02  0.50000014890E+02 0.  0.
         12    1    1    2    0    0 -0.31632417164E+00 -0.12724453000E+02  0.29235394296E+02  0.31886047808E+02  0.00000000000E+00 0. -1.
         11    1    3    3    0    0 -0.89812804229E+01  0.29493334290E+02 -0.12916618401E+02  0.33426923232E+02  0.51100000000E-03 0. -1.
        -11    1    3    3    0    0  0.22925038681E+01 -0.87434532424E+01 -0.49917994449E+01  0.10325774089E+02  0.51100000000E-03 0.  1.
         12    1    3    3    0    0  0.70051007264E+01 -0.80254280476E+01 -0.11326976450E+02  0.15549254871E+02  0.00000000000E+00 0. -1.
</event>
<event>
 7    1  0.7819001E-012  0.5930195E+02  0.7816164E-02  0.1266605E+00
        -11   -1    0    0    0    0  0.00000000000E+00  0.00000000000E+00  0.45593999997E+02  0.45594000000E+02  0.51100000000E-03 0.  1.
         11   -1    0    0    0    0 -0.00000000000E+00 -0.00000000000E+00 -0.45593999997E+02  0.45594000000E+02  0.51100000000E-03 0. -1.
    9900012    2    1    2    0    0  0.14260479769E+02 -0.15727682686E+02  0.23790730125E+02  0.59301950922E+02  0.50000012573E+02 0.  0.
         12    1    1    2    0    0 -0.14260479769E+02  0.15727682686E+02 -0.23790730125E+02  0.31886049078E+02  0.00000000000E+00 0. -1.
         11    1    3    3    0    0  0.55932331018E+01  0.32461173776E+00  0.22700132541E+01  0.60450467117E+01  0.51100000000E-03 0. -1.
        -11    1    3    3    0    0  0.82558759163E+01 -0.16809709368E+02  0.35029088223E+02  0.39721062903E+02  0.51100000000E-03 0.  1.
        -12    1    3    3    0    0  0.41137075108E+00  0.75741494344E+00 -0.13508371352E+02  0.13535841307E+02  0.00000000000E+00 0.  1.
</event>
<event>
 7    1  0.7819001E-012  0.5930194E+02  0.7816164E-02  0.1266605E+00
        -11   -1    0    0    0    0  0.00000000000E+00  0.00000000000E+00  0.45593999997E+02  0.45594000000E+02  0.51100000000E-03 0. -1.
         11   -1    0    0    0    0 -0.00000000000E+00 -0.00000000000E+00 -0.45593999997E+02  0.45594000000E+02  0.51100000000E-03 0.  1.
    9900012    2    1    2    0    0 -0.38954640724E+01  0.22447074106E+02 -0.22308626469E+02  0.59301943625E+02  0.49999999265E+02 0.  0.
         12    1    1    2    0    0  0.38954640724E+01 -0.22447074106E+02  0.22308626469E+02  0.31886056375E+02  0.00000000000E+00 0. -1.
         11    1    3    3    0    0  0.90701597682E+01 -0.37284478733E+01 -0.87977376358E+01  0.13174570564E+02  0.51100000000E-03 0. -1.
        -11    1    3    3    0    0 -0.10129292764E+01  0.30987933070E+02 -0.74449303534E+01  0.31885812047E+02  0.51100000000E-03 0.  1.
        -12    1    3    3    0    0 -0.11952694564E+02 -0.48124110906E+01 -0.60659584797E+01  0.14241561014E+02  0.00000000000E+00 0.  1.
</event>
<event>
 7    1  0.7819001E-012  0.5930195E+02  0.7816164E-02  0.1266605E+00
        -11   -1    0    0    0    0  0.00000000000E+00  0.00000000000E+00  0.45593999997E+02  0.45594000000E+02  0.51100000000E-03 0. -1.
         11   -1    0    0    0    0 -0.00000000000E+00 -0.00000000000E+00 -0.45593999997E+02  0.45594000000E+02  0.51100000000E-03 0.  1.
    9900012    2    1    2    0    0 -0.19234105832E+02  0.12514515409E+02 -0.22139467484E+02  0.59301953780E+02  0.50000017785E+02 0.  0.
         12    1    1    2    0    0  0.19234105832E+02 -0.12514515409E+02  0.22139467484E+02  0.31886046220E+02  0.00000000000E+00 0. -1.
         11    1    3    3    0    0  0.13531310561E+02  0.98550802025E+01 -0.84398979329E+01  0.18747022395E+02  0.51100000000E-03 0. -1.
        -11    1    3    3    0    0 -0.23759490232E+02 -0.67578285244E+00  0.67440920891E-01  0.23769194498E+02  0.51100000000E-03 0.  1.
        -12    1    3    3    0    0 -0.90059261609E+01  0.33352180588E+01 -0.13767010472E+02  0.16785736887E+02  0.00000000000E+00 0.  1.
</event>
<event>
 7    1  0.7819001E-012  0.5930194E+02  0.7816164E-02  0.1266605E+00
        -11   -1    0    0    0    0  0.00000000000E+00  0.00000000000E+00  0.45593999997E+02  0.45594000000E+02  0.51100000000E-03 0. -1.
         11   -1    0    0    0    0 -0.00000000000E+00 -0.00000000000E+00 -0.45593999997E+02  0.45594000000E+02  0.51100000000E-03 0.  1.
    9900012    2    1    2    0    0 -0.32868259044E+01 -0.28079090782E+02 -0.14747269486E+02  0.59301944726E+02  0.50000001273E+02 0.  0.
         12    1    1    2    0    0  0.32868259044E+01  0.28079090782E+02  0.14747269486E+02  0.31886055274E+02  0.00000000000E+00 0. -1.
         11    1    3    3    0    0  0.10569489767E+02  0.23539970793E+01 -0.19030798176E+02  0.21895814569E+02  0.51100000000E-03 0. -1.
        -11    1    3    3    0    0 -0.62101729000E+01 -0.82944871932E+01 -0.58354757305E+01  0.11891910801E+02  0.51100000000E-03 0.  1.
         12    1    3    3    0    0 -0.76461427713E+01 -0.22138600668E+02  0.10119004421E+02  0.25514219355E+02  0.00000000000E+00 0. -1.
</event>
<event>
 7    1  0.7819001E-012  0.5930200E+02  0.7816164E-02  0.1266605E+00
        -11   -1    0    0    0    0  0.00000000000E+00  0.00000000000E+00  0.45593999997E+02  0.45594000000E+02  0.51100000000E-03 0.  1.
         11   -1    0    0    0    0 -0.00000000000E+00 -0.00000000000E+00 -0.45593999997E+02  0.45594000000E+02  0.51100000000E-03 0. -1.
    9900012    2    1    2    0    0  0.19482462174E+02  0.10075726753E+02  0.23143692961E+02  0.59301997964E+02  0.50000098366E+02 0.  0.
         12    1    1    2    0    0 -0.19482462174E+02 -0.10075726753E+02 -0.23143692961E+02  0.31886002036E+02  0.00000000000E+00 0. -1.
         11    1    3    3    0    0  0.17027872294E+01  0.13225141045E+02 -0.11017218428E+02  0.17296905566E+02  0.51100000000E-03 0. -1.
        -11    1    3    3    0    0  0.20044108136E+02 -0.18406577315E+00  0.24540674995E+02  0.31686667238E+02  0.51100000000E-03 0.  1.
         12    1    3    3    0    0 -0.22644331907E+01 -0.29653485183E+01  0.96202363943E+01  0.10318425160E+02  0.00000000000E+00 0. -1.
</event>
<event>
 7    1  0.7819001E-012  0.5930196E+02  0.7816164E-02  0.1266605E+00
        -11   -1    0    0    0    0  0.00000000000E+00  0.00000000000E+00  0.45593999997E+02  0.45594000000E+02  0.51100000000E-03 0.  1.
         11   -1    0    0    0    0 -0.00000000000E+00 -0.00000000000E+00 -0.45593999997E+02  0.45594000000E+02  0.51100000000E-03 0. -1.
    9900012    2    1    2    0    0 -0.16908725098E+02 -0.57385245123E+01  0.26417497468E+02  0.59301955710E+02  0.50000021306E+02 0.  0.
         12    1    1    2    0    0  0.16908725098E+02  0.57385245123E+01 -0.26417497468E+02  0.31886044290E+02  0.00000000000E+00 0. -1.
         11    1    3    3    0    0 -0.34290358478E+02 -0.76865530230E+01  0.19650195538E+02  0.40262165452E+02  0.51100000000E-03 0. -1.
        -11    1    3    3    0    0  0.35691236223E+01  0.13999617007E+01  0.24830744652E+01  0.45677341490E+01  0.51100000000E-03 0.  1.
         12    1    3    3    0    0  0.13812509758E+02  0.54806680994E+00  0.42842274646E+01  0.14472056109E+02  0.00000000000E+00 0. -1.
</event>
<event>
 7    1  0.7819001E-012  0.5930195E+02  0.7816164E-02  0.1266605E+00
        -11   -1    0    0    0    0  0.00000000000E+00  0.00000000000E+00  0.45593999997E+02  0.45594000000E+02  0.51100000000E-03 0. -1.
         11   -1    0    0    0    0 -0.00000000000E+00 -0.00000000000E+00 -0.45593999997E+02  0.45594000000E+02  0.51100000000E-03 0.  1.
    9900012    2    1    2    0    0  0.23140403786E+02  0.21077915398E+02 -0.60797630970E+01  0.59301947811E+02  0.50000006900E+02 0.  0.
         12    1    1    2    0    0 -0.23140403786E+02 -0.21077915398E+02  0.60797630970E+01  0.31886052189E+02  0.00000000000E+00 0. -1.
         11    1    3    3    0    0  0.18387058619E+02  0.95033102382E+01 -0.19685726695E+02  0.28564395073E+02  0.51100000000E-03 0. -1.
        -11    1    3    3    0    0  0.20438601472E+01 -0.59743856877E+01  0.11147002048E+02  0.12811178851E+02  0.51100000000E-03 0.  1.
         12    1    3    3    0    0  0.27094850198E+01  0.17548990847E+02  0.24589615501E+01  0.17926373887E+02  0.00000000000E+00 0. -1.
</event>
<event>
 7    1  0.7819001E-012  0.5930194E+02  0.7816164E-02  0.1266605E+00
        -11   -1    0    0    0    0  0.00000000000E+00  0.00000000000E+00  0.45593999997E+02  0.45594000000E+02  0.51100000000E-03 0. -1.
         11   -1    0    0    0    0 -0.00000000000E+00 -0.00000000000E+00 -0.45593999997E+02  0.45594000000E+02  0.51100000000E-03 0.  1.
    9900012    2    1    2    0    0  0.28026675662E+02 -0.14655475756E+02 -0.40550205546E+01  0.59301941761E+02  0.49999995866E+02 0.  0.
         12    1    1    2    0    0 -0.28026675662E+02  0.14655475756E+02  0.40550205546E+01  0.31886058239E+02  0.00000000000E+00 0. -1.
         11    1    3    3    0    0  0.84055576335E+01  0.17447864820E+01  0.47520782323E+01  0.98122335268E+01  0.51100000000E-03 0. -1.
        -11    1    3    3    0    0  0.17163482075E+02 -0.24879988396E+02 -0.19234404345E+02  0.35826823056E+02  0.51100000000E-03 0.  1.
        -12    1    3    3    0    0  0.24576359543E+01  0.84797261581E+01  0.10427305558E+02  0.13662885179E+02  0.00000000000E+00 0.  1.
</event>
<event>
 7    1  0.7819001E-012  0.5930194E+02  0.7816164E-02  0.1266605E+00
        -11   -1    0    0    0    0  0.00000000000E+00  0.00000000000E+00  0.45593999997E+02  0.45594000000E+02  0.51100000000E-03 0.  1.
         11   -1    0    0    0    0 -0.00000000000E+00 -0.00000000000E+00 -0.45593999997E+02  0.45594000000E+02  0.51100000000E-03 0. -1.
    9900012    2    1    2    0    0  0.15353154328E+02  0.18740816664E+02  0.20731216379E+02  0.59301938945E+02  0.49999990730E+02 0.  0.
         12    1    1    2    0    0 -0.15353154328E+02 -0.18740816664E+02 -0.20731216379E+02  0.31886061055E+02  0.00000000000E+00 0. -1.
         11    1    3    3    0    0  0.22082085038E+01  0.11454963819E+02 -0.93316656953E+01  0.14938954642E+02  0.51100000000E-03 0. -1.
        -11    1    3    3    0    0  0.57264803760E+00 -0.97725642310E+01  0.16555809609E+02  0.19233454435E+02  0.51100000000E-03 0.  1.
         12    1    3    3    0    0  0.12572297787E+02  0.17058417076E+02  0.13507072465E+02  0.25129529867E+02  0.00000000000E+00 0. -1.
</event>
<event>
 7    1  0.7819001E-012  0.5930193E+02  0.7816164E-02  0.1266605E+00
        -11   -1    0    0    0    0  0.00000000000E+00  0.00000000000E+00  0.45593999997E+02  0.45594000000E+02  0.51100000000E-03 0.  1.
         11   -1    0    0    0    0 -0.00000000000E+00 -0.00000000000E+00 -0.45593999997E+02  0.45594000000E+02  0.51100000000E-03 0. -1.
    9900012    2    1    2    0    0 -0.48857561681E+01  0.23359550605E+02  0.21146686632E+02  0.59301928224E+02  0.49999971177E+02 0.  0.
         12    1    1    2    0    0  0.48857561681E+01 -0.23359550605E+02 -0.21146686632E+02  0.31886071776E+02  0.00000000000E+00 0. -1.
         11    1    3    3    0    0 -0.12721544771E+02  0.26512483570E+01 -0.11213524984E+02  0.17164205837E+02  0.51100000000E-03 0. -1.
        -11    1    3    3    0    0  0.21540896008E+01  0.11650241721E+02  0.28335737522E+02  0.30712900471E+02  0.51100000000E-03 0.  1.
         12    1    3    3    0    0  0.56816990019E+01  0.90580605273E+01  0.40244740939E+01  0.11424821915E+02  0.00000000000E+00 0. -1.
</event>
<event>
 7    1  0.7819001E-012  0.5930193E+02  0.7816164E-02  0.1266605E+00
        -11   -1    0    0    0    0  0.00000000000E+00  0.00000000000E+00  0.45593999997E+02  0.45594000000E+02  0.51100000000E-03 0.  1.
         11   -1    0    0    0    0 -0.00000000000E+00 -0.00000000000E+00 -0.45593999997E+02  0.45594000000E+02  0.51100000000E-03 0. -1.
    9900012    2    1    2    0    0 -0.60793006240E+00 -0.23640777254E+02 -0.21388439014E+02  0.59301933269E+02  0.49999980378E+02 0.  0.
         12    1    1    2    0    0  0.60793006240E+00  0.23640777254E+02  0.21388439014E+02  0.31886066731E+02  0.00000000000E+00 0. -1.
         11    1    3    3    0    0 -0.76747300050E+01 -0.49437612430E+00  0.34316630370E+01  0.84215319190E+01  0.51100000000E-03 0. -1.
        -11    1    3    3    0    0  0.21015538064E+02 -0.21956474461E+02 -0.16219453262E+02  0.34450112848E+02  0.51100000000E-03 0.  1.
        -12    1    3    3    0    0 -0.13948738121E+02 -0.11899266685E+01 -0.86006487892E+01  0.16430288502E+02  0.00000000000E+00 0.  1.
</event>
<event>
 7    1  0.7819001E-012  0.5930196E+02  0.7816164E-02  0.1266605E+00
        -11   -1    0    0    0    0  0.00000000000E+00  0.00000000000E+00  0.45593999997E+02  0.45594000000E+02  0.51100000000E-03 0.  1.
         11   -1    0    0    0    0 -0.00000000000E+00 -0.00000000000E+00 -0.45593999997E+02  0.45594000000E+02  0.51100000000E-03 0. -1.
    9900012    2    1    2    0    0  0.66015673150E+01 -0.25353885511E+02  0.18174686105E+02  0.59301962044E+02  0.50000032857E+02 0.  0.
         12    1    1    2    0    0 -0.66015673150E+01  0.25353885511E+02 -0.18174686105E+02  0.31886037956E+02  0.00000000000E+00 0. -1.
         11    1    3    3    0    0 -0.82112358786E+01  0.95496601962E+01 -0.28597203326E+01  0.12915045689E+02  0.51100000000E-03 0. -1.
        -11    1    3    3    0    0 -0.44249037245E+00 -0.15374451811E+02  0.28330005405E+01  0.15639547901E+02  0.51100000000E-03 0.  1.
         12    1    3    3    0    0  0.15255293566E+02 -0.19529093896E+02  0.18201405897E+02  0.30747368453E+02  0.00000000000E+00 0. -1.
</event>
<event>
 7    1  0.7819001E-012  0.5930196E+02  0.7816164E-02  0.1266605E+00
        -11   -1    0    0    0    0  0.00000000000E+00  0.00000000000E+00  0.45593999997E+02  0.45594000000E+02  0.51100000000E-03 0.  1.
         11   -1    0    0    0    0 -0.00000000000E+00 -0.00000000000E+00 -0.45593999997E+02  0.45594000000E+02  0.51100000000E-03 0. -1.
    9900012    2    1    2    0    0 -0.10355821178E+01  0.22116162477E+01  0.31792385911E+02  0.59301961070E+02  0.50000031081E+02 0.  0.
         12    1    1    2    0    0  0.10355821178E+01 -0.22116162477E+01 -0.31792385911E+02  0.31886038930E+02  0.00000000000E+00 0. -1.
         11    1    3    3    0    0 -0.69686550391E+01 -0.15344621039E+02  0.12692326013E+02  0.21097741295E+02  0.51100000000E-03 0. -1.
        -11    1    3    3    0    0  0.33121938789E+00  0.17097217248E+02  0.24848807766E+02  0.30164346364E+02  0.51100000000E-03 0.  1.
         12    1    3    3    0    0  0.56018535335E+01  0.45902003856E+00 -0.57487478688E+01  0.80398734110E+01  0.00000000000E+00 0. -1.
</event>
<event>
 7    1  0.7819001E-012  0.5930192E+02  0.7816164E-02  0.1266605E+00
        -11   -1    0    0    0    0  0.00000000000E+00  0.00000000000E+00  0.45593999997E+02  0.45594000000E+02  0.51100000000E-03 0.  1.
         11   -1    0    0    0    0 -0.00000000000E+00 -0.00000000000E+00 -0.45593999997E+02  0.45594000000E+02  0.51100000000E-03 0. -1.
    9900012    2    1    2    0    0 -0.10862744821E+02  0.16488545922E+01  0.29933323133E+02  0.59301924978E+02  0.49999965257E+02 0.  0.
         12    1    1    2    0    0  0.10862744821E+02 -0.16488545922E+01 -0.29933323133E+02  0.31886075022E+02  0.00000000000E+00 0. -1.
         11    1    3    3    0    0  0.80267779433E+00  0.24490026461E+01 -0.21163962576E+01  0.33348221815E+01  0.51100000000E-03 0. -1.
        -11    1    3    3    0    0 -0.12727389293E+02  0.19572811119E+01  0.42863973675E+02  0.44756425539E+02  0.51100000000E-03 0.  1.
        -12    1    3    3    0    0  0.10619666777E+01 -0.27574291659E+01 -0.10814254284E+02  0.11210677257E+02  0.00000000000E+00 0.  1.
</event>
<event>
 7    1  0.7819001E-012  0.5930194E+02  0.7816164E-02  0.1266605E+00
        -11   -1    0    0    0    0  0.00000000000E+00  0.00000000000E+00  0.45593999997E+02  0.45594000000E+02  0.51100000000E-03 0. -1.
         11   -1    0    0    0    0 -0.00000000000E+00 -0.00000000000E+00 -0.45593999997E+02  0.45594000000E+02  0.51100000000E-03 0.  1.
    9900012    2    1    2    0    0 -0.43293498177E+00  0.16748957557E+02 -0.27129421553E+02  0.59301944651E+02  0.50000001136E+02 0.  0.
         12    1    1    2    0    0  0.43293498177E+00 -0.16748957557E+02  0.27129421553E+02  0.31886055349E+02  0.00000000000E+00 0. -1.
         11    1    3    3    0    0  0.15443663729E+02 -0.27709452513E+01 -0.23861694423E+02  0.28558104769E+02  0.51100000000E-03 0. -1.
        -11    1    3    3    0    0 -0.57940333258E+01  0.90539766678E+00 -0.71224203568E+01  0.92260196789E+01  0.51100000000E-03 0.  1.
         12    1    3    3    0    0 -0.10082565385E+02  0.18614505142E+02  0.38546932277E+01  0.21517820203E+02  0.00000000000E+00 0. -1.
</event>
<event>
 7    1  0.7819001E-012  0.5930196E+02  0.7816164E-02  0.1266605E+00
        -11   -1    0    0    0    0  0.00000000000E+00  0.00000000000E+00  0.45593999997E+02  0.45594000000E+02  0.51100000000E-03 0. -1.
         11   -1    0    0    0    0 -0.00000000000E+00 -0.00000000000E+00 -0.45593999997E+02  0.45594000000E+02  0.51100000000E-03 0.  1.
    9900012    2    1    2    0    0 -0.19356430832E+02  0.14294080643E+02 -0.20921930341E+02  0.59301963476E+02  0.50000035470E+02 0.  0.
         12    1    1    2    0    0  0.19356430832E+02 -0.14294080643E+02  0.20921930341E+02  0.31886036524E+02  0.00000000000E+00 0. -1.
         11    1    3    3    0    0  0.56265560634E+01  0.16689152053E+02 -0.17397279904E+02  0.24755833205E+02  0.51100000000E-03 0. -1.
        -11    1    3    3    0    0 -0.27203232401E+02 -0.79799026608E+01 -0.26550575883E+01  0.28473567226E+02  0.51100000000E-03 0.  1.
        -12    1    3    3    0    0  0.22202455056E+01  0.55848312510E+01 -0.86959284940E+00  0.60725630446E+01  0.00000000000E+00 0.  1.
</event>
<event>
 7    1  0.7819001E-012  0.5930198E+02  0.7816164E-02  0.1266605E+00
        -11   -1    0    0    0    0  0.00000000000E+00  0.00000000000E+00  0.45593999997E+02  0.45594000000E+02  0.51100000000E-03 0. -1.
         11   -1    0    0    0    0 -0.00000000000E+00 -0.00000000000E+00 -0.45593999997E+02  0.45594000000E+02  0.51100000000E-03 0.  1.
    9900012    2    1    2    0    0  0.24529462993E+02 -0.20281165275E+02  0.19230513457E+01  0.59301978829E+02  0.50000063470E+02 0.  0.
         12    1    1    2    0    0 -0.24529462993E+02  0.20281165275E+02 -0.19230513457E+01  0.31886021171E+02  0.00000000000E+00 0. -1.
         11    1    3    3    0    0 -0.46031719644E+01  0.65399155668E+01  0.23689325449E+01  0.83409549464E+01  0.51100000000E-03 0. -1.
        -11    1    3    3    0    0  0.34295509579E+02 -0.16415892872E+02  0.45953818671E+01  0.38298577661E+02  0.51100000000E-03 0.  1.
         12    1    3    3    0    0 -0.51628746214E+01 -0.10405187969E+02 -0.50412630664E+01  0.12662446222E+02  0.00000000000E+00 0. -1.
</event>
<event>
 7    1  0.7819001E-012  0.5930214E+02  0.7816164E-02  0.1266604E+00
        -11   -1    0    0    0    0  0.00000000000E+00  0.00000000000E+00  0.45593999997E+02  0.45594000000E+02  0.51100000000E-03 0. -1.
         11   -1    0    0    0    0 -0.00000000000E+00 -0.00000000000E+00 -0.45593999997E+02  0.45594000000E+02  0.51100000000E-03 0.  1.
    9900012    2    1    2    0    0  0.65248517287E+01 -0.25706626423E+02 -0.17700387772E+02  0.59302140134E+02  0.50000357649E+02 0.  0.
         12    1    1    2    0    0 -0.65248517287E+01  0.25706626423E+02  0.17700387772E+02  0.31885859866E+02  0.00000000000E+00 0. -1.
         11    1    3    3    0    0  0.61893109446E+01 -0.80215029027E+01  0.97717998924E+01  0.14076226490E+02  0.51100000000E-03 0. -1.
        -11    1    3    3    0    0  0.12312852056E+02 -0.17544551415E+02 -0.25115277452E+02  0.33018097641E+02  0.51100000000E-03 0.  1.
         12    1    3    3    0    0 -0.11977311271E+02 -0.14057210516E+00 -0.23569102120E+01  0.12207816003E+02  0.00000000000E+00 0. -1.
</event>
<event>
 7    1  0.7819001E-012  0.5930212E+02  0.7816164E-02  0.1266604E+00
        -11   -1    0    0    0    0  0.00000000000E+00  0.00000000000E+00  0.45593999997E+02  0.45594000000E+02  0.51100000000E-03 0. -1.
         11   -1    0    0    0    0 -0.00000000000E+00 -0.00000000000E+00 -0.45593999997E+02  0.45594000000E+02  0.51100000000E-03 0.  1.
    9900012    2    1    2    0    0 -0.24070865564E+02 -0.17043209327E+02 -0.12117404130E+02  0.59302124819E+02  0.50000329720E+02 0.  0.
         12    1    1    2    0    0  0.24070865564E+02  0.17043209327E+02  0.12117404130E+02  0.31885875181E+02  0.00000000000E+00 0. -1.
         11    1    3    3    0    0 -0.91926546436E+01  0.42616305576E+01 -0.32814754641E+01  0.10650562233E+02  0.51100000000E-03 0. -1.
        -11    1    3    3    0    0  0.22380282115E+01 -0.16773048187E+02 -0.21148669075E+02  0.27085238040E+02  0.51100000000E-03 0.  1.
        -12    1    3    3    0    0 -0.17116239132E+02 -0.45317916979E+01  0.12312740410E+02  0.21566324546E+02  0.00000000000E+00 0.  1.
</event>
<event>
 7    1  0.7819001E-012  0.5930197E+02  0.7816164E-02  0.1266605E+00
        -11   -1    0    0    0    0  0.00000000000E+00  0.00000000000E+00  0.45593999997E+02  0.45594000000E+02  0.51100000000E-03 0.  1.
         11   -1    0    0    0    0 -0.00000000000E+00 -0.00000000000E+00 -0.45593999997E+02  0.45594000000E+02  0.51100000000E-03 0. -1.
    9900012    2    1    2    0    0 -0.26468400637E+02  0.28622115921E+01  0.17548513694E+02  0.59301971392E+02  0.50000049906E+02 0.  0.
         12    1    1    2    0    0  0.26468400637E+02 -0.28622115921E+01 -0.17548513694E+02  0.31886028608E+02  0.00000000000E+00 0. -1.
         11    1    3    3    0    0 -0.10531792063E+01  0.55580640933E+01  0.20749255196E+02  0.21506577002E+02  0.51100000000E-03 0. -1.
        -11    1    3    3    0    0  0.13370291006E+01 -0.78796951558E+01 -0.65593156564E+01  0.10339335796E+02  0.51100000000E-03 0.  1.
        -12    1    3    3    0    0 -0.26752250531E+02  0.51838426546E+01  0.33585741550E+01  0.27456058594E+02  0.00000000000E+00 0.  1.
</event>
<event>
 7    1  0.7819001E-012  0.5930189E+02  0.7816164E-02  0.1266605E+00
        -11   -1    0    0    0    0  0.00000000000E+00  0.00000000000E+00  0.45593999997E+02  0.45594000000E+02  0.51100000000E-03 0. -1.
         11   -1    0    0    0    0 -0.00000000000E+00 -0.00000000000E+00 -0.45593999997E+02  0.45594000000E+02  0.51100000000E-03 0.  1.
    9900012    2    1    2    0    0 -0.31025810063E+02  0.65508859325E+01 -0.33479734187E+01  0.59301891386E+02  0.49999903994E+02 0.  0.
         12    1    1    2    0    0  0.31025810063E+02 -0.65508859325E+01  0.33479734187E+01  0.31886108614E+02  0.00000000000E+00 0. -1.
         11    1    3    3    0    0 -0.22115673946E+01 -0.18586551535E+02  0.55052052031E+01  0.19510464190E+02  0.51100000000E-03 0. -1.
        -11    1    3    3    0    0 -0.23035886223E+02  0.22505307745E+02 -0.90051529833E+01  0.33440001664E+02  0.51100000000E-03 0.  1.
         12    1    3    3    0    0 -0.57783564449E+01  0.26321297225E+01  0.15197436146E+00  0.63514255319E+01  0.00000000000E+00 0. -1.
</event>
<event>
 7    1  0.7819001E-012  0.5930193E+02  0.7816164E-02  0.1266605E+00
        -11   -1    0    0    0    0  0.00000000000E+00  0.00000000000E+00  0.45593999997E+02  0.45594000000E+02  0.51100000000E-03 0.  1.
         11   -1    0    0    0    0 -0.00000000000E+00 -0.00000000000E+00 -0.45593999997E+02  0.45594000000E+02  0.51100000000E-03 0. -1.
    9900012    2    1    2    0    0 -0.15192926294E+01  0.18066360358E+02  0.26230128949E+02  0.59301932645E+02  0.49999979241E+02 0.  0.
         12    1    1    2    0    0  0.15192926294E+01 -0.18066360358E+02 -0.26230128949E+02  0.31886067355E+02  0.00000000000E+00 0. -1.
         11    1    3    3    0    0 -0.76858878454E+00 -0.12415719643E+02 -0.13367739569E+01  0.12511106580E+02  0.51100000000E-03 0. -1.
        -11    1    3    3    0    0 -0.68833613519E+01  0.90131997168E+01  0.20401181460E+02  0.23341521756E+02  0.51100000000E-03 0.  1.
         12    1    3    3    0    0  0.61326575070E+01  0.21468880284E+02  0.71657214455E+01  0.23449304310E+02  0.00000000000E+00 0. -1.
</event>
<event>
 7    1  0.7819001E-012  0.5930194E+02  0.7816164E-02  0.1266605E+00
        -11   -1    0    0    0    0  0.00000000000E+00  0.00000000000E+00  0.45593999997E+02  0.45594000000E+02  0.51100000000E-03 0.  1.
         11   -1    0    0    0    0 -0.00000000000E+00 -0.00000000000E+00 -0.45593999997E+02  0.45594000000E+02  0.51100000000E-03 0. -1.
    9900012    2    1    2    0    0 -0.28994755676E+02 -0.97696830353E+01  0.89765247966E+01  0.59301944102E+02  0.50000000135E+02 0.  0.
         12    1    1    2    0    0  0.28994755676E+02  0.97696830353E+01 -0.89765247966E+01  0.31886055898E+02  0.00000000000E+00 0. -1.
         11    1    3    3    0    0 -0.10415663628E+02 -0.45234459367E+01  0.13708052721E+02  0.17800514645E+02  0.51100000000E-03 0.  1.
        -11    1    3    3    0    0 -0.27119625868E+02 -0.11222293043E+02 -0.82712730595E+01  0.30493079980E+02  0.51100000000E-03 0. -1.
        -12    1    3    3    0    0  0.85405338201E+01  0.59760559448E+01  0.35397451351E+01  0.11008349477E+02  0.00000000000E+00 0.  1.
</event>
<event>
 7    1  0.7819001E-012  0.5930193E+02  0.7816164E-02  0.1266605E+00
        -11   -1    0    0    0    0  0.00000000000E+00  0.00000000000E+00  0.45593999997E+02  0.45594000000E+02  0.51100000000E-03 0. -1.
         11   -1    0    0    0    0 -0.00000000000E+00 -0.00000000000E+00 -0.45593999997E+02  0.45594000000E+02  0.51100000000E-03 0.  1.
    9900012    2    1    2    0    0  0.23920703210E+02 -0.68222165974E+01 -0.19949401496E+02  0.59301932488E+02  0.49999978954E+02 0.  0.
         12    1    1    2    0    0 -0.23920703210E+02  0.68222165974E+01  0.19949401496E+02  0.31886067512E+02  0.00000000000E+00 0. -1.
         11    1    3    3    0    0 -0.10765758523E+02  0.40686818782E+01 -0.16101415416E+02  0.19791697943E+02  0.51100000000E-03 0. -1.
        -11    1    3    3    0    0  0.16884973848E+02 -0.10789004135E+02 -0.73948052102E+01  0.21358560261E+02  0.51100000000E-03 0.  1.
         12    1    3    3    0    0  0.17801487884E+02 -0.10189434055E+00  0.35468191308E+01  0.18151674284E+02  0.00000000000E+00 0. -1.
</event>
<event>
 7    1  0.7819001E-012  0.5930195E+02  0.7816164E-02  0.1266605E+00
        -11   -1    0    0    0    0  0.00000000000E+00  0.00000000000E+00  0.45593999997E+02  0.45594000000E+02  0.51100000000E-03 0.  1.
         11   -1    0    0    0    0 -0.00000000000E+00 -0.00000000000E+00 -0.45593999997E+02  0.45594000000E+02  0.51100000000E-03 0. -1.
    9900012    2    1    2    0    0  0.12449220985E+02 -0.29354442871E+02  0.23230073790E+00  0.59301946889E+02  0.50000005218E+02 0.  0.
         12    1    1    2    0    0 -0.12449220985E+02  0.29354442871E+02 -0.23230073790E+00  0.31886053111E+02  0.00000000000E+00 0. -1.
         11    1    3    3    0    0  0.21860843740E+00  0.11803434470E+02 -0.92621760796E+00  0.11841736961E+02  0.51100000000E-03 0. -1.
        -11    1    3    3    0    0  0.43640446984E+01 -0.26149739526E+02 -0.86431460760E+01  0.27884722301E+02  0.51100000000E-03 0.  1.
        -12    1    3    3    0    0  0.78665678492E+01 -0.15008137815E+02  0.98016644219E+01  0.19575487627E+02  0.00000000000E+00 0.  1.
</event>
<event>
 7    1  0.7819001E-012  0.5930212E+02  0.7816164E-02  0.1266604E+00
        -11   -1    0    0    0    0  0.00000000000E+00  0.00000000000E+00  0.45593999997E+02  0.45594000000E+02  0.51100000000E-03 0. -1.
         11   -1    0    0    0    0 -0.00000000000E+00 -0.00000000000E+00 -0.45593999997E+02  0.45594000000E+02  0.51100000000E-03 0.  1.
    9900012    2    1    2    0    0  0.29398000202E+02  0.53273676484E+01  0.11139403732E+02  0.59302116329E+02  0.50000314236E+02 0.  0.
         12    1    1    2    0    0 -0.29398000202E+02 -0.53273676484E+01 -0.11139403732E+02  0.31885883671E+02  0.00000000000E+00 0. -1.
         11    1    3    3    0    0 -0.55264498727E+01  0.47520268860E+01  0.57060292402E+01  0.92564668028E+01  0.51100000000E-03 0. -1.
        -11    1    3    3    0    0  0.24562104260E+02  0.12522395044E+02  0.15175780619E+02  0.31470806488E+02  0.51100000000E-03 0.  1.
        -12    1    3    3    0    0  0.10362345814E+02 -0.11947054282E+02 -0.97424061266E+01  0.18574843039E+02  0.00000000000E+00 0.  1.
</event>
<event>
 7    1  0.7819001E-012  0.5930196E+02  0.7816164E-02  0.1266605E+00
        -11   -1    0    0    0    0  0.00000000000E+00  0.00000000000E+00  0.45593999997E+02  0.45594000000E+02  0.51100000000E-03 0.  1.
         11   -1    0    0    0    0 -0.00000000000E+00 -0.00000000000E+00 -0.45593999997E+02  0.45594000000E+02  0.51100000000E-03 0. -1.
    9900012    2    1    2    0    0  0.74840096705E+01 -0.23305810676E+02  0.20433994810E+02  0.59301962994E+02  0.50000034590E+02 0.  0.
         12    1    1    2    0    0 -0.74840096705E+01  0.23305810676E+02 -0.20433994810E+02  0.31886037006E+02  0.00000000000E+00 0. -1.
         11    1    3    3    0    0  0.23806092994E+01  0.75610132970E+01  0.72241758431E+01  0.10724968046E+02  0.51100000000E-03 0. -1.
        -11    1    3    3    0    0  0.63117249167E+01 -0.34026743350E+02 -0.34241969685E+00  0.34608877270E+02  0.51100000000E-03 0.  1.
        -12    1    3    3    0    0 -0.12083245456E+01  0.31599193761E+01  0.13552238664E+02  0.13968117678E+02  0.00000000000E+00 0.  1.
</event>
<event>
 7    1  0.7819001E-012  0.5930199E+02  0.7816164E-02  0.1266605E+00
        -11   -1    0    0    0    0  0.00000000000E+00  0.00000000000E+00  0.45593999997E+02  0.45594000000E+02  0.51100000000E-03 0.  1.
         11   -1    0    0    0    0 -0.00000000000E+00 -0.00000000000E+00 -0.45593999997E+02  0.45594000000E+02  0.51100000000E-03 0. -1.
    9900012    2    1    2    0    0  0.20231203855E+02 -0.64058118350E+01  0.23798778921E+02  0.59301985624E+02  0.50000075861E+02 0.  0.
         12    1    1    2    0    0 -0.20231203855E+02  0.64058118350E+01 -0.23798778921E+02  0.31886014376E+02  0.00000000000E+00 0. -1.
         11    1    3    3    0    0  0.89653188391E+01  0.80336517013E+01 -0.59600805178E+01  0.13432760758E+02  0.51100000000E-03 0. -1.
        -11    1    3    3    0    0 -0.35203923783E+01 -0.14809201608E+02  0.26746514610E+02  0.30774691856E+02  0.51100000000E-03 0.  1.
        -12    1    3    3    0    0  0.14786277394E+02  0.36973807192E+00  0.30123448290E+01  0.15094533010E+02  0.00000000000E+00 0.  1.
</event>
<event>
 7    1  0.7819001E-012  0.5930194E+02  0.7816164E-02  0.1266605E+00
        -11   -1    0    0    0    0  0.00000000000E+00  0.00000000000E+00  0.45593999997E+02  0.45594000000E+02  0.51100000000E-03 0.  1.
         11   -1    0    0    0    0 -0.00000000000E+00 -0.00000000000E+00 -0.45593999997E+02  0.45594000000E+02  0.51100000000E-03 0. -1.
    9900012    2    1    2    0    0 -0.28971316813E+02  0.10272550168E+02 -0.84769153460E+01  0.59301943822E+02  0.49999999624E+02 0.  0.
         12    1    1    2    0    0  0.28971316813E+02 -0.10272550168E+02  0.84769153460E+01  0.31886056178E+02  0.00000000000E+00 0. -1.
         11    1    3    3    0    0 -0.29028822370E+02  0.27324853331E+02 -0.10205185150E+02  0.41151742879E+02  0.51100000000E-03 0. -1.
        -11    1    3    3    0    0 -0.25088819398E+01 -0.38559208408E+01  0.84804261158E+00  0.46777976283E+01  0.51100000000E-03 0.  1.
         12    1    3    3    0    0  0.25663874972E+01 -0.13196382322E+02  0.88022719244E+00  0.13472403315E+02  0.00000000000E+00 0. -1.
</event>
<event>
 7    1  0.7819001E-012  0.5930195E+02  0.7816164E-02  0.1266605E+00
        -11   -1    0    0    0    0  0.00000000000E+00  0.00000000000E+00  0.45593999997E+02  0.45594000000E+02  0.51100000000E-03 0. -1.
         11   -1    0    0    0    0 -0.00000000000E+00 -0.00000000000E+00 -0.45593999997E+02  0.45594000000E+02  0.51100000000E-03 0.  1.
    9900012    2    1    2    0    0  0.27793503457E+02  0.15623397049E+02 -0.38866641882E+00  0.59301946130E+02  0.50000003835E+02 0.  0.
         12    1    1    2    0    0 -0.27793503457E+02 -0.15623397049E+02  0.38866641882E+00  0.31886053870E+02  0.00000000000E+00 0. -1.
         11    1    3    3    0    0  0.64703252222E+01 -0.10052922204E+02  0.30455383035E+01  0.12337003572E+02  0.51100000000E-03 0. -1.
        -11    1    3    3    0    0  0.14496670763E+02  0.32514742332E+02 -0.76664323279E+01  0.36416151871E+02  0.51100000000E-03 0.  1.
         12    1    3    3    0    0  0.68265074717E+01 -0.68384230795E+01  0.42322276056E+01  0.10548790688E+02  0.00000000000E+00 0. -1.
</event>
<event>
 7    1  0.7819001E-012  0.5930193E+02  0.7816164E-02  0.1266605E+00
        -11   -1    0    0    0    0  0.00000000000E+00  0.00000000000E+00  0.45593999997E+02  0.45594000000E+02  0.51100000000E-03 0. -1.
         11   -1    0    0    0    0 -0.00000000000E+00 -0.00000000000E+00 -0.45593999997E+02  0.45594000000E+02  0.51100000000E-03 0.  1.
    9900012    2    1    2    0    0 -0.18531880981E+02 -0.48232636671E+01 -0.25495622299E+02  0.59301933427E+02  0.49999980667E+02 0.  0.
         12    1    1    2    0    0  0.18531880981E+02  0.48232636671E+01  0.25495622299E+02  0.31886066573E+02  0.00000000000E+00 0. -1.
         11    1    3    3    0    0  0.95091090540E+01  0.15796887530E+01 -0.11520332930E+02  0.15021206431E+02  0.51100000000E-03 0. -1.
        -11    1    3    3    0    0 -0.20886148819E+02 -0.18540410447E+02 -0.93375626089E+01  0.29447718210E+02  0.51100000000E-03 0.  1.
         12    1    3    3    0    0 -0.71548412157E+01  0.12137458027E+02 -0.46377267595E+01  0.14833008787E+02  0.00000000000E+00 0. -1.
</event>
<event>
 7    1  0.7819001E-012  0.5930194E+02  0.7816164E-02  0.1266605E+00
        -11   -1    0    0    0    0  0.00000000000E+00  0.00000000000E+00  0.45593999997E+02  0.45594000000E+02  0.51100000000E-03 0. -1.
         11   -1    0    0    0    0 -0.00000000000E+00 -0.00000000000E+00 -0.45593999997E+02  0.45594000000E+02  0.51100000000E-03 0.  1.
    9900012    2    1    2    0    0 -0.60209344331E+01 -0.31035045012E+02  0.41587065360E+01  0.59301944891E+02  0.50000001574E+02 0.  0.
         12    1    1    2    0    0  0.60209344331E+01  0.31035045012E+02 -0.41587065360E+01  0.31886055109E+02  0.00000000000E+00 0. -1.
         11    1    3    3    0    0 -0.91192199121E+01  0.63816633517E+01 -0.12564098275E+02  0.16785182890E+02  0.51100000000E-03 0. -1.
        -11    1    3    3    0    0 -0.28322285817E+01 -0.28576496672E+01  0.18629130888E+01  0.44337485040E+01  0.51100000000E-03 0.  1.
         12    1    3    3    0    0  0.59305140606E+01 -0.34559058697E+02  0.14859891722E+02  0.38083013497E+02  0.00000000000E+00 0. -1.
</event>
<event>
 7    1  0.7819001E-012  0.5930194E+02  0.7816164E-02  0.1266605E+00
        -11   -1    0    0    0    0  0.00000000000E+00  0.00000000000E+00  0.45593999997E+02  0.45594000000E+02  0.51100000000E-03 0.  1.
         11   -1    0    0    0    0 -0.00000000000E+00 -0.00000000000E+00 -0.45593999997E+02  0.45594000000E+02  0.51100000000E-03 0. -1.
    9900012    2    1    2    0    0 -0.30540401015E+02 -0.15073734727E+01  0.90406181019E+01  0.59301936515E+02  0.49999986298E+02 0.  0.
         12    1    1    2    0    0  0.30540401015E+02  0.15073734727E+01 -0.90406181019E+01  0.31886063485E+02  0.00000000000E+00 0. -1.
         11    1    3    3    0    0 -0.33079207924E+02  0.52436640838E+01 -0.76838332783E+01  0.34362353005E+02  0.51100000000E-03 0. -1.
        -11    1    3    3    0    0  0.94753745728E+01 -0.38110920176E+01  0.60379670225E+01  0.11864408611E+02  0.51100000000E-03 0.  1.
        -12    1    3    3    0    0 -0.69365676632E+01 -0.29399455388E+01  0.10686484358E+02  0.13075174899E+02  0.00000000000E+00 0.  1.
</event>
<event>
 7    1  0.7819001E-012  0.5930193E+02  0.7816164E-02  0.1266605E+00
        -11   -1    0    0    0    0  0.00000000000E+00  0.00000000000E+00  0.45593999997E+02  0.45594000000E+02  0.51100000000E-03 0. -1.
         11   -1    0    0    0    0 -0.00000000000E+00 -0.00000000000E+00 -0.45593999997E+02  0.45594000000E+02  0.51100000000E-03 0.  1.
    9900012    2    1    2    0    0 -0.18259460315E+02 -0.20357599525E+02 -0.16397618795E+02  0.59301926997E+02  0.49999968940E+02 0.  0.
         12    1    1    2    0    0  0.18259460315E+02  0.20357599525E+02  0.16397618795E+02  0.31886073003E+02  0.00000000000E+00 0. -1.
         11    1    3    3    0    0 -0.10462527146E+01 -0.53809898798E+00  0.38411808558E+01  0.40173207355E+01  0.51100000000E-03 0. -1.
        -11    1    3    3    0    0  0.87921637263E+01 -0.13587737358E+02 -0.23298948339E+02  0.28368463889E+02  0.51100000000E-03 0.  1.
        -12    1    3    3    0    0 -0.26005371327E+02 -0.62317631793E+01  0.30601486882E+01  0.26916142372E+02  0.00000000000E+00 0.  1.
</event>
<event>
 7    1  0.7819001E-012  0.5930195E+02  0.7816164E-02  0.1266605E+00
        -11   -1    0    0    0    0  0.00000000000E+00  0.00000000000E+00  0.45593999997E+02  0.45594000000E+02  0.51100000000E-03 0.  1.
         11   -1    0    0    0    0 -0.00000000000E+00 -0.00000000000E+00 -0.45593999997E+02  0.45594000000E+02  0.51100000000E-03 0. -1.
    9900012    2    1    2    0    0  0.54788711062E+01 -0.31286961968E+02  0.27978395275E+01  0.59301954089E+02  0.50000018350E+02 0.  0.
         12    1    1    2    0    0 -0.54788711062E+01  0.31286961968E+02 -0.27978395275E+01  0.31886045911E+02  0.00000000000E+00 0. -1.
         11    1    3    3    0    0  0.22803651903E+02 -0.23748522188E+02 -0.93529550993E+01  0.34226840572E+02  0.51100000000E-03 0. -1.
        -11    1    3    3    0    0 -0.11203304389E+02 -0.10256664130E+02  0.76631933499E+01  0.17012869273E+02  0.51100000000E-03 0.  1.
         12    1    3    3    0    0 -0.61214764081E+01  0.27182243498E+01  0.44876012769E+01  0.80622442440E+01  0.00000000000E+00 0. -1.
</event>
<event>
 7    1  0.7819001E-012  0.5930195E+02  0.7816164E-02  0.1266605E+00
        -11   -1    0    0    0    0  0.00000000000E+00  0.00000000000E+00  0.45593999997E+02  0.45594000000E+02  0.51100000000E-03 0. -1.
         11   -1    0    0    0    0 -0.00000000000E+00 -0.00000000000E+00 -0.45593999997E+02  0.45594000000E+02  0.51100000000E-03 0.  1.
    9900012    2    1    2    0    0  0.31326376130E+02  0.40923225566E+01  0.43164114961E+01  0.59301947351E+02  0.50000006061E+02 0.  0.
         12    1    1    2    0    0 -0.31326376130E+02 -0.40923225566E+01 -0.43164114961E+01  0.31886052649E+02  0.00000000000E+00 0. -1.
         11    1    3    3    0    0 -0.11938664173E+02 -0.62339731573E+01  0.98060961071E-01  0.13468620559E+02  0.51100000000E-03 0. -1.
        -11    1    3    3    0    0  0.54292339286E+01  0.14481106116E+01 -0.29000816178E+01  0.63232965331E+01  0.51100000000E-03 0.  1.
         12    1    3    3    0    0  0.37835806374E+02  0.88781851024E+01  0.71184321528E+01  0.39510030258E+02  0.00000000000E+00 0. -1.
</event>
<event>
 7    1  0.7819001E-012  0.5930194E+02  0.7816164E-02  0.1266605E+00
        -11   -1    0    0    0    0  0.00000000000E+00  0.00000000000E+00  0.45593999997E+02  0.45594000000E+02  0.51100000000E-03 0.  1.
         11   -1    0    0    0    0 -0.00000000000E+00 -0.00000000000E+00 -0.45593999997E+02  0.45594000000E+02  0.51100000000E-03 0. -1.
    9900012    2    1    2    0    0  0.47579328938E+01  0.15339883833E+02  0.27545793364E+02  0.59301942021E+02  0.49999996339E+02 0.  0.
         12    1    1    2    0    0 -0.47579328938E+01 -0.15339883833E+02 -0.27545793364E+02  0.31886057979E+02  0.00000000000E+00 0. -1.
         11    1    3    3    0    0 -0.10778265834E+02  0.18550953178E+01 -0.62497178335E+01  0.12596482298E+02  0.51100000000E-03 0. -1.
        -11    1    3    3    0    0  0.17148946767E+02  0.43145815151E+01  0.82445614217E+01  0.19510888810E+02  0.51100000000E-03 0.  1.
         12    1    3    3    0    0 -0.16127480387E+01  0.91702070001E+01  0.25550949776E+02  0.27194570912E+02  0.00000000000E+00 0. -1.
</event>
<event>
 7    1  0.7819001E-012  0.5930197E+02  0.7816164E-02  0.1266605E+00
        -11   -1    0    0    0    0  0.00000000000E+00  0.00000000000E+00  0.45593999997E+02  0.45594000000E+02  0.51100000000E-03 0.  1.
         11   -1    0    0    0    0 -0.00000000000E+00 -0.00000000000E+00 -0.45593999997E+02  0.45594000000E+02  0.51100000000E-03 0. -1.
    9900012    2    1    2    0    0 -0.23648035321E+02  0.21118727917E+02 -0.33895010467E+01  0.59301969191E+02  0.50000045893E+02 0.  0.
         12    1    1    2    0    0  0.23648035321E+02 -0.21118727917E+02  0.33895010467E+01  0.31886030809E+02  0.00000000000E+00 0. -1.
         11    1    3    3    0    0 -0.15956700575E+01  0.83670788050E+01 -0.21979849271E+02  0.23572610057E+02  0.51100000000E-03 0. -1.
        -11    1    3    3    0    0 -0.10429468729E+02  0.52169117252E+01  0.18510558474E+02  0.21877631526E+02  0.51100000000E-03 0.  1.
        -12    1    3    3    0    0 -0.11622896535E+02  0.75347373869E+01  0.79789750467E-01  0.13851727609E+02  0.00000000000E+00 0.  1.
</event>
<event>
 7    1  0.7819001E-012  0.5930194E+02  0.7816164E-02  0.1266605E+00
        -11   -1    0    0    0    0  0.00000000000E+00  0.00000000000E+00  0.45593999997E+02  0.45594000000E+02  0.51100000000E-03 0. -1.
         11   -1    0    0    0    0 -0.00000000000E+00 -0.00000000000E+00 -0.45593999997E+02  0.45594000000E+02  0.51100000000E-03 0.  1.
    9900012    2    1    2    0    0  0.96586746470E+00  0.31325462039E+02 -0.58739645920E+01  0.59301938281E+02  0.49999989520E+02 0.  0.
         12    1    1    2    0    0 -0.96586746470E+00 -0.31325462039E+02  0.58739645920E+01  0.31886061719E+02  0.00000000000E+00 0. -1.
         11    1    3    3    0    0  0.15203811315E+01 -0.14398805245E+01 -0.10832223292E+02  0.11032763771E+02  0.51100000000E-03 0. -1.
        -11    1    3    3    0    0 -0.52306369670E+01  0.17474289057E+02  0.19467432592E+02  0.26677542486E+02  0.51100000000E-03 0.  1.
        -12    1    3    3    0    0  0.46761233003E+01  0.15291053507E+02 -0.14509173891E+02  0.21591632024E+02  0.00000000000E+00 0.  1.
</event>
<event>
 7    1  0.7819001E-012  0.5930193E+02  0.7816164E-02  0.1266605E+00
        -11   -1    0    0    0    0  0.00000000000E+00  0.00000000000E+00  0.45593999997E+02  0.45594000000E+02  0.51100000000E-03 0.  1.
         11   -1    0    0    0    0 -0.00000000000E+00 -0.00000000000E+00 -0.45593999997E+02  0.45594000000E+02  0.51100000000E-03 0. -1.
    9900012    2    1    2    0    0 -0.16712008312E+02  0.32085905323E+01  0.26965446137E+02  0.59301928426E+02  0.49999971546E+02 0.  0.
         12    1    1    2    0    0  0.16712008312E+02 -0.32085905323E+01 -0.26965446137E+02  0.31886071574E+02  0.00000000000E+00 0. -1.
         11    1    3    3    0    0 -0.12049025679E+02  0.14082356548E+02 -0.36180110403E+01  0.18883373372E+02  0.51100000000E-03 0. -1.
        -11    1    3    3    0    0 -0.14445193681E+01 -0.16184794125E+02  0.10378452974E+02  0.19280728292E+02  0.51100000000E-03 0.  1.
         12    1    3    3    0    0 -0.32184632655E+01  0.53110281095E+01  0.20205004204E+02  0.21137826763E+02  0.00000000000E+00 0. -1.
</event>
<event>
 7    1  0.7819001E-012  0.5930200E+02  0.7816164E-02  0.1266605E+00
        -11   -1    0    0    0    0  0.00000000000E+00  0.00000000000E+00  0.45593999997E+02  0.45594000000E+02  0.51100000000E-03 0.  1.
         11   -1    0    0    0    0 -0.00000000000E+00 -0.00000000000E+00 -0.45593999997E+02  0.45594000000E+02  0.51100000000E-03 0. -1.
    9900012    2    1    2    0    0  0.20567509519E+01  0.15815354504E+02  0.27610888501E+02  0.59302002660E+02  0.50000106930E+02 0.  0.
         12    1    1    2    0    0 -0.20567509519E+01 -0.15815354504E+02 -0.27610888501E+02  0.31885997340E+02  0.00000000000E+00 0. -1.
         11    1    3    3    0    0 -0.41007145561E+01 -0.90390288916E+01  0.12392627727E+02  0.15877566735E+02  0.51100000000E-03 0. -1.
        -11    1    3    3    0    0  0.11624542872E+02  0.25924356371E+02  0.21049898183E+02  0.35359588007E+02  0.51100000000E-03 0.  1.
         12    1    3    3    0    0 -0.54670773637E+01 -0.10699729754E+01 -0.58316374089E+01  0.80648479178E+01  0.00000000000E+00 0. -1.
</event>
<event>
 7    1  0.7819001E-012  0.5930197E+02  0.7816164E-02  0.1266605E+00
        -11   -1    0    0    0    0  0.00000000000E+00  0.00000000000E+00  0.45593999997E+02  0.45594000000E+02  0.51100000000E-03 0. -1.
         11   -1    0    0    0    0 -0.00000000000E+00 -0.00000000000E+00 -0.45593999997E+02  0.45594000000E+02  0.51100000000E-03 0.  1.
    9900012    2    1    2    0    0 -0.19433942504E+02 -0.13578832777E+02 -0.21322664248E+02  0.59301971218E+02  0.50000049588E+02 0.  0.
         12    1    1    2    0    0  0.19433942504E+02  0.13578832777E+02  0.21322664248E+02  0.31886028782E+02  0.00000000000E+00 0. -1.
         11    1    3    3    0    0  0.26845077235E+01 -0.92556334102E+01  0.55377543075E+01  0.11114857380E+02  0.51100000000E-03 0. -1.
        -11    1    3    3    0    0 -0.22383349900E+01 -0.99468467895E+01 -0.25522537358E+02  0.27483628182E+02  0.51100000000E-03 0.  1.
        -12    1    3    3    0    0 -0.19880115238E+02  0.56236474223E+01 -0.13378811977E+01  0.20703485656E+02  0.00000000000E+00 0.  1.
</event>
<event>
 7    1  0.7819001E-012  0.5930194E+02  0.7816164E-02  0.1266605E+00
        -11   -1    0    0    0    0  0.00000000000E+00  0.00000000000E+00  0.45593999997E+02  0.45594000000E+02  0.51100000000E-03 0. -1.
         11   -1    0    0    0    0 -0.00000000000E+00 -0.00000000000E+00 -0.45593999997E+02  0.45594000000E+02  0.51100000000E-03 0.  1.
    9900012    2    1    2    0    0 -0.30588585215E+01 -0.31698830139E+02  0.15963588429E+01  0.59301940206E+02  0.49999993030E+02 0.  0.
         12    1    1    2    0    0  0.30588585215E+01  0.31698830139E+02 -0.15963588429E+01  0.31886059794E+02  0.00000000000E+00 0. -1.
         11    1    3    3    0    0  0.21494022316E+02 -0.68467952404E+01 -0.15433853201E+01  0.22610918577E+02  0.51100000000E-03 0. -1.
        -11    1    3    3    0    0 -0.75919431398E+01 -0.12726663280E+02 -0.26465673325E+01  0.15053566946E+02  0.51100000000E-03 0.  1.
         12    1    3    3    0    0 -0.16960937697E+02 -0.12125371618E+02  0.57863114955E+01  0.21637454683E+02  0.00000000000E+00 0. -1.
</event>
<event>
 7    1  0.7819001E-012  0.5930192E+02  0.7816164E-02  0.1266605E+00
        -11   -1    0    0    0    0  0.00000000000E+00  0.00000000000E+00  0.45593999997E+02  0.45594000000E+02  0.51100000000E-03 0.  1.
         11   -1    0    0    0    0 -0.00000000000E+00 -0.00000000000E+00 -0.45593999997E+02  0.45594000000E+02  0.51100000000E-03 0. -1.
    9900012    2    1    2    0    0  0.12811410713E+02 -0.28664770583E+02 -0.55606200739E+01  0.59301924471E+02  0.49999964333E+02 0.  0.
         12    1    1    2    0    0 -0.12811410713E+02  0.28664770583E+02  0.55606200739E+01  0.31886075529E+02  0.00000000000E+00 0. -1.
         11    1    3    3    0    0  0.30651639054E+02 -0.23748883975E+02 -0.42242738192E+01  0.39004832474E+02  0.51100000000E-03 0. -1.
        -11    1    3    3    0    0 -0.75603808318E+01 -0.62434296681E+01 -0.15658805873E+01  0.99293380755E+01  0.51100000000E-03 0.  1.
         12    1    3    3    0    0 -0.10279847508E+02  0.13275430599E+01  0.22953433261E+00  0.10367753922E+02  0.00000000000E+00 0. -1.
</event>
<event>
 7    1  0.7819001E-012  0.5930195E+02  0.7816164E-02  0.1266605E+00
        -11   -1    0    0    0    0  0.00000000000E+00  0.00000000000E+00  0.45593999997E+02  0.45594000000E+02  0.51100000000E-03 0.  1.
         11   -1    0    0    0    0 -0.00000000000E+00 -0.00000000000E+00 -0.45593999997E+02  0.45594000000E+02  0.51100000000E-03 0. -1.
    9900012    2    1    2    0    0  0.25883036516E+02 -0.13308279302E+02  0.13026052363E+02  0.59301954190E+02  0.50000018533E+02 0.  0.
         12    1    1    2    0    0 -0.25883036516E+02  0.13308279302E+02 -0.13026052363E+02  0.31886045810E+02  0.00000000000E+00 0. -1.
         11    1    3    3    0    0 -0.12164376513E+02 -0.53354546706E+01 -0.41849487975E+01  0.13926698431E+02  0.51100000000E-03 0. -1.
        -11    1    3    3    0    0  0.18971992701E+02  0.24101405493E+01  0.28431383638E+01  0.19334650774E+02  0.51100000000E-03 0.  1.
         12    1    3    3    0    0  0.19075420328E+02 -0.10382965180E+02  0.14367862797E+02  0.26040604985E+02  0.00000000000E+00 0. -1.
</event>
<event>
 7    1  0.7819001E-012  0.5930196E+02  0.7816164E-02  0.1266605E+00
        -11   -1    0    0    0    0  0.00000000000E+00  0.00000000000E+00  0.45593999997E+02  0.45594000000E+02  0.51100000000E-03 0. -1.
         11   -1    0    0    0    0 -0.00000000000E+00 -0.00000000000E+00 -0.45593999997E+02  0.45594000000E+02  0.51100000000E-03 0.  1.
    9900012    2    1    2    0    0  0.26961834336E+02  0.12750550829E+02 -0.11278415718E+02  0.59301957313E+02  0.50000024228E+02 0.  0.
         12    1    1    2    0    0 -0.26961834336E+02 -0.12750550829E+02  0.11278415718E+02  0.31886042687E+02  0.00000000000E+00 0. -1.
         11    1    3    3    0    0  0.24660726752E+02  0.10621724513E+01  0.11917727432E+02  0.27410068983E+02  0.51100000000E-03 0. -1.
        -11    1    3    3    0    0  0.14584783655E+01  0.16470377459E+02 -0.20502251757E+02  0.26338998086E+02  0.51100000000E-03 0.  1.
         12    1    3    3    0    0  0.84262921803E+00 -0.47819990820E+01 -0.26938913932E+01  0.55528902436E+01  0.00000000000E+00 0. -1.
</event>
<event>
 7    1  0.7819001E-012  0.5930194E+02  0.7816164E-02  0.1266605E+00
        -11   -1    0    0    0    0  0.00000000000E+00  0.00000000000E+00  0.45593999997E+02  0.45594000000E+02  0.51100000000E-03 0.  1.
         11   -1    0    0    0    0 -0.00000000000E+00 -0.00000000000E+00 -0.45593999997E+02  0.45594000000E+02  0.51100000000E-03 0. -1.
    9900012    2    1    2    0    0  0.16093401069E+02  0.23683967074E+02  0.14028289367E+02  0.59301941026E+02  0.49999994526E+02 0.  0.
         12    1    1    2    0    0 -0.16093401069E+02 -0.23683967074E+02 -0.14028289367E+02  0.31886058974E+02  0.00000000000E+00 0. -1.
         11    1    3    3    0    0  0.18010837007E+02 -0.32113309083E+01  0.92091037116E+01  0.20481955164E+02  0.51100000000E-03 0. -1.
        -11    1    3    3    0    0 -0.97159939982E+01  0.40652898507E+01  0.95708772190E+01  0.14231261783E+02  0.51100000000E-03 0.  1.
         12    1    3    3    0    0  0.77985580603E+01  0.22830008132E+02 -0.47516915641E+01  0.24588724079E+02  0.00000000000E+00 0. -1.
</event>
<event>
 7    1  0.7819001E-012  0.5930189E+02  0.7816164E-02  0.1266605E+00
        -11   -1    0    0    0    0  0.00000000000E+00  0.00000000000E+00  0.45593999997E+02  0.45594000000E+02  0.51100000000E-03 0.  1.
         11   -1    0    0    0    0 -0.00000000000E+00 -0.00000000000E+00 -0.45593999997E+02  0.45594000000E+02  0.51100000000E-03 0. -1.
    9900012    2    1    2    0    0  0.58318701402E+01  0.21992398463E+02  0.22339382053E+02  0.59301885624E+02  0.49999893485E+02 0.  0.
         12    1    1    2    0    0 -0.58318701402E+01 -0.21992398463E+02 -0.22339382053E+02  0.31886114376E+02  0.00000000000E+00 0. -1.
         11    1    3    3    0    0  0.12322438492E+01  0.29513489400E+02  0.30666370127E+02  0.42579228956E+02  0.51100000000E-03 0.  1.
        -11    1    3    3    0    0  0.31535916441E+01 -0.58083559515E+01 -0.11244764211E+02  0.13043268821E+02  0.51100000000E-03 0. -1.
        -12    1    3    3    0    0  0.14460346470E+01 -0.17127349857E+01  0.29177761377E+01  0.36793878460E+01  0.00000000000E+00 0.  1.
</event>
<event>
 7    1  0.7819001E-012  0.5930194E+02  0.7816164E-02  0.1266605E+00
        -11   -1    0    0    0    0  0.00000000000E+00  0.00000000000E+00  0.45593999997E+02  0.45594000000E+02  0.51100000000E-03 0.  1.
         11   -1    0    0    0    0 -0.00000000000E+00 -0.00000000000E+00 -0.45593999997E+02  0.45594000000E+02  0.51100000000E-03 0. -1.
    9900012    2    1    2    0    0  0.26294753386E+02 -0.52783955140E+01  0.17246597551E+02  0.59301942829E+02  0.49999997814E+02 0.  0.
         12    1    1    2    0    0 -0.26294753386E+02  0.52783955140E+01 -0.17246597551E+02  0.31886057171E+02  0.00000000000E+00 0. -1.
         11    1    3    3    0    0 -0.68885519410E+01  0.57052009571E+01 -0.14258255528E+01  0.90572868218E+01  0.51100000000E-03 0. -1.
        -11    1    3    3    0    0  0.11429393874E+02 -0.15399079778E+02 -0.27769080041E+01  0.19377149447E+02  0.51100000000E-03 0.  1.
        -12    1    3    3    0    0  0.21753911452E+02  0.44154833073E+01  0.21449331108E+02  0.30867506561E+02  0.00000000000E+00 0.  1.
</event>
<event>
 7    1  0.7819001E-012  0.5930195E+02  0.7816164E-02  0.1266605E+00
        -11   -1    0    0    0    0  0.00000000000E+00  0.00000000000E+00  0.45593999997E+02  0.45594000000E+02  0.51100000000E-03 0. -1.
         11   -1    0    0    0    0 -0.00000000000E+00 -0.00000000000E+00 -0.45593999997E+02  0.45594000000E+02  0.51100000000E-03 0.  1.
    9900012    2    1    2    0    0  0.21234741015E+02 -0.16193562255E+02 -0.17423387930E+02  0.59301950833E+02  0.50000012412E+02 0.  0.
         12    1    1    2    0    0 -0.21234741015E+02  0.16193562255E+02  0.17423387930E+02  0.31886049167E+02  0.00000000000E+00 0. -1.
         11    1    3    3    0    0  0.21408053535E+02  0.82369190043E+01  0.38526604170E+01  0.23259290260E+02  0.51100000000E-03 0. -1.
        -11    1    3    3    0    0  0.50290394804E+01 -0.14631630666E+02 -0.19362329828E+02  0.24784585344E+02  0.51100000000E-03 0.  1.
         12    1    3    3    0    0 -0.52023520004E+01 -0.97988505940E+01 -0.19137185190E+01  0.11258075229E+02  0.00000000000E+00 0. -1.
</event>
<event>
 7    1  0.7819001E-012  0.5930192E+02  0.7816164E-02  0.1266605E+00
        -11   -1    0    0    0    0  0.00000000000E+00  0.00000000000E+00  0.45593999997E+02  0.45594000000E+02  0.51100000000E-03 0. -1.
         11   -1    0    0    0    0 -0.00000000000E+00 -0.00000000000E+00 -0.45593999997E+02  0.45594000000E+02  0.51100000000E-03 0.  1.
    9900012    2    1    2    0    0 -0.50222050471E+01 -0.23328848325E+02 -0.21148623586E+02  0.59301921733E+02  0.49999959339E+02 0.  0.
         12    1    1    2    0    0  0.50222050471E+01  0.23328848325E+02  0.21148623586E+02  0.31886078267E+02  0.00000000000E+00 0. -1.
         11    1    3    3    0    0  0.65788171072E+01 -0.17162330111E+02  0.11047638635E+02  0.21444736628E+02  0.51100000000E-03 0. -1.
        -11    1    3    3    0    0 -0.14436190771E+02 -0.19055014398E+01 -0.26192211225E+02  0.29967757154E+02  0.51100000000E-03 0.  1.
         12    1    3    3    0    0  0.28351686171E+01 -0.42610167737E+01 -0.60040509959E+01  0.78894279510E+01  0.00000000000E+00 0. -1.
</event>
<event>
 7    1  0.7819001E-012  0.5930196E+02  0.7816164E-02  0.1266605E+00
        -11   -1    0    0    0    0  0.00000000000E+00  0.00000000000E+00  0.45593999997E+02  0.45594000000E+02  0.51100000000E-03 0.  1.
         11   -1    0    0    0    0 -0.00000000000E+00 -0.00000000000E+00 -0.45593999997E+02  0.45594000000E+02  0.51100000000E-03 0. -1.
    9900012    2    1    2    0    0  0.30026067925E+02  0.12157399118E+01  0.10661941100E+02  0.59301956554E+02  0.50000022845E+02 0.  0.
         12    1    1    2    0    0 -0.30026067925E+02 -0.12157399118E+01 -0.10661941100E+02  0.31886043446E+02  0.00000000000E+00 0. -1.
         11    1    3    3    0    0  0.24149281060E+02 -0.20205272984E+02  0.11628818857E+02  0.33565909198E+02  0.51100000000E-03 0. -1.
        -11    1    3    3    0    0  0.43565877407E+01  0.14866330843E+02  0.54655337852E+01  0.16427407260E+02  0.51100000000E-03 0.  1.
         12    1    3    3    0    0  0.15201991249E+01  0.65546820523E+01 -0.64324115417E+01  0.93086400955E+01  0.00000000000E+00 0. -1.
</event>
<event>
 7    1  0.7819001E-012  0.5930192E+02  0.7816164E-02  0.1266605E+00
        -11   -1    0    0    0    0  0.00000000000E+00  0.00000000000E+00  0.45593999997E+02  0.45594000000E+02  0.51100000000E-03 0. -1.
         11   -1    0    0    0    0 -0.00000000000E+00 -0.00000000000E+00 -0.45593999997E+02  0.45594000000E+02  0.51100000000E-03 0.  1.
    9900012    2    1    2    0    0 -0.31823771031E+02 -0.17222833295E+01  0.10017608126E+01  0.59301918597E+02  0.49999953620E+02 0.  0.
         12    1    1    2    0    0  0.31823771031E+02  0.17222833295E+01 -0.10017608126E+01  0.31886081403E+02  0.00000000000E+00 0. -1.
         11    1    3    3    0    0  0.74285711635E+00  0.82185757764E+01  0.95510501316E+01  0.12622178234E+02  0.51100000000E-03 0. -1.
        -11    1    3    3    0    0 -0.31621723239E+02 -0.58596117239E+01 -0.17632807334E+02  0.36676754558E+02  0.51100000000E-03 0.  1.
        -12    1    3    3    0    0 -0.94490490858E+00 -0.40812473821E+01  0.90835180152E+01  0.10002985805E+02  0.00000000000E+00 0.  1.
</event>
<event>
 7    1  0.7819001E-012  0.5930200E+02  0.7816164E-02  0.1266605E+00
        -11   -1    0    0    0    0  0.00000000000E+00  0.00000000000E+00  0.45593999997E+02  0.45594000000E+02  0.51100000000E-03 0. -1.
         11   -1    0    0    0    0 -0.00000000000E+00 -0.00000000000E+00 -0.45593999997E+02  0.45594000000E+02  0.51100000000E-03 0.  1.
    9900012    2    1    2    0    0  0.22720272290E+02 -0.17154549801E+02 -0.14360623810E+02  0.59302002007E+02  0.50000105740E+02 0.  0.
         12    1    1    2    0    0 -0.22720272290E+02  0.17154549801E+02  0.14360623810E+02  0.31885997993E+02  0.00000000000E+00 0. -1.
         11    1    3    3    0    0  0.15330955314E+02  0.93112248953E+01 -0.10677850750E+02  0.20874711897E+02  0.51100000000E-03 0. -1.
        -11    1    3    3    0    0 -0.17311967802E+00 -0.24378873397E+02 -0.11846297963E+02  0.27105243297E+02  0.51100000000E-03 0.  1.
         12    1    3    3    0    0  0.75624366536E+01 -0.20869012999E+01  0.81635249033E+01  0.11322046812E+02  0.00000000000E+00 0. -1.
</event>
<event>
 7    1  0.7819001E-012  0.5930183E+02  0.7816164E-02  0.1266605E+00
        -11   -1    0    0    0    0  0.00000000000E+00  0.00000000000E+00  0.45593999997E+02  0.45594000000E+02  0.51100000000E-03 0.  1.
         11   -1    0    0    0    0 -0.00000000000E+00 -0.00000000000E+00 -0.45593999997E+02  0.45594000000E+02  0.51100000000E-03 0. -1.
    9900012    2    1    2    0    0  0.15041931832E+02  0.26772748356E+02 -0.85841664096E+01  0.59301832455E+02  0.49999796517E+02 0.  0.
         12    1    1    2    0    0 -0.15041931832E+02 -0.26772748356E+02  0.85841664096E+01  0.31886167545E+02  0.00000000000E+00 0. -1.
         11    1    3    3    0    0  0.17908531350E+02  0.52062490141E+01 -0.20949335292E+01  0.18767239292E+02  0.51100000000E-03 0. -1.
        -11    1    3    3    0    0  0.23744745521E+01  0.29816961943E+02 -0.26330794980E+01  0.30027028771E+02  0.51100000000E-03 0.  1.
        -12    1    3    3    0    0 -0.52410740701E+01 -0.82504626009E+01 -0.38561533824E+01  0.10507564392E+02  0.00000000000E+00 0.  1.
</event>
<event>
 7    1  0.7819001E-012  0.5930203E+02  0.7816164E-02  0.1266604E+00
        -11   -1    0    0    0    0  0.00000000000E+00  0.00000000000E+00  0.45593999997E+02  0.45594000000E+02  0.51100000000E-03 0. -1.
         11   -1    0    0    0    0 -0.00000000000E+00 -0.00000000000E+00 -0.45593999997E+02  0.45594000000E+02  0.51100000000E-03 0.  1.
    9900012    2    1    2    0    0 -0.14424239454E+01  0.74490934745E+01 -0.30970078754E+02  0.59302025678E+02  0.50000148911E+02 0.  0.
         12    1    1    2    0    0  0.14424239454E+01 -0.74490934745E+01  0.30970078754E+02  0.31885974322E+02  0.00000000000E+00 0. -1.
         11    1    3    3    0    0  0.27031669913E+00 -0.11406163007E+02 -0.50986787299E+00  0.11420752653E+02  0.51100000000E-03 0. -1.
        -11    1    3    3    0    0  0.98927045125E+01  0.21667594017E+02 -0.25660056953E+02  0.35011266132E+02  0.51100000000E-03 0.  1.
        -12    1    3    3    0    0 -0.11605445157E+02 -0.28123375364E+01 -0.48001539275E+01  0.12870006893E+02  0.00000000000E+00 0.  1.
</event>
<event>
 7    1  0.7819001E-012  0.5930187E+02  0.7816164E-02  0.1266605E+00
        -11   -1    0    0    0    0  0.00000000000E+00  0.00000000000E+00  0.45593999997E+02  0.45594000000E+02  0.51100000000E-03 0. -1.
         11   -1    0    0    0    0 -0.00000000000E+00 -0.00000000000E+00 -0.45593999997E+02  0.45594000000E+02  0.51100000000E-03 0.  1.
    9900012    2    1    2    0    0  0.25705363620E+02 -0.65005107131E+01 -0.17711657918E+02  0.59301871596E+02  0.49999867902E+02 0.  0.
         12    1    1    2    0    0 -0.25705363620E+02  0.65005107131E+01  0.17711657918E+02  0.31886128404E+02  0.00000000000E+00 0. -1.
         11    1    3    3    0    0 -0.69518587622E+01 -0.23696287117E+01  0.69378097891E+01  0.10103300719E+02  0.51100000000E-03 0. -1.
        -11    1    3    3    0    0  0.10465112360E+02  0.11219325278E+02 -0.11545796116E+02  0.19201490688E+02  0.51100000000E-03 0.  1.
         12    1    3    3    0    0  0.22192110022E+02 -0.15350207280E+02 -0.13103671591E+02  0.29997080190E+02  0.00000000000E+00 0. -1.
</event>
<event>
 7    1  0.7819001E-012  0.5930190E+02  0.7816164E-02  0.1266605E+00
        -11   -1    0    0    0    0  0.00000000000E+00  0.00000000000E+00  0.45593999997E+02  0.45594000000E+02  0.51100000000E-03 0.  1.
         11   -1    0    0    0    0 -0.00000000000E+00 -0.00000000000E+00 -0.45593999997E+02  0.45594000000E+02  0.51100000000E-03 0. -1.
    9900012    2    1    2    0    0  0.13137781992E+02 -0.18842103904E+02  0.22115545952E+02  0.59301896946E+02  0.49999914134E+02 0.  0.
         12    1    1    2    0    0 -0.13137781992E+02  0.18842103904E+02 -0.22115545952E+02  0.31886103054E+02  0.00000000000E+00 0. -1.
         11    1    3    3    0    0 -0.32418002604E+01 -0.15604268726E+01 -0.66650905378E+01  0.75741423997E+01  0.51100000000E-03 0. -1.
        -11    1    3    3    0    0  0.20710110971E+02 -0.21877317686E+02  0.32568076997E+02  0.44364460609E+02  0.51100000000E-03 0.  1.
        -12    1    3    3    0    0 -0.43305287185E+01  0.45956406542E+01 -0.37874405077E+01  0.73632939371E+01  0.00000000000E+00 0.  1.
</event>
<event>
 7    1  0.7819001E-012  0.5930197E+02  0.7816164E-02  0.1266605E+00
        -11   -1    0    0    0    0  0.00000000000E+00  0.00000000000E+00  0.45593999997E+02  0.45594000000E+02  0.51100000000E-03 0.  1.
         11   -1    0    0    0    0 -0.00000000000E+00 -0.00000000000E+00 -0.45593999997E+02  0.45594000000E+02  0.51100000000E-03 0. -1.
    9900012    2    1    2    0    0  0.29586390631E+02  0.13623851637E+01  0.11811367286E+02  0.59301968559E+02  0.50000044740E+02 0.  0.
         12    1    1    2    0    0 -0.29586390631E+02 -0.13623851637E+01 -0.11811367286E+02  0.31886031441E+02  0.00000000000E+00 0. -1.
         11    1    3    3    0    0  0.15561876168E+02 -0.20797642757E+02  0.11980018415E+02  0.28604803366E+02  0.51100000000E-03 0. -1.
        -11    1    3    3    0    0  0.10507942743E+02  0.21181053696E+02  0.51958817430E+01  0.24208491975E+02  0.51100000000E-03 0.  1.
         12    1    3    3    0    0  0.35165717194E+01  0.97897422494E+00 -0.53645328726E+01  0.64886732181E+01  0.00000000000E+00 0. -1.
</event>
<event>
 7    1  0.7819001E-012  0.5930190E+02  0.7816164E-02  0.1266605E+00
        -11   -1    0    0    0    0  0.00000000000E+00  0.00000000000E+00  0.45593999997E+02  0.45594000000E+02  0.51100000000E-03 0.  1.
         11   -1    0    0    0    0 -0.00000000000E+00 -0.00000000000E+00 -0.45593999997E+02  0.45594000000E+02  0.51100000000E-03 0. -1.
    9900012    2    1    2    0    0  0.25583921024E+02  0.14812006061E+02 -0.11949514898E+02  0.59301898877E+02  0.49999917656E+02 0.  0.
         12    1    1    2    0    0 -0.25583921024E+02 -0.14812006061E+02  0.11949514898E+02  0.31886101123E+02  0.00000000000E+00 0. -1.
         11    1    3    3    0    0 -0.28721839467E+01  0.84311060972E+00  0.12997817416E+01  0.32633891832E+01  0.51100000000E-03 0. -1.
        -11    1    3    3    0    0  0.13773312608E+02  0.25278994683E+02 -0.21320878035E+02  0.35823338103E+02  0.51100000000E-03 0.  1.
        -12    1    3    3    0    0  0.14682792363E+02 -0.11310099232E+02  0.80715813958E+01  0.20215171591E+02  0.00000000000E+00 0.  1.
</event>
<event>
 7    1  0.7819001E-012  0.5930197E+02  0.7816164E-02  0.1266605E+00
        -11   -1    0    0    0    0  0.00000000000E+00  0.00000000000E+00  0.45593999997E+02  0.45594000000E+02  0.51100000000E-03 0. -1.
         11   -1    0    0    0    0 -0.00000000000E+00 -0.00000000000E+00 -0.45593999997E+02  0.45594000000E+02  0.51100000000E-03 0.  1.
    9900012    2    1    2    0    0  0.28084293135E+02 -0.15018782877E+02 -0.15580888130E+01  0.59301968564E+02  0.50000044748E+02 0.  0.
         12    1    1    2    0    0 -0.28084293135E+02  0.15018782877E+02  0.15580888130E+01  0.31886031436E+02  0.00000000000E+00 0. -1.
         11    1    3    3    0    0  0.19070176130E+02  0.10665985841E+02 -0.13987439482E+01  0.21895007569E+02  0.51100000000E-03 0. -1.
        -11    1    3    3    0    0  0.11667949712E+02 -0.30003875262E+02 -0.12686125425E+01  0.32217742926E+02  0.51100000000E-03 0.  1.
        -12    1    3    3    0    0 -0.26538327062E+01  0.43191065446E+01  0.11092676776E+01  0.51892180680E+01  0.00000000000E+00 0.  1.
</event>
<event>
 7    1  0.7819001E-012  0.5930181E+02  0.7816164E-02  0.1266605E+00
        -11   -1    0    0    0    0  0.00000000000E+00  0.00000000000E+00  0.45593999997E+02  0.45594000000E+02  0.51100000000E-03 0.  1.
         11   -1    0    0    0    0 -0.00000000000E+00 -0.00000000000E+00 -0.45593999997E+02  0.45594000000E+02  0.51100000000E-03 0. -1.
    9900012    2    1    2    0    0 -0.31223668434E+02 -0.20829447287E+01  0.61215212614E+01  0.59301809387E+02  0.49999754448E+02 0.  0.
         12    1    1    2    0    0  0.31223668434E+02  0.20829447287E+01 -0.61215212614E+01  0.31886190613E+02  0.00000000000E+00 0. -1.
         11    1    3    3    0    0 -0.60244874961E+00 -0.16439194008E+02 -0.10825985990E+02  0.19692943331E+02  0.51100000000E-03 0. -1.
        -11    1    3    3    0    0 -0.24660120872E+02  0.98729458859E+01  0.17983958809E+02  0.32078332198E+02  0.51100000000E-03 0.  1.
         12    1    3    3    0    0 -0.59610988123E+01  0.44833033929E+01 -0.10364515569E+01  0.75305338584E+01  0.00000000000E+00 0. -1.
</event>
<event>
 7    1  0.7819001E-012  0.5930193E+02  0.7816164E-02  0.1266605E+00
        -11   -1    0    0    0    0  0.00000000000E+00  0.00000000000E+00  0.45593999997E+02  0.45594000000E+02  0.51100000000E-03 0.  1.
         11   -1    0    0    0    0 -0.00000000000E+00 -0.00000000000E+00 -0.45593999997E+02  0.45594000000E+02  0.51100000000E-03 0. -1.
    9900012    2    1    2    0    0  0.93016174790E+01 -0.19588031416E+02 -0.23377559835E+02  0.59301931470E+02  0.49999977098E+02 0.  0.
         12    1    1    2    0    0 -0.93016174790E+01  0.19588031416E+02  0.23377559835E+02  0.31886068530E+02  0.00000000000E+00 0. -1.
         11    1    3    3    0    0  0.94449529195E+00 -0.32435210005E+02 -0.64078786245E+01  0.33075607752E+02  0.51100000000E-03 0. -1.
        -11    1    3    3    0    0 -0.10907527433E+01  0.83597894901E+01 -0.33927621356E+01  0.90877201231E+01  0.51100000000E-03 0.  1.
         12    1    3    3    0    0  0.94478749304E+01  0.44873890992E+01 -0.13576919075E+02  0.17138603595E+02  0.00000000000E+00 0. -1.
</event>
<event>
 7    1  0.7819001E-012  0.5930199E+02  0.7816164E-02  0.1266605E+00
        -11   -1    0    0    0    0  0.00000000000E+00  0.00000000000E+00  0.45593999997E+02  0.45594000000E+02  0.51100000000E-03 0. -1.
         11   -1    0    0    0    0 -0.00000000000E+00 -0.00000000000E+00 -0.45593999997E+02  0.45594000000E+02  0.51100000000E-03 0.  1.
    9900012    2    1    2    0    0 -0.78647183136E+01 -0.30634997605E+02 -0.40448762876E+01  0.59301985878E+02  0.50000076325E+02 0.  0.
         12    1    1    2    0    0  0.78647183136E+01  0.30634997605E+02  0.40448762876E+01  0.31886014122E+02  0.00000000000E+00 0. -1.
         11    1    3    3    0    0 -0.13042221430E+02 -0.25395192612E+01  0.17272979184E+02  0.21792303872E+02  0.51100000000E-03 0. -1.
        -11    1    3    3    0    0  0.41575880043E+01 -0.13222338004E+02 -0.35345469158E+01  0.14304152631E+02  0.51100000000E-03 0.  1.
         12    1    3    3    0    0  0.10199151118E+01 -0.14873140339E+02 -0.17783308556E+02  0.23205529375E+02  0.00000000000E+00 0. -1.
</event>
<event>
 7    1  0.7819001E-012  0.5930195E+02  0.7816164E-02  0.1266605E+00
        -11   -1    0    0    0    0  0.00000000000E+00  0.00000000000E+00  0.45593999997E+02  0.45594000000E+02  0.51100000000E-03 0.  1.
         11   -1    0    0    0    0 -0.00000000000E+00 -0.00000000000E+00 -0.45593999997E+02  0.45594000000E+02  0.51100000000E-03 0. -1.
    9900012    2    1    2    0    0 -0.11041582883E+02  0.58376043216E-01  0.29913206568E+02  0.59301954659E+02  0.50000019389E+02 0.  0.
         12    1    1    2    0    0  0.11041582883E+02 -0.58376043216E-01 -0.29913206568E+02  0.31886045341E+02  0.00000000000E+00 0. -1.
         11    1    3    3    0    0  0.73967287135E+01 -0.75300955961E+01 -0.60398510170E+00  0.10572546222E+02  0.51100000000E-03 0. -1.
        -11    1    3    3    0    0 -0.20357566872E+02  0.26411074611E+01  0.35783193129E+02  0.41253398506E+02  0.51100000000E-03 0.  1.
        -12    1    3    3    0    0  0.19192552751E+01  0.49473641782E+01 -0.52660014591E+01  0.74760099311E+01  0.00000000000E+00 0.  1.
</event>
<event>
 7    1  0.7819001E-012  0.5930194E+02  0.7816164E-02  0.1266605E+00
        -11   -1    0    0    0    0  0.00000000000E+00  0.00000000000E+00  0.45593999997E+02  0.45594000000E+02  0.51100000000E-03 0.  1.
         11   -1    0    0    0    0 -0.00000000000E+00 -0.00000000000E+00 -0.45593999997E+02  0.45594000000E+02  0.51100000000E-03 0. -1.
    9900012    2    1    2    0    0 -0.24248937906E+02  0.80603709128E+01  0.19071980385E+02  0.59301937141E+02  0.49999987441E+02 0.  0.
         12    1    1    2    0    0  0.24248937906E+02 -0.80603709128E+01 -0.19071980385E+02  0.31886062859E+02  0.00000000000E+00 0. -1.
         11    1    3    3    0    0 -0.25343238569E+02 -0.13156280333E+02  0.19133803651E+02  0.34372516576E+02  0.51100000000E-03 0. -1.
        -11    1    3    3    0    0  0.16214564200E+01  0.46815702196E+01  0.55690631139E+01  0.74539040020E+01  0.51100000000E-03 0.  1.
         12    1    3    3    0    0 -0.52715575632E+00  0.16535081026E+02 -0.56308863799E+01  0.17475516563E+02  0.00000000000E+00 0. -1.
</event>
<event>
 7    1  0.7819001E-012  0.5930192E+02  0.7816164E-02  0.1266605E+00
        -11   -1    0    0    0    0  0.00000000000E+00  0.00000000000E+00  0.45593999997E+02  0.45594000000E+02  0.51100000000E-03 0.  1.
         11   -1    0    0    0    0 -0.00000000000E+00 -0.00000000000E+00 -0.45593999997E+02  0.45594000000E+02  0.51100000000E-03 0. -1.
    9900012    2    1    2    0    0 -0.19269387034E+02 -0.25198188018E+01  0.25279705124E+02  0.59301917540E+02  0.49999951692E+02 0.  0.
         12    1    1    2    0    0  0.19269387034E+02  0.25198188018E+01 -0.25279705124E+02  0.31886082460E+02  0.00000000000E+00 0. -1.
         11    1    3    3    0    0 -0.26743170859E+02  0.15346826521E+01 -0.26456055623E+00  0.26788475713E+02  0.51100000000E-03 0. -1.
        -11    1    3    3    0    0  0.30866790986E+01 -0.35702898452E+01  0.27342942102E+02  0.27747270866E+02  0.51100000000E-03 0.  1.
         12    1    3    3    0    0  0.43871047263E+01 -0.48421160876E+00 -0.17986764217E+01  0.47661709613E+01  0.00000000000E+00 0. -1.
</event>
<event>
 7    1  0.7819001E-012  0.5930194E+02  0.7816164E-02  0.1266605E+00
        -11   -1    0    0    0    0  0.00000000000E+00  0.00000000000E+00  0.45593999997E+02  0.45594000000E+02  0.51100000000E-03 0. -1.
         11   -1    0    0    0    0 -0.00000000000E+00 -0.00000000000E+00 -0.45593999997E+02  0.45594000000E+02  0.51100000000E-03 0.  1.
    9900012    2    1    2    0    0 -0.32768972840E+01  0.13294682923E+02 -0.28796427888E+02  0.59301938642E+02  0.49999990177E+02 0.  0.
         12    1    1    2    0    0  0.32768972840E+01 -0.13294682923E+02  0.28796427888E+02  0.31886061358E+02  0.00000000000E+00 0. -1.
         11    1    3    3    0    0 -0.18222931685E+01  0.29937627740E+02 -0.29682525489E+02  0.42197566597E+02  0.51100000000E-03 0. -1.
        -11    1    3    3    0    0  0.10521785013E+01 -0.73522355108E+01  0.89946330794E+00  0.74814090323E+01  0.51100000000E-03 0.  1.
         12    1    3    3    0    0 -0.25067826169E+01 -0.92907093057E+01 -0.13365706677E-01  0.96229630122E+01  0.00000000000E+00 0. -1.
</event>
<event>
 7    1  0.7819001E-012  0.5930200E+02  0.7816164E-02  0.1266605E+00
        -11   -1    0    0    0    0  0.00000000000E+00  0.00000000000E+00  0.45593999997E+02  0.45594000000E+02  0.51100000000E-03 0.  1.
         11   -1    0    0    0    0 -0.00000000000E+00 -0.00000000000E+00 -0.45593999997E+02  0.45594000000E+02  0.51100000000E-03 0. -1.
    9900012    2    1    2    0    0 -0.14437138276E+02  0.43718845653E+01  0.28092218173E+02  0.59301999025E+02  0.50000100302E+02 0.  0.
         12    1    1    2    0    0  0.14437138276E+02 -0.43718845653E+01 -0.28092218173E+02  0.31886000975E+02  0.00000000000E+00 0. -1.
         11    1    3    3    0    0  0.11185874451E+01 -0.15199591690E+02  0.13459921593E+02  0.20333428510E+02  0.51100000000E-03 0. -1.
        -11    1    3    3    0    0 -0.21933560538E+02  0.13580576304E+02  0.56109873828E+01  0.26400687686E+02  0.51100000000E-03 0.  1.
         12    1    3    3    0    0  0.63778348168E+01  0.59908999515E+01  0.90213091973E+01  0.12567882829E+02  0.00000000000E+00 0. -1.
</event>
<event>
 7    1  0.7819001E-012  0.5930195E+02  0.7816164E-02  0.1266605E+00
        -11   -1    0    0    0    0  0.00000000000E+00  0.00000000000E+00  0.45593999997E+02  0.45594000000E+02  0.51100000000E-03 0.  1.
         11   -1    0    0    0    0 -0.00000000000E+00 -0.00000000000E+00 -0.45593999997E+02  0.45594000000E+02  0.51100000000E-03 0. -1.
    9900012    2    1    2    0    0  0.12697555968E+02 -0.15383694555E+02  0.24876374762E+02  0.59301952785E+02  0.50000015971E+02 0.  0.
         12    1    1    2    0    0 -0.12697555968E+02  0.15383694555E+02 -0.24876374762E+02  0.31886047215E+02  0.00000000000E+00 0. -1.
         11    1    3    3    0    0 -0.92879231809E+01  0.38947962210E+01 -0.51731921068E+01  0.11322405727E+02  0.51100000000E-03 0. -1.
        -11    1    3    3    0    0  0.71860602282E+01 -0.15011239561E+02  0.27818083874E+02  0.32416393468E+02  0.51100000000E-03 0.  1.
         12    1    3    3    0    0  0.14799418920E+02 -0.42672512141E+01  0.22314829948E+01  0.15563153590E+02  0.00000000000E+00 0. -1.
</event>
<event>
 7    1  0.7819001E-012  0.5930194E+02  0.7816164E-02  0.1266605E+00
        -11   -1    0    0    0    0  0.00000000000E+00  0.00000000000E+00  0.45593999997E+02  0.45594000000E+02  0.51100000000E-03 0.  1.
         11   -1    0    0    0    0 -0.00000000000E+00 -0.00000000000E+00 -0.45593999997E+02  0.45594000000E+02  0.51100000000E-03 0. -1.
    9900012    2    1    2    0    0  0.51179028830E-01 -0.14121960959E+02  0.28588252917E+02  0.59301943401E+02  0.49999998857E+02 0.  0.
         12    1    1    2    0    0 -0.51179028830E-01  0.14121960959E+02 -0.28588252917E+02  0.31886056599E+02  0.00000000000E+00 0. -1.
         11    1    3    3    0    0  0.52719453487E+01 -0.11700611809E+02  0.15824831136E+01  0.12930660367E+02  0.51100000000E-03 0.  1.
        -11    1    3    3    0    0 -0.20255954642E+02  0.65611714506E+00  0.22702411199E+02  0.30432444245E+02  0.51100000000E-03 0. -1.
        -12    1    3    3    0    0  0.15035188322E+02 -0.30774662950E+01  0.43033586037E+01  0.15938838789E+02  0.00000000000E+00 0.  1.
</event>
<event>
 7    1  0.7819001E-012  0.5930192E+02  0.7816164E-02  0.1266605E+00
        -11   -1    0    0    0    0  0.00000000000E+00  0.00000000000E+00  0.45593999997E+02  0.45594000000E+02  0.51100000000E-03 0.  1.
         11   -1    0    0    0    0 -0.00000000000E+00 -0.00000000000E+00 -0.45593999997E+02  0.45594000000E+02  0.51100000000E-03 0. -1.
    9900012    2    1    2    0    0 -0.29069354117E+02  0.37416741975E+01  0.12557651680E+02  0.59301920117E+02  0.49999956392E+02 0.  0.
         12    1    1    2    0    0  0.29069354117E+02 -0.37416741975E+01 -0.12557651680E+02  0.31886079883E+02  0.00000000000E+00 0. -1.
         11    1    3    3    0    0  0.50354845816E+01  0.72647396729E+01 -0.31735216394E+01  0.93916871404E+01  0.51100000000E-03 0. -1.
        -11    1    3    3    0    0 -0.22319457869E+02 -0.18017366324E+02  0.93652317543E+01  0.30174347630E+02  0.51100000000E-03 0.  1.
        -12    1    3    3    0    0 -0.11785380830E+02  0.14494300849E+02  0.63659415650E+01  0.19735885346E+02  0.00000000000E+00 0.  1.
</event>
<event>
 7    1  0.7819001E-012  0.5930190E+02  0.7816164E-02  0.1266605E+00
        -11   -1    0    0    0    0  0.00000000000E+00  0.00000000000E+00  0.45593999997E+02  0.45594000000E+02  0.51100000000E-03 0.  1.
         11   -1    0    0    0    0 -0.00000000000E+00 -0.00000000000E+00 -0.45593999997E+02  0.45594000000E+02  0.51100000000E-03 0. -1.
    9900012    2    1    2    0    0 -0.23375574152E+01 -0.25306725233E+02  0.19256918565E+02  0.59301899120E+02  0.49999918099E+02 0.  0.
         12    1    1    2    0    0  0.23375574152E+01  0.25306725233E+02 -0.19256918565E+02  0.31886100880E+02  0.00000000000E+00 0. -1.
         11    1    3    3    0    0  0.92456736236E+01 -0.24344677317E+01 -0.13247343528E+02  0.16337111884E+02  0.51100000000E-03 0. -1.
        -11    1    3    3    0    0 -0.10641288790E+02 -0.13716586526E+02  0.14015648018E+02  0.22311883888E+02  0.51100000000E-03 0.  1.
         12    1    3    3    0    0 -0.94194224871E+00 -0.91556709762E+01  0.18488614076E+02  0.20652903348E+02  0.00000000000E+00 0. -1.
</event>
<event>
 7    1  0.7819001E-012  0.5930194E+02  0.7816164E-02  0.1266605E+00
        -11   -1    0    0    0    0  0.00000000000E+00  0.00000000000E+00  0.45593999997E+02  0.45594000000E+02  0.51100000000E-03 0. -1.
         11   -1    0    0    0    0 -0.00000000000E+00 -0.00000000000E+00 -0.45593999997E+02  0.45594000000E+02  0.51100000000E-03 0.  1.
    9900012    2    1    2    0    0 -0.21855772953E+02  0.23151810364E+02 -0.17435189658E+01  0.59301937325E+02  0.49999987776E+02 0.  0.
         12    1    1    2    0    0  0.21855772953E+02 -0.23151810364E+02  0.17435189658E+01  0.31886062675E+02  0.00000000000E+00 0. -1.
         11    1    3    3    0    0  0.13214333375E+02  0.35519353018E+01 -0.28217228913E+01  0.13971290966E+02  0.51100000000E-03 0. -1.
        -11    1    3    3    0    0 -0.24702088716E+02  0.17188366519E+02 -0.82205925238E+01  0.31196334275E+02  0.51100000000E-03 0.  1.
         12    1    3    3    0    0 -0.10368017612E+02  0.24115085439E+01  0.92987964493E+01  0.14134312083E+02  0.00000000000E+00 0. -1.
</event>
<event>
 7    1  0.7819001E-012  0.5930193E+02  0.7816164E-02  0.1266605E+00
        -11   -1    0    0    0    0  0.00000000000E+00  0.00000000000E+00  0.45593999997E+02  0.45594000000E+02  0.51100000000E-03 0.  1.
         11   -1    0    0    0    0 -0.00000000000E+00 -0.00000000000E+00 -0.45593999997E+02  0.45594000000E+02  0.51100000000E-03 0. -1.
    9900012    2    1    2    0    0 -0.99477601326E+01 -0.21607171378E+02  0.21234256838E+02  0.59301930156E+02  0.49999974701E+02 0.  0.
         12    1    1    2    0    0  0.99477601326E+01  0.21607171378E+02 -0.21234256838E+02  0.31886069844E+02  0.00000000000E+00 0. -1.
         11    1    3    3    0    0  0.24478564967E+01  0.10782155791E+02 -0.65921974137E+01  0.12872604707E+02  0.51100000000E-03 0. -1.
        -11    1    3    3    0    0 -0.11548116281E+02 -0.33201465688E+02  0.24356085657E+02  0.42765818386E+02  0.51100000000E-03 0.  1.
        -12    1    3    3    0    0 -0.84750034881E+00  0.81213851889E+00  0.34703685952E+01  0.36635070631E+01  0.00000000000E+00 0.  1.
</event>
<event>
 7    1  0.7819001E-012  0.5930187E+02  0.7816164E-02  0.1266605E+00
        -11   -1    0    0    0    0  0.00000000000E+00  0.00000000000E+00  0.45593999997E+02  0.45594000000E+02  0.51100000000E-03 0.  1.
         11   -1    0    0    0    0 -0.00000000000E+00 -0.00000000000E+00 -0.45593999997E+02  0.45594000000E+02  0.51100000000E-03 0. -1.
    9900012    2    1    2    0    0 -0.44898695888E+01 -0.26931847233E+02  0.16469429942E+02  0.59301867482E+02  0.49999860399E+02 0.  0.
         12    1    1    2    0    0  0.44898695888E+01  0.26931847233E+02 -0.16469429942E+02  0.31886132518E+02  0.00000000000E+00 0. -1.
         11    1    3    3    0    0  0.28763285948E+01 -0.10946824041E+02  0.31301199268E+02  0.33284700669E+02  0.51100000000E-03 0. -1.
        -11    1    3    3    0    0 -0.10568146527E+01  0.14016675312E+00 -0.68815939042E+01  0.69636799792E+01  0.51100000000E-03 0.  1.
        -12    1    3    3    0    0 -0.63093835309E+01 -0.16125189945E+02 -0.79501754212E+01  0.19053486834E+02  0.00000000000E+00 0.  1.
</event>
<event>
 7    1  0.7819001E-012  0.5930194E+02  0.7816164E-02  0.1266605E+00
        -11   -1    0    0    0    0  0.00000000000E+00  0.00000000000E+00  0.45593999997E+02  0.45594000000E+02  0.51100000000E-03 0. -1.
         11   -1    0    0    0    0 -0.00000000000E+00 -0.00000000000E+00 -0.45593999997E+02  0.45594000000E+02  0.51100000000E-03 0.  1.
    9900012    2    1    2    0    0  0.24768520982E+02 -0.19992950318E+02  0.18770499157E+01  0.59301937050E+02  0.49999987274E+02 0.  0.
         12    1    1    2    0    0 -0.24768520982E+02  0.19992950318E+02 -0.18770499157E+01  0.31886062950E+02  0.00000000000E+00 0. -1.
         11    1    3    3    0    0  0.19419997256E+02 -0.23013574109E+02 -0.12531604108E+02  0.32615977503E+02  0.51100000000E-03 0. -1.
        -11    1    3    3    0    0  0.13709098470E+02  0.22878554581E+01  0.73663122049E+01  0.15730105506E+02  0.51100000000E-03 0.  1.
         12    1    3    3    0    0 -0.83605747439E+01  0.73276833275E+00  0.70423418192E+01  0.10955854041E+02  0.00000000000E+00 0. -1.
</event>
<event>
 7    1  0.7819001E-012  0.5930199E+02  0.7816164E-02  0.1266605E+00
        -11   -1    0    0    0    0  0.00000000000E+00  0.00000000000E+00  0.45593999997E+02  0.45594000000E+02  0.51100000000E-03 0. -1.
         11   -1    0    0    0    0 -0.00000000000E+00 -0.00000000000E+00 -0.45593999997E+02  0.45594000000E+02  0.51100000000E-03 0.  1.
    9900012    2    1    2    0    0  0.31409368273E+02 -0.48705475157E+01 -0.25390348138E+01  0.59301994509E+02  0.50000092066E+02 0.  0.
         12    1    1    2    0    0 -0.31409368273E+02  0.48705475157E+01  0.25390348138E+01  0.31886005491E+02  0.00000000000E+00 0. -1.
         11    1    3    3    0    0  0.12788356870E+02 -0.24591753032E+02  0.38512416660E+01  0.27984432301E+02  0.51100000000E-03 0. -1.
        -11    1    3    3    0    0  0.69095887569E+01  0.15039066431E+02  0.12055130197E+01  0.16594251951E+02  0.51100000000E-03 0.  1.
         12    1    3    3    0    0  0.11711422646E+02  0.46821390849E+01 -0.75957894996E+01  0.14723310257E+02  0.00000000000E+00 0. -1.
</event>
<event>
 7    1  0.7819001E-012  0.5930195E+02  0.7816164E-02  0.1266605E+00
        -11   -1    0    0    0    0  0.00000000000E+00  0.00000000000E+00  0.45593999997E+02  0.45594000000E+02  0.51100000000E-03 0. -1.
         11   -1    0    0    0    0 -0.00000000000E+00 -0.00000000000E+00 -0.45593999997E+02  0.45594000000E+02  0.51100000000E-03 0.  1.
    9900012    2    1    2    0    0  0.15355605587E+02  0.27932869830E+02 -0.82482164120E+00  0.59301950219E+02  0.50000011292E+02 0.  0.
         12    1    1    2    0    0 -0.15355605587E+02 -0.27932869830E+02  0.82482164120E+00  0.31886049781E+02  0.00000000000E+00 0. -1.
         11    1    3    3    0    0  0.22961788108E+01  0.35646464582E+02  0.11027399485E+02  0.37383772067E+02  0.51100000000E-03 0. -1.
        -11    1    3    3    0    0  0.75561463152E+01 -0.96425630192E+01 -0.59426994236E+01  0.13615801314E+02  0.51100000000E-03 0.  1.
        -12    1    3    3    0    0  0.55032804615E+01  0.19289682670E+01 -0.59095217023E+01  0.83023768381E+01  0.00000000000E+00 0.  1.
</event>
<event>
 7    1  0.7819001E-012  0.5930194E+02  0.7816164E-02  0.1266605E+00
        -11   -1    0    0    0    0  0.00000000000E+00  0.00000000000E+00  0.45593999997E+02  0.45594000000E+02  0.51100000000E-03 0.  1.
         11   -1    0    0    0    0 -0.00000000000E+00 -0.00000000000E+00 -0.45593999997E+02  0.45594000000E+02  0.51100000000E-03 0. -1.
    9900012    2    1    2    0    0  0.19242818253E+02  0.20326717789E+02  0.15272834127E+02  0.59301937642E+02  0.49999988354E+02 0.  0.
         12    1    1    2    0    0 -0.19242818253E+02 -0.20326717789E+02 -0.15272834127E+02  0.31886062358E+02  0.00000000000E+00 0. -1.
         11    1    3    3    0    0  0.27818240694E+01  0.16845146272E+01 -0.16816279277E+02  0.17127854030E+02  0.51100000000E-03 0. -1.
        -11    1    3    3    0    0  0.10690055422E+02  0.15122889108E+02  0.15119175463E+02  0.23907499385E+02  0.51100000000E-03 0.  1.
         12    1    3    3    0    0  0.57709387620E+01  0.35193140543E+01  0.16969937941E+02  0.18266584227E+02  0.00000000000E+00 0. -1.
</event>
<event>
 7    1  0.7819001E-012  0.5930196E+02  0.7816164E-02  0.1266605E+00
        -11   -1    0    0    0    0  0.00000000000E+00  0.00000000000E+00  0.45593999997E+02  0.45594000000E+02  0.51100000000E-03 0.  1.
         11   -1    0    0    0    0 -0.00000000000E+00 -0.00000000000E+00 -0.45593999997E+02  0.45594000000E+02  0.51100000000E-03 0. -1.
    9900012    2    1    2    0    0  0.21414440945E+02  0.16527058433E+02  0.16881877064E+02  0.59301957369E+02  0.50000024332E+02 0.  0.
         12    1    1    2    0    0 -0.21414440945E+02 -0.16527058433E+02 -0.16881877064E+02  0.31886042631E+02  0.00000000000E+00 0. -1.
         11    1    3    3    0    0 -0.52460956395E+01 -0.49190525878E+01 -0.10045464618E+02  0.12354349739E+02  0.51100000000E-03 0. -1.
        -11    1    3    3    0    0  0.73033217056E+01  0.74457053446E+00  0.13976213952E+02  0.15786939219E+02  0.51100000000E-03 0.  1.
         12    1    3    3    0    0  0.19357214879E+02  0.20701540487E+02  0.12951127730E+02  0.31160668412E+02  0.00000000000E+00 0. -1.
</event>
<event>
 7    1  0.7819001E-012  0.5930194E+02  0.7816164E-02  0.1266605E+00
        -11   -1    0    0    0    0  0.00000000000E+00  0.00000000000E+00  0.45593999997E+02  0.45594000000E+02  0.51100000000E-03 0.  1.
         11   -1    0    0    0    0 -0.00000000000E+00 -0.00000000000E+00 -0.45593999997E+02  0.45594000000E+02  0.51100000000E-03 0. -1.
    9900012    2    1    2    0    0  0.21378649021E+02  0.14904427961E+01  0.23610439133E+02  0.59301938942E+02  0.49999990725E+02 0.  0.
         12    1    1    2    0    0 -0.21378649021E+02 -0.14904427961E+01 -0.23610439133E+02  0.31886061058E+02  0.00000000000E+00 0. -1.
         11    1    3    3    0    0 -0.76997468928E+01 -0.61882275313E+01  0.22266771707E+02  0.24359585069E+02  0.51100000000E-03 0. -1.
        -11    1    3    3    0    0  0.26922248558E+02  0.11399213102E+02  0.45371608202E+01  0.29586066912E+02  0.51100000000E-03 0.  1.
        -12    1    3    3    0    0  0.21561473565E+01 -0.37205427746E+01 -0.31934933939E+01  0.53562869619E+01  0.00000000000E+00 0.  1.
</event>
<event>
 7    1  0.7819001E-012  0.5930194E+02  0.7816164E-02  0.1266605E+00
        -11   -1    0    0    0    0  0.00000000000E+00  0.00000000000E+00  0.45593999997E+02  0.45594000000E+02  0.51100000000E-03 0. -1.
         11   -1    0    0    0    0 -0.00000000000E+00 -0.00000000000E+00 -0.45593999997E+02  0.45594000000E+02  0.51100000000E-03 0.  1.
    9900012    2    1    2    0    0 -0.11087813517E+02  0.28340218217E+02 -0.95191021728E+01  0.59301939043E+02  0.49999990910E+02 0.  0.
         12    1    1    2    0    0  0.11087813517E+02 -0.28340218217E+02  0.95191021728E+01  0.31886060957E+02  0.00000000000E+00 0. -1.
         11    1    3    3    0    0  0.83428449852E+01 -0.35528582114E+01  0.92307392871E+01  0.12939567688E+02  0.51100000000E-03 0. -1.
        -11    1    3    3    0    0 -0.11899827936E+02  0.59384535823E+01 -0.13269928359E+02  0.18787286519E+02  0.51100000000E-03 0.  1.
        -12    1    3    3    0    0 -0.75308305663E+01  0.25954622846E+02 -0.54799131013E+01  0.27575084835E+02  0.00000000000E+00 0.  1.
</event>
<event>
 7    1  0.7819001E-012  0.5930194E+02  0.7816164E-02  0.1266605E+00
        -11   -1    0    0    0    0  0.00000000000E+00  0.00000000000E+00  0.45593999997E+02  0.45594000000E+02  0.51100000000E-03 0.  1.
         11   -1    0    0    0    0 -0.00000000000E+00 -0.00000000000E+00 -0.45593999997E+02  0.45594000000E+02  0.51100000000E-03 0. -1.
    9900012    2    1    2    0    0 -0.13387402176E+02  0.28804514336E+02  0.27924987357E+01  0.59301942980E+02  0.49999998088E+02 0.  0.
         12    1    1    2    0    0  0.13387402176E+02 -0.28804514336E+02 -0.27924987357E+01  0.31886057020E+02  0.00000000000E+00 0. -1.
         11    1    3    3    0    0  0.58417128460E+01  0.15213011852E+02  0.14818227208E+02  0.22025921012E+02  0.51100000000E-03 0.  1.
        -11    1    3    3    0    0 -0.10224260791E+02 -0.42584095659E+01  0.38720897483E+01  0.11732972344E+02  0.51100000000E-03 0. -1.
         12    1    3    3    0    0 -0.90048542308E+01  0.17849912049E+02 -0.15897818220E+02  0.25543049623E+02  0.00000000000E+00 0. -1.
</event>
<event>
 7    1  0.7819001E-012  0.5930196E+02  0.7816164E-02  0.1266605E+00
        -11   -1    0    0    0    0  0.00000000000E+00  0.00000000000E+00  0.45593999997E+02  0.45594000000E+02  0.51100000000E-03 0.  1.
         11   -1    0    0    0    0 -0.00000000000E+00 -0.00000000000E+00 -0.45593999997E+02  0.45594000000E+02  0.51100000000E-03 0. -1.
    9900012    2    1    2    0    0  0.60091101999E+01  0.22155509181E+02  0.22130150351E+02  0.59301959998E+02  0.50000029125E+02 0.  0.
         12    1    1    2    0    0 -0.60091101999E+01 -0.22155509181E+02 -0.22130150351E+02  0.31886040002E+02  0.00000000000E+00 0. -1.
         11    1    3    3    0    0  0.43931386004E+01  0.10185571558E+02 -0.54943827700E+01  0.12378763145E+02  0.51100000000E-03 0. -1.
        -11    1    3    3    0    0  0.93896288673E+01 -0.10534458167E+02  0.10774105759E+02  0.17754472515E+02  0.51100000000E-03 0.  1.
        -12    1    3    3    0    0 -0.77736572678E+01  0.22504395789E+02  0.16850427362E+02  0.29168724337E+02  0.00000000000E+00 0.  1.
</event>
<event>
 7    1  0.7819001E-012  0.5930195E+02  0.7816164E-02  0.1266605E+00
        -11   -1    0    0    0    0  0.00000000000E+00  0.00000000000E+00  0.45593999997E+02  0.45594000000E+02  0.51100000000E-03 0. -1.
         11   -1    0    0    0    0 -0.00000000000E+00 -0.00000000000E+00 -0.45593999997E+02  0.45594000000E+02  0.51100000000E-03 0.  1.
    9900012    2    1    2    0    0 -0.31056802819E+02  0.60993970674E+01 -0.38720201422E+01  0.59301949979E+02  0.50000010854E+02 0.  0.
         12    1    1    2    0    0  0.31056802819E+02 -0.60993970674E+01  0.38720201422E+01  0.31886050021E+02  0.00000000000E+00 0. -1.
         11    1    3    3    0    0 -0.18924046690E+02  0.15407389677E+02  0.62249051135E+01  0.25184452421E+02  0.51100000000E-03 0. -1.
        -11    1    3    3    0    0 -0.67365961263E+01  0.38901147611E+01 -0.16685835036E+02  0.18410100796E+02  0.51100000000E-03 0.  1.
         12    1    3    3    0    0 -0.53961600029E+01 -0.13198107371E+02  0.65889097803E+01  0.15707396762E+02  0.00000000000E+00 0. -1.
</event>
<event>
 7    1  0.7819001E-012  0.5930192E+02  0.7816164E-02  0.1266605E+00
        -11   -1    0    0    0    0  0.00000000000E+00  0.00000000000E+00  0.45593999997E+02  0.45594000000E+02  0.51100000000E-03 0.  1.
         11   -1    0    0    0    0 -0.00000000000E+00 -0.00000000000E+00 -0.45593999997E+02  0.45594000000E+02  0.51100000000E-03 0. -1.
    9900012    2    1    2    0    0 -0.17436969457E+01  0.57121817565E+01  0.31321758766E+02  0.59301920409E+02  0.49999956925E+02 0.  0.
         12    1    1    2    0    0  0.17436969457E+01 -0.57121817565E+01 -0.31321758766E+02  0.31886079591E+02  0.00000000000E+00 0. -1.
         11    1    3    3    0    0 -0.17602140259E+02 -0.11536354400E+01  0.22930695371E+02  0.28930658598E+02  0.51100000000E-03 0. -1.
        -11    1    3    3    0    0  0.30760794452E+01 -0.75902332926E+01 -0.20337023129E+01  0.84385929839E+01  0.51100000000E-03 0.  1.
         12    1    3    3    0    0  0.12782363868E+02  0.14456050489E+02  0.10424765708E+02  0.21932668827E+02  0.00000000000E+00 0. -1.
</event>
<event>
 7    1  0.7819001E-012  0.5930193E+02  0.7816164E-02  0.1266605E+00
        -11   -1    0    0    0    0  0.00000000000E+00  0.00000000000E+00  0.45593999997E+02  0.45594000000E+02  0.51100000000E-03 0. -1.
         11   -1    0    0    0    0 -0.00000000000E+00 -0.00000000000E+00 -0.45593999997E+02  0.45594000000E+02  0.51100000000E-03 0.  1.
    9900012    2    1    2    0    0  0.30064280980E+02 -0.10570428149E+02 -0.10613560390E+01  0.59301930648E+02  0.49999975599E+02 0.  0.
         12    1    1    2    0    0 -0.30064280980E+02  0.10570428149E+02  0.10613560390E+01  0.31886069352E+02  0.00000000000E+00 0. -1.
         11    1    3    3    0    0  0.35810574499E+02 -0.47377537514E+01  0.10091241170E+02  0.37505688970E+02  0.51100000000E-03 0. -1.
        -11    1    3    3    0    0 -0.54244043859E+01 -0.11005109990E+02 -0.11201520694E+02  0.16613569001E+02  0.51100000000E-03 0.  1.
         12    1    3    3    0    0 -0.32188913312E+00  0.51724355920E+01  0.48923485588E-01  0.51826726768E+01  0.00000000000E+00 0. -1.
</event>
<event>
 7    1  0.7819001E-012  0.5930195E+02  0.7816164E-02  0.1266605E+00
        -11   -1    0    0    0    0  0.00000000000E+00  0.00000000000E+00  0.45593999997E+02  0.45594000000E+02  0.51100000000E-03 0.  1.
         11   -1    0    0    0    0 -0.00000000000E+00 -0.00000000000E+00 -0.45593999997E+02  0.45594000000E+02  0.51100000000E-03 0. -1.
    9900012    2    1    2    0    0 -0.18987452046E+02 -0.78894560250E+01  0.24371152861E+02  0.59301953783E+02  0.50000017792E+02 0.  0.
         12    1    1    2    0    0  0.18987452046E+02  0.78894560250E+01 -0.24371152861E+02  0.31886046217E+02  0.00000000000E+00 0. -1.
         11    1    3    3    0    0 -0.93448785233E+01 -0.95163128848E+01 -0.96946864386E+01  0.16488599423E+02  0.51100000000E-03 0.  1.
        -11    1    3    3    0    0  0.13163461434E+01  0.11136664949E+02  0.17573782759E+02  0.20846964145E+02  0.51100000000E-03 0. -1.
         12    1    3    3    0    0 -0.10958919666E+02 -0.95098080889E+01  0.16492056541E+02  0.21966390215E+02  0.00000000000E+00 0. -1.
</event>
<event>
 7    1  0.7819001E-012  0.5930194E+02  0.7816164E-02  0.1266605E+00
        -11   -1    0    0    0    0  0.00000000000E+00  0.00000000000E+00  0.45593999997E+02  0.45594000000E+02  0.51100000000E-03 0. -1.
         11   -1    0    0    0    0 -0.00000000000E+00 -0.00000000000E+00 -0.45593999997E+02  0.45594000000E+02  0.51100000000E-03 0.  1.
    9900012    2    1    2    0    0  0.20980212103E+02 -0.23640612273E+02 -0.42039226572E+01  0.59301940127E+02  0.49999992886E+02 0.  0.
         12    1    1    2    0    0 -0.20980212103E+02  0.23640612273E+02  0.42039226572E+01  0.31886059873E+02  0.00000000000E+00 0. -1.
         11    1    3    3    0    0  0.13755177252E+02 -0.14656041975E+02  0.51537231558E+00  0.20106468523E+02  0.51100000000E-03 0. -1.
        -11    1    3    3    0    0 -0.13166626321E+02  0.49840256903E+01 -0.26988648547E+00  0.14080958765E+02  0.51100000000E-03 0.  1.
        -12    1    3    3    0    0  0.20391661172E+02 -0.13968595988E+02 -0.44494084874E+01  0.25114512839E+02  0.00000000000E+00 0.  1.
</event>
<event>
 7    1  0.7819001E-012  0.5930191E+02  0.7816164E-02  0.1266605E+00
        -11   -1    0    0    0    0  0.00000000000E+00  0.00000000000E+00  0.45593999997E+02  0.45594000000E+02  0.51100000000E-03 0. -1.
         11   -1    0    0    0    0 -0.00000000000E+00 -0.00000000000E+00 -0.45593999997E+02  0.45594000000E+02  0.51100000000E-03 0.  1.
    9900012    2    1    2    0    0 -0.96114184398E+01  0.64469506387E+01 -0.29711619036E+02  0.59301908319E+02  0.49999934876E+02 0.  0.
         12    1    1    2    0    0  0.96114184398E+01 -0.64469506387E+01  0.29711619036E+02  0.31886091681E+02  0.00000000000E+00 0. -1.
         11    1    3    3    0    0 -0.41225869913E+01 -0.72558120082E+01  0.23479167728E+01  0.86692124690E+01  0.51100000000E-03 0. -1.
        -11    1    3    3    0    0 -0.24839586801E+01  0.11090815581E+02 -0.40089730219E+02  0.41669685747E+02  0.51100000000E-03 0.  1.
        -12    1    3    3    0    0 -0.30048727684E+01  0.26119470655E+01  0.80301944107E+01  0.89630101026E+01  0.00000000000E+00 0.  1.
</event>
<event>
 7    1  0.7819001E-012  0.5930192E+02  0.7816164E-02  0.1266605E+00
        -11   -1    0    0    0    0  0.00000000000E+00  0.00000000000E+00  0.45593999997E+02  0.45594000000E+02  0.51100000000E-03 0.  1.
         11   -1    0    0    0    0 -0.00000000000E+00 -0.00000000000E+00 -0.45593999997E+02  0.45594000000E+02  0.51100000000E-03 0. -1.
    9900012    2    1    2    0    0 -0.23167833223E+02 -0.10708125139E+02  0.19113075662E+02  0.59301919942E+02  0.49999956073E+02 0.  0.
         12    1    1    2    0    0  0.23167833223E+02  0.10708125139E+02 -0.19113075662E+02  0.31886080058E+02  0.00000000000E+00 0. -1.
         11    1    3    3    0    0 -0.10115538671E+01  0.61508862016E+01  0.36030261066E+01  0.71998916434E+01  0.51100000000E-03 0. -1.
        -11    1    3    3    0    0 -0.25039316826E+02 -0.23489459361E+02 -0.71391084148E+00  0.34339944047E+02  0.51100000000E-03 0.  1.
        -12    1    3    3    0    0  0.28830374706E+01  0.66304480208E+01  0.16223960397E+02  0.17762084252E+02  0.00000000000E+00 0.  1.
</event>
<event>
 7    1  0.7819001E-012  0.5930193E+02  0.7816164E-02  0.1266605E+00
        -11   -1    0    0    0    0  0.00000000000E+00  0.00000000000E+00  0.45593999997E+02  0.45594000000E+02  0.51100000000E-03 0. -1.
         11   -1    0    0    0    0 -0.00000000000E+00 -0.00000000000E+00 -0.45593999997E+02  0.45594000000E+02  0.51100000000E-03 0.  1.
    9900012    2    1    2    0    0 -0.97459097622E+01 -0.29708773135E+02  0.62552083271E+01  0.59301927970E+02  0.49999970715E+02 0.  0.
         12    1    1    2    0    0  0.97459097622E+01  0.29708773135E+02 -0.62552083271E+01  0.31886072030E+02  0.00000000000E+00 0. -1.
         11    1    3    3    0    0 -0.18195285303E+02 -0.21082970255E+01 -0.96494742487E+00  0.18342422070E+02  0.51100000000E-03 0. -1.
        -11    1    3    3    0    0 -0.13702881885E+01 -0.25073197914E+02  0.14011825350E+02  0.28755420241E+02  0.51100000000E-03 0.  1.
        -12    1    3    3    0    0  0.98196637297E+01 -0.25272781951E+01 -0.67916695975E+01  0.12204085659E+02  0.00000000000E+00 0.  1.
</event>
<event>
 7    1  0.7819001E-012  0.5930194E+02  0.7816164E-02  0.1266605E+00
        -11   -1    0    0    0    0  0.00000000000E+00  0.00000000000E+00  0.45593999997E+02  0.45594000000E+02  0.51100000000E-03 0.  1.
         11   -1    0    0    0    0 -0.00000000000E+00 -0.00000000000E+00 -0.45593999997E+02  0.45594000000E+02  0.51100000000E-03 0. -1.
    9900012    2    1    2    0    0 -0.22117963156E+02 -0.16253621477E+02  0.16227640046E+02  0.59301940244E+02  0.49999993099E+02 0.  0.
         12    1    1    2    0    0  0.22117963156E+02  0.16253621477E+02 -0.16227640046E+02  0.31886059756E+02  0.00000000000E+00 0. -1.
         11    1    3    3    0    0 -0.72465469463E+01  0.89954913641E+01  0.10130055847E+02  0.15363897268E+02  0.51100000000E-03 0. -1.
        -11    1    3    3    0    0 -0.49470119839E+01 -0.83410217560E+01 -0.13232552716E+02  0.16405670457E+02  0.51100000000E-03 0.  1.
        -12    1    3    3    0    0 -0.99244042260E+01 -0.16908091085E+02  0.19330136915E+02  0.27532372519E+02  0.00000000000E+00 0.  1.
</event>
<event>
 7    1  0.7819001E-012  0.5930195E+02  0.7816164E-02  0.1266605E+00
        -11   -1    0    0    0    0  0.00000000000E+00  0.00000000000E+00  0.45593999997E+02  0.45594000000E+02  0.51100000000E-03 0.  1.
         11   -1    0    0    0    0 -0.00000000000E+00 -0.00000000000E+00 -0.45593999997E+02  0.45594000000E+02  0.51100000000E-03 0. -1.
    9900012    2    1    2    0    0 -0.20236023668E+02  0.14489379869E+02  0.19931925201E+02  0.59301946229E+02  0.50000004014E+02 0.  0.
         12    1    1    2    0    0  0.20236023668E+02 -0.14489379869E+02 -0.19931925201E+02  0.31886053771E+02  0.00000000000E+00 0. -1.
         11    1    3    3    0    0  0.75947966065E+01 -0.12446766235E+02  0.11910952406E+02  0.18827472286E+02  0.51100000000E-03 0. -1.
        -11    1    3    3    0    0 -0.14732150711E+02  0.18336810215E+02  0.78735314555E+01  0.24804583674E+02  0.51100000000E-03 0.  1.
         12    1    3    3    0    0 -0.13098669564E+02  0.85993358894E+01  0.14744133937E+00  0.15669890269E+02  0.00000000000E+00 0. -1.
</event>
<event>
 7    1  0.7819001E-012  0.5930195E+02  0.7816164E-02  0.1266605E+00
        -11   -1    0    0    0    0  0.00000000000E+00  0.00000000000E+00  0.45593999997E+02  0.45594000000E+02  0.51100000000E-03 0.  1.
         11   -1    0    0    0    0 -0.00000000000E+00 -0.00000000000E+00 -0.45593999997E+02  0.45594000000E+02  0.51100000000E-03 0. -1.
    9900012    2    1    2    0    0 -0.17280712250E+02 -0.10511082936E+02  0.24649834324E+02  0.59301949562E+02  0.50000010093E+02 0.  0.
         12    1    1    2    0    0  0.17280712250E+02  0.10511082936E+02 -0.24649834324E+02  0.31886050438E+02  0.00000000000E+00 0. -1.
         11    1    3    3    0    0 -0.16446533956E+02  0.10788701338E+02  0.19336445432E+01  0.19764198370E+02  0.51100000000E-03 0. -1.
        -11    1    3    3    0    0  0.11686595097E+02 -0.90883644703E+01  0.91564339591E+01  0.17407330548E+02  0.51100000000E-03 0.  1.
        -12    1    3    3    0    0 -0.12520773390E+02 -0.12211419803E+02  0.13559755822E+02  0.22130420643E+02  0.00000000000E+00 0.  1.
</event>
<event>
 7    1  0.7819001E-012  0.5930192E+02  0.7816164E-02  0.1266605E+00
        -11   -1    0    0    0    0  0.00000000000E+00  0.00000000000E+00  0.45593999997E+02  0.45594000000E+02  0.51100000000E-03 0.  1.
         11   -1    0    0    0    0 -0.00000000000E+00 -0.00000000000E+00 -0.45593999997E+02  0.45594000000E+02  0.51100000000E-03 0. -1.
    9900012    2    1    2    0    0  0.89404758947E+01  0.10989142738E+02  0.28566211089E+02  0.59301924931E+02  0.49999965172E+02 0.  0.
         12    1    1    2    0    0 -0.89404758947E+01 -0.10989142738E+02 -0.28566211089E+02  0.31886075069E+02  0.00000000000E+00 0. -1.
         11    1    3    3    0    0 -0.94088557932E+01 -0.58290147175E+01 -0.71320606735E+00  0.11091106485E+02  0.51100000000E-03 0. -1.
        -11    1    3    3    0    0  0.18676070816E+02  0.21474741667E+02  0.31986465824E+02  0.42814648742E+02  0.51100000000E-03 0.  1.
        -12    1    3    3    0    0 -0.32673912810E+00 -0.46565842116E+01 -0.27070486673E+01  0.53961697031E+01  0.00000000000E+00 0.  1.
</event>
<event>
 7    1  0.7819001E-012  0.5930188E+02  0.7816164E-02  0.1266605E+00
        -11   -1    0    0    0    0  0.00000000000E+00  0.00000000000E+00  0.45593999997E+02  0.45594000000E+02  0.51100000000E-03 0.  1.
         11   -1    0    0    0    0 -0.00000000000E+00 -0.00000000000E+00 -0.45593999997E+02  0.45594000000E+02  0.51100000000E-03 0. -1.
    9900012    2    1    2    0    0 -0.27669569184E+02 -0.25703064499E+01  0.15636910237E+02  0.59301882396E+02  0.49999887599E+02 0.  0.
         12    1    1    2    0    0  0.27669569184E+02  0.25703064499E+01 -0.15636910237E+02  0.31886117604E+02  0.00000000000E+00 0. -1.
         11    1    3    3    0    0 -0.25600916816E+02  0.14653173464E+02  0.20356581803E+00  0.29498540196E+02  0.51100000000E-03 0. -1.
        -11    1    3    3    0    0 -0.92940306257E+01 -0.88720351328E+01  0.30396765685E+01  0.13203471005E+02  0.51100000000E-03 0.  1.
         12    1    3    3    0    0  0.72253782580E+01 -0.83514447815E+01  0.12393667851E+02  0.16599871196E+02  0.00000000000E+00 0. -1.
</event>
<event>
 7    1  0.7819001E-012  0.5930192E+02  0.7816164E-02  0.1266605E+00
        -11   -1    0    0    0    0  0.00000000000E+00  0.00000000000E+00  0.45593999997E+02  0.45594000000E+02  0.51100000000E-03 0. -1.
         11   -1    0    0    0    0 -0.00000000000E+00 -0.00000000000E+00 -0.45593999997E+02  0.45594000000E+02  0.51100000000E-03 0.  1.
    9900012    2    1    2    0    0  0.25096817484E+02  0.19661307841E+02  0.55204331975E+00  0.59301921130E+02  0.49999958241E+02 0.  0.
         12    1    1    2    0    0 -0.25096817484E+02 -0.19661307841E+02 -0.55204331975E+00  0.31886078870E+02  0.00000000000E+00 0. -1.
         11    1    3    3    0    0  0.71959174813E+00  0.22367722040E+02  0.93822648411E+01  0.24266431451E+02  0.51100000000E-03 0. -1.
        -11    1    3    3    0    0  0.15113674108E+02 -0.59549415630E+01  0.59435190323E+01  0.17297684608E+02  0.51100000000E-03 0.  1.
         12    1    3    3    0    0  0.92635516283E+01  0.32485273639E+01 -0.14773740554E+02  0.17737805071E+02  0.00000000000E+00 0. -1.
</event>
<event>
 7    1  0.7819001E-012  0.5930193E+02  0.7816164E-02  0.1266605E+00
        -11   -1    0    0    0    0  0.00000000000E+00  0.00000000000E+00  0.45593999997E+02  0.45594000000E+02  0.51100000000E-03 0.  1.
         11   -1    0    0    0    0 -0.00000000000E+00 -0.00000000000E+00 -0.45593999997E+02  0.45594000000E+02  0.51100000000E-03 0. -1.
    9900012    2    1    2    0    0  0.18503369126E+02 -0.14768918666E+02  0.21359442454E+02  0.59301930793E+02  0.49999975862E+02 0.  0.
         12    1    1    2    0    0 -0.18503369126E+02  0.14768918666E+02 -0.21359442454E+02  0.31886069207E+02  0.00000000000E+00 0. -1.
         11    1    3    3    0    0  0.23255791001E+01 -0.24327059651E+02 -0.44547397077E+01  0.24840669386E+02  0.51100000000E-03 0. -1.
        -11    1    3    3    0    0  0.10540926112E+02  0.25698602333E+01  0.53138995112E+01  0.12081094039E+02  0.51100000000E-03 0.  1.
         12    1    3    3    0    0  0.56368639139E+01  0.69882807518E+01  0.20500282651E+02  0.22380167368E+02  0.00000000000E+00 0. -1.
</event>
<event>
 7    1  0.7819001E-012  0.5930194E+02  0.7816164E-02  0.1266605E+00
        -11   -1    0    0    0    0  0.00000000000E+00  0.00000000000E+00  0.45593999997E+02  0.45594000000E+02  0.51100000000E-03 0.  1.
         11   -1    0    0    0    0 -0.00000000000E+00 -0.00000000000E+00 -0.45593999997E+02  0.45594000000E+02  0.51100000000E-03 0. -1.
    9900012    2    1    2    0    0 -0.19307975921E+00  0.84255829462E+01  0.30752127366E+02  0.59301936190E+02  0.49999985706E+02 0.  0.
         12    1    1    2    0    0  0.19307975921E+00 -0.84255829462E+01 -0.30752127366E+02  0.31886063810E+02  0.00000000000E+00 0. -1.
         11    1    3    3    0    0  0.86939461944E+01  0.83152233765E+01 -0.34167074051E+01  0.12506059731E+02  0.51100000000E-03 0. -1.
        -11    1    3    3    0    0 -0.13123428710E+02 -0.94722812693E+01  0.32334870137E+02  0.36159263275E+02  0.51100000000E-03 0.  1.
        -12    1    3    3    0    0  0.42364027560E+01  0.95826408390E+01  0.18339646337E+01  0.10636613185E+02  0.00000000000E+00 0.  1.
</event>
<event>
 7    1  0.7819001E-012  0.5930192E+02  0.7816164E-02  0.1266605E+00
        -11   -1    0    0    0    0  0.00000000000E+00  0.00000000000E+00  0.45593999997E+02  0.45594000000E+02  0.51100000000E-03 0. -1.
         11   -1    0    0    0    0 -0.00000000000E+00 -0.00000000000E+00 -0.45593999997E+02  0.45594000000E+02  0.51100000000E-03 0.  1.
    9900012    2    1    2    0    0  0.88033556130E+01 -0.12395552491E+01 -0.30621663779E+02  0.59301923730E+02  0.49999962982E+02 0.  0.
         12    1    1    2    0    0 -0.88033556130E+01  0.12395552491E+01  0.30621663779E+02  0.31886076270E+02  0.00000000000E+00 0. -1.
         11    1    3    3    0    0 -0.11677012025E+02  0.17122861568E+02 -0.18469933429E+02  0.27761185840E+02  0.51100000000E-03 0. -1.
        -11    1    3    3    0    0  0.65687260236E+01 -0.11482123397E+02 -0.80600597040E+01  0.15490380304E+02  0.51100000000E-03 0.  1.
         12    1    3    3    0    0  0.13911641615E+02 -0.68802934207E+01 -0.40916706466E+01  0.16050357586E+02  0.00000000000E+00 0. -1.
</event>
<event>
 7    1  0.7819001E-012  0.5930194E+02  0.7816164E-02  0.1266605E+00
        -11   -1    0    0    0    0  0.00000000000E+00  0.00000000000E+00  0.45593999997E+02  0.45594000000E+02  0.51100000000E-03 0. -1.
         11   -1    0    0    0    0 -0.00000000000E+00 -0.00000000000E+00 -0.45593999997E+02  0.45594000000E+02  0.51100000000E-03 0.  1.
    9900012    2    1    2    0    0 -0.15326592215E+02 -0.18708428686E+02 -0.20780062726E+02  0.59301941295E+02  0.49999995017E+02 0.  0.
         12    1    1    2    0    0  0.15326592215E+02  0.18708428686E+02  0.20780062726E+02  0.31886058705E+02  0.00000000000E+00 0. -1.
         11    1    3    3    0    0 -0.15840733934E+02 -0.23773534161E+02 -0.22487679918E+02  0.36356643497E+02  0.51100000000E-03 0. -1.
        -11    1    3    3    0    0 -0.99487830376E+01  0.65844672702E+01 -0.11711843536E+01  0.11987708964E+02  0.51100000000E-03 0.  1.
        -12    1    3    3    0    0  0.10462924756E+02 -0.15193617950E+01  0.28788015452E+01  0.10957588834E+02  0.00000000000E+00 0.  1.
</event>
<event>
 7    1  0.7819001E-012  0.5930195E+02  0.7816164E-02  0.1266605E+00
        -11   -1    0    0    0    0  0.00000000000E+00  0.00000000000E+00  0.45593999997E+02  0.45594000000E+02  0.51100000000E-03 0. -1.
         11   -1    0    0    0    0 -0.00000000000E+00 -0.00000000000E+00 -0.45593999997E+02  0.45594000000E+02  0.51100000000E-03 0.  1.
    9900012    2    1    2    0    0  0.32433477656E+01 -0.14752009760E+01 -0.31686344172E+02  0.59301953998E+02  0.50000018184E+02 0.  0.
         12    1    1    2    0    0 -0.32433477656E+01  0.14752009760E+01  0.31686344172E+02  0.31886046002E+02  0.00000000000E+00 0. -1.
         11    1    3    3    0    0  0.38492105563E+01  0.61683376748E+01  0.10093967294E+02  0.12439975385E+02  0.51100000000E-03 0. -1.
        -11    1    3    3    0    0 -0.74750909960E+01 -0.92709600017E+01 -0.14923593672E+02  0.19092965540E+02  0.51100000000E-03 0.  1.
         12    1    3    3    0    0  0.68692282053E+01  0.16274213509E+01 -0.26856717794E+02  0.27769013073E+02  0.00000000000E+00 0. -1.
</event>
<event>
 7    1  0.7819001E-012  0.5930196E+02  0.7816164E-02  0.1266605E+00
        -11   -1    0    0    0    0  0.00000000000E+00  0.00000000000E+00  0.45593999997E+02  0.45594000000E+02  0.51100000000E-03 0.  1.
         11   -1    0    0    0    0 -0.00000000000E+00 -0.00000000000E+00 -0.45593999997E+02  0.45594000000E+02  0.51100000000E-03 0. -1.
    9900012    2    1    2    0    0 -0.24159615475E+02  0.43708370247E+01  0.20345226098E+02  0.59301961344E+02  0.50000031581E+02 0.  0.
         12    1    1    2    0    0  0.24159615475E+02 -0.43708370247E+01 -0.20345226098E+02  0.31886038656E+02  0.00000000000E+00 0. -1.
         11    1    3    3    0    0 -0.14465802495E+02 -0.43885562080E+01 -0.12535438446E+02  0.19638128340E+02  0.51100000000E-03 0. -1.
        -11    1    3    3    0    0 -0.58233344010E+00 -0.42519313177E+01  0.15653686576E+02  0.16231325757E+02  0.51100000000E-03 0.  1.
        -12    1    3    3    0    0 -0.91114795394E+01  0.13011324550E+02  0.17226977968E+02  0.23432507246E+02  0.00000000000E+00 0.  1.
</event>
<event>
 7    1  0.7819001E-012  0.5930195E+02  0.7816164E-02  0.1266605E+00
        -11   -1    0    0    0    0  0.00000000000E+00  0.00000000000E+00  0.45593999997E+02  0.45594000000E+02  0.51100000000E-03 0.  1.
         11   -1    0    0    0    0 -0.00000000000E+00 -0.00000000000E+00 -0.45593999997E+02  0.45594000000E+02  0.51100000000E-03 0. -1.
    9900012    2    1    2    0    0  0.11059756780E+02 -0.22557037596E+02 -0.19636250106E+02  0.59301945315E+02  0.50000002348E+02 0.  0.
         12    1    1    2    0    0 -0.11059756780E+02  0.22557037596E+02  0.19636250106E+02  0.31886054685E+02  0.00000000000E+00 0. -1.
         11    1    3    3    0    0 -0.93766983917E+01 -0.11044646836E+02 -0.27195602661E+02  0.30814079588E+02  0.51100000000E-03 0. -1.
        -11    1    3    3    0    0  0.19902886430E+02 -0.44898717222E+01  0.61012132952E+01  0.21295742303E+02  0.51100000000E-03 0.  1.
         12    1    3    3    0    0  0.53356874205E+00 -0.70225190379E+01  0.14581392607E+01  0.71921234239E+01  0.00000000000E+00 0. -1.
</event>
<event>
 7    1  0.7819001E-012  0.5930192E+02  0.7816164E-02  0.1266605E+00
        -11   -1    0    0    0    0  0.00000000000E+00  0.00000000000E+00  0.45593999997E+02  0.45594000000E+02  0.51100000000E-03 0.  1.
         11   -1    0    0    0    0 -0.00000000000E+00 -0.00000000000E+00 -0.45593999997E+02  0.45594000000E+02  0.51100000000E-03 0. -1.
    9900012    2    1    2    0    0  0.11965395282E+02  0.23764549084E+02  0.17572635622E+02  0.59301921531E+02  0.49999958971E+02 0.  0.
         12    1    1    2    0    0 -0.11965395282E+02 -0.23764549084E+02 -0.17572635622E+02  0.31886078469E+02  0.00000000000E+00 0. -1.
         11    1    3    3    0    0  0.22579323911E+02  0.24048491568E+02 -0.31079609345E+01  0.33133294982E+02  0.51100000000E-03 0. -1.
        -11    1    3    3    0    0 -0.55963974010E+01 -0.28542617754E+01  0.19046900769E+01  0.65646263186E+01  0.51100000000E-03 0.  1.
         12    1    3    3    0    0 -0.50175312275E+01  0.25703192920E+01  0.18775906479E+02  0.19604000230E+02  0.00000000000E+00 0. -1.
</event>
<event>
 7    1  0.7819001E-012  0.5930219E+02  0.7816164E-02  0.1266604E+00
        -11   -1    0    0    0    0  0.00000000000E+00  0.00000000000E+00  0.45593999997E+02  0.45594000000E+02  0.51100000000E-03 0.  1.
         11   -1    0    0    0    0 -0.00000000000E+00 -0.00000000000E+00 -0.45593999997E+02  0.45594000000E+02  0.51100000000E-03 0. -1.
    9900012    2    1    2    0    0  0.24041008515E+02 -0.75331533394E+01  0.19544480210E+02  0.59302185029E+02  0.50000439527E+02 0.  0.
         12    1    1    2    0    0 -0.24041008515E+02  0.75331533394E+01 -0.19544480210E+02  0.31885814971E+02  0.00000000000E+00 0. -1.
         11    1    3    3    0    0 -0.54521117470E+01 -0.17049749682E+02  0.10269528867E+02  0.20636925888E+02  0.51100000000E-03 0. -1.
        -11    1    3    3    0    0  0.31757003688E+02  0.46998942269E+01  0.89784939537E+01  0.33334811278E+02  0.51100000000E-03 0.  1.
         12    1    3    3    0    0 -0.22638834264E+01  0.48167021155E+01  0.29645739010E+00  0.53304478632E+01  0.00000000000E+00 0. -1.
</event>
<event>
 7    1  0.7819001E-012  0.5930195E+02  0.7816164E-02  0.1266605E+00
        -11   -1    0    0    0    0  0.00000000000E+00  0.00000000000E+00  0.45593999997E+02  0.45594000000E+02  0.51100000000E-03 0. -1.
         11   -1    0    0    0    0 -0.00000000000E+00 -0.00000000000E+00 -0.45593999997E+02  0.45594000000E+02  0.51100000000E-03 0.  1.
    9900012    2    1    2    0    0  0.16405426689E+02  0.17847454383E+02 -0.20713533889E+02  0.59301950716E+02  0.50000012197E+02 0.  0.
         12    1    1    2    0    0 -0.16405426689E+02 -0.17847454383E+02  0.20713533889E+02  0.31886049284E+02  0.00000000000E+00 0. -1.
         11    1    3    3    0    0  0.18702141719E+02 -0.21066895906E+01 -0.17482734413E+02  0.25687628320E+02  0.51100000000E-03 0. -1.
        -11    1    3    3    0    0  0.88237440147E+01  0.20467677597E+02 -0.29057285153E+01  0.22477267252E+02  0.51100000000E-03 0.  1.
         12    1    3    3    0    0 -0.11120459044E+02 -0.51353362384E+00 -0.32507096101E+00  0.11137055143E+02  0.00000000000E+00 0. -1.
</event>
<event>
 7    1  0.7819001E-012  0.5930196E+02  0.7816164E-02  0.1266605E+00
        -11   -1    0    0    0    0  0.00000000000E+00  0.00000000000E+00  0.45593999997E+02  0.45594000000E+02  0.51100000000E-03 0. -1.
         11   -1    0    0    0    0 -0.00000000000E+00 -0.00000000000E+00 -0.45593999997E+02  0.45594000000E+02  0.51100000000E-03 0.  1.
    9900012    2    1    2    0    0  0.31703626882E+02  0.15973997634E-01 -0.34057620942E+01  0.59301961862E+02  0.50000032526E+02 0.  0.
         12    1    1    2    0    0 -0.31703626882E+02 -0.15973997634E-01  0.34057620942E+01  0.31886038138E+02  0.00000000000E+00 0. -1.
         11    1    3    3    0    0  0.14799472651E+02  0.20114826850E+01 -0.10191700914E+00  0.14935891024E+02  0.51100000000E-03 0. -1.
        -11    1    3    3    0    0 -0.53912665242E+01  0.99183938040E+01 -0.13066252546E+02  0.17267519979E+02  0.51100000000E-03 0.  1.
        -12    1    3    3    0    0  0.22295420755E+02 -0.11913902491E+02  0.97624074606E+01  0.27098550859E+02  0.00000000000E+00 0.  1.
</event>
<event>
 7    1  0.7819001E-012  0.5930195E+02  0.7816164E-02  0.1266605E+00
        -11   -1    0    0    0    0  0.00000000000E+00  0.00000000000E+00  0.45593999997E+02  0.45594000000E+02  0.51100000000E-03 0.  1.
         11   -1    0    0    0    0 -0.00000000000E+00 -0.00000000000E+00 -0.45593999997E+02  0.45594000000E+02  0.51100000000E-03 0. -1.
    9900012    2    1    2    0    0  0.23700617933E+02 -0.76590771104E+01  0.19908281690E+02  0.59301946114E+02  0.50000003804E+02 0.  0.
         12    1    1    2    0    0 -0.23700617933E+02  0.76590771104E+01 -0.19908281690E+02  0.31886053886E+02  0.00000000000E+00 0. -1.
         11    1    3    3    0    0  0.12149145885E+02 -0.28474854158E+01 -0.13541229095E+02  0.18413983941E+02  0.51100000000E-03 0. -1.
        -11    1    3    3    0    0  0.92835747530E+01  0.69087452014E+01  0.16039876551E+02  0.19778603603E+02  0.51100000000E-03 0.  1.
         12    1    3    3    0    0  0.22678972956E+01 -0.11720336896E+02  0.17409634233E+02  0.21109358570E+02  0.00000000000E+00 0. -1.
</event>
<event>
 7    1  0.7819001E-012  0.5930197E+02  0.7816164E-02  0.1266605E+00
        -11   -1    0    0    0    0  0.00000000000E+00  0.00000000000E+00  0.45593999997E+02  0.45594000000E+02  0.51100000000E-03 0.  1.
         11   -1    0    0    0    0 -0.00000000000E+00 -0.00000000000E+00 -0.45593999997E+02  0.45594000000E+02  0.51100000000E-03 0. -1.
    9900012    2    1    2    0    0  0.45592435494E+00 -0.31353604038E+02  0.57846818466E+01  0.59301970187E+02  0.50000047708E+02 0.  0.
         12    1    1    2    0    0 -0.45592435494E+00  0.31353604038E+02 -0.57846818466E+01  0.31886029813E+02  0.00000000000E+00 0. -1.
         11    1    3    3    0    0 -0.62515620640E+01  0.18782092282E+01  0.28686204668E+01  0.71301249490E+01  0.51100000000E-03 0. -1.
        -11    1    3    3    0    0  0.21484952012E+00 -0.41001444651E+02  0.63273600553E+01  0.41487348787E+02  0.51100000000E-03 0.  1.
        -12    1    3    3    0    0  0.64926368988E+01  0.77696313853E+01 -0.34112986754E+01  0.10684496451E+02  0.00000000000E+00 0.  1.
</event>
<event>
 7    1  0.7819001E-012  0.5930196E+02  0.7816164E-02  0.1266605E+00
        -11   -1    0    0    0    0  0.00000000000E+00  0.00000000000E+00  0.45593999997E+02  0.45594000000E+02  0.51100000000E-03 0. -1.
         11   -1    0    0    0    0 -0.00000000000E+00 -0.00000000000E+00 -0.45593999997E+02  0.45594000000E+02  0.51100000000E-03 0.  1.
    9900012    2    1    2    0    0 -0.88261814960E+01  0.24557049522E+02  0.18324010154E+02  0.59301960591E+02  0.50000030208E+02 0.  0.
         12    1    1    2    0    0  0.88261814960E+01 -0.24557049522E+02 -0.18324010154E+02  0.31886039409E+02  0.00000000000E+00 0. -1.
         11    1    3    3    0    0  0.37777755226E+01  0.30338890143E+02  0.27820005392E+02  0.41336092501E+02  0.51100000000E-03 0. -1.
        -11    1    3    3    0    0 -0.50435741481E+01 -0.15548564464E+01 -0.73387150712E+01  0.90394666830E+01  0.51100000000E-03 0.  1.
         12    1    3    3    0    0 -0.75603828706E+01 -0.42269841739E+01 -0.21572801675E+01  0.89264014069E+01  0.00000000000E+00 0. -1.
</event>
<event>
 7    1  0.7819001E-012  0.5930195E+02  0.7816164E-02  0.1266605E+00
        -11   -1    0    0    0    0  0.00000000000E+00  0.00000000000E+00  0.45593999997E+02  0.45594000000E+02  0.51100000000E-03 0.  1.
         11   -1    0    0    0    0 -0.00000000000E+00 -0.00000000000E+00 -0.45593999997E+02  0.45594000000E+02  0.51100000000E-03 0. -1.
    9900012    2    1    2    0    0  0.18921573855E+02 -0.17633750468E+02  0.18647927998E+02  0.59301947699E+02  0.50000006695E+02 0.  0.
         12    1    1    2    0    0 -0.18921573855E+02  0.17633750468E+02 -0.18647927998E+02  0.31886052301E+02  0.00000000000E+00 0. -1.
         11    1    3    3    0    0 -0.42149654251E+01  0.74474031978E+01 -0.57709621281E+00  0.85768752017E+01  0.51100000000E-03 0. -1.
        -11    1    3    3    0    0  0.22456280670E+02 -0.20262428693E+02  0.27660009346E+02  0.40986908585E+02  0.51100000000E-03 0.  1.
        -12    1    3    3    0    0  0.68025860986E+00 -0.48187249734E+01 -0.84349851351E+01  0.97381639119E+01  0.00000000000E+00 0.  1.
</event>
<event>
 7    1  0.7819001E-012  0.5930209E+02  0.7816164E-02  0.1266604E+00
        -11   -1    0    0    0    0  0.00000000000E+00  0.00000000000E+00  0.45593999997E+02  0.45594000000E+02  0.51100000000E-03 0. -1.
         11   -1    0    0    0    0 -0.00000000000E+00 -0.00000000000E+00 -0.45593999997E+02  0.45594000000E+02  0.51100000000E-03 0.  1.
    9900012    2    1    2    0    0 -0.20580763639E+02 -0.49827570866E+01 -0.23839365596E+02  0.59302093205E+02  0.50000272063E+02 0.  0.
         12    1    1    2    0    0  0.20580763639E+02  0.49827570866E+01  0.23839365596E+02  0.31885906795E+02  0.00000000000E+00 0. -1.
         11    1    3    3    0    0 -0.16486980894E+02 -0.82410550050E+01 -0.21400046686E+02  0.28243539527E+02  0.51100000000E-03 0.  1.
        -11    1    3    3    0    0 -0.14111777629E+02  0.89724810741E+01  0.48539693641E+01  0.17412889000E+02  0.51100000000E-03 0. -1.
        -12    1    3    3    0    0  0.10017994885E+02 -0.57141831557E+01 -0.72932882737E+01  0.13645664677E+02  0.00000000000E+00 0.  1.
</event>
<event>
 7    1  0.7819001E-012  0.5930195E+02  0.7816164E-02  0.1266605E+00
        -11   -1    0    0    0    0  0.00000000000E+00  0.00000000000E+00  0.45593999997E+02  0.45594000000E+02  0.51100000000E-03 0. -1.
         11   -1    0    0    0    0 -0.00000000000E+00 -0.00000000000E+00 -0.45593999997E+02  0.45594000000E+02  0.51100000000E-03 0.  1.
    9900012    2    1    2    0    0 -0.26016848612E+02  0.16973036432E+02  0.71944404043E+01  0.59301947404E+02  0.50000006157E+02 0.  0.
         12    1    1    2    0    0  0.26016848612E+02 -0.16973036432E+02 -0.71944404043E+01  0.31886052596E+02  0.00000000000E+00 0. -1.
         11    1    3    3    0    0 -0.12839890695E+02  0.11885576525E+02  0.22778858442E+02  0.28722919673E+02  0.51100000000E-03 0. -1.
        -11    1    3    3    0    0  0.62542238303E+01  0.23738531244E+01 -0.40379406962E+01  0.78137993130E+01  0.51100000000E-03 0.  1.
         12    1    3    3    0    0 -0.19431181748E+02  0.27136067826E+01 -0.11546477342E+02  0.22765228417E+02  0.00000000000E+00 0. -1.
</event>
<event>
 7    1  0.7819001E-012  0.5930195E+02  0.7816164E-02  0.1266605E+00
        -11   -1    0    0    0    0  0.00000000000E+00  0.00000000000E+00  0.45593999997E+02  0.45594000000E+02  0.51100000000E-03 0.  1.
         11   -1    0    0    0    0 -0.00000000000E+00 -0.00000000000E+00 -0.45593999997E+02  0.45594000000E+02  0.51100000000E-03 0. -1.
    9900012    2    1    2    0    0 -0.16413841515E+02 -0.27177130479E+02  0.29511947123E+01  0.59301950314E+02  0.50000011464E+02 0.  0.
         12    1    1    2    0    0  0.16413841515E+02  0.27177130479E+02 -0.29511947123E+01  0.31886049686E+02  0.00000000000E+00 0. -1.
         11    1    3    3    0    0 -0.90616487386E+01 -0.10379732046E+02 -0.15821860829E+02  0.20980552794E+02  0.51100000000E-03 0. -1.
        -11    1    3    3    0    0  0.47760454479E+01 -0.16001698749E+02  0.20057733954E+02  0.26099380541E+02  0.51100000000E-03 0.  1.
        -12    1    3    3    0    0 -0.12128238224E+02 -0.79569968487E+00 -0.12846784127E+01  0.12222016979E+02  0.00000000000E+00 0.  1.
</event>
<event>
 7    1  0.7819001E-012  0.5930193E+02  0.7816164E-02  0.1266605E+00
        -11   -1    0    0    0    0  0.00000000000E+00  0.00000000000E+00  0.45593999997E+02  0.45594000000E+02  0.51100000000E-03 0.  1.
         11   -1    0    0    0    0 -0.00000000000E+00 -0.00000000000E+00 -0.45593999997E+02  0.45594000000E+02  0.51100000000E-03 0. -1.
    9900012    2    1    2    0    0 -0.24832428245E+02 -0.66787991593E+01  0.18853787402E+02  0.59301934859E+02  0.49999983278E+02 0.  0.
         12    1    1    2    0    0  0.24832428245E+02  0.66787991593E+01 -0.18853787402E+02  0.31886065141E+02  0.00000000000E+00 0. -1.
         11    1    3    3    0    0 -0.29253695109E+02 -0.69008997808E+00  0.95761026513E+01  0.30788904559E+02  0.51100000000E-03 0. -1.
        -11    1    3    3    0    0  0.10815060134E+02 -0.62096284657E+01 -0.45516045179E+01  0.13275621091E+02  0.51100000000E-03 0.  1.
        -12    1    3    3    0    0 -0.63937932708E+01  0.22091928445E+00  0.13829289269E+02  0.15237409209E+02  0.00000000000E+00 0.  1.
</event>
<event>
 7    1  0.7819001E-012  0.5930194E+02  0.7816164E-02  0.1266605E+00
        -11   -1    0    0    0    0  0.00000000000E+00  0.00000000000E+00  0.45593999997E+02  0.45594000000E+02  0.51100000000E-03 0. -1.
         11   -1    0    0    0    0 -0.00000000000E+00 -0.00000000000E+00 -0.45593999997E+02  0.45594000000E+02  0.51100000000E-03 0.  1.
    9900012    2    1    2    0    0 -0.23355006848E+02 -0.20270966782E+02 -0.77686966721E+01  0.59301935847E+02  0.49999985081E+02 0.  0.
         12    1    1    2    0    0  0.23355006848E+02  0.20270966782E+02  0.77686966721E+01  0.31886064153E+02  0.00000000000E+00 0. -1.
         11    1    3    3    0    0 -0.53682713371E+01 -0.12415027272E+02  0.42802201006E+01  0.14187019549E+02  0.51100000000E-03 0. -1.
        -11    1    3    3    0    0 -0.24023991215E+02  0.69732529431E+01  0.10107804385E+00  0.25015767578E+02  0.51100000000E-03 0.  1.
        -12    1    3    3    0    0  0.60372557035E+01 -0.14829192452E+02 -0.12149994817E+02  0.20099148720E+02  0.00000000000E+00 0.  1.
</event>
<event>
 7    1  0.7819001E-012  0.5930194E+02  0.7816164E-02  0.1266605E+00
        -11   -1    0    0    0    0  0.00000000000E+00  0.00000000000E+00  0.45593999997E+02  0.45594000000E+02  0.51100000000E-03 0.  1.
         11   -1    0    0    0    0 -0.00000000000E+00 -0.00000000000E+00 -0.45593999997E+02  0.45594000000E+02  0.51100000000E-03 0. -1.
    9900012    2    1    2    0    0 -0.14507620400E+02 -0.28320940967E+02  0.20430880927E+01  0.59301937905E+02  0.49999988835E+02 0.  0.
         12    1    1    2    0    0  0.14507620400E+02  0.28320940967E+02 -0.20430880927E+01  0.31886062095E+02  0.00000000000E+00 0. -1.
         11    1    3    3    0    0 -0.43967755558E+00  0.77937016539E+01  0.39804747432E+01  0.87623787447E+01  0.51100000000E-03 0. -1.
        -11    1    3    3    0    0  0.28461163515E+01 -0.31889508372E+02  0.36706094688E+01  0.32225991011E+02  0.51100000000E-03 0.  1.
        -12    1    3    3    0    0 -0.16914059196E+02 -0.42251342491E+01 -0.56079961193E+01  0.18313568150E+02  0.00000000000E+00 0.  1.
</event>
<event>
 7    1  0.7819001E-012  0.5930192E+02  0.7816164E-02  0.1266605E+00
        -11   -1    0    0    0    0  0.00000000000E+00  0.00000000000E+00  0.45593999997E+02  0.45594000000E+02  0.51100000000E-03 0.  1.
         11   -1    0    0    0    0 -0.00000000000E+00 -0.00000000000E+00 -0.45593999997E+02  0.45594000000E+02  0.51100000000E-03 0. -1.
    9900012    2    1    2    0    0 -0.29353918664E+01 -0.17101529764E+02  0.26751505210E+02  0.59301923467E+02  0.49999962502E+02 0.  0.
         12    1    1    2    0    0  0.29353918664E+01  0.17101529764E+02 -0.26751505210E+02  0.31886076533E+02  0.00000000000E+00 0. -1.
         11    1    3    3    0    0 -0.11579398654E+02 -0.74036056830E+01 -0.65050890660E+01  0.15205657970E+02  0.51100000000E-03 0. -1.
        -11    1    3    3    0    0  0.10682614429E+02 -0.10130274224E+02  0.36994742951E+02  0.39816475399E+02  0.51100000000E-03 0.  1.
        -12    1    3    3    0    0 -0.20386076417E+01  0.43235014299E+00 -0.37381486754E+01  0.42797900979E+01  0.00000000000E+00 0.  1.
</event>
<event>
 7    1  0.7819001E-012  0.5930190E+02  0.7816164E-02  0.1266605E+00
        -11   -1    0    0    0    0  0.00000000000E+00  0.00000000000E+00  0.45593999997E+02  0.45594000000E+02  0.51100000000E-03 0. -1.
         11   -1    0    0    0    0 -0.00000000000E+00 -0.00000000000E+00 -0.45593999997E+02  0.45594000000E+02  0.51100000000E-03 0.  1.
    9900012    2    1    2    0    0 -0.12894306393E+02  0.13856146994E+02 -0.25660617661E+02  0.59301902000E+02  0.49999923352E+02 0.  0.
         12    1    1    2    0    0  0.12894306393E+02 -0.13856146994E+02  0.25660617661E+02  0.31886098000E+02  0.00000000000E+00 0. -1.
         11    1    3    3    0    0  0.60039659745E+01 -0.22704821420E+01 -0.24736403695E+02  0.25555671868E+02  0.51100000000E-03 0. -1.
        -11    1    3    3    0    0 -0.18130126168E+02  0.49789693767E+01  0.69842092801E+01  0.20056689419E+02  0.51100000000E-03 0.  1.
         12    1    3    3    0    0 -0.76814619960E+00  0.11147659760E+02 -0.79084232457E+01  0.13689540713E+02  0.00000000000E+00 0. -1.
</event>
<event>
 7    1  0.7819001E-012  0.5930195E+02  0.7816164E-02  0.1266605E+00
        -11   -1    0    0    0    0  0.00000000000E+00  0.00000000000E+00  0.45593999997E+02  0.45594000000E+02  0.51100000000E-03 0.  1.
         11   -1    0    0    0    0 -0.00000000000E+00 -0.00000000000E+00 -0.45593999997E+02  0.45594000000E+02  0.51100000000E-03 0. -1.
    9900012    2    1    2    0    0  0.28379446518E+02 -0.92077475110E+01 -0.11249191447E+02  0.59301954351E+02  0.50000018827E+02 0.  0.
         12    1    1    2    0    0 -0.28379446518E+02  0.92077475110E+01  0.11249191447E+02  0.31886045649E+02  0.00000000000E+00 0. -1.
         11    1    3    3    0    0  0.26642176779E+02  0.14345367248E+02 -0.16636908144E+02  0.34530882669E+02  0.51100000000E-03 0.  1.
        -11    1    3    3    0    0 -0.71070286805E-01 -0.17638476911E+02  0.58123710414E+01  0.18571606719E+02  0.51100000000E-03 0. -1.
        -12    1    3    3    0    0  0.18083400257E+01 -0.59146378483E+01 -0.42465434476E+00  0.61994649638E+01  0.00000000000E+00 0.  1.
</event>
<event>
 7    1  0.7819001E-012  0.5930194E+02  0.7816164E-02  0.1266605E+00
        -11   -1    0    0    0    0  0.00000000000E+00  0.00000000000E+00  0.45593999997E+02  0.45594000000E+02  0.51100000000E-03 0. -1.
         11   -1    0    0    0    0 -0.00000000000E+00 -0.00000000000E+00 -0.45593999997E+02  0.45594000000E+02  0.51100000000E-03 0.  1.
    9900012    2    1    2    0    0  0.28032042164E+02  0.85656849350E+01 -0.12552070708E+02  0.59301939953E+02  0.49999992568E+02 0.  0.
         12    1    1    2    0    0 -0.28032042164E+02 -0.85656849350E+01  0.12552070708E+02  0.31886060047E+02  0.00000000000E+00 0. -1.
         11    1    3    3    0    0 -0.57152206691E+01  0.15969934755E+02 -0.44197840629E+01  0.17528178879E+02  0.51100000000E-03 0. -1.
        -11    1    3    3    0    0  0.98000958262E+01 -0.13012073716E+02 -0.45970210751E+01  0.16925972457E+02  0.51100000000E-03 0.  1.
         12    1    3    3    0    0  0.23947167007E+02  0.56078238952E+01 -0.35352655695E+01  0.24847788617E+02  0.00000000000E+00 0. -1.
</event>
<event>
 7    1  0.7819001E-012  0.5930193E+02  0.7816164E-02  0.1266605E+00
        -11   -1    0    0    0    0  0.00000000000E+00  0.00000000000E+00  0.45593999997E+02  0.45594000000E+02  0.51100000000E-03 0.  1.
         11   -1    0    0    0    0 -0.00000000000E+00 -0.00000000000E+00 -0.45593999997E+02  0.45594000000E+02  0.51100000000E-03 0. -1.
    9900012    2    1    2    0    0  0.24514337979E+02 -0.15678691843E+02  0.13036386665E+02  0.59301929033E+02  0.49999972653E+02 0.  0.
         12    1    1    2    0    0 -0.24514337979E+02  0.15678691843E+02 -0.13036386665E+02  0.31886070967E+02  0.00000000000E+00 0. -1.
         11    1    3    3    0    0  0.24278481655E+00  0.12812140773E+02  0.69445267397E+01  0.14575196312E+02  0.51100000000E-03 0.  1.
        -11    1    3    3    0    0  0.99433593042E+01 -0.22191033645E+02 -0.58840580251E+01  0.25018683171E+02  0.51100000000E-03 0. -1.
        -12    1    3    3    0    0  0.14328193858E+02 -0.62997989705E+01  0.11975917951E+02  0.19708049550E+02  0.00000000000E+00 0.  1.
</event>
<event>
 7    1  0.7819001E-012  0.5930191E+02  0.7816164E-02  0.1266605E+00
        -11   -1    0    0    0    0  0.00000000000E+00  0.00000000000E+00  0.45593999997E+02  0.45594000000E+02  0.51100000000E-03 0.  1.
         11   -1    0    0    0    0 -0.00000000000E+00 -0.00000000000E+00 -0.45593999997E+02  0.45594000000E+02  0.51100000000E-03 0. -1.
    9900012    2    1    2    0    0 -0.25584953906E+02  0.33383724702E-01  0.19029757242E+02  0.59301911473E+02  0.49999940629E+02 0.  0.
         12    1    1    2    0    0  0.25584953906E+02 -0.33383724702E-01 -0.19029757242E+02  0.31886088527E+02  0.00000000000E+00 0. -1.
         11    1    3    3    0    0 -0.12867947172E+02  0.94228212387E+01  0.70815087389E+00  0.15964808249E+02  0.51100000000E-03 0.  1.
        -11    1    3    3    0    0  0.63509965980E+01  0.95998629384E+00 -0.73266033313E+01  0.97435028664E+01  0.51100000000E-03 0. -1.
         12    1    3    3    0    0 -0.19068003332E+02 -0.10349423808E+02  0.25648209699E+02  0.33593600358E+02  0.00000000000E+00 0. -1.
</event>
<event>
 7    1  0.7819001E-012  0.5930183E+02  0.7816164E-02  0.1266605E+00
        -11   -1    0    0    0    0  0.00000000000E+00  0.00000000000E+00  0.45593999997E+02  0.45594000000E+02  0.51100000000E-03 0.  1.
         11   -1    0    0    0    0 -0.00000000000E+00 -0.00000000000E+00 -0.45593999997E+02  0.45594000000E+02  0.51100000000E-03 0. -1.
    9900012    2    1    2    0    0 -0.68074400234E+01 -0.29388708079E+02  0.10329107576E+02  0.59301829556E+02  0.49999791231E+02 0.  0.
         12    1    1    2    0    0  0.68074400234E+01  0.29388708079E+02 -0.10329107576E+02  0.31886170444E+02  0.00000000000E+00 0. -1.
         11    1    3    3    0    0  0.12504361313E+02 -0.15769997040E+02  0.16212713085E+02  0.25843837260E+02  0.51100000000E-03 0. -1.
        -11    1    3    3    0    0 -0.13601142720E+02 -0.95819022600E+01 -0.14702420987E+02  0.22202817780E+02  0.51100000000E-03 0.  1.
        -12    1    3    3    0    0 -0.57106586168E+01 -0.40368087797E+01  0.88188154784E+01  0.11255174517E+02  0.00000000000E+00 0.  1.
</event>
<event>
 7    1  0.7819001E-012  0.5930195E+02  0.7816164E-02  0.1266605E+00
        -11   -1    0    0    0    0  0.00000000000E+00  0.00000000000E+00  0.45593999997E+02  0.45594000000E+02  0.51100000000E-03 0. -1.
         11   -1    0    0    0    0 -0.00000000000E+00 -0.00000000000E+00 -0.45593999997E+02  0.45594000000E+02  0.51100000000E-03 0.  1.
    9900012    2    1    2    0    0 -0.10117211115E+02 -0.11792726572E+01 -0.30215414824E+02  0.59301953871E+02  0.50000017951E+02 0.  0.
         12    1    1    2    0    0  0.10117211115E+02  0.11792726572E+01  0.30215414824E+02  0.31886046129E+02  0.00000000000E+00 0. -1.
         11    1    3    3    0    0 -0.17518810502E+02  0.15676991443E+02 -0.18361421739E+01  0.23580674300E+02  0.51100000000E-03 0. -1.
        -11    1    3    3    0    0  0.49901930293E+01 -0.11411587061E+01 -0.35195376811E+01  0.62121989192E+01  0.51100000000E-03 0.  1.
         12    1    3    3    0    0  0.24114063576E+01 -0.15715105394E+02 -0.24859734969E+02  0.29509080652E+02  0.00000000000E+00 0. -1.
</event>
<event>
 7    1  0.7819001E-012  0.5930194E+02  0.7816164E-02  0.1266605E+00
        -11   -1    0    0    0    0  0.00000000000E+00  0.00000000000E+00  0.45593999997E+02  0.45594000000E+02  0.51100000000E-03 0.  1.
         11   -1    0    0    0    0 -0.00000000000E+00 -0.00000000000E+00 -0.45593999997E+02  0.45594000000E+02  0.51100000000E-03 0. -1.
    9900012    2    1    2    0    0  0.29094411962E+02 -0.73457176782E+01  0.10783162922E+02  0.59301937555E+02  0.49999988196E+02 0.  0.
         12    1    1    2    0    0 -0.29094411962E+02  0.73457176782E+01 -0.10783162922E+02  0.31886062445E+02  0.00000000000E+00 0. -1.
         11    1    3    3    0    0  0.56220455863E+01  0.11633729569E+02 -0.35276434210E+01  0.13393854136E+02  0.51100000000E-03 0. -1.
        -11    1    3    3    0    0  0.23834881872E+02 -0.15305433286E+02  0.22986673956E+02  0.36479378582E+02  0.51100000000E-03 0.  1.
        -12    1    3    3    0    0 -0.36251549625E+00 -0.36740139605E+01 -0.86758676131E+01  0.94287048372E+01  0.00000000000E+00 0.  1.
</event>
<event>
 7    1  0.7819001E-012  0.5930204E+02  0.7816164E-02  0.1266604E+00
        -11   -1    0    0    0    0  0.00000000000E+00  0.00000000000E+00  0.45593999997E+02  0.45594000000E+02  0.51100000000E-03 0. -1.
         11   -1    0    0    0    0 -0.00000000000E+00 -0.00000000000E+00 -0.45593999997E+02  0.45594000000E+02  0.51100000000E-03 0.  1.
    9900012    2    1    2    0    0  0.62308359575E+01 -0.31207798688E+02  0.19911653614E+01  0.59302035138E+02  0.50000166163E+02 0.  0.
         12    1    1    2    0    0 -0.62308359575E+01  0.31207798688E+02 -0.19911653614E+01  0.31885964862E+02  0.00000000000E+00 0. -1.
         11    1    3    3    0    0 -0.13376483884E+02 -0.21831463912E+02  0.22176030528E+01  0.25699433869E+02  0.51100000000E-03 0. -1.
        -11    1    3    3    0    0  0.24923770701E+02 -0.10280877196E+02  0.32954930747E+01  0.27161573164E+02  0.51100000000E-03 0.  1.
        -12    1    3    3    0    0 -0.53164508596E+01  0.90454242009E+00 -0.35219307661E+01  0.64410281054E+01  0.00000000000E+00 0.  1.
</event>
<event>
 7    1  0.7819001E-012  0.5930197E+02  0.7816164E-02  0.1266605E+00
        -11   -1    0    0    0    0  0.00000000000E+00  0.00000000000E+00  0.45593999997E+02  0.45594000000E+02  0.51100000000E-03 0.  1.
         11   -1    0    0    0    0 -0.00000000000E+00 -0.00000000000E+00 -0.45593999997E+02  0.45594000000E+02  0.51100000000E-03 0. -1.
    9900012    2    1    2    0    0  0.20599750708E+02 -0.26021380316E+01  0.24199133710E+02  0.59301969770E+02  0.50000046947E+02 0.  0.
         12    1    1    2    0    0 -0.20599750708E+02  0.26021380316E+01 -0.24199133710E+02  0.31886030230E+02  0.00000000000E+00 0. -1.
         11    1    3    3    0    0  0.14420853651E+01 -0.18423792476E+02  0.13721169975E+02  0.23017085940E+02  0.51100000000E-03 0. -1.
        -11    1    3    3    0    0  0.20886005950E+02  0.73384935603E+01 -0.69704024164E+00  0.22148692910E+02  0.51100000000E-03 0.  1.
        -12    1    3    3    0    0 -0.17283406076E+01  0.84831608846E+01  0.11175003976E+02  0.14136190919E+02  0.00000000000E+00 0.  1.
</event>
<event>
 7    1  0.7819001E-012  0.5930193E+02  0.7816164E-02  0.1266605E+00
        -11   -1    0    0    0    0  0.00000000000E+00  0.00000000000E+00  0.45593999997E+02  0.45594000000E+02  0.51100000000E-03 0.  1.
         11   -1    0    0    0    0 -0.00000000000E+00 -0.00000000000E+00 -0.45593999997E+02  0.45594000000E+02  0.51100000000E-03 0. -1.
    9900012    2    1    2    0    0  0.30233813143E+02 -0.95717962380E+01  0.33194224966E+01  0.59301932414E+02  0.49999978819E+02 0.  0.
         12    1    1    2    0    0 -0.30233813143E+02  0.95717962380E+01 -0.33194224966E+01  0.31886067586E+02  0.00000000000E+00 0. -1.
         11    1    3    3    0    0 -0.22398306892E+01 -0.17964102997E+02  0.50424071932E+01  0.18792331111E+02  0.51100000000E-03 0. -1.
        -11    1    3    3    0    0  0.13934297678E+02  0.13916725404E+02 -0.62129484471E+01  0.20650438892E+02  0.51100000000E-03 0.  1.
         12    1    3    3    0    0  0.18539346154E+02 -0.55244186450E+01  0.44899637505E+01  0.19859162411E+02  0.00000000000E+00 0. -1.
</event>
<event>
 7    1  0.7819001E-012  0.5930189E+02  0.7816164E-02  0.1266605E+00
        -11   -1    0    0    0    0  0.00000000000E+00  0.00000000000E+00  0.45593999997E+02  0.45594000000E+02  0.51100000000E-03 0.  1.
         11   -1    0    0    0    0 -0.00000000000E+00 -0.00000000000E+00 -0.45593999997E+02  0.45594000000E+02  0.51100000000E-03 0. -1.
    9900012    2    1    2    0    0  0.78740141582E+01 -0.25978671733E+02 -0.16728198430E+02  0.59301888498E+02  0.49999898728E+02 0.  0.
         12    1    1    2    0    0 -0.78740141582E+01  0.25978671733E+02  0.16728198430E+02  0.31886111502E+02  0.00000000000E+00 0. -1.
         11    1    3    3    0    0 -0.11439669116E+01  0.93161533623E+01 -0.68288340770E+01  0.11607426454E+02  0.51100000000E-03 0. -1.
        -11    1    3    3    0    0  0.16298487535E+02 -0.35041206014E+02 -0.11324987082E+02  0.40271356415E+02  0.51100000000E-03 0.  1.
        -12    1    3    3    0    0 -0.72805064649E+01 -0.25361908084E+00  0.14256227287E+01  0.74231056296E+01  0.00000000000E+00 0.  1.
</event>
<event>
 7    1  0.7819001E-012  0.5930196E+02  0.7816164E-02  0.1266605E+00
        -11   -1    0    0    0    0  0.00000000000E+00  0.00000000000E+00  0.45593999997E+02  0.45594000000E+02  0.51100000000E-03 0.  1.
         11   -1    0    0    0    0 -0.00000000000E+00 -0.00000000000E+00 -0.45593999997E+02  0.45594000000E+02  0.51100000000E-03 0. -1.
    9900012    2    1    2    0    0 -0.36193993145E+01  0.11427862040E+02  0.29546974033E+02  0.59301956710E+02  0.50000023130E+02 0.  0.
         12    1    1    2    0    0  0.36193993145E+01 -0.11427862040E+02 -0.29546974033E+02  0.31886043290E+02  0.00000000000E+00 0. -1.
         11    1    3    3    0    0  0.92873885867E+00  0.10758959924E+02  0.80002809237E+01  0.13439578477E+02  0.51100000000E-03 0. -1.
        -11    1    3    3    0    0 -0.22223271693E+02 -0.23041986910E+01  0.14315517130E+02  0.26535206185E+02  0.51100000000E-03 0.  1.
        -12    1    3    3    0    0  0.17675133520E+02  0.29731008072E+01  0.72311759791E+01  0.19327172048E+02  0.00000000000E+00 0.  1.
</event>
<event>
 7    1  0.7819001E-012  0.5930195E+02  0.7816164E-02  0.1266605E+00
        -11   -1    0    0    0    0  0.00000000000E+00  0.00000000000E+00  0.45593999997E+02  0.45594000000E+02  0.51100000000E-03 0.  1.
         11   -1    0    0    0    0 -0.00000000000E+00 -0.00000000000E+00 -0.45593999997E+02  0.45594000000E+02  0.51100000000E-03 0. -1.
    9900012    2    1    2    0    0  0.16504349442E+02 -0.23098645252E+02  0.14518247347E+02  0.59301945541E+02  0.50000002759E+02 0.  0.
         12    1    1    2    0    0 -0.16504349442E+02  0.23098645252E+02 -0.14518247347E+02  0.31886054459E+02  0.00000000000E+00 0. -1.
         11    1    3    3    0    0  0.20039145155E+02  0.46616620608E+01  0.14445461955E+02  0.25139009587E+02  0.51100000000E-03 0. -1.
        -11    1    3    3    0    0 -0.75902837843E+01 -0.26734975666E+02  0.44075980633E+01  0.28138909942E+02  0.51100000000E-03 0.  1.
         12    1    3    3    0    0  0.40554880720E+01 -0.10253316471E+01 -0.43348126714E+01  0.60240260113E+01  0.00000000000E+00 0. -1.
</event>
<event>
 7    1  0.7819001E-012  0.5930193E+02  0.7816164E-02  0.1266605E+00
        -11   -1    0    0    0    0  0.00000000000E+00  0.00000000000E+00  0.45593999997E+02  0.45594000000E+02  0.51100000000E-03 0. -1.
         11   -1    0    0    0    0 -0.00000000000E+00 -0.00000000000E+00 -0.45593999997E+02  0.45594000000E+02  0.51100000000E-03 0.  1.
    9900012    2    1    2    0    0 -0.15412723864E+02 -0.25566888084E+02 -0.11202827987E+02  0.59301934421E+02  0.49999982480E+02 0.  0.
         12    1    1    2    0    0  0.15412723864E+02  0.25566888084E+02  0.11202827987E+02  0.31886065579E+02  0.00000000000E+00 0. -1.
         11    1    3    3    0    0 -0.21186412127E+01 -0.14886423754E+02  0.16944061495E+02  0.22653818066E+02  0.51100000000E-03 0. -1.
        -11    1    3    3    0    0 -0.30136314115E+01 -0.66899110615E+01 -0.23609449645E+02  0.24723329005E+02  0.51100000000E-03 0.  1.
         12    1    3    3    0    0 -0.10280451240E+02 -0.39905532684E+01 -0.45374398369E+01  0.11924787350E+02  0.00000000000E+00 0. -1.
</event>
<event>
 7    1  0.7819001E-012  0.5930190E+02  0.7816164E-02  0.1266605E+00
        -11   -1    0    0    0    0  0.00000000000E+00  0.00000000000E+00  0.45593999997E+02  0.45594000000E+02  0.51100000000E-03 0. -1.
         11   -1    0    0    0    0 -0.00000000000E+00 -0.00000000000E+00 -0.45593999997E+02  0.45594000000E+02  0.51100000000E-03 0.  1.
    9900012    2    1    2    0    0  0.21488080362E+02  0.11163051392E+02 -0.20745413903E+02  0.59301897823E+02  0.49999915734E+02 0.  0.
         12    1    1    2    0    0 -0.21488080362E+02 -0.11163051392E+02  0.20745413903E+02  0.31886102177E+02  0.00000000000E+00 0. -1.
         11    1    3    3    0    0  0.42495944521E+01  0.89733787392E+01 -0.26757744199E+02  0.28540452937E+02  0.51100000000E-03 0. -1.
        -11    1    3    3    0    0 -0.50616582742E+01 -0.43045199190E+01 -0.42891190643E+00  0.66583212526E+01  0.51100000000E-03 0.  1.
         12    1    3    3    0    0  0.22300144184E+02  0.64941925722E+01  0.64412422020E+01  0.24103123633E+02  0.00000000000E+00 0. -1.
</event>
<event>
 7    1  0.7819001E-012  0.5930196E+02  0.7816164E-02  0.1266605E+00
        -11   -1    0    0    0    0  0.00000000000E+00  0.00000000000E+00  0.45593999997E+02  0.45594000000E+02  0.51100000000E-03 0. -1.
         11   -1    0    0    0    0 -0.00000000000E+00 -0.00000000000E+00 -0.45593999997E+02  0.45594000000E+02  0.51100000000E-03 0.  1.
    9900012    2    1    2    0    0  0.10664461721E+02 -0.72190801707E+01 -0.29169743200E+02  0.59301956334E+02  0.50000022444E+02 0.  0.
         12    1    1    2    0    0 -0.10664461721E+02  0.72190801707E+01  0.29169743200E+02  0.31886043666E+02  0.00000000000E+00 0. -1.
         11    1    3    3    0    0  0.89740543818E+00 -0.21327747701E+02 -0.12995517487E+01  0.21386140220E+02  0.51100000000E-03 0. -1.
        -11    1    3    3    0    0  0.12821744677E+02  0.71245621835E+01 -0.26328169904E+02  0.30138497866E+02  0.51100000000E-03 0.  1.
        -12    1    3    3    0    0 -0.30546883939E+01  0.69841053466E+01 -0.15420215477E+01  0.77773182479E+01  0.00000000000E+00 0.  1.
</event>
<event>
 7    1  0.7819001E-012  0.5930192E+02  0.7816164E-02  0.1266605E+00
        -11   -1    0    0    0    0  0.00000000000E+00  0.00000000000E+00  0.45593999997E+02  0.45594000000E+02  0.51100000000E-03 0.  1.
         11   -1    0    0    0    0 -0.00000000000E+00 -0.00000000000E+00 -0.45593999997E+02  0.45594000000E+02  0.51100000000E-03 0. -1.
    9900012    2    1    2    0    0  0.13660834740E+02 -0.28708446280E+02  0.24348546113E+01  0.59301924503E+02  0.49999964392E+02 0.  0.
         12    1    1    2    0    0 -0.13660834740E+02  0.28708446280E+02 -0.24348546113E+01  0.31886075497E+02  0.00000000000E+00 0. -1.
         11    1    3    3    0    0 -0.15053895173E+02 -0.86287029493E+01 -0.74158978038E+01  0.18869812266E+02  0.51100000000E-03 0. -1.
        -11    1    3    3    0    0  0.21406219529E+02 -0.15817587177E+02  0.14976088744E+02  0.30540228109E+02  0.51100000000E-03 0.  1.
         12    1    3    3    0    0  0.73085103842E+01 -0.42621561542E+01 -0.51253363284E+01  0.98918841278E+01  0.00000000000E+00 0. -1.
</event>
<event>
 7    1  0.7819001E-012  0.5930194E+02  0.7816164E-02  0.1266605E+00
        -11   -1    0    0    0    0  0.00000000000E+00  0.00000000000E+00  0.45593999997E+02  0.45594000000E+02  0.51100000000E-03 0.  1.
         11   -1    0    0    0    0 -0.00000000000E+00 -0.00000000000E+00 -0.45593999997E+02  0.45594000000E+02  0.51100000000E-03 0. -1.
    9900012    2    1    2    0    0 -0.31569561122E+02 -0.40816988923E+01 -0.18502914385E+01  0.59301936686E+02  0.49999986610E+02 0.  0.
         12    1    1    2    0    0  0.31569561122E+02  0.40816988923E+01  0.18502914385E+01  0.31886063314E+02  0.00000000000E+00 0. -1.
         11    1    3    3    0    0  0.12474546561E+02 -0.16334484972E+01 -0.74149640171E+01  0.14603566603E+02  0.51100000000E-03 0. -1.
        -11    1    3    3    0    0 -0.42767346768E+02 -0.28234945451E+01  0.47138943949E+01  0.43118892282E+02  0.51100000000E-03 0.  1.
         12    1    3    3    0    0 -0.12767609151E+01  0.37524414990E+00  0.85077818367E+00  0.15794778011E+01  0.00000000000E+00 0. -1.
</event>
<event>
 7    1  0.7819001E-012  0.5930195E+02  0.7816164E-02  0.1266605E+00
        -11   -1    0    0    0    0  0.00000000000E+00  0.00000000000E+00  0.45593999997E+02  0.45594000000E+02  0.51100000000E-03 0.  1.
         11   -1    0    0    0    0 -0.00000000000E+00 -0.00000000000E+00 -0.45593999997E+02  0.45594000000E+02  0.51100000000E-03 0. -1.
    9900012    2    1    2    0    0  0.16584818606E+02 -0.98235639984E+01  0.25400029198E+02  0.59301951310E+02  0.50000013280E+02 0.  0.
         12    1    1    2    0    0 -0.16584818606E+02  0.98235639984E+01 -0.25400029198E+02  0.31886048690E+02  0.00000000000E+00 0. -1.
         11    1    3    3    0    0 -0.37887938642E+01  0.12721201308E+02 -0.15857383460E+01  0.13367815380E+02  0.51100000000E-03 0. -1.
        -11    1    3    3    0    0  0.22683627095E+01 -0.18410537009E+02  0.14680490087E+02  0.23656080229E+02  0.51100000000E-03 0.  1.
         12    1    3    3    0    0  0.18105249761E+02 -0.41342282973E+01  0.12305277457E+02  0.22278055701E+02  0.00000000000E+00 0. -1.
</event>
<event>
 7    1  0.7819001E-012  0.5930192E+02  0.7816164E-02  0.1266605E+00
        -11   -1    0    0    0    0  0.00000000000E+00  0.00000000000E+00  0.45593999997E+02  0.45594000000E+02  0.51100000000E-03 0.  1.
         11   -1    0    0    0    0 -0.00000000000E+00 -0.00000000000E+00 -0.45593999997E+02  0.45594000000E+02  0.51100000000E-03 0. -1.
    9900012    2    1    2    0    0 -0.11919212580E+01 -0.24001253852E+02  0.20958087549E+02  0.59301916885E+02  0.49999950497E+02 0.  0.
         12    1    1    2    0    0  0.11919212580E+01  0.24001253852E+02 -0.20958087549E+02  0.31886083115E+02  0.00000000000E+00 0. -1.
         11    1    3    3    0    0 -0.12943940064E+02 -0.56374587528E+01  0.76009900894E+01  0.16034387303E+02  0.51100000000E-03 0. -1.
        -11    1    3    3    0    0  0.66500106127E+01 -0.18918918990E+02  0.24105711273E+02  0.31356553591E+02  0.51100000000E-03 0.  1.
        -12    1    3    3    0    0  0.51020081938E+01  0.55512389074E+00 -0.10748613813E+02  0.11910975991E+02  0.00000000000E+00 0.  1.
</event>
<event>
 7    1  0.7819001E-012  0.5930197E+02  0.7816164E-02  0.1266605E+00
        -11   -1    0    0    0    0  0.00000000000E+00  0.00000000000E+00  0.45593999997E+02  0.45594000000E+02  0.51100000000E-03 0. -1.
         11   -1    0    0    0    0 -0.00000000000E+00 -0.00000000000E+00 -0.45593999997E+02  0.45594000000E+02  0.51100000000E-03 0.  1.
    9900012    2    1    2    0    0  0.77662025686E+01 -0.26167544180E+02 -0.16482249463E+02  0.59301971428E+02  0.50000049971E+02 0.  0.
         12    1    1    2    0    0 -0.77662025686E+01  0.26167544180E+02  0.16482249463E+02  0.31886028572E+02  0.00000000000E+00 0. -1.
         11    1    3    3    0    0  0.42554813502E+01  0.41294083680E+01 -0.62464591869E+01  0.86127456497E+01  0.51100000000E-03 0. -1.
        -11    1    3    3    0    0 -0.12154139458E+02 -0.31012823259E+02 -0.10745387893E+02  0.34999738195E+02  0.51100000000E-03 0.  1.
        -12    1    3    3    0    0  0.15664860676E+02  0.71587071105E+00  0.50959761710E+00  0.15689487583E+02  0.00000000000E+00 0.  1.
</event>
<event>
 7    1  0.7819001E-012  0.5930195E+02  0.7816164E-02  0.1266605E+00
        -11   -1    0    0    0    0  0.00000000000E+00  0.00000000000E+00  0.45593999997E+02  0.45594000000E+02  0.51100000000E-03 0. -1.
         11   -1    0    0    0    0 -0.00000000000E+00 -0.00000000000E+00 -0.45593999997E+02  0.45594000000E+02  0.51100000000E-03 0.  1.
    9900012    2    1    2    0    0  0.91562825308E+01 -0.15143972317E+02 -0.26524384677E+02  0.59301946782E+02  0.50000005022E+02 0.  0.
         12    1    1    2    0    0 -0.91562825308E+01  0.15143972317E+02  0.26524384677E+02  0.31886053218E+02  0.00000000000E+00 0. -1.
         11    1    3    3    0    0 -0.16993800833E+02 -0.11689739277E+01  0.12064601517E+01  0.17076630615E+02  0.51100000000E-03 0. -1.
        -11    1    3    3    0    0  0.12669856096E+02 -0.13412657863E+01 -0.15519544546E+02  0.20079355332E+02  0.51100000000E-03 0.  1.
         12    1    3    3    0    0  0.13480227268E+02 -0.12633732603E+02 -0.12211300284E+02  0.22145960835E+02  0.00000000000E+00 0. -1.
</event>
<event>
 7    1  0.7819001E-012  0.5930195E+02  0.7816164E-02  0.1266605E+00
        -11   -1    0    0    0    0  0.00000000000E+00  0.00000000000E+00  0.45593999997E+02  0.45594000000E+02  0.51100000000E-03 0. -1.
         11   -1    0    0    0    0 -0.00000000000E+00 -0.00000000000E+00 -0.45593999997E+02  0.45594000000E+02  0.51100000000E-03 0.  1.
    9900012    2    1    2    0    0  0.29611515093E+02 -0.62152399459E+01 -0.10062269263E+02  0.59301948247E+02  0.50000007694E+02 0.  0.
         12    1    1    2    0    0 -0.29611515093E+02  0.62152399459E+01  0.10062269263E+02  0.31886051753E+02  0.00000000000E+00 0. -1.
         11    1    3    3    0    0  0.16446076211E+02 -0.38547700007E+01  0.97094422803E+01  0.19483478749E+02  0.51100000000E-03 0. -1.
        -11    1    3    3    0    0  0.66334811812E+01  0.11238519368E+02 -0.20954277078E+02  0.24685808034E+02  0.51100000000E-03 0.  1.
         12    1    3    3    0    0  0.65319577005E+01 -0.13598989313E+02  0.11825655342E+01  0.15132661464E+02  0.00000000000E+00 0. -1.
</event>
<event>
 7    1  0.7819001E-012  0.5930190E+02  0.7816164E-02  0.1266605E+00
        -11   -1    0    0    0    0  0.00000000000E+00  0.00000000000E+00  0.45593999997E+02  0.45594000000E+02  0.51100000000E-03 0.  1.
         11   -1    0    0    0    0 -0.00000000000E+00 -0.00000000000E+00 -0.45593999997E+02  0.45594000000E+02  0.51100000000E-03 0. -1.
    9900012    2    1    2    0    0 -0.19534869180E+02 -0.12575991165E+02  0.21839337428E+02  0.59301900725E+02  0.49999921026E+02 0.  0.
         12    1    1    2    0    0  0.19534869180E+02  0.12575991165E+02 -0.21839337428E+02  0.31886099275E+02  0.00000000000E+00 0. -1.
         11    1    3    3    0    0  0.32640013923E+01 -0.20883902530E+02 -0.52010945237E+01  0.21767923063E+02  0.51100000000E-03 0. -1.
        -11    1    3    3    0    0 -0.16064156094E+02  0.27528777307E+01  0.22235112278E+02  0.27568744351E+02  0.51100000000E-03 0.  1.
         12    1    3    3    0    0 -0.67347144785E+01  0.55550336335E+01  0.48053196744E+01  0.99652333113E+01  0.00000000000E+00 0. -1.
</event>
<event>
 7    1  0.7819001E-012  0.5930192E+02  0.7816164E-02  0.1266605E+00
        -11   -1    0    0    0    0  0.00000000000E+00  0.00000000000E+00  0.45593999997E+02  0.45594000000E+02  0.51100000000E-03 0.  1.
         11   -1    0    0    0    0 -0.00000000000E+00 -0.00000000000E+00 -0.45593999997E+02  0.45594000000E+02  0.51100000000E-03 0. -1.
    9900012    2    1    2    0    0 -0.24437885549E+02  0.13192567194E+02  0.15667420247E+02  0.59301919393E+02  0.49999955073E+02 0.  0.
         12    1    1    2    0    0  0.24437885549E+02 -0.13192567194E+02 -0.15667420247E+02  0.31886080607E+02  0.00000000000E+00 0. -1.
         11    1    3    3    0    0  0.20631716696E+01 -0.99195103665E+01  0.78872278433E+01  0.12839849164E+02  0.51100000000E-03 0. -1.
        -11    1    3    3    0    0 -0.17818825855E+02  0.20705494288E+02 -0.78486112464E+01  0.28422328323E+02  0.51100000000E-03 0.  1.
        -12    1    3    3    0    0 -0.86822313635E+01  0.24065832724E+01  0.15628803650E+02  0.18039741906E+02  0.00000000000E+00 0.  1.
</event>
<event>
 7    1  0.7819001E-012  0.5930199E+02  0.7816164E-02  0.1266605E+00
        -11   -1    0    0    0    0  0.00000000000E+00  0.00000000000E+00  0.45593999997E+02  0.45594000000E+02  0.51100000000E-03 0.  1.
         11   -1    0    0    0    0 -0.00000000000E+00 -0.00000000000E+00 -0.45593999997E+02  0.45594000000E+02  0.51100000000E-03 0. -1.
    9900012    2    1    2    0    0  0.61242702767E+01  0.24218519465E+02  0.19816014883E+02  0.59301987121E+02  0.50000078591E+02 0.  0.
         12    1    1    2    0    0 -0.61242702767E+01 -0.24218519465E+02 -0.19816014883E+02  0.31886012879E+02  0.00000000000E+00 0. -1.
         11    1    3    3    0    0 -0.17411907501E+02  0.12446506244E+02  0.77576898293E+01  0.22765583504E+02  0.51100000000E-03 0. -1.
        -11    1    3    3    0    0  0.16515999172E+02  0.18247357721E+02  0.10894092909E+02  0.26915154709E+02  0.51100000000E-03 0.  1.
         12    1    3    3    0    0  0.70201786057E+01 -0.64753445009E+01  0.11642321445E+01  0.96212489079E+01  0.00000000000E+00 0. -1.
</event>
<event>
 7    1  0.7819001E-012  0.5930195E+02  0.7816164E-02  0.1266605E+00
        -11   -1    0    0    0    0  0.00000000000E+00  0.00000000000E+00  0.45593999997E+02  0.45594000000E+02  0.51100000000E-03 0.  1.
         11   -1    0    0    0    0 -0.00000000000E+00 -0.00000000000E+00 -0.45593999997E+02  0.45594000000E+02  0.51100000000E-03 0. -1.
    9900012    2    1    2    0    0  0.21355319836E+02  0.22035996077E+02  0.86651881294E+01  0.59301948289E+02  0.50000007771E+02 0.  0.
         12    1    1    2    0    0 -0.21355319836E+02 -0.22035996077E+02 -0.86651881294E+01  0.31886051711E+02  0.00000000000E+00 0. -1.
         11    1    3    3    0    0  0.29570776381E+02  0.69332665001E+01  0.10359765286E+02  0.32090898043E+02  0.51100000000E-03 0. -1.
        -11    1    3    3    0    0 -0.76978491729E+01  0.11980612451E+02  0.84673841173E+01  0.16567695997E+02  0.51100000000E-03 0.  1.
         12    1    3    3    0    0 -0.51760737214E+00  0.31221171251E+01 -0.10161961274E+02  0.10643354249E+02  0.00000000000E+00 0. -1.
</event>
<event>
 7    1  0.7819001E-012  0.5930195E+02  0.7816164E-02  0.1266605E+00
        -11   -1    0    0    0    0  0.00000000000E+00  0.00000000000E+00  0.45593999997E+02  0.45594000000E+02  0.51100000000E-03 0.  1.
         11   -1    0    0    0    0 -0.00000000000E+00 -0.00000000000E+00 -0.45593999997E+02  0.45594000000E+02  0.51100000000E-03 0. -1.
    9900012    2    1    2    0    0 -0.96778499460E+01 -0.24216930099E+02  0.18346656543E+02  0.59301948358E+02  0.50000007898E+02 0.  0.
         12    1    1    2    0    0  0.96778499460E+01  0.24216930099E+02 -0.18346656543E+02  0.31886051642E+02  0.00000000000E+00 0. -1.
         11    1    3    3    0    0  0.24357757039E+01 -0.54090368802E+01  0.30974276268E+02  0.31537223623E+02  0.51100000000E-03 0. -1.
        -11    1    3    3    0    0 -0.37274967161E+01 -0.12949740146E+02 -0.31930139716E+01  0.13848658423E+02  0.51100000000E-03 0.  1.
         12    1    3    3    0    0 -0.83861289338E+01 -0.58581530721E+01 -0.94346057528E+01  0.13916066313E+02  0.00000000000E+00 0. -1.
</event>
<event>
 7    1  0.7819001E-012  0.5930197E+02  0.7816164E-02  0.1266605E+00
        -11   -1    0    0    0    0  0.00000000000E+00  0.00000000000E+00  0.45593999997E+02  0.45594000000E+02  0.51100000000E-03 0.  1.
         11   -1    0    0    0    0 -0.00000000000E+00 -0.00000000000E+00 -0.45593999997E+02  0.45594000000E+02  0.51100000000E-03 0. -1.
    9900012    2    1    2    0    0 -0.44414590199E+01  0.30687758238E+02  0.74333033694E+01  0.59301967589E+02  0.50000042971E+02 0.  0.
         12    1    1    2    0    0  0.44414590199E+01 -0.30687758238E+02 -0.74333033694E+01  0.31886032411E+02  0.00000000000E+00 0. -1.
         11    1    3    3    0    0 -0.13371543516E+02  0.97200301387E+00 -0.12101097092E+02  0.18060440663E+02  0.51100000000E-03 0. -1.
        -11    1    3    3    0    0  0.33546682381E+01  0.14918132257E+01  0.10443433007E+02  0.11069986401E+02  0.51100000000E-03 0.  1.
         12    1    3    3    0    0  0.55754162581E+01  0.28223941999E+02  0.90909674547E+01  0.30171540525E+02  0.00000000000E+00 0. -1.
</event>
<event>
 7    1  0.8179324E-012  0.5930195E+02  0.7816164E-02  0.1266605E+00
        -11   -1    0    0    0    0  0.00000000000E+00  0.00000000000E+00  0.45593999997E+02  0.45594000000E+02  0.51100000000E-03 0. -1.
         11   -1    0    0    0    0 -0.00000000000E+00 -0.00000000000E+00 -0.45593999997E+02  0.45594000000E+02  0.51100000000E-03 0.  1.
    9900012    2    1    2    0    0 -0.18454096716E+02 -0.77046849885E+01 -0.24835539344E+02  0.59301954919E+02  0.50000019864E+02 0.  0.
         12    1    1    2    0    0  0.18454096716E+02  0.77046849885E+01  0.24835539344E+02  0.31886045081E+02  0.00000000000E+00 0. -1.
         11    1    3    3    0    0  0.10610396435E+02 -0.64878495827E+01  0.28566250345E+00  0.12440028459E+02  0.51100000000E-03 0. -1.
        -11    1    3    3    0    0 -0.16170863486E+02 -0.67060959386E+01 -0.27547999556E+02  0.32639865631E+02  0.51100000000E-03 0.  1.
        -12    1    3    3    0    0 -0.12893629665E+02  0.54892605328E+01  0.24267977084E+01  0.14222060830E+02  0.00000000000E+00 0.  1.
</event>
<event>
 7    1  0.7819001E-012  0.5930193E+02  0.7816164E-02  0.1266605E+00
        -11   -1    0    0    0    0  0.00000000000E+00  0.00000000000E+00  0.45593999997E+02  0.45594000000E+02  0.51100000000E-03 0.  1.
         11   -1    0    0    0    0 -0.00000000000E+00 -0.00000000000E+00 -0.45593999997E+02  0.45594000000E+02  0.51100000000E-03 0. -1.
    9900012    2    1    2    0    0 -0.27907739796E+02 -0.14715612264E+02  0.46184917840E+01  0.59301927003E+02  0.49999968952E+02 0.  0.
         12    1    1    2    0    0  0.27907739796E+02  0.14715612264E+02 -0.46184917840E+01  0.31886072997E+02  0.00000000000E+00 0. -1.
         11    1    3    3    0    0 -0.26224891375E+02 -0.15733314264E+01  0.16427008846E+02  0.30984946656E+02  0.51100000000E-03 0.  1.
        -11    1    3    3    0    0 -0.34742083840E+01 -0.15277886235E+02 -0.16566866606E+02  0.22802302540E+02  0.51100000000E-03 0. -1.
        -12    1    3    3    0    0  0.17913599635E+01  0.21356053975E+01  0.47583495446E+01  0.55146778076E+01  0.00000000000E+00 0.  1.
</event>
<event>
 7    1  0.7819001E-012  0.5930196E+02  0.7816164E-02  0.1266605E+00
        -11   -1    0    0    0    0  0.00000000000E+00  0.00000000000E+00  0.45593999997E+02  0.45594000000E+02  0.51100000000E-03 0.  1.
         11   -1    0    0    0    0 -0.00000000000E+00 -0.00000000000E+00 -0.45593999997E+02  0.45594000000E+02  0.51100000000E-03 0. -1.
    9900012    2    1    2    0    0  0.16851696319E+02  0.15896149830E+00  0.27068704857E+02  0.59301957282E+02  0.50000024173E+02 0.  0.
         12    1    1    2    0    0 -0.16851696319E+02 -0.15896149830E+00 -0.27068704857E+02  0.31886042718E+02  0.00000000000E+00 0. -1.
         11    1    3    3    0    0  0.15025817507E+02 -0.63305030467E+01  0.31359981356E+01  0.16603762981E+02  0.51100000000E-03 0. -1.
        -11    1    3    3    0    0 -0.10166800033E+02  0.33180501380E+01 -0.45570089707E+01  0.11624956372E+02  0.51100000000E-03 0.  1.
        -12    1    3    3    0    0  0.11992678845E+02  0.31714144070E+01  0.28489715692E+02  0.31073237929E+02  0.00000000000E+00 0.  1.
</event>
<event>
 7    1  0.7819001E-012  0.5930193E+02  0.7816164E-02  0.1266605E+00
        -11   -1    0    0    0    0  0.00000000000E+00  0.00000000000E+00  0.45593999997E+02  0.45594000000E+02  0.51100000000E-03 0.  1.
         11   -1    0    0    0    0 -0.00000000000E+00 -0.00000000000E+00 -0.45593999997E+02  0.45594000000E+02  0.51100000000E-03 0. -1.
    9900012    2    1    2    0    0 -0.28144354975E+02  0.12703316321E+02  0.79525177411E+01  0.59301929359E+02  0.49999973247E+02 0.  0.
         12    1    1    2    0    0  0.28144354975E+02 -0.12703316321E+02 -0.79525177411E+01  0.31886070641E+02  0.00000000000E+00 0. -1.
         11    1    3    3    0    0 -0.14992607226E+02  0.11187399969E+02  0.22632677282E+01  0.18842997918E+02  0.51100000000E-03 0. -1.
        -11    1    3    3    0    0 -0.17701395012E+01 -0.34002625456E+01  0.20664771298E+02  0.21017325050E+02  0.51100000000E-03 0.  1.
         12    1    3    3    0    0 -0.11381608248E+02  0.49161788978E+01 -0.14975521285E+02  0.19441606390E+02  0.00000000000E+00 0. -1.
</event>
<event>
 7    1  0.7819001E-012  0.5930196E+02  0.7816164E-02  0.1266605E+00
        -11   -1    0    0    0    0  0.00000000000E+00  0.00000000000E+00  0.45593999997E+02  0.45594000000E+02  0.51100000000E-03 0.  1.
         11   -1    0    0    0    0 -0.00000000000E+00 -0.00000000000E+00 -0.45593999997E+02  0.45594000000E+02  0.51100000000E-03 0. -1.
    9900012    2    1    2    0    0 -0.31217460119E+01 -0.31710420191E+02  0.11931726085E+01  0.59301957478E+02  0.50000024530E+02 0.  0.
         12    1    1    2    0    0  0.31217460119E+01  0.31710420191E+02 -0.11931726085E+01  0.31886042522E+02  0.00000000000E+00 0. -1.
         11    1    3    3    0    0 -0.20334767899E+02 -0.16169917075E+02 -0.21833780881E+01  0.26071749919E+02  0.51100000000E-03 0. -1.
        -11    1    3    3    0    0  0.13423135766E+02 -0.19065393018E+02  0.95303485450E+01  0.25189230405E+02  0.51100000000E-03 0.  1.
         12    1    3    3    0    0  0.37898861212E+01  0.35248899023E+01 -0.61537978484E+01  0.80409771542E+01  0.00000000000E+00 0. -1.
</event>
<event>
 7    1  0.7819001E-012  0.5930199E+02  0.7816164E-02  0.1266605E+00
        -11   -1    0    0    0    0  0.00000000000E+00  0.00000000000E+00  0.45593999997E+02  0.45594000000E+02  0.51100000000E-03 0. -1.
         11   -1    0    0    0    0 -0.00000000000E+00 -0.00000000000E+00 -0.45593999997E+02  0.45594000000E+02  0.51100000000E-03 0.  1.
    9900012    2    1    2    0    0 -0.27282297626E+02  0.11284024757E+02 -0.12044270776E+02  0.59301993085E+02  0.50000089469E+02 0.  0.
         12    1    1    2    0    0  0.27282297626E+02 -0.11284024757E+02  0.12044270776E+02  0.31886006915E+02  0.00000000000E+00 0. -1.
         11    1    3    3    0    0  0.33679081105E+01  0.12406707116E+02 -0.83870157530E+01  0.15349632569E+02  0.51100000000E-03 0. -1.
        -11    1    3    3    0    0 -0.30809014035E+02 -0.67393229571E+01 -0.12126629938E+02  0.33788592360E+02  0.51100000000E-03 0.  1.
        -12    1    3    3    0    0  0.15880829864E+00  0.56166405976E+01  0.84693749151E+01  0.10163768156E+02  0.00000000000E+00 0.  1.
</event>
<event>
 7    1  0.7819001E-012  0.5930192E+02  0.7816164E-02  0.1266605E+00
        -11   -1    0    0    0    0  0.00000000000E+00  0.00000000000E+00  0.45593999997E+02  0.45594000000E+02  0.51100000000E-03 0. -1.
         11   -1    0    0    0    0 -0.00000000000E+00 -0.00000000000E+00 -0.45593999997E+02  0.45594000000E+02  0.51100000000E-03 0.  1.
    9900012    2    1    2    0    0  0.15409237737E+02 -0.94745282426E+01 -0.26258543009E+02  0.59301915668E+02  0.49999948278E+02 0.  0.
         12    1    1    2    0    0 -0.15409237737E+02  0.94745282426E+01  0.26258543009E+02  0.31886084332E+02  0.00000000000E+00 0. -1.
         11    1    3    3    0    0  0.99891656374E+01 -0.21595299791E+02 -0.63353833380E+01  0.24622702644E+02  0.51100000000E-03 0. -1.
        -11    1    3    3    0    0  0.23977763984E+00  0.19398547107E+02 -0.14602667615E+02  0.24281660259E+02  0.51100000000E-03 0.  1.
        -12    1    3    3    0    0  0.51802944602E+01 -0.72777755586E+01 -0.53204920567E+01  0.10397552765E+02  0.00000000000E+00 0.  1.
</event>
<event>
 7    1  0.7819001E-012  0.5930196E+02  0.7816164E-02  0.1266605E+00
        -11   -1    0    0    0    0  0.00000000000E+00  0.00000000000E+00  0.45593999997E+02  0.45594000000E+02  0.51100000000E-03 0. -1.
         11   -1    0    0    0    0 -0.00000000000E+00 -0.00000000000E+00 -0.45593999997E+02  0.45594000000E+02  0.51100000000E-03 0.  1.
    9900012    2    1    2    0    0 -0.81329661181E+01 -0.28825414198E+02 -0.10939371019E+02  0.59301961051E+02  0.50000031047E+02 0.  0.
         12    1    1    2    0    0  0.81329661181E+01  0.28825414198E+02  0.10939371019E+02  0.31886038949E+02  0.00000000000E+00 0. -1.
         11    1    3    3    0    0 -0.27002646964E+02 -0.10608300996E+02 -0.33881583672E+01  0.29208878966E+02  0.51100000000E-03 0. -1.
        -11    1    3    3    0    0  0.96127425138E+01 -0.80803414880E+01 -0.10119156332E+02  0.16127431982E+02  0.51100000000E-03 0.  1.
         12    1    3    3    0    0  0.92569383320E+01 -0.10136771714E+02  0.25679436800E+01  0.13965650103E+02  0.00000000000E+00 0. -1.
</event>
<event>
 7    1  0.7819001E-012  0.5930195E+02  0.7816164E-02  0.1266605E+00
        -11   -1    0    0    0    0  0.00000000000E+00  0.00000000000E+00  0.45593999997E+02  0.45594000000E+02  0.51100000000E-03 0.  1.
         11   -1    0    0    0    0 -0.00000000000E+00 -0.00000000000E+00 -0.45593999997E+02  0.45594000000E+02  0.51100000000E-03 0. -1.
    9900012    2    1    2    0    0  0.65234553921E+01  0.12143666583E+01  0.31187983393E+02  0.59301945607E+02  0.50000002881E+02 0.  0.
         12    1    1    2    0    0 -0.65234553921E+01 -0.12143666583E+01 -0.31187983393E+02  0.31886054393E+02  0.00000000000E+00 0. -1.
         11    1    3    3    0    0  0.18425437960E+02  0.15379651205E+01  0.33968036585E+02  0.38674146537E+02  0.51100000000E-03 0. -1.
        -11    1    3    3    0    0 -0.30688061012E+01 -0.58716595828E+01  0.44100487090E+01  0.79587993453E+01  0.51100000000E-03 0.  1.
         12    1    3    3    0    0 -0.88331764663E+01  0.55480611206E+01 -0.71901019009E+01  0.12668999725E+02  0.00000000000E+00 0. -1.
</event>
<event>
 7    1  0.7819001E-012  0.5930195E+02  0.7816164E-02  0.1266605E+00
        -11   -1    0    0    0    0  0.00000000000E+00  0.00000000000E+00  0.45593999997E+02  0.45594000000E+02  0.51100000000E-03 0.  1.
         11   -1    0    0    0    0 -0.00000000000E+00 -0.00000000000E+00 -0.45593999997E+02  0.45594000000E+02  0.51100000000E-03 0. -1.
    9900012    2    1    2    0    0  0.30724359533E+02  0.84468245845E+01 -0.11769407470E+01  0.59301948131E+02  0.50000007483E+02 0.  0.
         12    1    1    2    0    0 -0.30724359533E+02 -0.84468245845E+01  0.11769407470E+01  0.31886051869E+02  0.00000000000E+00 0. -1.
         11    1    3    3    0    0  0.18704899826E+02  0.19002973850E+02  0.21204948274E+01  0.26748510075E+02  0.51100000000E-03 0. -1.
        -11    1    3    3    0    0  0.11068054429E+01 -0.16232855591E+02  0.57790638923E+01  0.17266389277E+02  0.51100000000E-03 0.  1.
        -12    1    3    3    0    0  0.10912654264E+02  0.56767063255E+01 -0.90764994668E+01  0.15287048778E+02  0.00000000000E+00 0.  1.
</event>
<event>
 7    1  0.7819001E-012  0.5930194E+02  0.7816164E-02  0.1266605E+00
        -11   -1    0    0    0    0  0.00000000000E+00  0.00000000000E+00  0.45593999997E+02  0.45594000000E+02  0.51100000000E-03 0. -1.
         11   -1    0    0    0    0 -0.00000000000E+00 -0.00000000000E+00 -0.45593999997E+02  0.45594000000E+02  0.51100000000E-03 0.  1.
    9900012    2    1    2    0    0  0.25154536285E+02 -0.13569258787E+02 -0.14136655865E+02  0.59301944760E+02  0.50000001335E+02 0.  0.
         12    1    1    2    0    0 -0.25154536285E+02  0.13569258787E+02  0.14136655865E+02  0.31886055240E+02  0.00000000000E+00 0. -1.
         11    1    3    3    0    0  0.16931406639E+02 -0.10863982516E+02 -0.76006359240E+00  0.20131476443E+02  0.51100000000E-03 0.  1.
        -11    1    3    3    0    0 -0.28158577573E+01  0.82881659550E+01 -0.20311475014E+02  0.22117386087E+02  0.51100000000E-03 0. -1.
         12    1    3    3    0    0  0.11038987404E+02 -0.10993442226E+02  0.69348827416E+01  0.17053082229E+02  0.00000000000E+00 0. -1.
</event>
<event>
 7    1  0.7819001E-012  0.5930198E+02  0.7816164E-02  0.1266605E+00
        -11   -1    0    0    0    0  0.00000000000E+00  0.00000000000E+00  0.45593999997E+02  0.45594000000E+02  0.51100000000E-03 0. -1.
         11   -1    0    0    0    0 -0.00000000000E+00 -0.00000000000E+00 -0.45593999997E+02  0.45594000000E+02  0.51100000000E-03 0.  1.
    9900012    2    1    2    0    0  0.12204434342E+02 -0.20186290664E+02  0.21454230873E+02  0.59301975307E+02  0.50000057046E+02 0.  0.
         12    1    1    2    0    0 -0.12204434342E+02  0.20186290664E+02 -0.21454230873E+02  0.31886024693E+02  0.00000000000E+00 0. -1.
         11    1    3    3    0    0  0.81529775019E+01 -0.34042990550E+02  0.15814900315E+02  0.38412332915E+02  0.51100000000E-03 0. -1.
        -11    1    3    3    0    0 -0.17853768481E+01  0.11225771646E+02 -0.13082861850E+01  0.11441902487E+02  0.51100000000E-03 0.  1.
         12    1    3    3    0    0  0.58368336882E+01  0.26309282398E+01  0.69476167428E+01  0.94477399050E+01  0.00000000000E+00 0. -1.
</event>
<event>
 7    1  0.7819001E-012  0.5930194E+02  0.7816164E-02  0.1266605E+00
        -11   -1    0    0    0    0  0.00000000000E+00  0.00000000000E+00  0.45593999997E+02  0.45594000000E+02  0.51100000000E-03 0. -1.
         11   -1    0    0    0    0 -0.00000000000E+00 -0.00000000000E+00 -0.45593999997E+02  0.45594000000E+02  0.51100000000E-03 0.  1.
    9900012    2    1    2    0    0 -0.91985611035E+01  0.25890228992E+02 -0.16180337459E+02  0.59301940289E+02  0.49999993181E+02 0.  0.
         12    1    1    2    0    0  0.91985611035E+01 -0.25890228992E+02  0.16180337459E+02  0.31886059711E+02  0.00000000000E+00 0. -1.
         11    1    3    3    0    0 -0.11743883090E+02  0.62448798735E+01  0.40313717837E+01  0.13898534936E+02  0.51100000000E-03 0. -1.
        -11    1    3    3    0    0 -0.80950872451E+01  0.19310449510E+02 -0.25922524016E+02  0.33322682206E+02  0.51100000000E-03 0.  1.
         12    1    3    3    0    0  0.10640409231E+02  0.33489960798E+00  0.57108147732E+01  0.12080723146E+02  0.00000000000E+00 0. -1.
</event>
<event>
 7    1  0.7819001E-012  0.5930195E+02  0.7816164E-02  0.1266605E+00
        -11   -1    0    0    0    0  0.00000000000E+00  0.00000000000E+00  0.45593999997E+02  0.45594000000E+02  0.51100000000E-03 0.  1.
         11   -1    0    0    0    0 -0.00000000000E+00 -0.00000000000E+00 -0.45593999997E+02  0.45594000000E+02  0.51100000000E-03 0. -1.
    9900012    2    1    2    0    0  0.19780305578E+02  0.51751025134E+01  0.24467900265E+02  0.59301947905E+02  0.50000007072E+02 0.  0.
         12    1    1    2    0    0 -0.19780305578E+02 -0.51751025134E+01 -0.24467900265E+02  0.31886052095E+02  0.00000000000E+00 0. -1.
         11    1    3    3    0    0 -0.64004833604E+01 -0.21585225082E+01  0.19414083982E+00  0.67574475648E+01  0.51100000000E-03 0. -1.
        -11    1    3    3    0    0  0.20907745260E+02  0.98189060915E+01  0.34059944178E+02  0.41153669658E+02  0.51100000000E-03 0.  1.
        -12    1    3    3    0    0  0.52730436785E+01 -0.24852810699E+01 -0.97861847522E+01  0.11390830682E+02  0.00000000000E+00 0.  1.
</event>
<event>
 7    1  0.7819001E-012  0.5930194E+02  0.7816164E-02  0.1266605E+00
        -11   -1    0    0    0    0  0.00000000000E+00  0.00000000000E+00  0.45593999997E+02  0.45594000000E+02  0.51100000000E-03 0.  1.
         11   -1    0    0    0    0 -0.00000000000E+00 -0.00000000000E+00 -0.45593999997E+02  0.45594000000E+02  0.51100000000E-03 0. -1.
    9900012    2    1    2    0    0 -0.52213768578E+01  0.16155821600E+02  0.26989767599E+02  0.59301938736E+02  0.49999990349E+02 0.  0.
         12    1    1    2    0    0  0.52213768578E+01 -0.16155821600E+02 -0.26989767599E+02  0.31886061264E+02  0.00000000000E+00 0. -1.
         11    1    3    3    0    0 -0.97238430694E+01  0.13872047357E+02  0.17371120419E+01  0.17029514979E+02  0.51100000000E-03 0. -1.
        -11    1    3    3    0    0  0.12520706269E+01 -0.16142763434E+01  0.32971339360E+02  0.33034569597E+02  0.51100000000E-03 0.  1.
        -12    1    3    3    0    0  0.32503955847E+01  0.38980505862E+01 -0.77186838029E+01  0.92378541598E+01  0.00000000000E+00 0.  1.
</event>
<event>
 7    1  0.7819001E-012  0.5930192E+02  0.7816164E-02  0.1266605E+00
        -11   -1    0    0    0    0  0.00000000000E+00  0.00000000000E+00  0.45593999997E+02  0.45594000000E+02  0.51100000000E-03 0. -1.
         11   -1    0    0    0    0 -0.00000000000E+00 -0.00000000000E+00 -0.45593999997E+02  0.45594000000E+02  0.51100000000E-03 0.  1.
    9900012    2    1    2    0    0 -0.14525674576E+02 -0.13877471041E+02 -0.24761714790E+02  0.59301922416E+02  0.49999960585E+02 0.  0.
         12    1    1    2    0    0  0.14525674576E+02  0.13877471041E+02  0.24761714790E+02  0.31886077584E+02  0.00000000000E+00 0. -1.
         11    1    3    3    0    0 -0.12929865990E+02  0.20003795933E+01 -0.43501825126E+00  0.13090920296E+02  0.51100000000E-03 0. -1.
        -11    1    3    3    0    0  0.90517484529E+01 -0.20358564811E+02 -0.37219186937E+01  0.22588890859E+02  0.51100000000E-03 0.  1.
        -12    1    3    3    0    0 -0.10647557039E+02  0.44807141760E+01 -0.20604777845E+02  0.23622111261E+02  0.00000000000E+00 0.  1.
</event>
<event>
 7    1  0.7819001E-012  0.5930196E+02  0.7816164E-02  0.1266605E+00
        -11   -1    0    0    0    0  0.00000000000E+00  0.00000000000E+00  0.45593999997E+02  0.45594000000E+02  0.51100000000E-03 0. -1.
         11   -1    0    0    0    0 -0.00000000000E+00 -0.00000000000E+00 -0.45593999997E+02  0.45594000000E+02  0.51100000000E-03 0.  1.
    9900012    2    1    2    0    0 -0.14622343852E+02 -0.21906242296E+02 -0.17972841254E+02  0.59301962083E+02  0.50000032929E+02 0.  0.
         12    1    1    2    0    0  0.14622343852E+02  0.21906242296E+02  0.17972841254E+02  0.31886037917E+02  0.00000000000E+00 0. -1.
         11    1    3    3    0    0 -0.29601862334E+02 -0.77051157580E+01 -0.30032459713E+00  0.30589692016E+02  0.51100000000E-03 0. -1.
        -11    1    3    3    0    0  0.11319251073E+02 -0.12568475172E+02 -0.90027506626E+01  0.19160937680E+02  0.51100000000E-03 0.  1.
         12    1    3    3    0    0  0.36602674085E+01 -0.16326513664E+01 -0.86697659942E+01  0.95513323877E+01  0.00000000000E+00 0. -1.
</event>
<event>
 7    1  0.7819001E-012  0.5930194E+02  0.7816164E-02  0.1266605E+00
        -11   -1    0    0    0    0  0.00000000000E+00  0.00000000000E+00  0.45593999997E+02  0.45594000000E+02  0.51100000000E-03 0.  1.
         11   -1    0    0    0    0 -0.00000000000E+00 -0.00000000000E+00 -0.45593999997E+02  0.45594000000E+02  0.51100000000E-03 0. -1.
    9900012    2    1    2    0    0 -0.15738026969E+02  0.13773871110E+02  0.24068973815E+02  0.59301944760E+02  0.50000001336E+02 0.  0.
         12    1    1    2    0    0  0.15738026969E+02 -0.13773871110E+02 -0.24068973815E+02  0.31886055240E+02  0.00000000000E+00 0. -1.
         11    1    3    3    0    0  0.33580449883E+01  0.21085614209E+02 -0.43245506412E+01  0.21784887680E+02  0.51100000000E-03 0. -1.
        -11    1    3    3    0    0 -0.87020192158E+01  0.36954245833E+00  0.33437415800E+01  0.93296467283E+01  0.51100000000E-03 0.  1.
         12    1    3    3    0    0 -0.10394052742E+02 -0.76812855576E+01  0.25049782876E+02  0.28187410352E+02  0.00000000000E+00 0. -1.
</event>
<event>
 7    1  0.7819001E-012  0.5930194E+02  0.7816164E-02  0.1266605E+00
        -11   -1    0    0    0    0  0.00000000000E+00  0.00000000000E+00  0.45593999997E+02  0.45594000000E+02  0.51100000000E-03 0.  1.
         11   -1    0    0    0    0 -0.00000000000E+00 -0.00000000000E+00 -0.45593999997E+02  0.45594000000E+02  0.51100000000E-03 0. -1.
    9900012    2    1    2    0    0  0.30350899363E+02  0.88764610619E+01  0.40929024691E+01  0.59301944996E+02  0.50000001765E+02 0.  0.
         12    1    1    2    0    0 -0.30350899363E+02 -0.88764610619E+01 -0.40929024691E+01  0.31886055004E+02  0.00000000000E+00 0. -1.
         11    1    3    3    0    0  0.93780585890E+01 -0.15133962275E+02  0.56023948093E+01  0.18664716042E+02  0.51100000000E-03 0. -1.
        -11    1    3    3    0    0 -0.15517386346E-01  0.12111161009E+02  0.82042212928E+01  0.14628387097E+02  0.51100000000E-03 0.  1.
         12    1    3    3    0    0  0.20988358160E+02  0.11899262328E+02 -0.97137136330E+01  0.26008841857E+02  0.00000000000E+00 0. -1.
</event>
<event>
 7    1  0.7819001E-012  0.5930193E+02  0.7816164E-02  0.1266605E+00
        -11   -1    0    0    0    0  0.00000000000E+00  0.00000000000E+00  0.45593999997E+02  0.45594000000E+02  0.51100000000E-03 0.  1.
         11   -1    0    0    0    0 -0.00000000000E+00 -0.00000000000E+00 -0.45593999997E+02  0.45594000000E+02  0.51100000000E-03 0. -1.
    9900012    2    1    2    0    0  0.20667219066E+02 -0.24277926485E+02 -0.41242921585E+00  0.59301925356E+02  0.49999965947E+02 0.  0.
         12    1    1    2    0    0 -0.20667219066E+02  0.24277926485E+02  0.41242921585E+00  0.31886074644E+02  0.00000000000E+00 0. -1.
         11    1    3    3    0    0 -0.10495868519E+02 -0.14253819007E+01 -0.74746264901E+00  0.10618553113E+02  0.51100000000E-03 0. -1.
        -11    1    3    3    0    0  0.32410518812E+02 -0.23558784706E+02 -0.74607850865E+01  0.40756856857E+02  0.51100000000E-03 0.  1.
        -12    1    3    3    0    0 -0.12474312257E+01  0.70624012215E+00  0.77958185197E+01  0.79265153860E+01  0.00000000000E+00 0.  1.
</event>
<event>
 7    1  0.7819001E-012  0.5930192E+02  0.7816164E-02  0.1266605E+00
        -11   -1    0    0    0    0  0.00000000000E+00  0.00000000000E+00  0.45593999997E+02  0.45594000000E+02  0.51100000000E-03 0. -1.
         11   -1    0    0    0    0 -0.00000000000E+00 -0.00000000000E+00 -0.45593999997E+02  0.45594000000E+02  0.51100000000E-03 0.  1.
    9900012    2    1    2    0    0 -0.30627432151E+02 -0.28448058189E+01 -0.84017721658E+01  0.59301916894E+02  0.49999950515E+02 0.  0.
         12    1    1    2    0    0  0.30627432151E+02  0.28448058189E+01  0.84017721658E+01  0.31886083106E+02  0.00000000000E+00 0. -1.
         11    1    3    3    0    0  0.77150608485E+01 -0.98163212732E+01  0.22649055615E+01  0.12689055312E+02  0.51100000000E-03 0. -1.
        -11    1    3    3    0    0 -0.30547177048E+02  0.36960451794E+01 -0.17802382991E+02  0.35548777982E+02  0.51100000000E-03 0.  1.
        -12    1    3    3    0    0 -0.77953159513E+01  0.32754702748E+01  0.71357052641E+01  0.11064083601E+02  0.00000000000E+00 0.  1.
</event>
<event>
 7    1  0.7819001E-012  0.5930194E+02  0.7816164E-02  0.1266605E+00
        -11   -1    0    0    0    0  0.00000000000E+00  0.00000000000E+00  0.45593999997E+02  0.45594000000E+02  0.51100000000E-03 0.  1.
         11   -1    0    0    0    0 -0.00000000000E+00 -0.00000000000E+00 -0.45593999997E+02  0.45594000000E+02  0.51100000000E-03 0. -1.
    9900012    2    1    2    0    0  0.29637565364E+02  0.11583770908E+02 -0.20376133260E+01  0.59301938825E+02  0.49999990512E+02 0.  0.
         12    1    1    2    0    0 -0.29637565364E+02 -0.11583770908E+02  0.20376133260E+01  0.31886061175E+02  0.00000000000E+00 0. -1.
         11    1    3    3    0    0  0.10711178663E+02 -0.11124728799E+02  0.50127982543E+01  0.16236289163E+02  0.51100000000E-03 0. -1.
        -11    1    3    3    0    0  0.21507454267E+02  0.25635765327E+02  0.16775576002E+01  0.33504884012E+02  0.51100000000E-03 0.  1.
         12    1    3    3    0    0 -0.25810675652E+01 -0.29272656197E+01 -0.87279691805E+01  0.95607656492E+01  0.00000000000E+00 0. -1.
</event>
<event>
 7    1  0.7819001E-012  0.5930202E+02  0.7816164E-02  0.1266604E+00
        -11   -1    0    0    0    0  0.00000000000E+00  0.00000000000E+00  0.45593999997E+02  0.45594000000E+02  0.51100000000E-03 0. -1.
         11   -1    0    0    0    0 -0.00000000000E+00 -0.00000000000E+00 -0.45593999997E+02  0.45594000000E+02  0.51100000000E-03 0.  1.
    9900012    2    1    2    0    0  0.51705260991E+01  0.26206675590E+02 -0.17412397150E+02  0.59302019380E+02  0.50000137423E+02 0.  0.
         12    1    1    2    0    0 -0.51705260991E+01 -0.26206675590E+02  0.17412397150E+02  0.31885980620E+02  0.00000000000E+00 0. -1.
         11    1    3    3    0    0  0.17398901174E+02  0.24407067160E+02 -0.15401554517E+02  0.33699177605E+02  0.51100000000E-03 0.  1.
        -11    1    3    3    0    0 -0.12806443549E+02 -0.74027793102E+01 -0.54466230983E+01  0.15762989607E+02  0.51100000000E-03 0. -1.
        -12    1    3    3    0    0  0.57806847470E+00  0.92023877404E+01  0.34357804659E+01  0.98398521684E+01  0.00000000000E+00 0.  1.
</event>
<event>
 7    1  0.7819001E-012  0.5930199E+02  0.7816164E-02  0.1266605E+00
        -11   -1    0    0    0    0  0.00000000000E+00  0.00000000000E+00  0.45593999997E+02  0.45594000000E+02  0.51100000000E-03 0.  1.
         11   -1    0    0    0    0 -0.00000000000E+00 -0.00000000000E+00 -0.45593999997E+02  0.45594000000E+02  0.51100000000E-03 0. -1.
    9900012    2    1    2    0    0  0.77583130802E+01  0.11113678182E+02  0.28861957880E+02  0.59301986181E+02  0.50000076878E+02 0.  0.
         12    1    1    2    0    0 -0.77583130802E+01 -0.11113678182E+02 -0.28861957880E+02  0.31886013819E+02  0.00000000000E+00 0. -1.
         11    1    3    3    0    0 -0.13170865471E+02 -0.33775911246E+01  0.10154959367E+02  0.16970651699E+02  0.51100000000E-03 0. -1.
        -11    1    3    3    0    0  0.47132290780E+01  0.19206987195E+02  0.15533990463E+02  0.25148116140E+02  0.51100000000E-03 0.  1.
         12    1    3    3    0    0  0.16215949473E+02 -0.47157178881E+01  0.31730080495E+01  0.17183218343E+02  0.00000000000E+00 0. -1.
</event>
<event>
 7    1  0.7819001E-012  0.5930194E+02  0.7816164E-02  0.1266605E+00
        -11   -1    0    0    0    0  0.00000000000E+00  0.00000000000E+00  0.45593999997E+02  0.45594000000E+02  0.51100000000E-03 0.  1.
         11   -1    0    0    0    0 -0.00000000000E+00 -0.00000000000E+00 -0.45593999997E+02  0.45594000000E+02  0.51100000000E-03 0. -1.
    9900012    2    1    2    0    0  0.20047394903E+02  0.16750424416E+02  0.18282402925E+02  0.59301936944E+02  0.49999987081E+02 0.  0.
         12    1    1    2    0    0 -0.20047394903E+02 -0.16750424416E+02 -0.18282402925E+02  0.31886063056E+02  0.00000000000E+00 0. -1.
         11    1    3    3    0    0 -0.45601362572E+01 -0.10915645863E+02  0.60193196615E+01  0.13273220286E+02  0.51100000000E-03 0. -1.
        -11    1    3    3    0    0  0.26331587425E+02  0.25773728749E+02  0.36305001248E+01  0.37024561056E+02  0.51100000000E-03 0.  1.
        -12    1    3    3    0    0 -0.17240562642E+01  0.18923415298E+01  0.86325831385E+01  0.90041556023E+01  0.00000000000E+00 0.  1.
</event>
<event>
 7    1  0.7819001E-012  0.5930194E+02  0.7816164E-02  0.1266605E+00
        -11   -1    0    0    0    0  0.00000000000E+00  0.00000000000E+00  0.45593999997E+02  0.45594000000E+02  0.51100000000E-03 0.  1.
         11   -1    0    0    0    0 -0.00000000000E+00 -0.00000000000E+00 -0.45593999997E+02  0.45594000000E+02  0.51100000000E-03 0. -1.
    9900012    2    1    2    0    0  0.44412787993E+01 -0.14474822767E+02  0.28061987461E+02  0.59301943615E+02  0.49999999248E+02 0.  0.
         12    1    1    2    0    0 -0.44412787993E+01  0.14474822767E+02 -0.28061987461E+02  0.31886056385E+02  0.00000000000E+00 0. -1.
         11    1    3    3    0    0  0.18939943945E+02  0.39668774660E+01 -0.92978161094E+00  0.19373231212E+02  0.51100000000E-03 0. -1.
        -11    1    3    3    0    0 -0.29814394373E+01 -0.18823438852E+01  0.14928895224E+02  0.15339625565E+02  0.51100000000E-03 0.  1.
         12    1    3    3    0    0 -0.11517225709E+02 -0.16559356348E+02  0.14062873848E+02  0.24589086839E+02  0.00000000000E+00 0. -1.
</event>
<event>
 7    1  0.7819001E-012  0.5930195E+02  0.7816164E-02  0.1266605E+00
        -11   -1    0    0    0    0  0.00000000000E+00  0.00000000000E+00  0.45593999997E+02  0.45594000000E+02  0.51100000000E-03 0. -1.
         11   -1    0    0    0    0 -0.00000000000E+00 -0.00000000000E+00 -0.45593999997E+02  0.45594000000E+02  0.51100000000E-03 0.  1.
    9900012    2    1    2    0    0  0.19930324003E+02  0.20006351889E+02 -0.14807043167E+02  0.59301945712E+02  0.50000003071E+02 0.  0.
         12    1    1    2    0    0 -0.19930324003E+02 -0.20006351889E+02  0.14807043167E+02  0.31886054288E+02  0.00000000000E+00 0. -1.
         11    1    3    3    0    0 -0.74508261999E+00  0.24723823637E+02  0.54019239311E+01  0.25318044667E+02  0.51100000000E-03 0. -1.
        -11    1    3    3    0    0  0.57274641628E+01 -0.99443346370E+01 -0.80171333965E+01  0.13998859427E+02  0.51100000000E-03 0.  1.
        -12    1    3    3    0    0  0.14947942460E+02  0.52268628889E+01 -0.12191833701E+02  0.19985041617E+02  0.00000000000E+00 0.  1.
</event>
<event>
 7    1  0.7819001E-012  0.5930182E+02  0.7816164E-02  0.1266605E+00
        -11   -1    0    0    0    0  0.00000000000E+00  0.00000000000E+00  0.45593999997E+02  0.45594000000E+02  0.51100000000E-03 0.  1.
         11   -1    0    0    0    0 -0.00000000000E+00 -0.00000000000E+00 -0.45593999997E+02  0.45594000000E+02  0.51100000000E-03 0. -1.
    9900012    2    1    2    0    0  0.24172173640E+02  0.17849464621E+01  0.20718305057E+02  0.59301824676E+02  0.49999782330E+02 0.  0.
         12    1    1    2    0    0 -0.24172173640E+02 -0.17849464621E+01 -0.20718305057E+02  0.31886175324E+02  0.00000000000E+00 0. -1.
         11    1    3    3    0    0  0.13386517941E+02  0.38250722868E+01  0.85108849901E+00  0.13948275609E+02  0.51100000000E-03 0. -1.
        -11    1    3    3    0    0 -0.90468291159E+01  0.11612804101E+02  0.14545678611E+02  0.20694905235E+02  0.51100000000E-03 0.  1.
        -12    1    3    3    0    0  0.19832484815E+02 -0.13652929926E+02  0.53215379469E+01  0.24658643832E+02  0.00000000000E+00 0.  1.
</event>
<event>
 7    1  0.7819001E-012  0.5930205E+02  0.7816164E-02  0.1266604E+00
        -11   -1    0    0    0    0  0.00000000000E+00  0.00000000000E+00  0.45593999997E+02  0.45594000000E+02  0.51100000000E-03 0. -1.
         11   -1    0    0    0    0 -0.00000000000E+00 -0.00000000000E+00 -0.45593999997E+02  0.45594000000E+02  0.51100000000E-03 0.  1.
    9900012    2    1    2    0    0  0.15250658087E+02  0.25781945261E+02  0.10928070102E+02  0.59302047142E+02  0.50000188055E+02 0.  0.
         12    1    1    2    0    0 -0.15250658087E+02 -0.25781945261E+02 -0.10928070102E+02  0.31885952858E+02  0.00000000000E+00 0. -1.
         11    1    3    3    0    0  0.16092421612E+02  0.10064561500E+02  0.15481189991E+02  0.24493441476E+02  0.51100000000E-03 0. -1.
        -11    1    3    3    0    0 -0.42006080619E+01  0.24412174912E+02 -0.56971533017E+01  0.25417650324E+02  0.51100000000E-03 0.  1.
        -12    1    3    3    0    0  0.33588445360E+01 -0.86947911506E+01  0.11440334122E+01  0.93909553410E+01  0.00000000000E+00 0.  1.
</event>
<event>
 7    1  0.7819001E-012  0.5930194E+02  0.7816164E-02  0.1266605E+00
        -11   -1    0    0    0    0  0.00000000000E+00  0.00000000000E+00  0.45593999997E+02  0.45594000000E+02  0.51100000000E-03 0.  1.
         11   -1    0    0    0    0 -0.00000000000E+00 -0.00000000000E+00 -0.45593999997E+02  0.45594000000E+02  0.51100000000E-03 0. -1.
    9900012    2    1    2    0    0 -0.20390678308E+02  0.23178359879E+02  0.79815328397E+01  0.59301937292E+02  0.49999987716E+02 0.  0.
         12    1    1    2    0    0  0.20390678308E+02 -0.23178359879E+02 -0.79815328397E+01  0.31886062708E+02  0.00000000000E+00 0. -1.
         11    1    3    3    0    0 -0.95044943691E+01 -0.10003360567E+02 -0.18194459212E+01  0.13918082467E+02  0.51100000000E-03 0. -1.
        -11    1    3    3    0    0  0.92351024685E+01  0.11064809578E+02  0.31101761905E+01  0.14744162397E+02  0.51100000000E-03 0.  1.
         12    1    3    3    0    0 -0.20121286407E+02  0.22116910868E+02  0.66908025704E+01  0.30639692428E+02  0.00000000000E+00 0. -1.
</event>
<event>
 7    1  0.7819001E-012  0.5930193E+02  0.7816164E-02  0.1266605E+00
        -11   -1    0    0    0    0  0.00000000000E+00  0.00000000000E+00  0.45593999997E+02  0.45594000000E+02  0.51100000000E-03 0.  1.
         11   -1    0    0    0    0 -0.00000000000E+00 -0.00000000000E+00 -0.45593999997E+02  0.45594000000E+02  0.51100000000E-03 0. -1.
    9900012    2    1    2    0    0  0.96353028412E+01 -0.14583546822E+02  0.26668376785E+02  0.59301933779E+02  0.49999981308E+02 0.  0.
         12    1    1    2    0    0 -0.96353028412E+01  0.14583546822E+02 -0.26668376785E+02  0.31886066221E+02  0.00000000000E+00 0. -1.
         11    1    3    3    0    0  0.13298338427E+02 -0.25034529331E+02  0.16733554243E+02  0.32917856880E+02  0.51100000000E-03 0. -1.
        -11    1    3    3    0    0 -0.92718443450E+01  0.11882164507E+02  0.12937750339E+02  0.19862988572E+02  0.51100000000E-03 0.  1.
         12    1    3    3    0    0  0.56088087588E+01 -0.14311819984E+01 -0.30029277967E+01  0.65210883262E+01  0.00000000000E+00 0. -1.
</event>
<event>
 7    1  0.7819001E-012  0.5930195E+02  0.7816164E-02  0.1266605E+00
        -11   -1    0    0    0    0  0.00000000000E+00  0.00000000000E+00  0.45593999997E+02  0.45594000000E+02  0.51100000000E-03 0.  1.
         11   -1    0    0    0    0 -0.00000000000E+00 -0.00000000000E+00 -0.45593999997E+02  0.45594000000E+02  0.51100000000E-03 0. -1.
    9900012    2    1    2    0    0  0.64048105940E+01  0.17103810569E+02  0.26137298076E+02  0.59301948419E+02  0.50000008009E+02 0.  0.
         12    1    1    2    0    0 -0.64048105940E+01 -0.17103810569E+02 -0.26137298076E+02  0.31886051581E+02  0.00000000000E+00 0. -1.
         11    1    3    3    0    0  0.60361266803E+01  0.69170179389E+01 -0.12507269233E+01  0.92652188623E+01  0.51100000000E-03 0. -1.
        -11    1    3    3    0    0 -0.62758733013E+01 -0.10395051802E+01  0.34566369123E+02  0.35146849522E+02  0.51100000000E-03 0.  1.
        -12    1    3    3    0    0  0.66445572149E+01  0.11226297810E+02 -0.71783441235E+01  0.14889880035E+02  0.00000000000E+00 0.  1.
</event>
<event>
 7    1  0.7819001E-012  0.5930194E+02  0.7816164E-02  0.1266605E+00
        -11   -1    0    0    0    0  0.00000000000E+00  0.00000000000E+00  0.45593999997E+02  0.45594000000E+02  0.51100000000E-03 0. -1.
         11   -1    0    0    0    0 -0.00000000000E+00 -0.00000000000E+00 -0.45593999997E+02  0.45594000000E+02  0.51100000000E-03 0.  1.
    9900012    2    1    2    0    0  0.89795370126E+01 -0.20306378563E+01 -0.30528108732E+02  0.59301937248E+02  0.49999987636E+02 0.  0.
         12    1    1    2    0    0 -0.89795370126E+01  0.20306378563E+01  0.30528108732E+02  0.31886062752E+02  0.00000000000E+00 0. -1.
         11    1    3    3    0    0 -0.12460667934E+02  0.81549487353E+01  0.46466545878E+01  0.15600090813E+02  0.51100000000E-03 0. -1.
        -11    1    3    3    0    0  0.87052528766E+01 -0.18959314784E+01 -0.58038163081E+01  0.10632980194E+02  0.51100000000E-03 0.  1.
         12    1    3    3    0    0  0.12734952070E+02 -0.82896551132E+01 -0.29370947011E+02  0.33068866241E+02  0.00000000000E+00 0. -1.
</event>
<event>
 7    1  0.7819001E-012  0.5930192E+02  0.7816164E-02  0.1266605E+00
        -11   -1    0    0    0    0  0.00000000000E+00  0.00000000000E+00  0.45593999997E+02  0.45594000000E+02  0.51100000000E-03 0.  1.
         11   -1    0    0    0    0 -0.00000000000E+00 -0.00000000000E+00 -0.45593999997E+02  0.45594000000E+02  0.51100000000E-03 0. -1.
    9900012    2    1    2    0    0 -0.10881252684E+02  0.26007618377E+02  0.14897117253E+02  0.59301921908E+02  0.49999959660E+02 0.  0.
         12    1    1    2    0    0  0.10881252684E+02 -0.26007618377E+02 -0.14897117253E+02  0.31886078092E+02  0.00000000000E+00 0. -1.
         11    1    3    3    0    0  0.10061018781E+02  0.27701148999E+02  0.21505610435E+02  0.36483818814E+02  0.51100000000E-03 0.  1.
        -11    1    3    3    0    0 -0.14566906364E+02  0.93068572012E+00 -0.25493063521E+01  0.14817553782E+02  0.51100000000E-03 0. -1.
        -12    1    3    3    0    0 -0.63753651010E+01 -0.26242163424E+01 -0.40591868306E+01  0.80005493129E+01  0.00000000000E+00 0.  1.
</event>
<event>
 7    1  0.7819001E-012  0.5930194E+02  0.7816164E-02  0.1266605E+00
        -11   -1    0    0    0    0  0.00000000000E+00  0.00000000000E+00  0.45593999997E+02  0.45594000000E+02  0.51100000000E-03 0.  1.
         11   -1    0    0    0    0 -0.00000000000E+00 -0.00000000000E+00 -0.45593999997E+02  0.45594000000E+02  0.51100000000E-03 0. -1.
    9900012    2    1    2    0    0  0.24642231862E+02  0.19603450824E+02 -0.50185330271E+01  0.59301944285E+02  0.50000000468E+02 0.  0.
         12    1    1    2    0    0 -0.24642231862E+02 -0.19603450824E+02  0.50185330271E+01  0.31886055715E+02  0.00000000000E+00 0. -1.
         11    1    3    3    0    0 -0.64013436246E+01  0.15068979701E+01 -0.19055906367E+02  0.20158757636E+02  0.51100000000E-03 0. -1.
        -11    1    3    3    0    0  0.64608795158E+01  0.26788988427E+01  0.20446546576E+00  0.69972329899E+01  0.51100000000E-03 0.  1.
         12    1    3    3    0    0  0.24582695970E+02  0.15417654012E+02  0.13832907874E+02  0.32145953659E+02  0.00000000000E+00 0. -1.
</event>
<event>
 7    1  0.7819001E-012  0.5930184E+02  0.7816164E-02  0.1266605E+00
        -11   -1    0    0    0    0  0.00000000000E+00  0.00000000000E+00  0.45593999997E+02  0.45594000000E+02  0.51100000000E-03 0.  1.
         11   -1    0    0    0    0 -0.00000000000E+00 -0.00000000000E+00 -0.45593999997E+02  0.45594000000E+02  0.51100000000E-03 0. -1.
    9900012    2    1    2    0    0  0.70845222966E+01  0.73043387987E+01  0.30218920997E+02  0.59301843008E+02  0.49999815764E+02 0.  0.
         12    1    1    2    0    0 -0.70845222966E+01 -0.73043387987E+01 -0.30218920997E+02  0.31886156992E+02  0.00000000000E+00 0. -1.
         11    1    3    3    0    0  0.93234822985E+00  0.21301726379E+02  0.96107743125E+01  0.23388026917E+02  0.51100000000E-03 0. -1.
        -11    1    3    3    0    0 -0.35313611864E+01 -0.84644112579E+01  0.22775126152E+02  0.24552456929E+02  0.51100000000E-03 0.  1.
         12    1    3    3    0    0  0.96835352532E+01 -0.55329763221E+01 -0.21669794671E+01  0.11361359161E+02  0.00000000000E+00 0. -1.
</event>
<event>
 7    1  0.7819001E-012  0.5930198E+02  0.7816164E-02  0.1266605E+00
        -11   -1    0    0    0    0  0.00000000000E+00  0.00000000000E+00  0.45593999997E+02  0.45594000000E+02  0.51100000000E-03 0. -1.
         11   -1    0    0    0    0 -0.00000000000E+00 -0.00000000000E+00 -0.45593999997E+02  0.45594000000E+02  0.51100000000E-03 0.  1.
    9900012    2    1    2    0    0 -0.10213485337E+02  0.20627381096E+02 -0.22066137962E+02  0.59301975190E+02  0.50000056833E+02 0.  0.
         12    1    1    2    0    0  0.10213485337E+02 -0.20627381096E+02  0.22066137962E+02  0.31886024810E+02  0.00000000000E+00 0. -1.
         11    1    3    3    0    0 -0.22496507981E+02 -0.22898663668E+00 -0.12758029976E+02  0.25863345401E+02  0.51100000000E-03 0. -1.
        -11    1    3    3    0    0  0.77330714100E+00  0.10230621312E+02 -0.13750448676E+02  0.17156294921E+02  0.51100000000E-03 0.  1.
         12    1    3    3    0    0  0.11509715503E+02  0.10625746421E+02  0.44423406896E+01  0.16282334868E+02  0.00000000000E+00 0. -1.
</event>
<event>
 7    1  0.7819001E-012  0.5930193E+02  0.7816164E-02  0.1266605E+00
        -11   -1    0    0    0    0  0.00000000000E+00  0.00000000000E+00  0.45593999997E+02  0.45594000000E+02  0.51100000000E-03 0.  1.
         11   -1    0    0    0    0 -0.00000000000E+00 -0.00000000000E+00 -0.45593999997E+02  0.45594000000E+02  0.51100000000E-03 0. -1.
    9900012    2    1    2    0    0 -0.12571569828E+02 -0.64449842109E+01  0.28585643225E+02  0.59301934266E+02  0.49999982196E+02 0.  0.
         12    1    1    2    0    0  0.12571569828E+02  0.64449842109E+01 -0.28585643225E+02  0.31886065734E+02  0.00000000000E+00 0. -1.
         11    1    3    3    0    0 -0.44545872026E+01 -0.10152104443E+02 -0.91801653590E+00  0.11124357347E+02  0.51100000000E-03 0. -1.
        -11    1    3    3    0    0  0.21684578868E+01  0.19288058814E+02  0.15522318878E+02  0.24853044201E+02  0.51100000000E-03 0.  1.
        -12    1    3    3    0    0 -0.10285440512E+02 -0.15580938582E+02  0.13981340883E+02  0.23324532718E+02  0.00000000000E+00 0.  1.
</event>
<event>
 7    1  0.7819001E-012  0.5930196E+02  0.7816164E-02  0.1266605E+00
        -11   -1    0    0    0    0  0.00000000000E+00  0.00000000000E+00  0.45593999997E+02  0.45594000000E+02  0.51100000000E-03 0.  1.
         11   -1    0    0    0    0 -0.00000000000E+00 -0.00000000000E+00 -0.45593999997E+02  0.45594000000E+02  0.51100000000E-03 0. -1.
    9900012    2    1    2    0    0 -0.11306424988E+02 -0.29811943676E+02 -0.36414725713E+00  0.59301955482E+02  0.50000020890E+02 0.  0.
         12    1    1    2    0    0  0.11306424988E+02  0.29811943676E+02  0.36414725713E+00  0.31886044518E+02  0.00000000000E+00 0. -1.
         11    1    3    3    0    0 -0.87033026899E+01  0.55150676256E+01 -0.74792542390E+01  0.12731955579E+02  0.51100000000E-03 0. -1.
        -11    1    3    3    0    0 -0.12833982343E+02 -0.32238233005E+02  0.20933861663E+01  0.34762005638E+02  0.51100000000E-03 0.  1.
         12    1    3    3    0    0  0.10230860045E+02 -0.30887782965E+01  0.50217208156E+01  0.11807994265E+02  0.00000000000E+00 0. -1.
</event>
<event>
 7    1  0.7819001E-012  0.5930198E+02  0.7816164E-02  0.1266605E+00
        -11   -1    0    0    0    0  0.00000000000E+00  0.00000000000E+00  0.45593999997E+02  0.45594000000E+02  0.51100000000E-03 0. -1.
         11   -1    0    0    0    0 -0.00000000000E+00 -0.00000000000E+00 -0.45593999997E+02  0.45594000000E+02  0.51100000000E-03 0.  1.
    9900012    2    1    2    0    0 -0.31696713512E+02 -0.30314682296E+01  0.16872283631E+01  0.59301981330E+02  0.50000068030E+02 0.  0.
         12    1    1    2    0    0  0.31696713512E+02  0.30314682296E+01 -0.16872283631E+01  0.31886018670E+02  0.00000000000E+00 0. -1.
         11    1    3    3    0    0  0.13766997967E+00 -0.52756136613E+00  0.93620518467E+00  0.10833994772E+01  0.51100000000E-03 0. -1.
        -11    1    3    3    0    0 -0.22629194672E+02  0.16218491449E+02  0.16242904630E+02  0.32232776291E+02  0.51100000000E-03 0.  1.
        -12    1    3    3    0    0 -0.92051888197E+01 -0.18722398313E+02 -0.15491881451E+02  0.25985805562E+02  0.00000000000E+00 0.  1.
</event>
<event>
 7    1  0.7819001E-012  0.5930194E+02  0.7816164E-02  0.1266605E+00
        -11   -1    0    0    0    0  0.00000000000E+00  0.00000000000E+00  0.45593999997E+02  0.45594000000E+02  0.51100000000E-03 0.  1.
         11   -1    0    0    0    0 -0.00000000000E+00 -0.00000000000E+00 -0.45593999997E+02  0.45594000000E+02  0.51100000000E-03 0. -1.
    9900012    2    1    2    0    0 -0.56609245671E+01  0.18245278035E+02  0.25530074888E+02  0.59301937820E+02  0.49999988679E+02 0.  0.
         12    1    1    2    0    0  0.56609245671E+01 -0.18245278035E+02 -0.25530074888E+02  0.31886062180E+02  0.00000000000E+00 0. -1.
         11    1    3    3    0    0 -0.88394057864E+01 -0.28741226592E+01  0.22557700943E+02  0.24397654556E+02  0.51100000000E-03 0. -1.
        -11    1    3    3    0    0 -0.74082882916E+01  0.20852100796E+02 -0.36297730790E+01  0.22424720642E+02  0.51100000000E-03 0.  1.
        -12    1    3    3    0    0  0.10586769511E+02  0.26729989864E+00  0.66021470240E+01  0.12479562622E+02  0.00000000000E+00 0.  1.
</event>
<event>
 7    1  0.7819001E-012  0.5930196E+02  0.7816164E-02  0.1266605E+00
        -11   -1    0    0    0    0  0.00000000000E+00  0.00000000000E+00  0.45593999997E+02  0.45594000000E+02  0.51100000000E-03 0.  1.
         11   -1    0    0    0    0 -0.00000000000E+00 -0.00000000000E+00 -0.45593999997E+02  0.45594000000E+02  0.51100000000E-03 0. -1.
    9900012    2    1    2    0    0  0.17298338709E+02 -0.12792463604E+02  0.23533807765E+02  0.59301956736E+02  0.50000023176E+02 0.  0.
         12    1    1    2    0    0 -0.17298338709E+02  0.12792463604E+02 -0.23533807765E+02  0.31886043264E+02  0.00000000000E+00 0. -1.
         11    1    3    3    0    0  0.31675355412E+02 -0.16631608188E+01  0.86900247790E+01  0.32887851485E+02  0.51100000000E-03 0. -1.
        -11    1    3    3    0    0 -0.11759366793E+00 -0.48359750649E+01 -0.75711817526E-01  0.48379970690E+01  0.51100000000E-03 0.  1.
         12    1    3    3    0    0 -0.14259423035E+02 -0.62933277200E+01  0.14919494804E+02  0.21576108182E+02  0.00000000000E+00 0. -1.
</event>
<event>
 7    1  0.7819001E-012  0.5930196E+02  0.7816164E-02  0.1266605E+00
        -11   -1    0    0    0    0  0.00000000000E+00  0.00000000000E+00  0.45593999997E+02  0.45594000000E+02  0.51100000000E-03 0.  1.
         11   -1    0    0    0    0 -0.00000000000E+00 -0.00000000000E+00 -0.45593999997E+02  0.45594000000E+02  0.51100000000E-03 0. -1.
    9900012    2    1    2    0    0  0.29990908761E+02  0.10820371828E+02 -0.42953707420E+00  0.59301959842E+02  0.50000028842E+02 0.  0.
         12    1    1    2    0    0 -0.29990908761E+02 -0.10820371828E+02  0.42953707420E+00  0.31886040158E+02  0.00000000000E+00 0. -1.
         11    1    3    3    0    0  0.67587789677E+01 -0.18036716109E+01 -0.11040307550E+02  0.13069916429E+02  0.51100000000E-03 0. -1.
        -11    1    3    3    0    0  0.21716775630E+02  0.23398704473E+02  0.13967257063E+02  0.34845401202E+02  0.51100000000E-03 0.  1.
        -12    1    3    3    0    0  0.15153541637E+01 -0.10774661034E+02 -0.33564865876E+01  0.11386642211E+02  0.00000000000E+00 0.  1.
</event>
<event>
 7    1  0.7819001E-012  0.5930193E+02  0.7816164E-02  0.1266605E+00
        -11   -1    0    0    0    0  0.00000000000E+00  0.00000000000E+00  0.45593999997E+02  0.45594000000E+02  0.51100000000E-03 0. -1.
         11   -1    0    0    0    0 -0.00000000000E+00 -0.00000000000E+00 -0.45593999997E+02  0.45594000000E+02  0.51100000000E-03 0.  1.
    9900012    2    1    2    0    0  0.19283751682E+02  0.12806153762E+02 -0.21928537238E+02  0.59301930965E+02  0.49999976176E+02 0.  0.
         12    1    1    2    0    0 -0.19283751682E+02 -0.12806153762E+02  0.21928537238E+02  0.31886069035E+02  0.00000000000E+00 0. -1.
         11    1    3    3    0    0 -0.77898875298E+01  0.68458802174E+00 -0.92339851409E+01  0.12100309514E+02  0.51100000000E-03 0. -1.
        -11    1    3    3    0    0  0.24486559311E+02  0.38121544710E+01 -0.22932717911E+02  0.33764384485E+02  0.51100000000E-03 0.  1.
        -12    1    3    3    0    0  0.25870799009E+01  0.83094112691E+01  0.10238165814E+02  0.13437236966E+02  0.00000000000E+00 0.  1.
</event>
<event>
 7    1  0.7819001E-012  0.5930194E+02  0.7816164E-02  0.1266605E+00
        -11   -1    0    0    0    0  0.00000000000E+00  0.00000000000E+00  0.45593999997E+02  0.45594000000E+02  0.51100000000E-03 0.  1.
         11   -1    0    0    0    0 -0.00000000000E+00 -0.00000000000E+00 -0.45593999997E+02  0.45594000000E+02  0.51100000000E-03 0. -1.
    9900012    2    1    2    0    0 -0.69884227476E+01 -0.28002629719E+02  0.13554910873E+02  0.59301938273E+02  0.49999989505E+02 0.  0.
         12    1    1    2    0    0  0.69884227476E+01  0.28002629719E+02 -0.13554910873E+02  0.31886061727E+02  0.00000000000E+00 0. -1.
         11    1    3    3    0    0 -0.38108722594E+01  0.29016000062E+01  0.77215377977E+01  0.90864831588E+01  0.51100000000E-03 0. -1.
        -11    1    3    3    0    0  0.87601138776E+01 -0.13563957839E+02 -0.13941144660E+02  0.21332511856E+02  0.51100000000E-03 0.  1.
        -12    1    3    3    0    0 -0.11937664366E+02 -0.17340271887E+02  0.19774517735E+02  0.28882943258E+02  0.00000000000E+00 0.  1.
</event>
<event>
 7    1  0.7819001E-012  0.5930192E+02  0.7816164E-02  0.1266605E+00
        -11   -1    0    0    0    0  0.00000000000E+00  0.00000000000E+00  0.45593999997E+02  0.45594000000E+02  0.51100000000E-03 0. -1.
         11   -1    0    0    0    0 -0.00000000000E+00 -0.00000000000E+00 -0.45593999997E+02  0.45594000000E+02  0.51100000000E-03 0.  1.
    9900012    2    1    2    0    0  0.35760343013E+01  0.10563884278E+02 -0.29872031100E+02  0.59301922875E+02  0.49999961423E+02 0.  0.
         12    1    1    2    0    0 -0.35760343013E+01 -0.10563884278E+02  0.29872031100E+02  0.31886077125E+02  0.00000000000E+00 0. -1.
         11    1    3    3    0    0 -0.60988248996E+01 -0.43408260412E+01  0.92990790042E+01  0.11937809953E+02  0.51100000000E-03 0. -1.
        -11    1    3    3    0    0  0.13732888754E+02  0.68350630950E+01 -0.14566921107E+02  0.21154326079E+02  0.51100000000E-03 0.  1.
         12    1    3    3    0    0 -0.40580295536E+01  0.80696472245E+01 -0.24604188997E+02  0.26209786844E+02  0.00000000000E+00 0. -1.
</event>
<event>
 7    1  0.7819001E-012  0.5930196E+02  0.7816164E-02  0.1266605E+00
        -11   -1    0    0    0    0  0.00000000000E+00  0.00000000000E+00  0.45593999997E+02  0.45594000000E+02  0.51100000000E-03 0.  1.
         11   -1    0    0    0    0 -0.00000000000E+00 -0.00000000000E+00 -0.45593999997E+02  0.45594000000E+02  0.51100000000E-03 0. -1.
    9900012    2    1    2    0    0 -0.24869854067E+02  0.18388711896E+02  0.77501669790E+01  0.59301961445E+02  0.50000031766E+02 0.  0.
         12    1    1    2    0    0  0.24869854067E+02 -0.18388711896E+02 -0.77501669790E+01  0.31886038555E+02  0.00000000000E+00 0. -1.
         11    1    3    3    0    0  0.22982525384E+01 -0.84661012205E+01  0.31384520153E+01  0.93170121777E+01  0.51100000000E-03 0. -1.
        -11    1    3    3    0    0 -0.22545692582E+02  0.13551152283E+02  0.16923404858E+02  0.31278484849E+02  0.51100000000E-03 0.  1.
         12    1    3    3    0    0 -0.46224140232E+01  0.13303660833E+02 -0.12311689895E+02  0.18706464418E+02  0.00000000000E+00 0. -1.
</event>
<event>
 7    1  0.7819001E-012  0.5930196E+02  0.7816164E-02  0.1266605E+00
        -11   -1    0    0    0    0  0.00000000000E+00  0.00000000000E+00  0.45593999997E+02  0.45594000000E+02  0.51100000000E-03 0. -1.
         11   -1    0    0    0    0 -0.00000000000E+00 -0.00000000000E+00 -0.45593999997E+02  0.45594000000E+02  0.51100000000E-03 0.  1.
    9900012    2    1    2    0    0  0.25539611363E+02  0.19045860938E+02 -0.13049472997E+01  0.59301961443E+02  0.50000031761E+02 0.  0.
         12    1    1    2    0    0 -0.25539611363E+02 -0.19045860938E+02  0.13049472997E+01  0.31886038557E+02  0.00000000000E+00 0. -1.
         11    1    3    3    0    0  0.14734878108E+02  0.24096838707E+02 -0.18779731241E+02  0.33918322103E+02  0.51100000000E-03 0. -1.
        -11    1    3    3    0    0  0.28468624655E+01 -0.90592236517E+01  0.87326120563E+01  0.12900878755E+02  0.51100000000E-03 0.  1.
         12    1    3    3    0    0  0.79578707892E+01  0.40082458824E+01  0.87421718846E+01  0.12482760585E+02  0.00000000000E+00 0. -1.
</event>
<event>
 7    1  0.7819001E-012  0.5930195E+02  0.7816164E-02  0.1266605E+00
        -11   -1    0    0    0    0  0.00000000000E+00  0.00000000000E+00  0.45593999997E+02  0.45594000000E+02  0.51100000000E-03 0.  1.
         11   -1    0    0    0    0 -0.00000000000E+00 -0.00000000000E+00 -0.45593999997E+02  0.45594000000E+02  0.51100000000E-03 0. -1.
    9900012    2    1    2    0    0  0.73760553187E+01  0.13717298013E+02  0.27823546160E+02  0.59301950107E+02  0.50000011088E+02 0.  0.
         12    1    1    2    0    0 -0.73760553187E+01 -0.13717298013E+02 -0.27823546160E+02  0.31886049893E+02  0.00000000000E+00 0. -1.
         11    1    3    3    0    0 -0.73957712412E+01  0.82971369427E+01  0.46333700908E+01  0.12041928100E+02  0.51100000000E-03 0. -1.
        -11    1    3    3    0    0  0.15912436376E+02 -0.61769985666E+01 -0.41270195227E+01  0.17561128470E+02  0.51100000000E-03 0.  1.
        -12    1    3    3    0    0 -0.11406098165E+01  0.11597159637E+02  0.27317195592E+02  0.29698893538E+02  0.00000000000E+00 0.  1.
</event>
<event>
 7    1  0.7819001E-012  0.5930194E+02  0.7816164E-02  0.1266605E+00
        -11   -1    0    0    0    0  0.00000000000E+00  0.00000000000E+00  0.45593999997E+02  0.45594000000E+02  0.51100000000E-03 0.  1.
         11   -1    0    0    0    0 -0.00000000000E+00 -0.00000000000E+00 -0.45593999997E+02  0.45594000000E+02  0.51100000000E-03 0. -1.
    9900012    2    1    2    0    0  0.14596013763E+02 -0.12269635143E+02  0.25556472053E+02  0.59301939910E+02  0.49999992490E+02 0.  0.
         12    1    1    2    0    0 -0.14596013763E+02  0.12269635143E+02 -0.25556472053E+02  0.31886060090E+02  0.00000000000E+00 0. -1.
         11    1    3    3    0    0  0.12520654561E+01 -0.29553523238E+02  0.21014300080E+02  0.36284696661E+02  0.51100000000E-03 0.  1.
        -11    1    3    3    0    0  0.11682939281E+02  0.13891994071E+02  0.15852195692E+01  0.18220633657E+02  0.51100000000E-03 0. -1.
        -12    1    3    3    0    0  0.16610090250E+01  0.33918940238E+01  0.29569524040E+01  0.47966095910E+01  0.00000000000E+00 0.  1.
</event>
<event>
 7    1  0.7819001E-012  0.5930193E+02  0.7816164E-02  0.1266605E+00
        -11   -1    0    0    0    0  0.00000000000E+00  0.00000000000E+00  0.45593999997E+02  0.45594000000E+02  0.51100000000E-03 0. -1.
         11   -1    0    0    0    0 -0.00000000000E+00 -0.00000000000E+00 -0.45593999997E+02  0.45594000000E+02  0.51100000000E-03 0.  1.
    9900012    2    1    2    0    0 -0.89390387746E+00 -0.23018856539E+02 -0.22046646932E+02  0.59301929978E+02  0.49999974377E+02 0.  0.
         12    1    1    2    0    0  0.89390387746E+00  0.23018856539E+02  0.22046646932E+02  0.31886070022E+02  0.00000000000E+00 0. -1.
         11    1    3    3    0    0 -0.38709006615E+01  0.29996689027E+01  0.34398385767E+01  0.59845112709E+01  0.51100000000E-03 0. -1.
        -11    1    3    3    0    0  0.18005352315E+02 -0.23259747621E+02 -0.88230854575E+01  0.30709207229E+02  0.51100000000E-03 0.  1.
        -12    1    3    3    0    0 -0.15028355531E+02 -0.27587778209E+01 -0.16663400051E+02  0.22608211479E+02  0.00000000000E+00 0.  1.
</event>
<event>
 7    1  0.7819001E-012  0.5930196E+02  0.7816164E-02  0.1266605E+00
        -11   -1    0    0    0    0  0.00000000000E+00  0.00000000000E+00  0.45593999997E+02  0.45594000000E+02  0.51100000000E-03 0. -1.
         11   -1    0    0    0    0 -0.00000000000E+00 -0.00000000000E+00 -0.45593999997E+02  0.45594000000E+02  0.51100000000E-03 0.  1.
    9900012    2    1    2    0    0 -0.17408928976E+02  0.22791015806E+02 -0.13936233673E+02  0.59301955740E+02  0.50000021360E+02 0.  0.
         12    1    1    2    0    0  0.17408928976E+02 -0.22791015806E+02  0.13936233673E+02  0.31886044260E+02  0.00000000000E+00 0. -1.
         11    1    3    3    0    0  0.13907338613E+01  0.29459044217E+02  0.28499545878E+01  0.29629236714E+02  0.51100000000E-03 0. -1.
        -11    1    3    3    0    0 -0.55191603433E+01 -0.47303891150E+01  0.10570814988E+01  0.73454158242E+01  0.51100000000E-03 0.  1.
         12    1    3    3    0    0 -0.13280502494E+02 -0.19376392953E+01 -0.17843269760E+02  0.22327303202E+02  0.00000000000E+00 0. -1.
</event>
<event>
 7    1  0.7819001E-012  0.5930193E+02  0.7816164E-02  0.1266605E+00
        -11   -1    0    0    0    0  0.00000000000E+00  0.00000000000E+00  0.45593999997E+02  0.45594000000E+02  0.51100000000E-03 0. -1.
         11   -1    0    0    0    0 -0.00000000000E+00 -0.00000000000E+00 -0.45593999997E+02  0.45594000000E+02  0.51100000000E-03 0.  1.
    9900012    2    1    2    0    0  0.14710570732E+02 -0.67502818637E+01 -0.27472787258E+02  0.59301933509E+02  0.49999980817E+02 0.  0.
         12    1    1    2    0    0 -0.14710570732E+02  0.67502818637E+01  0.27472787258E+02  0.31886066491E+02  0.00000000000E+00 0. -1.
         11    1    3    3    0    0  0.22782112400E+02  0.66026005022E+01 -0.55110821132E+01  0.24351406635E+02  0.51100000000E-03 0. -1.
        -11    1    3    3    0    0 -0.11983598137E+02 -0.11643411886E+02 -0.24742304207E+02  0.29855607219E+02  0.51100000000E-03 0.  1.
        -12    1    3    3    0    0  0.39120564703E+01 -0.17094704798E+01  0.27805990626E+01  0.50949196554E+01  0.00000000000E+00 0.  1.
</event>
<event>
 7    1  0.7819001E-012  0.5930196E+02  0.7816164E-02  0.1266605E+00
        -11   -1    0    0    0    0  0.00000000000E+00  0.00000000000E+00  0.45593999997E+02  0.45594000000E+02  0.51100000000E-03 0.  1.
         11   -1    0    0    0    0 -0.00000000000E+00 -0.00000000000E+00 -0.45593999997E+02  0.45594000000E+02  0.51100000000E-03 0. -1.
    9900012    2    1    2    0    0 -0.17433328641E+02 -0.11852681023E+02  0.23923058726E+02  0.59301957070E+02  0.50000023786E+02 0.  0.
         12    1    1    2    0    0  0.17433328641E+02  0.11852681023E+02 -0.23923058726E+02  0.31886042930E+02  0.00000000000E+00 0. -1.
         11    1    3    3    0    0 -0.13733924289E+02 -0.40419093691E+01  0.19254951742E+01  0.14445249726E+02  0.51100000000E-03 0. -1.
        -11    1    3    3    0    0  0.12714406078E+02 -0.16248724052E+02  0.11253828471E+02  0.23501612940E+02  0.51100000000E-03 0.  1.
        -12    1    3    3    0    0 -0.16413810431E+02  0.84379523987E+01  0.10743735080E+02  0.21355094404E+02  0.00000000000E+00 0.  1.
</event>
<event>
 7    1  0.7819001E-012  0.5930193E+02  0.7816164E-02  0.1266605E+00
        -11   -1    0    0    0    0  0.00000000000E+00  0.00000000000E+00  0.45593999997E+02  0.45594000000E+02  0.51100000000E-03 0.  1.
         11   -1    0    0    0    0 -0.00000000000E+00 -0.00000000000E+00 -0.45593999997E+02  0.45594000000E+02  0.51100000000E-03 0. -1.
    9900012    2    1    2    0    0 -0.30276051585E+02 -0.92768715547E+01  0.37445666155E+01  0.59301930557E+02  0.49999975432E+02 0.  0.
         12    1    1    2    0    0  0.30276051585E+02  0.92768715547E+01 -0.37445666155E+01  0.31886069443E+02  0.00000000000E+00 0. -1.
         11    1    3    3    0    0 -0.29153784438E+01  0.89645672469E+01  0.12120982134E+02  0.15355165435E+02  0.51100000000E-03 0. -1.
        -11    1    3    3    0    0 -0.21021543712E+02 -0.25622107105E+02 -0.43863526201E+01  0.33431089753E+02  0.51100000000E-03 0.  1.
         12    1    3    3    0    0 -0.63391294291E+01  0.73806683034E+01 -0.39900628980E+01  0.10515675368E+02  0.00000000000E+00 0. -1.
</event>
<event>
 7    1  0.7819001E-012  0.5930199E+02  0.7816164E-02  0.1266605E+00
        -11   -1    0    0    0    0  0.00000000000E+00  0.00000000000E+00  0.45593999997E+02  0.45594000000E+02  0.51100000000E-03 0.  1.
         11   -1    0    0    0    0 -0.00000000000E+00 -0.00000000000E+00 -0.45593999997E+02  0.45594000000E+02  0.51100000000E-03 0. -1.
    9900012    2    1    2    0    0  0.16098562759E+01 -0.28024324057E+02 -0.15124925673E+02  0.59301988134E+02  0.50000080440E+02 0.  0.
         12    1    1    2    0    0 -0.16098562759E+01  0.28024324057E+02  0.15124925673E+02  0.31886011866E+02  0.00000000000E+00 0. -1.
         11    1    3    3    0    0 -0.64806852716E+01 -0.15383038908E+02 -0.22331808049E+02  0.27880940060E+02  0.51100000000E-03 0. -1.
        -11    1    3    3    0    0  0.42155112637E+01 -0.36989569707E+00  0.15529421169E+02  0.16095660289E+02  0.51100000000E-03 0.  1.
        -12    1    3    3    0    0  0.38750302838E+01 -0.12271389452E+02 -0.83225387925E+01  0.15325387784E+02  0.00000000000E+00 0.  1.
</event>
<event>
 7    1  0.7819001E-012  0.5930195E+02  0.7816164E-02  0.1266605E+00
        -11   -1    0    0    0    0  0.00000000000E+00  0.00000000000E+00  0.45593999997E+02  0.45594000000E+02  0.51100000000E-03 0.  1.
         11   -1    0    0    0    0 -0.00000000000E+00 -0.00000000000E+00 -0.45593999997E+02  0.45594000000E+02  0.51100000000E-03 0. -1.
    9900012    2    1    2    0    0 -0.20728133951E+02 -0.55160275633E+00  0.24223142808E+02  0.59301945836E+02  0.50000003297E+02 0.  0.
         12    1    1    2    0    0  0.20728133951E+02  0.55160275633E+00 -0.24223142808E+02  0.31886054164E+02  0.00000000000E+00 0. -1.
         11    1    3    3    0    0  0.59055878308E+01 -0.26664379315E+01  0.48662283191E+01  0.81034583472E+01  0.51100000000E-03 0. -1.
        -11    1    3    3    0    0 -0.27159636795E+02  0.10661809544E+01  0.30005222739E+02  0.40485750636E+02  0.51100000000E-03 0.  1.
        -12    1    3    3    0    0  0.52591501308E+00  0.10486542207E+01 -0.10648308250E+02  0.10712736853E+02  0.00000000000E+00 0.  1.
</event>
<event>
 7    1  0.7819001E-012  0.5930195E+02  0.7816164E-02  0.1266605E+00
        -11   -1    0    0    0    0  0.00000000000E+00  0.00000000000E+00  0.45593999997E+02  0.45594000000E+02  0.51100000000E-03 0.  1.
         11   -1    0    0    0    0 -0.00000000000E+00 -0.00000000000E+00 -0.45593999997E+02  0.45594000000E+02  0.51100000000E-03 0. -1.
    9900012    2    1    2    0    0  0.22245901871E+02 -0.12912143431E+02  0.18844543271E+02  0.59301946479E+02  0.50000004471E+02 0.  0.
         12    1    1    2    0    0 -0.22245901871E+02  0.12912143431E+02 -0.18844543271E+02  0.31886053521E+02  0.00000000000E+00 0. -1.
         11    1    3    3    0    0  0.82669108013E+01 -0.90006311789E+01 -0.14454480089E+02  0.18928422299E+02  0.51100000000E-03 0. -1.
        -11    1    3    3    0    0 -0.42547648632E+01 -0.67756066488E+00  0.65450250663E+01  0.78357811274E+01  0.51100000000E-03 0.  1.
         12    1    3    3    0    0  0.18233755933E+02 -0.32339515870E+01  0.26753998293E+02  0.32537743053E+02  0.00000000000E+00 0. -1.
</event>
<event>
 7    1  0.7819001E-012  0.5930194E+02  0.7816164E-02  0.1266605E+00
        -11   -1    0    0    0    0  0.00000000000E+00  0.00000000000E+00  0.45593999997E+02  0.45594000000E+02  0.51100000000E-03 0.  1.
         11   -1    0    0    0    0 -0.00000000000E+00 -0.00000000000E+00 -0.45593999997E+02  0.45594000000E+02  0.51100000000E-03 0. -1.
    9900012    2    1    2    0    0 -0.23541206100E+02 -0.20931416604E+02 -0.49404754810E+01  0.59301939038E+02  0.49999990900E+02 0.  0.
         12    1    1    2    0    0  0.23541206100E+02  0.20931416604E+02  0.49404754810E+01  0.31886060962E+02  0.00000000000E+00 0. -1.
         11    1    3    3    0    0 -0.10856578686E+02 -0.33674315825E+01 -0.17150733928E+02  0.20575533304E+02  0.51100000000E-03 0. -1.
        -11    1    3    3    0    0 -0.16270835166E+02 -0.23610895797E+02  0.13306043283E+02  0.31611157294E+02  0.51100000000E-03 0.  1.
        -12    1    3    3    0    0  0.35862077519E+01  0.60469107750E+01 -0.10957848356E+01  0.71152484403E+01  0.00000000000E+00 0.  1.
</event>
<event>
 7    1  0.8376715E-012  0.5930195E+02  0.7816164E-02  0.1266605E+00
        -11   -1    0    0    0    0  0.00000000000E+00  0.00000000000E+00  0.45593999997E+02  0.45594000000E+02  0.51100000000E-03 0. -1.
         11   -1    0    0    0    0 -0.00000000000E+00 -0.00000000000E+00 -0.45593999997E+02  0.45594000000E+02  0.51100000000E-03 0.  1.
    9900012    2    1    2    0    0 -0.94862586495E+01 -0.26478582422E+01 -0.30326887010E+02  0.59301947686E+02  0.50000006672E+02 0.  0.
         12    1    1    2    0    0  0.94862586495E+01  0.26478582422E+01  0.30326887010E+02  0.31886052314E+02  0.00000000000E+00 0. -1.
         11    1    3    3    0    0 -0.40300485761E+01 -0.14279904847E+02  0.45623011174E+01  0.15523258862E+02  0.51100000000E-03 0. -1.
        -11    1    3    3    0    0  0.29071046660E+01 -0.33855452475E+01 -0.21587076196E+02  0.22043480513E+02  0.51100000000E-03 0.  1.
         12    1    3    3    0    0 -0.83633147395E+01  0.15017591852E+02 -0.13302111931E+02  0.21735208310E+02  0.00000000000E+00 0. -1.
</event>
<event>
 7    1  0.7819001E-012  0.5930199E+02  0.7816164E-02  0.1266605E+00
        -11   -1    0    0    0    0  0.00000000000E+00  0.00000000000E+00  0.45593999997E+02  0.45594000000E+02  0.51100000000E-03 0. -1.
         11   -1    0    0    0    0 -0.00000000000E+00 -0.00000000000E+00 -0.45593999997E+02  0.45594000000E+02  0.51100000000E-03 0.  1.
    9900012    2    1    2    0    0  0.84380057815E+01 -0.25667445943E+02 -0.16932222143E+02  0.59301986303E+02  0.50000077099E+02 0.  0.
         12    1    1    2    0    0 -0.84380057815E+01  0.25667445943E+02  0.16932222143E+02  0.31886013697E+02  0.00000000000E+00 0. -1.
         11    1    3    3    0    0 -0.75837221207E+01  0.42908804255E+01  0.11724606759E+02  0.14607905392E+02  0.51100000000E-03 0. -1.
        -11    1    3    3    0    0  0.68810379011E+01 -0.86457484072E+01 -0.10481152638E+02  0.15229977315E+02  0.51100000000E-03 0.  1.
         12    1    3    3    0    0  0.91406900011E+01 -0.21312577962E+02 -0.18175676264E+02  0.29464103596E+02  0.00000000000E+00 0. -1.
</event>
<event>
 7    1  0.7819001E-012  0.5930194E+02  0.7816164E-02  0.1266605E+00
        -11   -1    0    0    0    0  0.00000000000E+00  0.00000000000E+00  0.45593999997E+02  0.45594000000E+02  0.51100000000E-03 0.  1.
         11   -1    0    0    0    0 -0.00000000000E+00 -0.00000000000E+00 -0.45593999997E+02  0.45594000000E+02  0.51100000000E-03 0. -1.
    9900012    2    1    2    0    0  0.29242571358E+02  0.50920130505E+01  0.11647489414E+02  0.59301943702E+02  0.49999999407E+02 0.  0.
         12    1    1    2    0    0 -0.29242571358E+02 -0.50920130505E+01 -0.11647489414E+02  0.31886056298E+02  0.00000000000E+00 0. -1.
         11    1    3    3    0    0 -0.41693299556E+01  0.14884512099E+01 -0.28645110011E+01  0.52729709670E+01  0.51100000000E-03 0. -1.
        -11    1    3    3    0    0  0.26918637832E+02 -0.15207787040E+02  0.14451906729E+02  0.34128396648E+02  0.51100000000E-03 0.  1.
        -12    1    3    3    0    0  0.64932634816E+01  0.18811348881E+02  0.60093686319E-01  0.19900576087E+02  0.00000000000E+00 0.  1.
</event>
<event>
 7    1  0.7819001E-012  0.5930195E+02  0.7816164E-02  0.1266605E+00
        -11   -1    0    0    0    0  0.00000000000E+00  0.00000000000E+00  0.45593999997E+02  0.45594000000E+02  0.51100000000E-03 0.  1.
         11   -1    0    0    0    0 -0.00000000000E+00 -0.00000000000E+00 -0.45593999997E+02  0.45594000000E+02  0.51100000000E-03 0. -1.
    9900012    2    1    2    0    0 -0.31097969513E+01  0.27688986272E+02 -0.15503854125E+02  0.59301948338E+02  0.50000007861E+02 0.  0.
         12    1    1    2    0    0  0.31097969513E+01 -0.27688986272E+02  0.15503854125E+02  0.31886051662E+02  0.00000000000E+00 0. -1.
         11    1    3    3    0    0 -0.39957745310E+01  0.83243177603E+01 -0.17980743418E+02  0.20213055544E+02  0.51100000000E-03 0. -1.
        -11    1    3    3    0    0 -0.50628127146E+01 -0.81917066562E+01  0.48793090999E+01  0.10795544825E+02  0.51100000000E-03 0.  1.
        -12    1    3    3    0    0  0.59487902943E+01  0.27556375168E+02 -0.24024198067E+01  0.28293347969E+02  0.00000000000E+00 0.  1.
</event>
<event>
 7    1  0.7819001E-012  0.5930194E+02  0.7816164E-02  0.1266605E+00
        -11   -1    0    0    0    0  0.00000000000E+00  0.00000000000E+00  0.45593999997E+02  0.45594000000E+02  0.51100000000E-03 0. -1.
         11   -1    0    0    0    0 -0.00000000000E+00 -0.00000000000E+00 -0.45593999997E+02  0.45594000000E+02  0.51100000000E-03 0.  1.
    9900012    2    1    2    0    0  0.21261496447E+01  0.98390161072E+01 -0.30255475273E+02  0.59301944517E+02  0.50000000892E+02 0.  0.
         12    1    1    2    0    0 -0.21261496447E+01 -0.98390161072E+01  0.30255475273E+02  0.31886055483E+02  0.00000000000E+00 0. -1.
         11    1    3    3    0    0  0.11241406099E+02  0.21402075300E+02 -0.21480361474E+02  0.32339201715E+02  0.51100000000E-03 0. -1.
        -11    1    3    3    0    0 -0.13398255308E+02 -0.24877517701E+01 -0.99298545700E+01  0.16861321603E+02  0.51100000000E-03 0.  1.
         12    1    3    3    0    0  0.42829988538E+01 -0.90753074228E+01  0.11547407709E+01  0.10101421199E+02  0.00000000000E+00 0. -1.
</event>
<event>
 7    1  0.7819001E-012  0.5930194E+02  0.7816164E-02  0.1266605E+00
        -11   -1    0    0    0    0  0.00000000000E+00  0.00000000000E+00  0.45593999997E+02  0.45594000000E+02  0.51100000000E-03 0.  1.
         11   -1    0    0    0    0 -0.00000000000E+00 -0.00000000000E+00 -0.45593999997E+02  0.45594000000E+02  0.51100000000E-03 0. -1.
    9900012    2    1    2    0    0 -0.79148043414E+01 -0.28617902829E+01  0.30755277704E+02  0.59301935990E+02  0.49999985341E+02 0.  0.
         12    1    1    2    0    0  0.79148043414E+01  0.28617902829E+01 -0.30755277704E+02  0.31886064010E+02  0.00000000000E+00 0. -1.
         11    1    3    3    0    0 -0.92621341113E+01  0.17352509712E+02  0.54655733674E+00  0.19677282505E+02  0.51100000000E-03 0. -1.
        -11    1    3    3    0    0  0.71380361362E+01 -0.17788674412E+02  0.24757532030E+02  0.31310124396E+02  0.51100000000E-03 0.  1.
         12    1    3    3    0    0 -0.57907063663E+01 -0.24256255822E+01  0.54511883372E+01  0.83145290891E+01  0.00000000000E+00 0. -1.
</event>
<event>
 7    1  0.7819001E-012  0.5930194E+02  0.7816164E-02  0.1266605E+00
        -11   -1    0    0    0    0  0.00000000000E+00  0.00000000000E+00  0.45593999997E+02  0.45594000000E+02  0.51100000000E-03 0. -1.
         11   -1    0    0    0    0 -0.00000000000E+00 -0.00000000000E+00 -0.45593999997E+02  0.45594000000E+02  0.51100000000E-03 0.  1.
    9900012    2    1    2    0    0  0.23051515079E+02 -0.11047755443E+02 -0.19060310326E+02  0.59301942271E+02  0.49999996797E+02 0.  0.
         12    1    1    2    0    0 -0.23051515079E+02  0.11047755443E+02  0.19060310326E+02  0.31886057729E+02  0.00000000000E+00 0. -1.
         11    1    3    3    0    0 -0.36142224368E+00 -0.21332527691E+02  0.34121920621E+01  0.21606721608E+02  0.51100000000E-03 0. -1.
        -11    1    3    3    0    0 -0.97685233860E+00  0.28963186034E+01 -0.75927622579E+01  0.81849215579E+01  0.51100000000E-03 0.  1.
         12    1    3    3    0    0  0.24389789661E+02  0.73884536441E+01 -0.14879740130E+02  0.29510299105E+02  0.00000000000E+00 0. -1.
</event>
<event>
 7    1  0.7819001E-012  0.5930194E+02  0.7816164E-02  0.1266605E+00
        -11   -1    0    0    0    0  0.00000000000E+00  0.00000000000E+00  0.45593999997E+02  0.45594000000E+02  0.51100000000E-03 0.  1.
         11   -1    0    0    0    0 -0.00000000000E+00 -0.00000000000E+00 -0.45593999997E+02  0.45594000000E+02  0.51100000000E-03 0. -1.
    9900012    2    1    2    0    0 -0.54519047358E+01  0.19852943249E+02  0.24348683043E+02  0.59301937421E+02  0.49999987951E+02 0.  0.
         12    1    1    2    0    0  0.54519047358E+01 -0.19852943249E+02 -0.24348683043E+02  0.31886062579E+02  0.00000000000E+00 0. -1.
         11    1    3    3    0    0 -0.10351152403E+02  0.27610864153E+01  0.61160975968E+01  0.12335988179E+02  0.51100000000E-03 0. -1.
        -11    1    3    3    0    0  0.72298811997E+01  0.28469925494E+02  0.19538670152E+02  0.35278427847E+02  0.51100000000E-03 0.  1.
        -12    1    3    3    0    0 -0.23306335321E+01 -0.11378068660E+02 -0.13060847060E+01  0.11687521395E+02  0.00000000000E+00 0.  1.
</event>
<event>
 7    1  0.7819001E-012  0.5930192E+02  0.7816164E-02  0.1266605E+00
        -11   -1    0    0    0    0  0.00000000000E+00  0.00000000000E+00  0.45593999997E+02  0.45594000000E+02  0.51100000000E-03 0.  1.
         11   -1    0    0    0    0 -0.00000000000E+00 -0.00000000000E+00 -0.45593999997E+02  0.45594000000E+02  0.51100000000E-03 0. -1.
    9900012    2    1    2    0    0 -0.28881274543E+02 -0.74619060439E+01  0.11265610217E+02  0.59301920990E+02  0.49999957985E+02 0.  0.
         12    1    1    2    0    0  0.28881274543E+02  0.74619060439E+01 -0.11265610217E+02  0.31886079010E+02  0.00000000000E+00 0. -1.
         11    1    3    3    0    0 -0.81528800752E+01  0.58671390658E+01  0.19886794105E+02  0.22279527696E+02  0.51100000000E-03 0. -1.
        -11    1    3    3    0    0 -0.18135025508E+02 -0.20951154111E+02 -0.84494299191E+01  0.28969343709E+02  0.51100000000E-03 0.  1.
         12    1    3    3    0    0 -0.25933689606E+01  0.76221090009E+01 -0.17175396858E+00  0.80530495846E+01  0.00000000000E+00 0. -1.
</event>
<event>
 7    1  0.7819001E-012  0.5930201E+02  0.7816164E-02  0.1266605E+00
        -11   -1    0    0    0    0  0.00000000000E+00  0.00000000000E+00  0.45593999997E+02  0.45594000000E+02  0.51100000000E-03 0.  1.
         11   -1    0    0    0    0 -0.00000000000E+00 -0.00000000000E+00 -0.45593999997E+02  0.45594000000E+02  0.51100000000E-03 0. -1.
    9900012    2    1    2    0    0  0.18925830979E+02 -0.18152356421E+02  0.18138934456E+02  0.59302014598E+02  0.50000128703E+02 0.  0.
         12    1    1    2    0    0 -0.18925830979E+02  0.18152356421E+02 -0.18138934456E+02  0.31885985402E+02  0.00000000000E+00 0. -1.
         11    1    3    3    0    0  0.97676522287E+01 -0.27148213813E+02 -0.33319564677E+01  0.29043665014E+02  0.51100000000E-03 0. -1.
        -11    1    3    3    0    0  0.72635366879E+01 -0.21953396842E+01  0.15892713755E+02  0.17611270036E+02  0.51100000000E-03 0.  1.
         12    1    3    3    0    0  0.18946420621E+01  0.11191197077E+02  0.55781771686E+01  0.12647079547E+02  0.00000000000E+00 0. -1.
</event>
<event>
 7    1  0.7819001E-012  0.5930196E+02  0.7816164E-02  0.1266605E+00
        -11   -1    0    0    0    0  0.00000000000E+00  0.00000000000E+00  0.45593999997E+02  0.45594000000E+02  0.51100000000E-03 0.  1.
         11   -1    0    0    0    0 -0.00000000000E+00 -0.00000000000E+00 -0.45593999997E+02  0.45594000000E+02  0.51100000000E-03 0. -1.
    9900012    2    1    2    0    0  0.25700733918E+02  0.81462188048E+01 -0.17024422264E+02  0.59301959823E+02  0.50000028807E+02 0.  0.
         12    1    1    2    0    0 -0.25700733918E+02 -0.81462188048E+01  0.17024422264E+02  0.31886040177E+02  0.00000000000E+00 0. -1.
         11    1    3    3    0    0 -0.46148768070E+01 -0.12246188951E-01 -0.19234422485E+02  0.19780299455E+02  0.51100000000E-03 0. -1.
        -11    1    3    3    0    0  0.26272657079E+02 -0.15886166296E+01  0.79684339941E+01  0.27500402786E+02  0.51100000000E-03 0.  1.
        -12    1    3    3    0    0  0.40429536457E+01  0.97470816233E+01 -0.57584337727E+01  0.12021257583E+02  0.00000000000E+00 0.  1.
</event>
<event>
 7    1  0.7819001E-012  0.5930197E+02  0.7816164E-02  0.1266605E+00
        -11   -1    0    0    0    0  0.00000000000E+00  0.00000000000E+00  0.45593999997E+02  0.45594000000E+02  0.51100000000E-03 0.  1.
         11   -1    0    0    0    0 -0.00000000000E+00 -0.00000000000E+00 -0.45593999997E+02  0.45594000000E+02  0.51100000000E-03 0. -1.
    9900012    2    1    2    0    0 -0.29951676683E+02  0.23138705205E+01  0.10689342975E+02  0.59301968793E+02  0.50000045165E+02 0.  0.
         12    1    1    2    0    0  0.29951676683E+02 -0.23138705205E+01 -0.10689342975E+02  0.31886031207E+02  0.00000000000E+00 0. -1.
         11    1    3    3    0    0 -0.25895988421E+01  0.37303321227E+01 -0.13175753505E+02  0.13936351050E+02  0.51100000000E-03 0. -1.
        -11    1    3    3    0    0 -0.28102413773E+02  0.78468927294E+01  0.16592976146E+02  0.33565551434E+02  0.51100000000E-03 0.  1.
         12    1    3    3    0    0  0.74033593193E+00 -0.92633543317E+01  0.72721203330E+01  0.11800066309E+02  0.00000000000E+00 0. -1.
</event>
<event>
 7    1  0.7819001E-012  0.5930198E+02  0.7816164E-02  0.1266605E+00
        -11   -1    0    0    0    0  0.00000000000E+00  0.00000000000E+00  0.45593999997E+02  0.45594000000E+02  0.51100000000E-03 0.  1.
         11   -1    0    0    0    0 -0.00000000000E+00 -0.00000000000E+00 -0.45593999997E+02  0.45594000000E+02  0.51100000000E-03 0. -1.
    9900012    2    1    2    0    0  0.98520876258E+01  0.21398168968E+02  0.21488905659E+02  0.59301979047E+02  0.50000063868E+02 0.  0.
         12    1    1    2    0    0 -0.98520876258E+01 -0.21398168968E+02 -0.21488905659E+02  0.31886020953E+02  0.00000000000E+00 0. -1.
         11    1    3    3    0    0  0.20890660980E+02  0.89080890161E+01  0.94242343194E+00  0.22730198597E+02  0.51100000000E-03 0. -1.
        -11    1    3    3    0    0 -0.12127907198E+02  0.13246782498E+02  0.21053688444E+01  0.18083029552E+02  0.51100000000E-03 0.  1.
         12    1    3    3    0    0  0.10893338445E+01 -0.75670254588E+00  0.18441113383E+02  0.18488750898E+02  0.00000000000E+00 0. -1.
</event>
<event>
 7    1  0.7819001E-012  0.5930194E+02  0.7816164E-02  0.1266605E+00
        -11   -1    0    0    0    0  0.00000000000E+00  0.00000000000E+00  0.45593999997E+02  0.45594000000E+02  0.51100000000E-03 0. -1.
         11   -1    0    0    0    0 -0.00000000000E+00 -0.00000000000E+00 -0.45593999997E+02  0.45594000000E+02  0.51100000000E-03 0.  1.
    9900012    2    1    2    0    0  0.19742972034E+02 -0.17413207247E+02 -0.17992114439E+02  0.59301938572E+02  0.49999990051E+02 0.  0.
         12    1    1    2    0    0 -0.19742972034E+02  0.17413207247E+02  0.17992114439E+02  0.31886061428E+02  0.00000000000E+00 0. -1.
         11    1    3    3    0    0  0.31581847366E+02  0.10353031711E+01 -0.95532295577E+01  0.33011348517E+02  0.51100000000E-03 0. -1.
        -11    1    3    3    0    0 -0.10190170482E+01 -0.11723545391E+02 -0.63794633119E+01  0.13385718684E+02  0.51100000000E-03 0.  1.
         12    1    3    3    0    0 -0.10819858284E+02 -0.67249650277E+01 -0.20594215696E+01  0.12904871371E+02  0.00000000000E+00 0. -1.
</event>
<event>
 7    1  0.7819001E-012  0.5930202E+02  0.7816164E-02  0.1266604E+00
        -11   -1    0    0    0    0  0.00000000000E+00  0.00000000000E+00  0.45593999997E+02  0.45594000000E+02  0.51100000000E-03 0.  1.
         11   -1    0    0    0    0 -0.00000000000E+00 -0.00000000000E+00 -0.45593999997E+02  0.45594000000E+02  0.51100000000E-03 0. -1.
    9900012    2    1    2    0    0  0.14154514006E+02 -0.11070063825E+01  0.28550654253E+02  0.59302022077E+02  0.50000142343E+02 0.  0.
         12    1    1    2    0    0 -0.14154514006E+02  0.11070063825E+01 -0.28550654253E+02  0.31885977923E+02  0.00000000000E+00 0. -1.
         11    1    3    3    0    0 -0.32883443270E+01 -0.29189299722E+01 -0.33278532310E+01  0.55143420264E+01  0.51100000000E-03 0. -1.
        -11    1    3    3    0    0  0.14208278900E+02  0.12321162352E+02 -0.12834375906E+01  0.18850290271E+02  0.51100000000E-03 0.  1.
        -12    1    3    3    0    0  0.32345794328E+01 -0.10509238762E+02  0.33161945074E+02  0.34937389779E+02  0.00000000000E+00 0.  1.
</event>
<event>
 7    1  0.7819001E-012  0.5930195E+02  0.7816164E-02  0.1266605E+00
        -11   -1    0    0    0    0  0.00000000000E+00  0.00000000000E+00  0.45593999997E+02  0.45594000000E+02  0.51100000000E-03 0. -1.
         11   -1    0    0    0    0 -0.00000000000E+00 -0.00000000000E+00 -0.45593999997E+02  0.45594000000E+02  0.51100000000E-03 0.  1.
    9900012    2    1    2    0    0  0.15608788069E+02 -0.16497534805E+01  0.27755435568E+02  0.59301950462E+02  0.50000011735E+02 0.  0.
         12    1    1    2    0    0 -0.15608788069E+02  0.16497534805E+01 -0.27755435568E+02  0.31886049538E+02  0.00000000000E+00 0. -1.
         11    1    3    3    0    0  0.58583179768E+01  0.14133254881E+02 -0.16789097945E+01  0.15391150750E+02  0.51100000000E-03 0. -1.
        -11    1    3    3    0    0 -0.48683121006E+01 -0.12961599168E+02  0.39535396470E+01  0.14399096906E+02  0.51100000000E-03 0.  1.
         12    1    3    3    0    0  0.14618782193E+02 -0.28214091936E+01  0.25480805716E+02  0.29511702807E+02  0.00000000000E+00 0. -1.
</event>
<event>
 7    1  0.7819001E-012  0.5930196E+02  0.7816164E-02  0.1266605E+00
        -11   -1    0    0    0    0  0.00000000000E+00  0.00000000000E+00  0.45593999997E+02  0.45594000000E+02  0.51100000000E-03 0.  1.
         11   -1    0    0    0    0 -0.00000000000E+00 -0.00000000000E+00 -0.45593999997E+02  0.45594000000E+02  0.51100000000E-03 0. -1.
    9900012    2    1    2    0    0 -0.84397437212E+01 -0.13865954144E+02  0.27444959382E+02  0.59301956754E+02  0.50000023209E+02 0.  0.
         12    1    1    2    0    0  0.84397437212E+01  0.13865954144E+02 -0.27444959382E+02  0.31886043246E+02  0.00000000000E+00 0. -1.
         11    1    3    3    0    0 -0.95334739079E+01 -0.52151332329E+00  0.13579964569E+01  0.96438195512E+01  0.51100000000E-03 0. -1.
        -11    1    3    3    0    0  0.12760173165E+02 -0.13503214365E+02  0.31675023116E+02  0.36721463847E+02  0.51100000000E-03 0.  1.
        -12    1    3    3    0    0 -0.11666442979E+02  0.15877354433E+00 -0.55880601905E+01  0.12936673355E+02  0.00000000000E+00 0.  1.
</event>
<event>
 7    1  0.7819001E-012  0.5930191E+02  0.7816164E-02  0.1266605E+00
        -11   -1    0    0    0    0  0.00000000000E+00  0.00000000000E+00  0.45593999997E+02  0.45594000000E+02  0.51100000000E-03 0.  1.
         11   -1    0    0    0    0 -0.00000000000E+00 -0.00000000000E+00 -0.45593999997E+02  0.45594000000E+02  0.51100000000E-03 0. -1.
    9900012    2    1    2    0    0 -0.99973063908E+01 -0.24676537864E+02  0.17545507041E+02  0.59301914110E+02  0.49999945437E+02 0.  0.
         12    1    1    2    0    0  0.99973063908E+01  0.24676537864E+02 -0.17545507041E+02  0.31886085890E+02  0.00000000000E+00 0. -1.
         11    1    3    3    0    0 -0.22458023273E+01  0.34761117207E+01  0.21210505353E+02  0.21610472424E+02  0.51100000000E-03 0. -1.
        -11    1    3    3    0    0 -0.11830705117E+02 -0.43947914880E+01 -0.49382031051E+01  0.13552329171E+02  0.51100000000E-03 0.  1.
        -12    1    3    3    0    0  0.40792010537E+01 -0.23757858097E+02  0.12732047937E+01  0.24139112516E+02  0.00000000000E+00 0.  1.
</event>
<event>
 7    1  0.7819001E-012  0.5930196E+02  0.7816164E-02  0.1266605E+00
        -11   -1    0    0    0    0  0.00000000000E+00  0.00000000000E+00  0.45593999997E+02  0.45594000000E+02  0.51100000000E-03 0.  1.
         11   -1    0    0    0    0 -0.00000000000E+00 -0.00000000000E+00 -0.45593999997E+02  0.45594000000E+02  0.51100000000E-03 0. -1.
    9900012    2    1    2    0    0  0.93137415741E+01  0.16525990619E+02  0.25629391640E+02  0.59301955029E+02  0.50000020064E+02 0.  0.
         12    1    1    2    0    0 -0.93137415741E+01 -0.16525990619E+02 -0.25629391640E+02  0.31886044971E+02  0.00000000000E+00 0. -1.
         11    1    3    3    0    0 -0.12246658008E+02  0.20519031605E+02  0.14883501655E+02  0.28151907788E+02  0.51100000000E-03 0. -1.
        -11    1    3    3    0    0  0.23383445995E+02 -0.73536121599E+01  0.11770360289E+02  0.27191957267E+02  0.51100000000E-03 0.  1.
        -12    1    3    3    0    0 -0.18230464128E+01  0.33605711740E+01 -0.10244703042E+01  0.39580899741E+01  0.00000000000E+00 0.  1.
</event>
<event>
 7    1  0.7819001E-012  0.5930195E+02  0.7816164E-02  0.1266605E+00
        -11   -1    0    0    0    0  0.00000000000E+00  0.00000000000E+00  0.45593999997E+02  0.45594000000E+02  0.51100000000E-03 0.  1.
         11   -1    0    0    0    0 -0.00000000000E+00 -0.00000000000E+00 -0.45593999997E+02  0.45594000000E+02  0.51100000000E-03 0. -1.
    9900012    2    1    2    0    0  0.23477500489E+02 -0.17762557121E+02  0.12248224614E+02  0.59301945511E+02  0.50000002705E+02 0.  0.
         12    1    1    2    0    0 -0.23477500489E+02  0.17762557121E+02 -0.12248224614E+02  0.31886054489E+02  0.00000000000E+00 0. -1.
         11    1    3    3    0    0  0.12839232998E+02  0.83359210291E+00 -0.50926975328E+01  0.13837497902E+02  0.51100000000E-03 0. -1.
        -11    1    3    3    0    0  0.70704025352E+01 -0.29607920747E+02  0.12082173185E+02  0.32750549188E+02  0.51100000000E-03 0.  1.
        -12    1    3    3    0    0  0.35678649558E+01  0.11011771523E+02  0.52587489614E+01  0.12713898421E+02  0.00000000000E+00 0.  1.
</event>
<event>
 7    1  0.7819001E-012  0.5930194E+02  0.7816164E-02  0.1266605E+00
        -11   -1    0    0    0    0  0.00000000000E+00  0.00000000000E+00  0.45593999997E+02  0.45594000000E+02  0.51100000000E-03 0.  1.
         11   -1    0    0    0    0 -0.00000000000E+00 -0.00000000000E+00 -0.45593999997E+02  0.45594000000E+02  0.51100000000E-03 0. -1.
    9900012    2    1    2    0    0  0.91073441392E+01  0.10369209045E+02  0.28744683432E+02  0.59301936601E+02  0.49999986455E+02 0.  0.
         12    1    1    2    0    0 -0.91073441392E+01 -0.10369209045E+02 -0.28744683432E+02  0.31886063399E+02  0.00000000000E+00 0. -1.
         11    1    3    3    0    0 -0.37185008260E+01  0.96195128190E+00  0.86725415707E+00  0.39376044361E+01  0.51100000000E-03 0. -1.
        -11    1    3    3    0    0  0.28993820847E+02  0.11949096188E+02  0.16536312526E+02  0.35452393138E+02  0.51100000000E-03 0.  1.
        -12    1    3    3    0    0 -0.16167975882E+02 -0.25418384247E+01  0.11341116749E+02  0.19911939027E+02  0.00000000000E+00 0.  1.
</event>
<event>
 7    1  0.7819001E-012  0.5930205E+02  0.7816164E-02  0.1266604E+00
        -11   -1    0    0    0    0  0.00000000000E+00  0.00000000000E+00  0.45593999997E+02  0.45594000000E+02  0.51100000000E-03 0.  1.
         11   -1    0    0    0    0 -0.00000000000E+00 -0.00000000000E+00 -0.45593999997E+02  0.45594000000E+02  0.51100000000E-03 0. -1.
    9900012    2    1    2    0    0  0.45015030959E+01 -0.31548045964E+02  0.10822416646E+01  0.59302047274E+02  0.50000188295E+02 0.  0.
         12    1    1    2    0    0 -0.45015030959E+01  0.31548045964E+02 -0.10822416646E+01  0.31885952726E+02  0.00000000000E+00 0. -1.
         11    1    3    3    0    0 -0.21101216424E+02 -0.80481386996E+01 -0.45598449767E+01  0.23039662706E+02  0.51100000000E-03 0. -1.
        -11    1    3    3    0    0  0.22431020717E+01  0.43352146412E+00 -0.26875568906E+00  0.23003646767E+01  0.51100000000E-03 0.  1.
         12    1    3    3    0    0  0.23359617449E+02 -0.23933428728E+02  0.59108423303E+01  0.33962019891E+02  0.00000000000E+00 0. -1.
</event>
<event>
 7    1  0.7819001E-012  0.5930192E+02  0.7816164E-02  0.1266605E+00
        -11   -1    0    0    0    0  0.00000000000E+00  0.00000000000E+00  0.45593999997E+02  0.45594000000E+02  0.51100000000E-03 0. -1.
         11   -1    0    0    0    0 -0.00000000000E+00 -0.00000000000E+00 -0.45593999997E+02  0.45594000000E+02  0.51100000000E-03 0.  1.
    9900012    2    1    2    0    0  0.65759167313E+01  0.11957423640E+02 -0.28818385124E+02  0.59301921814E+02  0.49999959487E+02 0.  0.
         12    1    1    2    0    0 -0.65759167313E+01 -0.11957423640E+02  0.28818385124E+02  0.31886078186E+02  0.00000000000E+00 0. -1.
         11    1    3    3    0    0  0.78180872952E+01 -0.41145444815E+01 -0.26738803038E+02  0.28160531838E+02  0.51100000000E-03 0.  1.
        -11    1    3    3    0    0  0.39150174625E+01  0.14934852388E+02  0.96989471354E+01  0.18233122425E+02  0.51100000000E-03 0. -1.
         12    1    3    3    0    0 -0.51571880263E+01  0.11371157339E+01 -0.11778529222E+02  0.12908267551E+02  0.00000000000E+00 0. -1.
</event>
<event>
 7    1  0.7819001E-012  0.5930194E+02  0.7816164E-02  0.1266605E+00
        -11   -1    0    0    0    0  0.00000000000E+00  0.00000000000E+00  0.45593999997E+02  0.45594000000E+02  0.51100000000E-03 0.  1.
         11   -1    0    0    0    0 -0.00000000000E+00 -0.00000000000E+00 -0.45593999997E+02  0.45594000000E+02  0.51100000000E-03 0. -1.
    9900012    2    1    2    0    0 -0.25344958241E+02 -0.84918240790E+01  0.17385130266E+02  0.59301941310E+02  0.49999995043E+02 0.  0.
         12    1    1    2    0    0  0.25344958241E+02  0.84918240790E+01 -0.17385130266E+02  0.31886058690E+02  0.00000000000E+00 0. -1.
         11    1    3    3    0    0  0.48638652102E+01 -0.15618027443E+02  0.28958160268E+01  0.16612215888E+02  0.51100000000E-03 0. -1.
        -11    1    3    3    0    0 -0.33721191433E+02  0.18787310032E+01  0.11286771446E+02  0.35609543549E+02  0.51100000000E-03 0.  1.
        -12    1    3    3    0    0  0.35123679816E+01  0.52474723605E+01  0.32025427934E+01  0.70801818731E+01  0.00000000000E+00 0.  1.
</event>
<event>
 7    1  0.7819001E-012  0.5930199E+02  0.7816164E-02  0.1266605E+00
        -11   -1    0    0    0    0  0.00000000000E+00  0.00000000000E+00  0.45593999997E+02  0.45594000000E+02  0.51100000000E-03 0.  1.
         11   -1    0    0    0    0 -0.00000000000E+00 -0.00000000000E+00 -0.45593999997E+02  0.45594000000E+02  0.51100000000E-03 0. -1.
    9900012    2    1    2    0    0 -0.15827551979E+02  0.11340433072E+02  0.25250754559E+02  0.59301993199E+02  0.50000089677E+02 0.  0.
         12    1    1    2    0    0  0.15827551979E+02 -0.11340433072E+02 -0.25250754559E+02  0.31886006801E+02  0.00000000000E+00 0. -1.
         11    1    3    3    0    0  0.56525691376E+01  0.81025962251E+01 -0.88010288376E+01  0.13231088856E+02  0.51100000000E-03 0. -1.
        -11    1    3    3    0    0 -0.22673024144E+02  0.81827222720E+01  0.20664236697E+02  0.31749545605E+02  0.51100000000E-03 0.  1.
         12    1    3    3    0    0  0.11929030273E+01 -0.49448854250E+01  0.13387546699E+02  0.14321358738E+02  0.00000000000E+00 0. -1.
</event>
<event>
 7    1  0.7819001E-012  0.5930201E+02  0.7816164E-02  0.1266605E+00
        -11   -1    0    0    0    0  0.00000000000E+00  0.00000000000E+00  0.45593999997E+02  0.45594000000E+02  0.51100000000E-03 0. -1.
         11   -1    0    0    0    0 -0.00000000000E+00 -0.00000000000E+00 -0.45593999997E+02  0.45594000000E+02  0.51100000000E-03 0.  1.
    9900012    2    1    2    0    0  0.21374445836E+02 -0.10697261605E+02 -0.21104927732E+02  0.59302010675E+02  0.50000121548E+02 0.  0.
         12    1    1    2    0    0 -0.21374445836E+02  0.10697261605E+02  0.21104927732E+02  0.31885989325E+02  0.00000000000E+00 0. -1.
         11    1    3    3    0    0  0.33794158654E+00 -0.57685459616E+01  0.29199419577E+01  0.64742867040E+01  0.51100000000E-03 0. -1.
        -11    1    3    3    0    0  0.15360976838E+02 -0.55017482396E+01 -0.36021118657E+02  0.39544276864E+02  0.51100000000E-03 0.  1.
        -12    1    3    3    0    0  0.56755274113E+01  0.57303259606E+00  0.11996248967E+02  0.13283447107E+02  0.00000000000E+00 0.  1.
</event>
<event>
 7    1  0.7819001E-012  0.5930194E+02  0.7816164E-02  0.1266605E+00
        -11   -1    0    0    0    0  0.00000000000E+00  0.00000000000E+00  0.45593999997E+02  0.45594000000E+02  0.51100000000E-03 0. -1.
         11   -1    0    0    0    0 -0.00000000000E+00 -0.00000000000E+00 -0.45593999997E+02  0.45594000000E+02  0.51100000000E-03 0.  1.
    9900012    2    1    2    0    0  0.24726341848E+02  0.74862755810E+01 -0.18689150852E+02  0.59301942501E+02  0.49999997215E+02 0.  0.
         12    1    1    2    0    0 -0.24726341848E+02 -0.74862755810E+01  0.18689150852E+02  0.31886057499E+02  0.00000000000E+00 0. -1.
         11    1    3    3    0    0  0.27703495169E+02  0.52852328477E+01  0.53010311517E+01  0.28697007899E+02  0.51100000000E-03 0. -1.
        -11    1    3    3    0    0  0.46213431560E+01  0.16022953838E+00 -0.22011749921E+02  0.22492212450E+02  0.51100000000E-03 0.  1.
         12    1    3    3    0    0 -0.75984964767E+01  0.20408131949E+01 -0.19784320832E+01  0.81127221517E+01  0.00000000000E+00 0. -1.
</event>
<event>
 7    1  0.7819001E-012  0.5930194E+02  0.7816164E-02  0.1266605E+00
        -11   -1    0    0    0    0  0.00000000000E+00  0.00000000000E+00  0.45593999997E+02  0.45594000000E+02  0.51100000000E-03 0. -1.
         11   -1    0    0    0    0 -0.00000000000E+00 -0.00000000000E+00 -0.45593999997E+02  0.45594000000E+02  0.51100000000E-03 0.  1.
    9900012    2    1    2    0    0 -0.92187872174E+01 -0.26339237719E+02 -0.15426569981E+02  0.59301944383E+02  0.50000000649E+02 0.  0.
         12    1    1    2    0    0  0.92187872174E+01  0.26339237719E+02  0.15426569981E+02  0.31886055617E+02  0.00000000000E+00 0. -1.
         11    1    3    3    0    0  0.44866998549E+01 -0.98914293326E+01 -0.19315900773E+02  0.22160209222E+02  0.51100000000E-03 0.  1.
        -11    1    3    3    0    0  0.25605359082E+00 -0.39442317229E+01  0.14892777557E+02  0.15408353285E+02  0.51100000000E-03 0. -1.
        -12    1    3    3    0    0 -0.13961540663E+02 -0.12503576664E+02 -0.11003446765E+02  0.21733381877E+02  0.00000000000E+00 0.  1.
</event>
<event>
 7    1  0.7819001E-012  0.5930201E+02  0.7816164E-02  0.1266605E+00
        -11   -1    0    0    0    0  0.00000000000E+00  0.00000000000E+00  0.45593999997E+02  0.45594000000E+02  0.51100000000E-03 0. -1.
         11   -1    0    0    0    0 -0.00000000000E+00 -0.00000000000E+00 -0.45593999997E+02  0.45594000000E+02  0.51100000000E-03 0.  1.
    9900012    2    1    2    0    0  0.63952043225E+01  0.23302343606E+02 -0.20804292104E+02  0.59302008941E+02  0.50000118385E+02 0.  0.
         12    1    1    2    0    0 -0.63952043225E+01 -0.23302343606E+02  0.20804292104E+02  0.31885991059E+02  0.00000000000E+00 0. -1.
         11    1    3    3    0    0  0.37261030727E+01 -0.10235133912E+02 -0.95423457161E+01  0.14480958958E+02  0.51100000000E-03 0. -1.
        -11    1    3    3    0    0 -0.10427182691E+02  0.21565559902E+02 -0.12527681599E+02  0.27032245916E+02  0.51100000000E-03 0.  1.
         12    1    3    3    0    0  0.13096283941E+02  0.11971917617E+02  0.12657352110E+01  0.17788804067E+02  0.00000000000E+00 0. -1.
</event>
<event>
 7    1  0.7819001E-012  0.5930195E+02  0.7816164E-02  0.1266605E+00
        -11   -1    0    0    0    0  0.00000000000E+00  0.00000000000E+00  0.45593999997E+02  0.45594000000E+02  0.51100000000E-03 0.  1.
         11   -1    0    0    0    0 -0.00000000000E+00 -0.00000000000E+00 -0.45593999997E+02  0.45594000000E+02  0.51100000000E-03 0. -1.
    9900012    2    1    2    0    0 -0.11115545254E+02 -0.26148682181E+02  0.14471039636E+02  0.59301954240E+02  0.50000018624E+02 0.  0.
         12    1    1    2    0    0  0.11115545254E+02  0.26148682181E+02 -0.14471039636E+02  0.31886045760E+02  0.00000000000E+00 0. -1.
         11    1    3    3    0    0 -0.25864290572E+01  0.22204403579E+01  0.60640675642E+01  0.69564995748E+01  0.51100000000E-03 0. -1.
        -11    1    3    3    0    0 -0.30853041829E+01 -0.27299185233E+02 -0.12883607463E+02  0.30343894902E+02  0.51100000000E-03 0.  1.
        -12    1    3    3    0    0 -0.54438120138E+01 -0.10699373058E+01  0.21290579535E+02  0.22001559763E+02  0.00000000000E+00 0.  1.
</event>
<event>
 7    1  0.7819001E-012  0.5930193E+02  0.7816164E-02  0.1266605E+00
        -11   -1    0    0    0    0  0.00000000000E+00  0.00000000000E+00  0.45593999997E+02  0.45594000000E+02  0.51100000000E-03 0. -1.
         11   -1    0    0    0    0 -0.00000000000E+00 -0.00000000000E+00 -0.45593999997E+02  0.45594000000E+02  0.51100000000E-03 0.  1.
    9900012    2    1    2    0    0 -0.14899209307E+02  0.26349929739E+02  0.10020776082E+02  0.59301934258E+02  0.49999982182E+02 0.  0.
         12    1    1    2    0    0  0.14899209307E+02 -0.26349929739E+02 -0.10020776082E+02  0.31886065742E+02  0.00000000000E+00 0. -1.
         11    1    3    3    0    0  0.11657642046E+00  0.73756397765E+01  0.21048315806E+02  0.22303480686E+02  0.51100000000E-03 0. -1.
        -11    1    3    3    0    0 -0.17683791741E+02  0.23882952100E+02 -0.96427596110E+01  0.31242514376E+02  0.51100000000E-03 0.  1.
        -12    1    3    3    0    0  0.26680060134E+01 -0.49086621376E+01 -0.13847801128E+01  0.57559391961E+01  0.00000000000E+00 0.  1.
</event>
<event>
 7    1  0.7819001E-012  0.5930194E+02  0.7816164E-02  0.1266605E+00
        -11   -1    0    0    0    0  0.00000000000E+00  0.00000000000E+00  0.45593999997E+02  0.45594000000E+02  0.51100000000E-03 0.  1.
         11   -1    0    0    0    0 -0.00000000000E+00 -0.00000000000E+00 -0.45593999997E+02  0.45594000000E+02  0.51100000000E-03 0. -1.
    9900012    2    1    2    0    0 -0.12588837531E+02  0.22368292720E+02  0.18918284559E+02  0.59301939719E+02  0.49999992142E+02 0.  0.
         12    1    1    2    0    0  0.12588837531E+02 -0.22368292720E+02 -0.18918284559E+02  0.31886060281E+02  0.00000000000E+00 0. -1.
         11    1    3    3    0    0 -0.58704193457E+01 -0.11087105369E+02  0.11030013762E+02  0.16704697920E+02  0.51100000000E-03 0. -1.
        -11    1    3    3    0    0  0.70783628183E+01  0.34675089130E+01 -0.20125378742E+01  0.81349337554E+01  0.51100000000E-03 0.  1.
         12    1    3    3    0    0 -0.13796781003E+02  0.29987889177E+02  0.99008086713E+01  0.34462308043E+02  0.00000000000E+00 0. -1.
</event>
<event>
 7    1  0.7819001E-012  0.5930195E+02  0.7816164E-02  0.1266605E+00
        -11   -1    0    0    0    0  0.00000000000E+00  0.00000000000E+00  0.45593999997E+02  0.45594000000E+02  0.51100000000E-03 0.  1.
         11   -1    0    0    0    0 -0.00000000000E+00 -0.00000000000E+00 -0.45593999997E+02  0.45594000000E+02  0.51100000000E-03 0. -1.
    9900012    2    1    2    0    0  0.32191995309E+01  0.31371826041E+02  0.47080040497E+01  0.59301952629E+02  0.50000015688E+02 0.  0.
         12    1    1    2    0    0 -0.32191995309E+01 -0.31371826041E+02 -0.47080040497E+01  0.31886047371E+02  0.00000000000E+00 0. -1.
         11    1    3    3    0    0 -0.17712424762E+02  0.15969648593E+02 -0.16517779400E+01  0.23905815982E+02  0.51100000000E-03 0. -1.
        -11    1    3    3    0    0  0.24402444349E+02  0.16064882843E+02  0.94457608528E+01  0.30704757763E+02  0.51100000000E-03 0.  1.
         12    1    3    3    0    0 -0.34708200554E+01 -0.66270539396E+00 -0.30859788630E+01  0.46913788846E+01  0.00000000000E+00 0. -1.
</event>
<event>
 7    1  0.7819001E-012  0.5930194E+02  0.7816164E-02  0.1266605E+00
        -11   -1    0    0    0    0  0.00000000000E+00  0.00000000000E+00  0.45593999997E+02  0.45594000000E+02  0.51100000000E-03 0. -1.
         11   -1    0    0    0    0 -0.00000000000E+00 -0.00000000000E+00 -0.45593999997E+02  0.45594000000E+02  0.51100000000E-03 0.  1.
    9900012    2    1    2    0    0  0.10088195698E+02 -0.26203360651E+02  0.15110696721E+02  0.59301937884E+02  0.49999988796E+02 0.  0.
         12    1    1    2    0    0 -0.10088195698E+02  0.26203360651E+02 -0.15110696721E+02  0.31886062116E+02  0.00000000000E+00 0. -1.
         11    1    3    3    0    0  0.60799407487E+01  0.85980806653E+01  0.93559331821E+01  0.14086381956E+02  0.51100000000E-03 0. -1.
        -11    1    3    3    0    0  0.14609719805E+02 -0.96282817930E+01  0.13604040980E+01  0.17549883836E+02  0.51100000000E-03 0.  1.
         12    1    3    3    0    0 -0.10601464856E+02 -0.25173159523E+02  0.43943594406E+01  0.27665672093E+02  0.00000000000E+00 0. -1.
</event>
<event>
 7    1  0.7819001E-012  0.5930191E+02  0.7816164E-02  0.1266605E+00
        -11   -1    0    0    0    0  0.00000000000E+00  0.00000000000E+00  0.45593999997E+02  0.45594000000E+02  0.51100000000E-03 0. -1.
         11   -1    0    0    0    0 -0.00000000000E+00 -0.00000000000E+00 -0.45593999997E+02  0.45594000000E+02  0.51100000000E-03 0.  1.
    9900012    2    1    2    0    0 -0.24527514312E+02  0.20284701088E+02 -0.19117304838E+01  0.59301909459E+02  0.49999936955E+02 0.  0.
         12    1    1    2    0    0  0.24527514312E+02 -0.20284701088E+02  0.19117304838E+01  0.31886090541E+02  0.00000000000E+00 0. -1.
         11    1    3    3    0    0 -0.22477889834E+01 -0.31276443479E+00  0.89793485575E+01  0.92616995030E+01  0.51100000000E-03 0. -1.
        -11    1    3    3    0    0 -0.32732972856E+02  0.11767059471E+02 -0.49965350424E+01  0.35140810510E+02  0.51100000000E-03 0.  1.
        -12    1    3    3    0    0  0.10453247527E+02  0.88304060512E+01 -0.58945439990E+01  0.14899399446E+02  0.00000000000E+00 0.  1.
</event>
<event>
 7    1  0.7819001E-012  0.5930194E+02  0.7816164E-02  0.1266605E+00
        -11   -1    0    0    0    0  0.00000000000E+00  0.00000000000E+00  0.45593999997E+02  0.45594000000E+02  0.51100000000E-03 0. -1.
         11   -1    0    0    0    0 -0.00000000000E+00 -0.00000000000E+00 -0.45593999997E+02  0.45594000000E+02  0.51100000000E-03 0.  1.
    9900012    2    1    2    0    0  0.55053390110E+01 -0.18676053794E+02 -0.25251076212E+02  0.59301943599E+02  0.49999999218E+02 0.  0.
         12    1    1    2    0    0 -0.55053390110E+01  0.18676053794E+02  0.25251076212E+02  0.31886056401E+02  0.00000000000E+00 0. -1.
         11    1    3    3    0    0  0.16967260953E+02 -0.27939018125E+01  0.37915129993E+01  0.17608787655E+02  0.51100000000E-03 0. -1.
        -11    1    3    3    0    0 -0.97703475962E+01 -0.15075482842E+02 -0.65482990551E+01  0.19120933446E+02  0.51100000000E-03 0.  1.
         12    1    3    3    0    0 -0.16915743460E+01 -0.80666913966E+00 -0.22494290156E+02  0.22572222498E+02  0.00000000000E+00 0. -1.
</event>
<event>
 7    1  0.7819001E-012  0.5930183E+02  0.7816164E-02  0.1266605E+00
        -11   -1    0    0    0    0  0.00000000000E+00  0.00000000000E+00  0.45593999997E+02  0.45594000000E+02  0.51100000000E-03 0.  1.
         11   -1    0    0    0    0 -0.00000000000E+00 -0.00000000000E+00 -0.45593999997E+02  0.45594000000E+02  0.51100000000E-03 0. -1.
    9900012    2    1    2    0    0  0.29248057910E+00 -0.24359100155E+02  0.20573685928E+02  0.59301829677E+02  0.49999791451E+02 0.  0.
         12    1    1    2    0    0 -0.29248057910E+00  0.24359100155E+02 -0.20573685928E+02  0.31886170323E+02  0.00000000000E+00 0. -1.
         11    1    3    3    0    0 -0.13143644359E+02  0.27960310716E+01  0.12251493139E+02  0.18184396091E+02  0.51100000000E-03 0. -1.
        -11    1    3    3    0    0  0.10106846786E+02 -0.27840122372E+02  0.15314328572E+02  0.33342906675E+02  0.51100000000E-03 0.  1.
        -12    1    3    3    0    0  0.33292781520E+01  0.68499114616E+00 -0.69921357830E+01  0.77745269111E+01  0.00000000000E+00 0.  1.
</event>
<event>
 7    1  0.7819001E-012  0.5930193E+02  0.7816164E-02  0.1266605E+00
        -11   -1    0    0    0    0  0.00000000000E+00  0.00000000000E+00  0.45593999997E+02  0.45594000000E+02  0.51100000000E-03 0. -1.
         11   -1    0    0    0    0 -0.00000000000E+00 -0.00000000000E+00 -0.45593999997E+02  0.45594000000E+02  0.51100000000E-03 0.  1.
    9900012    2    1    2    0    0 -0.27559755177E+02  0.13340182037E+02 -0.89006058546E+01  0.59301931776E+02  0.49999977656E+02 0.  0.
         12    1    1    2    0    0  0.27559755177E+02 -0.13340182037E+02  0.89006058546E+01  0.31886068224E+02  0.00000000000E+00 0. -1.
         11    1    3    3    0    0 -0.31798857012E+01  0.64688083459E+01 -0.15861280520E+02  0.17422324027E+02  0.51100000000E-03 0. -1.
        -11    1    3    3    0    0 -0.32209313230E+02  0.73523907001E+01  0.32357153377E+01  0.33195893748E+02  0.51100000000E-03 0.  1.
        -12    1    3    3    0    0  0.78294437540E+01 -0.48101700884E+00  0.37249593278E+01  0.86837140011E+01  0.00000000000E+00 0.  1.
</event>
<event>
 7    1  0.7819001E-012  0.5930195E+02  0.7816164E-02  0.1266605E+00
        -11   -1    0    0    0    0  0.00000000000E+00  0.00000000000E+00  0.45593999997E+02  0.45594000000E+02  0.51100000000E-03 0. -1.
         11   -1    0    0    0    0 -0.00000000000E+00 -0.00000000000E+00 -0.45593999997E+02  0.45594000000E+02  0.51100000000E-03 0.  1.
    9900012    2    1    2    0    0  0.16830318121E+02  0.96695407764E+01  0.25297442142E+02  0.59301949667E+02  0.50000010285E+02 0.  0.
         12    1    1    2    0    0 -0.16830318121E+02 -0.96695407764E+01 -0.25297442142E+02  0.31886050333E+02  0.00000000000E+00 0. -1.
         11    1    3    3    0    0  0.14794942578E+02 -0.38610219535E+01  0.37120756145E+02  0.40146585826E+02  0.51100000000E-03 0. -1.
        -11    1    3    3    0    0 -0.18341755081E+01  0.59909533258E+01 -0.70388910105E+01  0.94234658415E+01  0.51100000000E-03 0.  1.
         12    1    3    3    0    0  0.38695510510E+01  0.75396094041E+01 -0.47844229926E+01  0.97318979997E+01  0.00000000000E+00 0. -1.
</event>
<event>
 7    1  0.7819001E-012  0.5930198E+02  0.7816164E-02  0.1266605E+00
        -11   -1    0    0    0    0  0.00000000000E+00  0.00000000000E+00  0.45593999997E+02  0.45594000000E+02  0.51100000000E-03 0. -1.
         11   -1    0    0    0    0 -0.00000000000E+00 -0.00000000000E+00 -0.45593999997E+02  0.45594000000E+02  0.51100000000E-03 0.  1.
    9900012    2    1    2    0    0 -0.28104479133E+02  0.40680855654E+01 -0.14501967450E+02  0.59301982259E+02  0.50000069724E+02 0.  0.
         12    1    1    2    0    0  0.28104479133E+02 -0.40680855654E+01  0.14501967450E+02  0.31886017741E+02  0.00000000000E+00 0. -1.
         11    1    3    3    0    0  0.68375455905E+01  0.39897041631E+01  0.67894659819E+01  0.10429123529E+02  0.51100000000E-03 0. -1.
        -11    1    3    3    0    0 -0.26175591505E+02 -0.75042261175E+01 -0.24728933337E+02  0.36783082314E+02  0.51100000000E-03 0.  1.
         12    1    3    3    0    0 -0.87664332183E+01  0.75826075198E+01  0.34374999058E+01  0.12089776415E+02  0.00000000000E+00 0. -1.
</event>
<event>
 7    1  0.7819001E-012  0.5930194E+02  0.7816164E-02  0.1266605E+00
        -11   -1    0    0    0    0  0.00000000000E+00  0.00000000000E+00  0.45593999997E+02  0.45594000000E+02  0.51100000000E-03 0.  1.
         11   -1    0    0    0    0 -0.00000000000E+00 -0.00000000000E+00 -0.45593999997E+02  0.45594000000E+02  0.51100000000E-03 0. -1.
    9900012    2    1    2    0    0  0.28933265808E+02 -0.10757676683E+02  0.79912110765E+01  0.59301938274E+02  0.49999989506E+02 0.  0.
         12    1    1    2    0    0 -0.28933265808E+02  0.10757676683E+02 -0.79912110765E+01  0.31886061726E+02  0.00000000000E+00 0. -1.
         11    1    3    3    0    0  0.16888747022E+01 -0.64848519592E+01 -0.14502440571E+02  0.15975806255E+02  0.51100000000E-03 0. -1.
        -11    1    3    3    0    0  0.25227966583E+02 -0.49359199123E+01  0.27647794587E+02  0.37752008544E+02  0.51100000000E-03 0.  1.
        -12    1    3    3    0    0  0.20164245228E+01  0.66309518843E+00 -0.51541429392E+01  0.55741234757E+01  0.00000000000E+00 0.  1.
</event>
<event>
 7    1  0.7819001E-012  0.5930196E+02  0.7816164E-02  0.1266605E+00
        -11   -1    0    0    0    0  0.00000000000E+00  0.00000000000E+00  0.45593999997E+02  0.45594000000E+02  0.51100000000E-03 0.  1.
         11   -1    0    0    0    0 -0.00000000000E+00 -0.00000000000E+00 -0.45593999997E+02  0.45594000000E+02  0.51100000000E-03 0. -1.
    9900012    2    1    2    0    0  0.13298963847E+02  0.25073443731E+02  0.14532009427E+02  0.59301963590E+02  0.50000035678E+02 0.  0.
         12    1    1    2    0    0 -0.13298963847E+02 -0.25073443731E+02 -0.14532009427E+02  0.31886036410E+02  0.00000000000E+00 0. -1.
         11    1    3    3    0    0 -0.11417950772E+02 -0.54132688235E+01  0.43250442778E+01  0.13355863411E+02  0.51100000000E-03 0. -1.
        -11    1    3    3    0    0  0.13116070380E+02  0.21101583691E+02  0.16421303486E+02  0.29781996994E+02  0.51100000000E-03 0.  1.
        -12    1    3    3    0    0  0.11600844239E+02  0.93851288630E+01 -0.62143383362E+01  0.16164103186E+02  0.00000000000E+00 0.  1.
</event>
<event>
 7    1  0.7819001E-012  0.5930193E+02  0.7816164E-02  0.1266605E+00
        -11   -1    0    0    0    0  0.00000000000E+00  0.00000000000E+00  0.45593999997E+02  0.45594000000E+02  0.51100000000E-03 0.  1.
         11   -1    0    0    0    0 -0.00000000000E+00 -0.00000000000E+00 -0.45593999997E+02  0.45594000000E+02  0.51100000000E-03 0. -1.
    9900012    2    1    2    0    0 -0.27585212919E+02  0.12962717253E+02  0.93672422165E+01  0.59301933496E+02  0.49999980792E+02 0.  0.
         12    1    1    2    0    0  0.27585212919E+02 -0.12962717253E+02 -0.93672422165E+01  0.31886066504E+02  0.00000000000E+00 0. -1.
         11    1    3    3    0    0 -0.27730492682E+02  0.21589487768E+02  0.22699486609E+02  0.41837219064E+02  0.51100000000E-03 0.  1.
        -11    1    3    3    0    0 -0.14346671638E+01 -0.89336941199E+01 -0.12971222057E+02  0.15815238298E+02  0.51100000000E-03 0. -1.
        -12    1    3    3    0    0  0.15799469265E+01  0.30692360570E+00 -0.36102233529E+00  0.16494761340E+01  0.00000000000E+00 0.  1.
</event>
<event>
 7    1  0.7819001E-012  0.5930194E+02  0.7816164E-02  0.1266605E+00
        -11   -1    0    0    0    0  0.00000000000E+00  0.00000000000E+00  0.45593999997E+02  0.45594000000E+02  0.51100000000E-03 0. -1.
         11   -1    0    0    0    0 -0.00000000000E+00 -0.00000000000E+00 -0.45593999997E+02  0.45594000000E+02  0.51100000000E-03 0.  1.
    9900012    2    1    2    0    0  0.17358535960E+02 -0.21735345546E+02 -0.15587704967E+02  0.59301944069E+02  0.50000000075E+02 0.  0.
         12    1    1    2    0    0 -0.17358535960E+02  0.21735345546E+02  0.15587704967E+02  0.31886055931E+02  0.00000000000E+00 0. -1.
         11    1    3    3    0    0  0.18053227254E+02 -0.13186409151E+02 -0.19151204717E+02  0.29437544785E+02  0.51100000000E-03 0.  1.
        -11    1    3    3    0    0  0.12994013106E+01  0.10429887402E+02  0.21552243340E+01  0.10729211861E+02  0.51100000000E-03 0. -1.
        -12    1    3    3    0    0 -0.19940926042E+01 -0.18978823797E+02  0.14082754163E+01  0.19135187422E+02  0.00000000000E+00 0.  1.
</event>
<event>
 7    1  0.7819001E-012  0.5930197E+02  0.7816164E-02  0.1266605E+00
        -11   -1    0    0    0    0  0.00000000000E+00  0.00000000000E+00  0.45593999997E+02  0.45594000000E+02  0.51100000000E-03 0. -1.
         11   -1    0    0    0    0 -0.00000000000E+00 -0.00000000000E+00 -0.45593999997E+02  0.45594000000E+02  0.51100000000E-03 0.  1.
    9900012    2    1    2    0    0  0.18574134815E+02 -0.25821970015E+02  0.22240277475E+01  0.59301969846E+02  0.50000047086E+02 0.  0.
         12    1    1    2    0    0 -0.18574134815E+02  0.25821970015E+02 -0.22240277475E+01  0.31886030154E+02  0.00000000000E+00 0. -1.
         11    1    3    3    0    0 -0.13570827743E+02 -0.50585415763E+01 -0.92862024229E+01  0.17204353060E+02  0.51100000000E-03 0. -1.
        -11    1    3    3    0    0  0.20741740795E+02 -0.19039452902E+02  0.42615413302E+01  0.28475977819E+02  0.51100000000E-03 0.  1.
         12    1    3    3    0    0  0.11403221763E+02 -0.17239755365E+01  0.72486888402E+01  0.13621638966E+02  0.00000000000E+00 0. -1.
</event>
<event>
 7    1  0.7819001E-012  0.5930194E+02  0.7816164E-02  0.1266605E+00
        -11   -1    0    0    0    0  0.00000000000E+00  0.00000000000E+00  0.45593999997E+02  0.45594000000E+02  0.51100000000E-03 0.  1.
         11   -1    0    0    0    0 -0.00000000000E+00 -0.00000000000E+00 -0.45593999997E+02  0.45594000000E+02  0.51100000000E-03 0. -1.
    9900012    2    1    2    0    0 -0.12644209271E+02 -0.57817867083E+01  0.28695217795E+02  0.59301943330E+02  0.49999998728E+02 0.  0.
         12    1    1    2    0    0  0.12644209271E+02  0.57817867083E+01 -0.28695217795E+02  0.31886056670E+02  0.00000000000E+00 0. -1.
         11    1    3    3    0    0  0.89814649247E+01 -0.17974094006E+01 -0.63211470971E+01  0.11128984394E+02  0.51100000000E-03 0. -1.
        -11    1    3    3    0    0 -0.23309195187E+02 -0.88494699991E+01  0.35064001155E+02  0.43024596184E+02  0.51100000000E-03 0.  1.
        -12    1    3    3    0    0  0.16835209914E+01  0.48650926914E+01 -0.47636262542E-01  0.51483627532E+01  0.00000000000E+00 0.  1.
</event>
<event>
 7    1  0.7819001E-012  0.5930189E+02  0.7816164E-02  0.1266605E+00
        -11   -1    0    0    0    0  0.00000000000E+00  0.00000000000E+00  0.45593999997E+02  0.45594000000E+02  0.51100000000E-03 0. -1.
         11   -1    0    0    0    0 -0.00000000000E+00 -0.00000000000E+00 -0.45593999997E+02  0.45594000000E+02  0.51100000000E-03 0.  1.
    9900012    2    1    2    0    0  0.17703661687E+02 -0.57936271395E+01 -0.25879303358E+02  0.59301888683E+02  0.49999899065E+02 0.  0.
         12    1    1    2    0    0 -0.17703661687E+02  0.57936271395E+01  0.25879303358E+02  0.31886111317E+02  0.00000000000E+00 0. -1.
         11    1    3    3    0    0 -0.17091730737E+01  0.97615997179E+01 -0.16703282799E+02  0.19421888636E+02  0.51100000000E-03 0. -1.
        -11    1    3    3    0    0  0.13973354751E+02 -0.54012521704E+01  0.96424519566E+01  0.17815865064E+02  0.51100000000E-03 0.  1.
        -12    1    3    3    0    0  0.54394800104E+01 -0.10153974687E+02 -0.18818472516E+02  0.22064134983E+02  0.00000000000E+00 0.  1.
</event>
<event>
 7    1  0.7819001E-012  0.5930192E+02  0.7816164E-02  0.1266605E+00
        -11   -1    0    0    0    0  0.00000000000E+00  0.00000000000E+00  0.45593999997E+02  0.45594000000E+02  0.51100000000E-03 0. -1.
         11   -1    0    0    0    0 -0.00000000000E+00 -0.00000000000E+00 -0.45593999997E+02  0.45594000000E+02  0.51100000000E-03 0.  1.
    9900012    2    1    2    0    0  0.78691203423E+01 -0.15817673122E+02 -0.26544313129E+02  0.59301915300E+02  0.49999947608E+02 0.  0.
         12    1    1    2    0    0 -0.78691203423E+01  0.15817673122E+02  0.26544313129E+02  0.31886084700E+02  0.00000000000E+00 0. -1.
         11    1    3    3    0    0 -0.73270039988E+01 -0.17308740879E+02  0.33009775544E+01  0.19083342252E+02  0.51100000000E-03 0. -1.
        -11    1    3    3    0    0  0.20301787184E+02  0.27313759009E+00 -0.17503202378E+02  0.26806701788E+02  0.51100000000E-03 0.  1.
         12    1    3    3    0    0 -0.51056628430E+01  0.12179301669E+01 -0.12342088306E+02  0.13411871260E+02  0.00000000000E+00 0. -1.
</event>
<event>
 7    1  0.7819001E-012  0.5930194E+02  0.7816164E-02  0.1266605E+00
        -11   -1    0    0    0    0  0.00000000000E+00  0.00000000000E+00  0.45593999997E+02  0.45594000000E+02  0.51100000000E-03 0. -1.
         11   -1    0    0    0    0 -0.00000000000E+00 -0.00000000000E+00 -0.45593999997E+02  0.45594000000E+02  0.51100000000E-03 0.  1.
    9900012    2    1    2    0    0 -0.98935070889E+01 -0.15980685455E+01 -0.30270211082E+02  0.59301937456E+02  0.49999988015E+02 0.  0.
         12    1    1    2    0    0  0.98935070889E+01  0.15980685455E+01  0.30270211082E+02  0.31886062544E+02  0.00000000000E+00 0. -1.
         11    1    3    3    0    0 -0.38748781413E+01 -0.17065232772E+02 -0.12684918484E+02  0.21613514462E+02  0.51100000000E-03 0. -1.
        -11    1    3    3    0    0 -0.15545098519E+02  0.17186849616E+02 -0.93877038759E+01  0.25003337217E+02  0.51100000000E-03 0.  1.
         12    1    3    3    0    0  0.95264695710E+01 -0.17196853899E+01 -0.81975887217E+01  0.12685085777E+02  0.00000000000E+00 0. -1.
</event>
<event>
 7    1  0.7819001E-012  0.5930196E+02  0.7816164E-02  0.1266605E+00
        -11   -1    0    0    0    0  0.00000000000E+00  0.00000000000E+00  0.45593999997E+02  0.45594000000E+02  0.51100000000E-03 0. -1.
         11   -1    0    0    0    0 -0.00000000000E+00 -0.00000000000E+00 -0.45593999997E+02  0.45594000000E+02  0.51100000000E-03 0.  1.
    9900012    2    1    2    0    0  0.21222635839E+02  0.13759586471E+02 -0.19416303083E+02  0.59301963601E+02  0.50000035698E+02 0.  0.
         12    1    1    2    0    0 -0.21222635839E+02 -0.13759586471E+02  0.19416303083E+02  0.31886036399E+02  0.00000000000E+00 0. -1.
         11    1    3    3    0    0  0.20403309666E+02  0.65685970441E-01 -0.31539108315E+01  0.20645738393E+02  0.51100000000E-03 0. -1.
        -11    1    3    3    0    0 -0.12713335852E+02  0.47924756042E+01 -0.17791945142E+02  0.22386380750E+02  0.51100000000E-03 0.  1.
        -12    1    3    3    0    0  0.13532662024E+02  0.89014248961E+01  0.15295528905E+01  0.16269844458E+02  0.00000000000E+00 0.  1.
</event>
<event>
 7    1  0.7819001E-012  0.5930193E+02  0.7816164E-02  0.1266605E+00
        -11   -1    0    0    0    0  0.00000000000E+00  0.00000000000E+00  0.45593999997E+02  0.45594000000E+02  0.51100000000E-03 0.  1.
         11   -1    0    0    0    0 -0.00000000000E+00 -0.00000000000E+00 -0.45593999997E+02  0.45594000000E+02  0.51100000000E-03 0. -1.
    9900012    2    1    2    0    0 -0.27878571300E+02 -0.14608039424E+02 -0.51099978241E+01  0.59301927314E+02  0.49999969519E+02 0.  0.
         12    1    1    2    0    0  0.27878571300E+02  0.14608039424E+02  0.51099978241E+01  0.31886072686E+02  0.00000000000E+00 0. -1.
         11    1    3    3    0    0 -0.15145303171E+02 -0.18644912907E+02 -0.14015219047E+02  0.27810777599E+02  0.51100000000E-03 0. -1.
        -11    1    3    3    0    0  0.29781913661E+00  0.13748115836E+02  0.59015677874E+01  0.14964220257E+02  0.51100000000E-03 0.  1.
        -12    1    3    3    0    0 -0.13031087266E+02 -0.97112423530E+01  0.30036534351E+01  0.16526929458E+02  0.00000000000E+00 0.  1.
</event>
<event>
 7    1  0.7819001E-012  0.5930196E+02  0.7816164E-02  0.1266605E+00
        -11   -1    0    0    0    0  0.00000000000E+00  0.00000000000E+00  0.45593999997E+02  0.45594000000E+02  0.51100000000E-03 0. -1.
         11   -1    0    0    0    0 -0.00000000000E+00 -0.00000000000E+00 -0.45593999997E+02  0.45594000000E+02  0.51100000000E-03 0.  1.
    9900012    2    1    2    0    0 -0.27114874467E+02  0.56331254752E+01 -0.15804138892E+02  0.59301963462E+02  0.50000035443E+02 0.  0.
         12    1    1    2    0    0  0.27114874467E+02 -0.56331254752E+01  0.15804138892E+02  0.31886036538E+02  0.00000000000E+00 0. -1.
         11    1    3    3    0    0 -0.21785001692E-01  0.22634214855E+01  0.19957583693E+01  0.30177148867E+01  0.51100000000E-03 0. -1.
        -11    1    3    3    0    0 -0.33549407423E+02 -0.79194256054E+01 -0.23873267462E+02  0.41931049831E+02  0.51100000000E-03 0.  1.
        -12    1    3    3    0    0  0.64563179577E+01  0.11289129595E+02  0.60733702006E+01  0.14353198744E+02  0.00000000000E+00 0.  1.
</event>
<event>
 7    1  0.7819001E-012  0.5930188E+02  0.7816164E-02  0.1266605E+00
        -11   -1    0    0    0    0  0.00000000000E+00  0.00000000000E+00  0.45593999997E+02  0.45594000000E+02  0.51100000000E-03 0.  1.
         11   -1    0    0    0    0 -0.00000000000E+00 -0.00000000000E+00 -0.45593999997E+02  0.45594000000E+02  0.51100000000E-03 0. -1.
    9900012    2    1    2    0    0 -0.17769465989E+02  0.18133465066E+01  0.26413681015E+02  0.59301879323E+02  0.49999881994E+02 0.  0.
         12    1    1    2    0    0  0.17769465989E+02 -0.18133465066E+01 -0.26413681015E+02  0.31886120677E+02  0.00000000000E+00 0. -1.
         11    1    3    3    0    0  0.48998897311E+00 -0.14141495522E+02 -0.43171397963E+01  0.14793906890E+02  0.51100000000E-03 0. -1.
        -11    1    3    3    0    0 -0.12331461070E+02  0.15269723327E+02  0.83227982848E+01  0.21318967005E+02  0.51100000000E-03 0.  1.
        -12    1    3    3    0    0 -0.59279938922E+01  0.68511870145E+00  0.22408022526E+02  0.23189005428E+02  0.00000000000E+00 0.  1.
</event>
<event>
 7    1  0.7819001E-012  0.5930196E+02  0.7816164E-02  0.1266605E+00
        -11   -1    0    0    0    0  0.00000000000E+00  0.00000000000E+00  0.45593999997E+02  0.45594000000E+02  0.51100000000E-03 0.  1.
         11   -1    0    0    0    0 -0.00000000000E+00 -0.00000000000E+00 -0.45593999997E+02  0.45594000000E+02  0.51100000000E-03 0. -1.
    9900012    2    1    2    0    0  0.27764563182E+02 -0.98430418480E+01 -0.12205052134E+02  0.59301956985E+02  0.50000023632E+02 0.  0.
         12    1    1    2    0    0 -0.27764563182E+02  0.98430418480E+01  0.12205052134E+02  0.31886043015E+02  0.00000000000E+00 0. -1.
         11    1    3    3    0    0 -0.99803564445E+00  0.15340677753E+02 -0.93224857021E+01  0.17978910117E+02  0.51100000000E-03 0. -1.
        -11    1    3    3    0    0  0.27581413748E+02 -0.16034441344E+02 -0.10703110702E+01  0.31921517188E+02  0.51100000000E-03 0.  1.
         12    1    3    3    0    0  0.11811850789E+01 -0.91492782577E+01 -0.18122553622E+01  0.94015296801E+01  0.00000000000E+00 0. -1.
</event>
<event>
 7    1  0.7819001E-012  0.5930195E+02  0.7816164E-02  0.1266605E+00
        -11   -1    0    0    0    0  0.00000000000E+00  0.00000000000E+00  0.45593999997E+02  0.45594000000E+02  0.51100000000E-03 0. -1.
         11   -1    0    0    0    0 -0.00000000000E+00 -0.00000000000E+00 -0.45593999997E+02  0.45594000000E+02  0.51100000000E-03 0.  1.
    9900012    2    1    2    0    0 -0.13464707633E+02 -0.11641623613E+02 -0.26455517584E+02  0.59301950345E+02  0.50000011521E+02 0.  0.
         12    1    1    2    0    0  0.13464707633E+02  0.11641623613E+02  0.26455517584E+02  0.31886049655E+02  0.00000000000E+00 0. -1.
         11    1    3    3    0    0  0.60222354203E+01 -0.17918433678E+02 -0.17247179275E+02  0.25589114446E+02  0.51100000000E-03 0. -1.
        -11    1    3    3    0    0 -0.34578145566E+01  0.13432654760E+02 -0.82372391254E+01  0.16132104763E+02  0.51100000000E-03 0.  1.
        -12    1    3    3    0    0 -0.16029128496E+02 -0.71558446944E+01 -0.97109918330E+00  0.17580731136E+02  0.00000000000E+00 0.  1.
</event>
<event>
 7    1  0.7819001E-012  0.5930195E+02  0.7816164E-02  0.1266605E+00
        -11   -1    0    0    0    0  0.00000000000E+00  0.00000000000E+00  0.45593999997E+02  0.45594000000E+02  0.51100000000E-03 0. -1.
         11   -1    0    0    0    0 -0.00000000000E+00 -0.00000000000E+00 -0.45593999997E+02  0.45594000000E+02  0.51100000000E-03 0.  1.
    9900012    2    1    2    0    0 -0.43623530430E+01  0.12626269707E+02 -0.28952847974E+02  0.59301949498E+02  0.50000009977E+02 0.  0.
         12    1    1    2    0    0  0.43623530430E+01 -0.12626269707E+02  0.28952847974E+02  0.31886050502E+02  0.00000000000E+00 0. -1.
         11    1    3    3    0    0  0.33184111680E+01  0.81501005199E+01 -0.15037772751E+01  0.89273365299E+01  0.51100000000E-03 0. -1.
        -11    1    3    3    0    0 -0.67226531779E+01 -0.68513604535E+01 -0.35285226281E+02  0.36567504697E+02  0.51100000000E-03 0.  1.
        -12    1    3    3    0    0 -0.95811103309E+00  0.11327529641E+02  0.78361555817E+01  0.13807108271E+02  0.00000000000E+00 0.  1.
</event>
<event>
 7    1  0.7819001E-012  0.5930192E+02  0.7816164E-02  0.1266605E+00
        -11   -1    0    0    0    0  0.00000000000E+00  0.00000000000E+00  0.45593999997E+02  0.45594000000E+02  0.51100000000E-03 0. -1.
         11   -1    0    0    0    0 -0.00000000000E+00 -0.00000000000E+00 -0.45593999997E+02  0.45594000000E+02  0.51100000000E-03 0.  1.
    9900012    2    1    2    0    0 -0.18032340999E+02 -0.19785455035E+02 -0.17323175343E+02  0.59301922210E+02  0.49999960210E+02 0.  0.
         12    1    1    2    0    0  0.18032340999E+02  0.19785455035E+02  0.17323175343E+02  0.31886077790E+02  0.00000000000E+00 0. -1.
         11    1    3    3    0    0 -0.29814756619E+01 -0.24725783018E+01  0.10526755718E+02  0.11216747603E+02  0.51100000000E-03 0. -1.
        -11    1    3    3    0    0  0.39043854667E+01 -0.17325435977E+02 -0.21945644603E+02  0.28231653777E+02  0.51100000000E-03 0.  1.
        -12    1    3    3    0    0 -0.18955250804E+02  0.12559243444E-01 -0.59042864587E+01  0.19853520830E+02  0.00000000000E+00 0.  1.
</event>
<event>
 7    1  0.7819001E-012  0.5930196E+02  0.7816164E-02  0.1266605E+00
        -11   -1    0    0    0    0  0.00000000000E+00  0.00000000000E+00  0.45593999997E+02  0.45594000000E+02  0.51100000000E-03 0.  1.
         11   -1    0    0    0    0 -0.00000000000E+00 -0.00000000000E+00 -0.45593999997E+02  0.45594000000E+02  0.51100000000E-03 0. -1.
    9900012    2    1    2    0    0 -0.18641567288E+02  0.15129680594E+02  0.20983434753E+02  0.59301956033E+02  0.50000021895E+02 0.  0.
         12    1    1    2    0    0  0.18641567288E+02 -0.15129680594E+02 -0.20983434753E+02  0.31886043967E+02  0.00000000000E+00 0. -1.
         11    1    3    3    0    0 -0.27541884507E+02 -0.47025076812E+01  0.10687449856E+02  0.29914721550E+02  0.51100000000E-03 0. -1.
        -11    1    3    3    0    0 -0.26816623469E+00  0.52736949024E+01  0.10963953675E+02  0.12169307766E+02  0.51100000000E-03 0.  1.
         12    1    3    3    0    0  0.91684834540E+01  0.14558493373E+02 -0.66796877897E+00  0.17217926717E+02  0.00000000000E+00 0. -1.
</event>
<event>
 7    1  0.7819001E-012  0.5930195E+02  0.7816164E-02  0.1266605E+00
        -11   -1    0    0    0    0  0.00000000000E+00  0.00000000000E+00  0.45593999997E+02  0.45594000000E+02  0.51100000000E-03 0.  1.
         11   -1    0    0    0    0 -0.00000000000E+00 -0.00000000000E+00 -0.45593999997E+02  0.45594000000E+02  0.51100000000E-03 0. -1.
    9900012    2    1    2    0    0 -0.25791165512E+01  0.29089782790E+02 -0.12800509863E+02  0.59301947285E+02  0.50000005941E+02 0.  0.
         12    1    1    2    0    0  0.25791165512E+01 -0.29089782790E+02  0.12800509863E+02  0.31886052715E+02  0.00000000000E+00 0. -1.
         11    1    3    3    0    0  0.51936642589E+01  0.19267411201E+02 -0.19308934401E+02  0.27767647196E+02  0.51100000000E-03 0. -1.
        -11    1    3    3    0    0 -0.12073057913E+02  0.17813208923E+02  0.64312067488E+01  0.22459509345E+02  0.51100000000E-03 0.  1.
         12    1    3    3    0    0  0.43002771034E+01 -0.79908373339E+01  0.77217789240E-01  0.90747907441E+01  0.00000000000E+00 0. -1.
</event>
<event>
 7    1  0.7819001E-012  0.5930195E+02  0.7816164E-02  0.1266605E+00
        -11   -1    0    0    0    0  0.00000000000E+00  0.00000000000E+00  0.45593999997E+02  0.45594000000E+02  0.51100000000E-03 0.  1.
         11   -1    0    0    0    0 -0.00000000000E+00 -0.00000000000E+00 -0.45593999997E+02  0.45594000000E+02  0.51100000000E-03 0. -1.
    9900012    2    1    2    0    0  0.10244583734E+02 -0.43860714752E+01  0.29875261920E+02  0.59301946722E+02  0.50000004914E+02 0.  0.
         12    1    1    2    0    0 -0.10244583734E+02  0.43860714752E+01 -0.29875261920E+02  0.31886053278E+02  0.00000000000E+00 0. -1.
         11    1    3    3    0    0 -0.16076666654E+01 -0.17652221336E+02 -0.21065860700E+01  0.17850020038E+02  0.51100000000E-03 0. -1.
        -11    1    3    3    0    0  0.13065248691E+02  0.32772595131E+01  0.27110664575E+02  0.30272583094E+02  0.51100000000E-03 0.  1.
         12    1    3    3    0    0 -0.12129982913E+01  0.99888903480E+01  0.48711834153E+01  0.11179343590E+02  0.00000000000E+00 0. -1.
</event>
<event>
 7    1  0.7819001E-012  0.5930193E+02  0.7816164E-02  0.1266605E+00
        -11   -1    0    0    0    0  0.00000000000E+00  0.00000000000E+00  0.45593999997E+02  0.45594000000E+02  0.51100000000E-03 0.  1.
         11   -1    0    0    0    0 -0.00000000000E+00 -0.00000000000E+00 -0.45593999997E+02  0.45594000000E+02  0.51100000000E-03 0. -1.
    9900012    2    1    2    0    0 -0.98456292687E+01 -0.13835722003E+01  0.30296386197E+02  0.59301926169E+02  0.49999967430E+02 0.  0.
         12    1    1    2    0    0  0.98456292687E+01  0.13835722003E+01 -0.30296386197E+02  0.31886073831E+02  0.00000000000E+00 0. -1.
         11    1    3    3    0    0 -0.18669706285E+02 -0.81471872619E+01 -0.49810146367E+01  0.20970100146E+02  0.51100000000E-03 0. -1.
        -11    1    3    3    0    0  0.71185457805E+00  0.68136405520E+01  0.14923151882E+02  0.16420502333E+02  0.51100000000E-03 0.  1.
         12    1    3    3    0    0  0.81122224386E+01 -0.50025490413E-01  0.20354248953E+02  0.21911323690E+02  0.00000000000E+00 0. -1.
</event>
<event>
 7    1  0.7819001E-012  0.5930195E+02  0.7816164E-02  0.1266605E+00
        -11   -1    0    0    0    0  0.00000000000E+00  0.00000000000E+00  0.45593999997E+02  0.45594000000E+02  0.51100000000E-03 0.  1.
         11   -1    0    0    0    0 -0.00000000000E+00 -0.00000000000E+00 -0.45593999997E+02  0.45594000000E+02  0.51100000000E-03 0. -1.
    9900012    2    1    2    0    0 -0.13264297796E+01 -0.60498002102E+01  0.31278758181E+02  0.59301949573E+02  0.50000010112E+02 0.  0.
         12    1    1    2    0    0  0.13264297796E+01  0.60498002102E+01 -0.31278758181E+02  0.31886050427E+02  0.00000000000E+00 0. -1.
         11    1    3    3    0    0  0.95577805889E+01 -0.16513462743E+02  0.29907316263E+00  0.19082323406E+02  0.51100000000E-03 0. -1.
        -11    1    3    3    0    0 -0.12443434321E+02  0.28997340771E+01  0.60799008136E+01  0.14149654044E+02  0.51100000000E-03 0.  1.
         12    1    3    3    0    0  0.15592239522E+01  0.75639284559E+01  0.24899784204E+02  0.26069972122E+02  0.00000000000E+00 0. -1.
</event>
<event>
 7    1  0.7819001E-012  0.5930193E+02  0.7816164E-02  0.1266605E+00
        -11   -1    0    0    0    0  0.00000000000E+00  0.00000000000E+00  0.45593999997E+02  0.45594000000E+02  0.51100000000E-03 0.  1.
         11   -1    0    0    0    0 -0.00000000000E+00 -0.00000000000E+00 -0.45593999997E+02  0.45594000000E+02  0.51100000000E-03 0. -1.
    9900012    2    1    2    0    0 -0.22580191768E+02 -0.22432676420E+02  0.19057133874E+01  0.59301925059E+02  0.49999965406E+02 0.  0.
         12    1    1    2    0    0  0.22580191768E+02  0.22432676420E+02 -0.19057133874E+01  0.31886074941E+02  0.00000000000E+00 0. -1.
         11    1    3    3    0    0 -0.30798609168E+01 -0.20041376687E+01 -0.20526197979E+02  0.20852503801E+02  0.51100000000E-03 0. -1.
        -11    1    3    3    0    0 -0.47842075841E+01  0.68584551543E+00  0.67821421040E+01  0.83280536777E+01  0.51100000000E-03 0.  1.
         12    1    3    3    0    0 -0.14716123267E+02 -0.21114384266E+02  0.15649769262E+02  0.30121367580E+02  0.00000000000E+00 0. -1.
</event>
<event>
 7    1  0.7819001E-012  0.5930195E+02  0.7816164E-02  0.1266605E+00
        -11   -1    0    0    0    0  0.00000000000E+00  0.00000000000E+00  0.45593999997E+02  0.45594000000E+02  0.51100000000E-03 0.  1.
         11   -1    0    0    0    0 -0.00000000000E+00 -0.00000000000E+00 -0.45593999997E+02  0.45594000000E+02  0.51100000000E-03 0. -1.
    9900012    2    1    2    0    0  0.83882155347E+01  0.57171062030E+00  0.30757615584E+02  0.59301954004E+02  0.50000018193E+02 0.  0.
         12    1    1    2    0    0 -0.83882155347E+01 -0.57171062030E+00 -0.30757615584E+02  0.31886045996E+02  0.00000000000E+00 0. -1.
         11    1    3    3    0    0  0.78636704000E+01 -0.17007516273E+02  0.11600516219E+02  0.22037806124E+02  0.51100000000E-03 0. -1.
        -11    1    3    3    0    0 -0.11697565815E+02  0.67941033594E+01  0.15473370647E+02  0.20552812117E+02  0.51100000000E-03 0.  1.
        -12    1    3    3    0    0  0.12222110950E+02  0.10785123534E+02  0.36837287174E+01  0.16711335763E+02  0.00000000000E+00 0.  1.
</event>
<event>
 7    1  0.7819001E-012  0.5930195E+02  0.7816164E-02  0.1266605E+00
        -11   -1    0    0    0    0  0.00000000000E+00  0.00000000000E+00  0.45593999997E+02  0.45594000000E+02  0.51100000000E-03 0.  1.
         11   -1    0    0    0    0 -0.00000000000E+00 -0.00000000000E+00 -0.45593999997E+02  0.45594000000E+02  0.51100000000E-03 0. -1.
    9900012    2    1    2    0    0 -0.32546094290E+01 -0.31218194177E+02  0.56171248442E+01  0.59301949418E+02  0.50000009830E+02 0.  0.
         12    1    1    2    0    0  0.32546094290E+01  0.31218194177E+02 -0.56171248442E+01  0.31886050582E+02  0.00000000000E+00 0. -1.
         11    1    3    3    0    0  0.37405087093E+01  0.52311380068E+01 -0.65190423969E+01  0.91571897591E+01  0.51100000000E-03 0. -1.
        -11    1    3    3    0    0 -0.59948494431E+01 -0.80315544732E+01  0.18468709074E+02  0.21012789016E+02  0.51100000000E-03 0.  1.
        -12    1    3    3    0    0 -0.10002686952E+01 -0.28417777711E+02 -0.63325418326E+01  0.29131970643E+02  0.00000000000E+00 0.  1.
</event>
<event>
 7    1  0.7819001E-012  0.5930196E+02  0.7816164E-02  0.1266605E+00
        -11   -1    0    0    0    0  0.00000000000E+00  0.00000000000E+00  0.45593999997E+02  0.45594000000E+02  0.51100000000E-03 0.  1.
         11   -1    0    0    0    0 -0.00000000000E+00 -0.00000000000E+00 -0.45593999997E+02  0.45594000000E+02  0.51100000000E-03 0. -1.
    9900012    2    1    2    0    0 -0.24183897845E+02 -0.16359083291E+02  0.12815580330E+02  0.59301958849E+02  0.50000027030E+02 0.  0.
         12    1    1    2    0    0  0.24183897845E+02  0.16359083291E+02 -0.12815580330E+02  0.31886041151E+02  0.00000000000E+00 0. -1.
         11    1    3    3    0    0  0.79555552107E+01 -0.19666054342E+02  0.43965237861E+01  0.21665040359E+02  0.51100000000E-03 0. -1.
        -11    1    3    3    0    0 -0.24564419119E+02 -0.80789185375E-01  0.13376795118E+02  0.27970624974E+02  0.51100000000E-03 0.  1.
        -12    1    3    3    0    0 -0.75750339366E+01  0.33877602362E+01 -0.49577385745E+01  0.96662935157E+01  0.00000000000E+00 0.  1.
</event>
<event>
 7    1  0.7819001E-012  0.5930192E+02  0.7816164E-02  0.1266605E+00
        -11   -1    0    0    0    0  0.00000000000E+00  0.00000000000E+00  0.45593999997E+02  0.45594000000E+02  0.51100000000E-03 0.  1.
         11   -1    0    0    0    0 -0.00000000000E+00 -0.00000000000E+00 -0.45593999997E+02  0.45594000000E+02  0.51100000000E-03 0. -1.
    9900012    2    1    2    0    0  0.47234026719E+01  0.27938687900E+02  0.14623316048E+02  0.59301918607E+02  0.49999953638E+02 0.  0.
         12    1    1    2    0    0 -0.47234026719E+01 -0.27938687900E+02 -0.14623316048E+02  0.31886081393E+02  0.00000000000E+00 0. -1.
         11    1    3    3    0    0  0.38278697292E+01  0.33742873991E+02 -0.70955865911E+01  0.34692671865E+02  0.51100000000E-03 0.  1.
        -11    1    3    3    0    0 -0.43414749472E+01 -0.34512953282E+01  0.13391015131E+02  0.14494106756E+02  0.51100000000E-03 0. -1.
        -12    1    3    3    0    0  0.52370078898E+01 -0.23528907624E+01  0.83278875082E+01  0.10115139986E+02  0.00000000000E+00 0.  1.
</event>
<event>
 7    1  0.7819001E-012  0.5930194E+02  0.7816164E-02  0.1266605E+00
        -11   -1    0    0    0    0  0.00000000000E+00  0.00000000000E+00  0.45593999997E+02  0.45594000000E+02  0.51100000000E-03 0. -1.
         11   -1    0    0    0    0 -0.00000000000E+00 -0.00000000000E+00 -0.45593999997E+02  0.45594000000E+02  0.51100000000E-03 0.  1.
    9900012    2    1    2    0    0  0.88584312405E+01  0.12163803283E+02 -0.28112113747E+02  0.59301939509E+02  0.49999991758E+02 0.  0.
         12    1    1    2    0    0 -0.88584312405E+01 -0.12163803283E+02  0.28112113747E+02  0.31886060491E+02  0.00000000000E+00 0. -1.
         11    1    3    3    0    0  0.12536920434E+02 -0.14663671090E+02 -0.23096415782E+02  0.30093887187E+02  0.51100000000E-03 0. -1.
        -11    1    3    3    0    0  0.14242998806E+01  0.15113851282E+02 -0.61537169656E+01  0.16380639898E+02  0.51100000000E-03 0.  1.
         12    1    3    3    0    0 -0.51027890740E+01  0.11713623090E+02  0.11380190004E+01  0.12827412423E+02  0.00000000000E+00 0. -1.
</event>
<event>
 7    1  0.7819001E-012  0.5930192E+02  0.7816164E-02  0.1266605E+00
        -11   -1    0    0    0    0  0.00000000000E+00  0.00000000000E+00  0.45593999997E+02  0.45594000000E+02  0.51100000000E-03 0.  1.
         11   -1    0    0    0    0 -0.00000000000E+00 -0.00000000000E+00 -0.45593999997E+02  0.45594000000E+02  0.51100000000E-03 0. -1.
    9900012    2    1    2    0    0 -0.15818512243E+02  0.27611612911E+02  0.20237990210E+01  0.59301917462E+02  0.49999951550E+02 0.  0.
         12    1    1    2    0    0  0.15818512243E+02 -0.27611612911E+02 -0.20237990210E+01  0.31886082538E+02  0.00000000000E+00 0. -1.
         11    1    3    3    0    0  0.11136134720E+02  0.26506850198E+01  0.48944744319E+01  0.12449719185E+02  0.51100000000E-03 0. -1.
        -11    1    3    3    0    0 -0.11799741229E+02  0.76998721898E+01 -0.15246919409E+02  0.20760310126E+02  0.51100000000E-03 0.  1.
        -12    1    3    3    0    0 -0.15154905734E+02  0.17261055701E+02  0.12376243998E+02  0.26091888150E+02  0.00000000000E+00 0.  1.
</event>
<event>
 7    1  0.7819001E-012  0.5930195E+02  0.7816164E-02  0.1266605E+00
        -11   -1    0    0    0    0  0.00000000000E+00  0.00000000000E+00  0.45593999997E+02  0.45594000000E+02  0.51100000000E-03 0.  1.
         11   -1    0    0    0    0 -0.00000000000E+00 -0.00000000000E+00 -0.45593999997E+02  0.45594000000E+02  0.51100000000E-03 0. -1.
    9900012    2    1    2    0    0 -0.15526190532E+01 -0.20516136455E+02  0.24359756853E+02  0.59301949211E+02  0.50000009453E+02 0.  0.
         12    1    1    2    0    0  0.15526190532E+01  0.20516136455E+02 -0.24359756853E+02  0.31886050789E+02  0.00000000000E+00 0. -1.
         11    1    3    3    0    0  0.15379262090E+02  0.35538433791E+01 -0.32437354122E+01  0.16114382548E+02  0.51100000000E-03 0. -1.
        -11    1    3    3    0    0 -0.51367009262E+01 -0.19889879064E+02  0.19164663409E+02  0.28094079615E+02  0.51100000000E-03 0.  1.
        -12    1    3    3    0    0 -0.11795180217E+02 -0.41801007706E+01  0.84388288561E+01  0.15093487048E+02  0.00000000000E+00 0.  1.
</event>
<event>
 7    1  0.7819001E-012  0.5930199E+02  0.7816164E-02  0.1266605E+00
        -11   -1    0    0    0    0  0.00000000000E+00  0.00000000000E+00  0.45593999997E+02  0.45594000000E+02  0.51100000000E-03 0.  1.
         11   -1    0    0    0    0 -0.00000000000E+00 -0.00000000000E+00 -0.45593999997E+02  0.45594000000E+02  0.51100000000E-03 0. -1.
    9900012    2    1    2    0    0  0.23702845299E+02  0.11285319952E+02  0.18097908615E+02  0.59301990248E+02  0.50000084294E+02 0.  0.
         12    1    1    2    0    0 -0.23702845299E+02 -0.11285319952E+02 -0.18097908615E+02  0.31886009752E+02  0.00000000000E+00 0. -1.
         11    1    3    3    0    0 -0.42602564489E+01 -0.22684198741E+01 -0.23339801756E+01  0.53612477519E+01  0.51100000000E-03 0. -1.
        -11    1    3    3    0    0  0.23240771034E+02 -0.30521571431E+01  0.26740553362E+02  0.35559897298E+02  0.51100000000E-03 0.  1.
        -12    1    3    3    0    0  0.47223307137E+01  0.16605896969E+02 -0.63086645708E+01  0.18380845198E+02  0.00000000000E+00 0.  1.
</event>
<event>
 7    1  0.7819001E-012  0.5930194E+02  0.7816164E-02  0.1266605E+00
        -11   -1    0    0    0    0  0.00000000000E+00  0.00000000000E+00  0.45593999997E+02  0.45594000000E+02  0.51100000000E-03 0. -1.
         11   -1    0    0    0    0 -0.00000000000E+00 -0.00000000000E+00 -0.45593999997E+02  0.45594000000E+02  0.51100000000E-03 0.  1.
    9900012    2    1    2    0    0 -0.30315631239E+02 -0.92308154603E+01 -0.35320347073E+01  0.59301941594E+02  0.49999995561E+02 0.  0.
         12    1    1    2    0    0  0.30315631239E+02  0.92308154603E+01  0.35320347073E+01  0.31886058406E+02  0.00000000000E+00 0. -1.
         11    1    3    3    0    0 -0.17566754289E+02  0.19340479117E+02 -0.51937592199E+01  0.26638695986E+02  0.51100000000E-03 0. -1.
        -11    1    3    3    0    0 -0.12915686733E+02 -0.25485678332E+02  0.39153949015E+01  0.28838604011E+02  0.51100000000E-03 0.  1.
        -12    1    3    3    0    0  0.16680978287E+00 -0.30856162460E+01 -0.22536703889E+01  0.38246415966E+01  0.00000000000E+00 0.  1.
</event>
<event>
 7    1  0.7819001E-012  0.5930196E+02  0.7816164E-02  0.1266605E+00
        -11   -1    0    0    0    0  0.00000000000E+00  0.00000000000E+00  0.45593999997E+02  0.45594000000E+02  0.51100000000E-03 0. -1.
         11   -1    0    0    0    0 -0.00000000000E+00 -0.00000000000E+00 -0.45593999997E+02  0.45594000000E+02  0.51100000000E-03 0.  1.
    9900012    2    1    2    0    0 -0.87498621473E+01 -0.98732582087E+00 -0.30646121440E+02  0.59301958239E+02  0.50000025919E+02 0.  0.
         12    1    1    2    0    0  0.87498621473E+01  0.98732582087E+00  0.30646121440E+02  0.31886041761E+02  0.00000000000E+00 0. -1.
         11    1    3    3    0    0  0.34089668208E+01 -0.78597210810E+00  0.38157175011E+00  0.35191482210E+01  0.51100000000E-03 0. -1.
        -11    1    3    3    0    0 -0.22787258877E+02 -0.38702264115E+01 -0.36558488372E+02  0.43252293487E+02  0.51100000000E-03 0.  1.
        -12    1    3    3    0    0  0.10628429909E+02  0.36688726987E+01  0.55307951818E+01  0.12530516532E+02  0.00000000000E+00 0.  1.
</event>
<event>
 7    1  0.7819001E-012  0.5930202E+02  0.7816164E-02  0.1266604E+00
        -11   -1    0    0    0    0  0.00000000000E+00  0.00000000000E+00  0.45593999997E+02  0.45594000000E+02  0.51100000000E-03 0. -1.
         11   -1    0    0    0    0 -0.00000000000E+00 -0.00000000000E+00 -0.45593999997E+02  0.45594000000E+02  0.51100000000E-03 0.  1.
    9900012    2    1    2    0    0 -0.31170921444E+02 -0.42704384153E+01 -0.51819633351E+01  0.59302019822E+02  0.50000138230E+02 0.  0.
         12    1    1    2    0    0  0.31170921444E+02  0.42704384153E+01  0.51819633351E+01  0.31885980178E+02  0.00000000000E+00 0. -1.
         11    1    3    3    0    0  0.69328935422E+01  0.17114462435E+01  0.30566226841E+01  0.77676897212E+01  0.51100000000E-03 0. -1.
        -11    1    3    3    0    0 -0.38175372895E+02 -0.15343993869E+02 -0.42666579325E+01  0.41364255266E+02  0.51100000000E-03 0.  1.
        -12    1    3    3    0    0  0.71557909252E-01  0.93621092104E+01 -0.39719280867E+01  0.10170074834E+02  0.00000000000E+00 0.  1.
</event>
<event>
 7    1  0.7819001E-012  0.5930195E+02  0.7816164E-02  0.1266605E+00
        -11   -1    0    0    0    0  0.00000000000E+00  0.00000000000E+00  0.45593999997E+02  0.45594000000E+02  0.51100000000E-03 0. -1.
         11   -1    0    0    0    0 -0.00000000000E+00 -0.00000000000E+00 -0.45593999997E+02  0.45594000000E+02  0.51100000000E-03 0.  1.
    9900012    2    1    2    0    0  0.11803689634E+02 -0.25534399749E+02 -0.15012910871E+02  0.59301950506E+02  0.50000011815E+02 0.  0.
         12    1    1    2    0    0 -0.11803689634E+02  0.25534399749E+02  0.15012910871E+02  0.31886049494E+02  0.00000000000E+00 0. -1.
         11    1    3    3    0    0  0.14872603906E+02 -0.28190427361E+01  0.12332384345E+02  0.19525087779E+02  0.51100000000E-03 0.  1.
        -11    1    3    3    0    0 -0.12292300526E+01 -0.15493075752E+02 -0.51644158426E+01  0.16377350031E+02  0.51100000000E-03 0. -1.
        -12    1    3    3    0    0 -0.18396842192E+01 -0.72222812613E+01 -0.22180879373E+02  0.23399512696E+02  0.00000000000E+00 0.  1.
</event>
<event>
 7    1  0.7819001E-012  0.5930192E+02  0.7816164E-02  0.1266605E+00
        -11   -1    0    0    0    0  0.00000000000E+00  0.00000000000E+00  0.45593999997E+02  0.45594000000E+02  0.51100000000E-03 0. -1.
         11   -1    0    0    0    0 -0.00000000000E+00 -0.00000000000E+00 -0.45593999997E+02  0.45594000000E+02  0.51100000000E-03 0.  1.
    9900012    2    1    2    0    0 -0.23869667331E+02 -0.13469810991E+02  0.16294937518E+02  0.59301924429E+02  0.49999964256E+02 0.  0.
         12    1    1    2    0    0  0.23869667331E+02  0.13469810991E+02 -0.16294937518E+02  0.31886075571E+02  0.00000000000E+00 0. -1.
         11    1    3    3    0    0 -0.11147242984E+02 -0.79841241643E+01  0.14237719249E+02  0.19766636398E+02  0.51100000000E-03 0. -1.
        -11    1    3    3    0    0 -0.41272836274E+01  0.15674560132E+02 -0.20224035990E+01  0.16334516278E+02  0.51100000000E-03 0.  1.
        -12    1    3    3    0    0 -0.85951407195E+01 -0.21160246958E+02  0.40796218681E+01  0.23200771753E+02  0.00000000000E+00 0.  1.
</event>
<event>
 7    1  0.7819001E-012  0.5930198E+02  0.7816164E-02  0.1266605E+00
        -11   -1    0    0    0    0  0.00000000000E+00  0.00000000000E+00  0.45593999997E+02  0.45594000000E+02  0.51100000000E-03 0.  1.
         11   -1    0    0    0    0 -0.00000000000E+00 -0.00000000000E+00 -0.45593999997E+02  0.45594000000E+02  0.51100000000E-03 0. -1.
    9900012    2    1    2    0    0  0.11001477055E+02 -0.29103615890E+02  0.69760737054E+01  0.59301975481E+02  0.50000057363E+02 0.  0.
         12    1    1    2    0    0 -0.11001477055E+02  0.29103615890E+02 -0.69760737054E+01  0.31886024519E+02  0.00000000000E+00 0. -1.
         11    1    3    3    0    0 -0.39998175244E+00  0.29298517004E+01  0.21499241126E+02  0.21701644768E+02  0.51100000000E-03 0.  1.
        -11    1    3    3    0    0  0.47352099559E+01 -0.66451291166E+01 -0.14927710890E+01  0.82950780640E+01  0.51100000000E-03 0. -1.
         12    1    3    3    0    0  0.66662488512E+01 -0.25388338474E+02 -0.13030396332E+02  0.29305252649E+02  0.00000000000E+00 0. -1.
</event>
<event>
 7    1  0.7819001E-012  0.5930186E+02  0.7816164E-02  0.1266605E+00
        -11   -1    0    0    0    0  0.00000000000E+00  0.00000000000E+00  0.45593999997E+02  0.45594000000E+02  0.51100000000E-03 0. -1.
         11   -1    0    0    0    0 -0.00000000000E+00 -0.00000000000E+00 -0.45593999997E+02  0.45594000000E+02  0.51100000000E-03 0.  1.
    9900012    2    1    2    0    0  0.18263986586E+02 -0.20608291390E+02 -0.16076417183E+02  0.59301857720E+02  0.49999842595E+02 0.  0.
         12    1    1    2    0    0 -0.18263986586E+02  0.20608291390E+02  0.16076417183E+02  0.31886142280E+02  0.00000000000E+00 0. -1.
         11    1    3    3    0    0  0.26894942613E+02 -0.29934155509E+02 -0.13704238648E+02  0.42511148672E+02  0.51100000000E-03 0. -1.
        -11    1    3    3    0    0 -0.54977423392E+01 -0.16558943638E+00  0.20381326598E+01  0.58657118656E+01  0.51100000000E-03 0.  1.
         12    1    3    3    0    0 -0.31332136871E+01  0.94914535556E+01 -0.44103111948E+01  0.10924997183E+02  0.00000000000E+00 0. -1.
</event>
<event>
 7    1  0.7819001E-012  0.5930194E+02  0.7816164E-02  0.1266605E+00
        -11   -1    0    0    0    0  0.00000000000E+00  0.00000000000E+00  0.45593999997E+02  0.45594000000E+02  0.51100000000E-03 0.  1.
         11   -1    0    0    0    0 -0.00000000000E+00 -0.00000000000E+00 -0.45593999997E+02  0.45594000000E+02  0.51100000000E-03 0. -1.
    9900012    2    1    2    0    0 -0.21945016676E+02  0.19796872935E+02 -0.11967483914E+02  0.59301943390E+02  0.49999998837E+02 0.  0.
         12    1    1    2    0    0  0.21945016676E+02 -0.19796872935E+02  0.11967483914E+02  0.31886056610E+02  0.00000000000E+00 0. -1.
         11    1    3    3    0    0 -0.24815808557E+02  0.23493367373E+02 -0.71677847549E+01  0.34916182543E+02  0.51100000000E-03 0. -1.
        -11    1    3    3    0    0  0.39311419158E+01  0.27592307615E+01  0.83873071214E+01  0.96650996977E+01  0.51100000000E-03 0.  1.
         12    1    3    3    0    0 -0.10603500350E+01 -0.64557251991E+01 -0.13187006280E+02  0.14720661149E+02  0.00000000000E+00 0. -1.
</event>
<event>
 7    1  0.7819001E-012  0.5930192E+02  0.7816164E-02  0.1266605E+00
        -11   -1    0    0    0    0  0.00000000000E+00  0.00000000000E+00  0.45593999997E+02  0.45594000000E+02  0.51100000000E-03 0. -1.
         11   -1    0    0    0    0 -0.00000000000E+00 -0.00000000000E+00 -0.45593999997E+02  0.45594000000E+02  0.51100000000E-03 0.  1.
    9900012    2    1    2    0    0 -0.21113527098E+02  0.95509312249E+01 -0.21902535120E+02  0.59301915912E+02  0.49999948724E+02 0.  0.
         12    1    1    2    0    0  0.21113527098E+02 -0.95509312249E+01  0.21902535120E+02  0.31886084088E+02  0.00000000000E+00 0. -1.
         11    1    3    3    0    0  0.25190860448E+01  0.67969191396E+01  0.11847000254E+02  0.13888675947E+02  0.51100000000E-03 0. -1.
        -11    1    3    3    0    0 -0.94555541570E+01  0.79245721713E+01 -0.25227633436E+02  0.28082732017E+02  0.51100000000E-03 0.  1.
         12    1    3    3    0    0 -0.14177058986E+02 -0.51705600859E+01 -0.85219019381E+01  0.17330507948E+02  0.00000000000E+00 0. -1.
</event>
<event>
 7    1  0.7819001E-012  0.5930195E+02  0.7816164E-02  0.1266605E+00
        -11   -1    0    0    0    0  0.00000000000E+00  0.00000000000E+00  0.45593999997E+02  0.45594000000E+02  0.51100000000E-03 0.  1.
         11   -1    0    0    0    0 -0.00000000000E+00 -0.00000000000E+00 -0.45593999997E+02  0.45594000000E+02  0.51100000000E-03 0. -1.
    9900012    2    1    2    0    0  0.26037759569E+02 -0.13678810835E+02 -0.12314450752E+02  0.59301945265E+02  0.50000002257E+02 0.  0.
         12    1    1    2    0    0 -0.26037759569E+02  0.13678810835E+02  0.12314450752E+02  0.31886054735E+02  0.00000000000E+00 0. -1.
         11    1    3    3    0    0  0.24137007533E+02  0.72386852663E+01 -0.86726024533E+01  0.26649722899E+02  0.51100000000E-03 0. -1.
        -11    1    3    3    0    0  0.51287362809E+01 -0.19781803424E+02  0.68996964036E+01  0.21569179244E+02  0.51100000000E-03 0.  1.
         12    1    3    3    0    0 -0.32279842444E+01 -0.11356926774E+01 -0.10541544703E+02  0.11083043122E+02  0.00000000000E+00 0. -1.
</event>
<event>
 7    1  0.7819001E-012  0.5930195E+02  0.7816164E-02  0.1266605E+00
        -11   -1    0    0    0    0  0.00000000000E+00  0.00000000000E+00  0.45593999997E+02  0.45594000000E+02  0.51100000000E-03 0.  1.
         11   -1    0    0    0    0 -0.00000000000E+00 -0.00000000000E+00 -0.45593999997E+02  0.45594000000E+02  0.51100000000E-03 0. -1.
    9900012    2    1    2    0    0 -0.27984269969E+02 -0.67024593292E+01  0.13735998393E+02  0.59301953230E+02  0.50000016784E+02 0.  0.
         12    1    1    2    0    0  0.27984269969E+02  0.67024593292E+01 -0.13735998393E+02  0.31886046770E+02  0.00000000000E+00 0. -1.
         11    1    3    3    0    0 -0.10667202630E+02 -0.14075436389E+02  0.12785774882E+01  0.17707113885E+02  0.51100000000E-03 0. -1.
        -11    1    3    3    0    0  0.94840621251E+01  0.42892596917E+01 -0.25595404764E+01  0.10718975268E+02  0.51100000000E-03 0.  1.
        -12    1    3    3    0    0 -0.26801129464E+02  0.30837173684E+01  0.15016961381E+02  0.30875864077E+02  0.00000000000E+00 0.  1.
</event>
<event>
 7    1  0.7819001E-012  0.5930182E+02  0.7816164E-02  0.1266605E+00
        -11   -1    0    0    0    0  0.00000000000E+00  0.00000000000E+00  0.45593999997E+02  0.45594000000E+02  0.51100000000E-03 0. -1.
         11   -1    0    0    0    0 -0.00000000000E+00 -0.00000000000E+00 -0.45593999997E+02  0.45594000000E+02  0.51100000000E-03 0.  1.
    9900012    2    1    2    0    0  0.15422833907E+02  0.22993452601E+02 -0.15816639041E+02  0.59301815863E+02  0.49999766258E+02 0.  0.
         12    1    1    2    0    0 -0.15422833907E+02 -0.22993452601E+02  0.15816639041E+02  0.31886184137E+02  0.00000000000E+00 0. -1.
         11    1    3    3    0    0 -0.13395379392E+01  0.37767045162E+01  0.56290137927E+01  0.69096783885E+01  0.51100000000E-03 0. -1.
        -11    1    3    3    0    0  0.21531591526E+02  0.29358834588E+02 -0.18317131530E+02  0.40756200875E+02  0.51100000000E-03 0.  1.
        -12    1    3    3    0    0 -0.47692196798E+01 -0.10142086503E+02 -0.31285213036E+01  0.11635936599E+02  0.00000000000E+00 0.  1.
</event>
<event>
 7    1  0.7819001E-012  0.5930195E+02  0.7816164E-02  0.1266605E+00
        -11   -1    0    0    0    0  0.00000000000E+00  0.00000000000E+00  0.45593999997E+02  0.45594000000E+02  0.51100000000E-03 0.  1.
         11   -1    0    0    0    0 -0.00000000000E+00 -0.00000000000E+00 -0.45593999997E+02  0.45594000000E+02  0.51100000000E-03 0. -1.
    9900012    2    1    2    0    0  0.92596124978E+01 -0.28307005964E+02  0.11388282753E+02  0.59301952983E+02  0.50000016333E+02 0.  0.
         12    1    1    2    0    0 -0.92596124978E+01  0.28307005964E+02 -0.11388282753E+02  0.31886047017E+02  0.00000000000E+00 0. -1.
         11    1    3    3    0    0  0.14092754414E+02 -0.27753349777E+02  0.96592134971E+01  0.32590712733E+02  0.51100000000E-03 0. -1.
        -11    1    3    3    0    0 -0.67082289356E+01  0.33415637551E+01 -0.10976151526E+02  0.13290684195E+02  0.51100000000E-03 0.  1.
        -12    1    3    3    0    0  0.18750870198E+01 -0.38952199428E+01  0.12705220782E+02  0.13420556056E+02  0.00000000000E+00 0.  1.
</event>
<event>
 7    1  0.7819001E-012  0.5930225E+02  0.7816164E-02  0.1266604E+00
        -11   -1    0    0    0    0  0.00000000000E+00  0.00000000000E+00  0.45593999997E+02  0.45594000000E+02  0.51100000000E-03 0.  1.
         11   -1    0    0    0    0 -0.00000000000E+00 -0.00000000000E+00 -0.45593999997E+02  0.45594000000E+02  0.51100000000E-03 0. -1.
    9900012    2    1    2    0    0  0.27895967046E+02  0.15039363122E+02  0.35119236157E+01  0.59302250392E+02  0.50000558732E+02 0.  0.
         12    1    1    2    0    0 -0.27895967046E+02 -0.15039363122E+02 -0.35119236157E+01  0.31885749608E+02  0.00000000000E+00 0. -1.
         11    1    3    3    0    0  0.90042078954E+01  0.21176541716E+02  0.43307471539E+01  0.23415316569E+02  0.51100000000E-03 0. -1.
        -11    1    3    3    0    0  0.63887842901E+01 -0.43876265491E+01  0.14254369846E+02  0.16225131476E+02  0.51100000000E-03 0.  1.
         12    1    3    3    0    0  0.12502974861E+02 -0.17495520442E+01 -0.15073193385E+02  0.19661802347E+02  0.00000000000E+00 0. -1.
</event>
<event>
 7    1  0.7819001E-012  0.5930194E+02  0.7816164E-02  0.1266605E+00
        -11   -1    0    0    0    0  0.00000000000E+00  0.00000000000E+00  0.45593999997E+02  0.45594000000E+02  0.51100000000E-03 0.  1.
         11   -1    0    0    0    0 -0.00000000000E+00 -0.00000000000E+00 -0.45593999997E+02  0.45594000000E+02  0.51100000000E-03 0. -1.
    9900012    2    1    2    0    0  0.19846434254E+02 -0.14003380813E+02  0.20657813530E+02  0.59301938992E+02  0.49999990815E+02 0.  0.
         12    1    1    2    0    0 -0.19846434254E+02  0.14003380813E+02 -0.20657813530E+02  0.31886061008E+02  0.00000000000E+00 0. -1.
         11    1    3    3    0    0  0.19447065654E+02  0.38712856932E+01  0.19114462351E+02  0.27541566526E+02  0.51100000000E-03 0. -1.
        -11    1    3    3    0    0 -0.88659309163E+01 -0.17111605036E+02  0.75432474932E+01  0.20695708273E+02  0.51100000000E-03 0.  1.
         12    1    3    3    0    0  0.92652995162E+01 -0.76306147092E+00 -0.59998963139E+01  0.11064664193E+02  0.00000000000E+00 0. -1.
</event>
<event>
 7    1  0.7819001E-012  0.5930194E+02  0.7816164E-02  0.1266605E+00
        -11   -1    0    0    0    0  0.00000000000E+00  0.00000000000E+00  0.45593999997E+02  0.45594000000E+02  0.51100000000E-03 0.  1.
         11   -1    0    0    0    0 -0.00000000000E+00 -0.00000000000E+00 -0.45593999997E+02  0.45594000000E+02  0.51100000000E-03 0. -1.
    9900012    2    1    2    0    0  0.55323003627E+00  0.30990326833E+02  0.74842670935E+01  0.59301942316E+02  0.49999996878E+02 0.  0.
         12    1    1    2    0    0 -0.55323003627E+00 -0.30990326833E+02 -0.74842670935E+01  0.31886057684E+02  0.00000000000E+00 0. -1.
         11    1    3    3    0    0 -0.15777345855E+02  0.52777331617E+01  0.14383040202E+02  0.21992065735E+02  0.51100000000E-03 0. -1.
        -11    1    3    3    0    0  0.79429248786E+01  0.26461953037E+02 -0.81290634432E+01  0.28799421642E+02  0.51100000000E-03 0.  1.
         12    1    3    3    0    0  0.83876510130E+01 -0.74935936554E+00  0.12302903350E+01  0.85104549398E+01  0.00000000000E+00 0. -1.
</event>
<event>
 7    1  0.7819001E-012  0.5930196E+02  0.7816164E-02  0.1266605E+00
        -11   -1    0    0    0    0  0.00000000000E+00  0.00000000000E+00  0.45593999997E+02  0.45594000000E+02  0.51100000000E-03 0. -1.
         11   -1    0    0    0    0 -0.00000000000E+00 -0.00000000000E+00 -0.45593999997E+02  0.45594000000E+02  0.51100000000E-03 0.  1.
    9900012    2    1    2    0    0  0.25274508483E+02 -0.14911749750E+02  0.12472315448E+02  0.59301957406E+02  0.50000024398E+02 0.  0.
         12    1    1    2    0    0 -0.25274508483E+02  0.14911749750E+02 -0.12472315448E+02  0.31886042594E+02  0.00000000000E+00 0. -1.
         11    1    3    3    0    0 -0.63212623444E+01  0.11997741510E+02  0.49557563554E+01  0.14438271374E+02  0.51100000000E-03 0. -1.
        -11    1    3    3    0    0  0.17776297569E+02 -0.75198342987E+01 -0.16000512009E+01  0.19367623170E+02  0.51100000000E-03 0.  1.
         12    1    3    3    0    0  0.13819473259E+02 -0.19389656961E+02  0.91166102930E+01  0.25496062862E+02  0.00000000000E+00 0. -1.
</event>
<event>
 7    1  0.7819001E-012  0.5930199E+02  0.7816164E-02  0.1266605E+00
        -11   -1    0    0    0    0  0.00000000000E+00  0.00000000000E+00  0.45593999997E+02  0.45594000000E+02  0.51100000000E-03 0.  1.
         11   -1    0    0    0    0 -0.00000000000E+00 -0.00000000000E+00 -0.45593999997E+02  0.45594000000E+02  0.51100000000E-03 0. -1.
    9900012    2    1    2    0    0  0.28763290132E+02 -0.38766090538E+01  0.13204652935E+02  0.59301987140E+02  0.50000078626E+02 0.  0.
         12    1    1    2    0    0 -0.28763290132E+02  0.38766090538E+01 -0.13204652935E+02  0.31886012860E+02  0.00000000000E+00 0. -1.
         11    1    3    3    0    0  0.86676345437E+00 -0.57874015845E+01 -0.16862333710E+01  0.60900475555E+01  0.51100000000E-03 0. -1.
        -11    1    3    3    0    0  0.19805379493E+02  0.33059010706E+01  0.29951113804E+02  0.36058996896E+02  0.51100000000E-03 0.  1.
        -12    1    3    3    0    0  0.80911471846E+01 -0.13951085398E+01 -0.15060227498E+02  0.17152942689E+02  0.00000000000E+00 0.  1.
</event>
<event>
 7    1  0.7819001E-012  0.5930189E+02  0.7816164E-02  0.1266605E+00
        -11   -1    0    0    0    0  0.00000000000E+00  0.00000000000E+00  0.45593999997E+02  0.45594000000E+02  0.51100000000E-03 0. -1.
         11   -1    0    0    0    0 -0.00000000000E+00 -0.00000000000E+00 -0.45593999997E+02  0.45594000000E+02  0.51100000000E-03 0.  1.
    9900012    2    1    2    0    0  0.81887021010E+01  0.19514762089E+02 -0.23850430984E+02  0.59301892686E+02  0.49999906366E+02 0.  0.
         12    1    1    2    0    0 -0.81887021010E+01 -0.19514762089E+02  0.23850430984E+02  0.31886107314E+02  0.00000000000E+00 0. -1.
         11    1    3    3    0    0  0.49158226231E+01 -0.13095320046E+02 -0.19194777830E+02  0.23750625579E+02  0.51100000000E-03 0.  1.
        -11    1    3    3    0    0  0.27373542832E+01  0.24270582989E+02  0.24966674117E+01  0.24551734267E+02  0.51100000000E-03 0. -1.
         12    1    3    3    0    0  0.53552519480E+00  0.83394991463E+01 -0.71523205655E+01  0.10999532841E+02  0.00000000000E+00 0. -1.
</event>
<event>
 7    1  0.7819001E-012  0.5930198E+02  0.7816164E-02  0.1266605E+00
        -11   -1    0    0    0    0  0.00000000000E+00  0.00000000000E+00  0.45593999997E+02  0.45594000000E+02  0.51100000000E-03 0. -1.
         11   -1    0    0    0    0 -0.00000000000E+00 -0.00000000000E+00 -0.45593999997E+02  0.45594000000E+02  0.51100000000E-03 0.  1.
    9900012    2    1    2    0    0  0.26567048410E+02  0.21456894280E+01 -0.17501603315E+02  0.59301981702E+02  0.50000068708E+02 0.  0.
         12    1    1    2    0    0 -0.26567048410E+02 -0.21456894280E+01  0.17501603315E+02  0.31886018298E+02  0.00000000000E+00 0. -1.
         11    1    3    3    0    0  0.22358529819E+02 -0.13477709519E+02 -0.23039798946E+02  0.34819317129E+02  0.51100000000E-03 0. -1.
        -11    1    3    3    0    0  0.57232870119E+01  0.16968762683E+02 -0.70211875740E+00  0.17921715661E+02  0.51100000000E-03 0.  1.
         12    1    3    3    0    0 -0.15147684214E+01 -0.13453637366E+01  0.62403143888E+01  0.65609489119E+01  0.00000000000E+00 0. -1.
</event>
<event>
 7    1  0.7819001E-012  0.5930195E+02  0.7816164E-02  0.1266605E+00
        -11   -1    0    0    0    0  0.00000000000E+00  0.00000000000E+00  0.45593999997E+02  0.45594000000E+02  0.51100000000E-03 0. -1.
         11   -1    0    0    0    0 -0.00000000000E+00 -0.00000000000E+00 -0.45593999997E+02  0.45594000000E+02  0.51100000000E-03 0.  1.
    9900012    2    1    2    0    0  0.14234209135E+02 -0.24039956782E+02  0.15368415176E+02  0.59301946359E+02  0.50000004252E+02 0.  0.
         12    1    1    2    0    0 -0.14234209135E+02  0.24039956782E+02 -0.15368415176E+02  0.31886053641E+02  0.00000000000E+00 0. -1.
         11    1    3    3    0    0 -0.69060673834E+01 -0.77461290790E+01  0.10346011067E+02  0.14653880977E+02  0.51100000000E-03 0. -1.
        -11    1    3    3    0    0  0.31654120390E+01  0.66245723956E+01 -0.95770503806E+01  0.12067505420E+02  0.51100000000E-03 0.  1.
        -12    1    3    3    0    0  0.17974864479E+02 -0.22918400098E+02  0.14599454489E+02  0.32580559963E+02  0.00000000000E+00 0.  1.
</event>
<event>
 7    1  0.7819001E-012  0.5930194E+02  0.7816164E-02  0.1266605E+00
        -11   -1    0    0    0    0  0.00000000000E+00  0.00000000000E+00  0.45593999997E+02  0.45594000000E+02  0.51100000000E-03 0. -1.
         11   -1    0    0    0    0 -0.00000000000E+00 -0.00000000000E+00 -0.45593999997E+02  0.45594000000E+02  0.51100000000E-03 0.  1.
    9900012    2    1    2    0    0 -0.47980289064E+01 -0.29908043717E+02 -0.99603520858E+01  0.59301940757E+02  0.49999994035E+02 0.  0.
         12    1    1    2    0    0  0.47980289064E+01  0.29908043717E+02  0.99603520858E+01  0.31886059243E+02  0.00000000000E+00 0. -1.
         11    1    3    3    0    0  0.34207676976E+01 -0.10176334266E+01  0.13628988301E+02  0.14088525537E+02  0.51100000000E-03 0. -1.
        -11    1    3    3    0    0 -0.99144900709E+01 -0.14016013151E+02 -0.24834450384E+02  0.30190986472E+02  0.51100000000E-03 0.  1.
        -12    1    3    3    0    0  0.16956934669E+01 -0.14874397139E+02  0.12451099964E+01  0.15022428748E+02  0.00000000000E+00 0.  1.
</event>
<event>
 7    1  0.7819001E-012  0.5930195E+02  0.7816164E-02  0.1266605E+00
        -11   -1    0    0    0    0  0.00000000000E+00  0.00000000000E+00  0.45593999997E+02  0.45594000000E+02  0.51100000000E-03 0. -1.
         11   -1    0    0    0    0 -0.00000000000E+00 -0.00000000000E+00 -0.45593999997E+02  0.45594000000E+02  0.51100000000E-03 0.  1.
    9900012    2    1    2    0    0 -0.28080371281E+02 -0.69418238220E+01  0.13417313964E+02  0.59301945317E+02  0.50000002352E+02 0.  0.
         12    1    1    2    0    0  0.28080371281E+02  0.69418238220E+01 -0.13417313964E+02  0.31886054683E+02  0.00000000000E+00 0. -1.
         11    1    3    3    0    0 -0.10890286586E+02  0.13440424723E+02 -0.84198507029E+01  0.19238951239E+02  0.51100000000E-03 0. -1.
        -11    1    3    3    0    0  0.18867746535E+01 -0.71159471653E+01 -0.10637134013E+01  0.74382867055E+01  0.51100000000E-03 0.  1.
         12    1    3    3    0    0 -0.19076859348E+02 -0.13266301380E+02  0.22900878068E+02  0.32624707373E+02  0.00000000000E+00 0. -1.
</event>
<event>
 7    1  0.7819001E-012  0.5930195E+02  0.7816164E-02  0.1266605E+00
        -11   -1    0    0    0    0  0.00000000000E+00  0.00000000000E+00  0.45593999997E+02  0.45594000000E+02  0.51100000000E-03 0.  1.
         11   -1    0    0    0    0 -0.00000000000E+00 -0.00000000000E+00 -0.45593999997E+02  0.45594000000E+02  0.51100000000E-03 0. -1.
    9900012    2    1    2    0    0  0.85253367007E+01 -0.32578955152E+01  0.30552005998E+02  0.59301947884E+02  0.50000007033E+02 0.  0.
         12    1    1    2    0    0 -0.85253367007E+01  0.32578955152E+01 -0.30552005998E+02  0.31886052116E+02  0.00000000000E+00 0. -1.
         11    1    3    3    0    0  0.96650106253E+01 -0.19423519399E+00 -0.10446593378E+02  0.14233111788E+02  0.51100000000E-03 0. -1.
        -11    1    3    3    0    0 -0.40831382264E+01  0.48751492766E+01  0.32337071342E+02  0.32956414876E+02  0.51100000000E-03 0.  1.
         12    1    3    3    0    0  0.29434643018E+01 -0.79388095978E+01  0.86615280344E+01  0.12112421220E+02  0.00000000000E+00 0. -1.
</event>
<event>
 7    1  0.7819001E-012  0.5930195E+02  0.7816164E-02  0.1266605E+00
        -11   -1    0    0    0    0  0.00000000000E+00  0.00000000000E+00  0.45593999997E+02  0.45594000000E+02  0.51100000000E-03 0. -1.
         11   -1    0    0    0    0 -0.00000000000E+00 -0.00000000000E+00 -0.45593999997E+02  0.45594000000E+02  0.51100000000E-03 0.  1.
    9900012    2    1    2    0    0  0.29280863396E+02  0.85708946464E+01  0.92677369806E+01  0.59301950621E+02  0.50000012024E+02 0.  0.
         12    1    1    2    0    0 -0.29280863396E+02 -0.85708946464E+01 -0.92677369806E+01  0.31886049379E+02  0.00000000000E+00 0. -1.
         11    1    3    3    0    0 -0.23546870452E+01  0.30408310269E+01 -0.10327045405E+01  0.39821706824E+01  0.51100000000E-03 0. -1.
        -11    1    3    3    0    0  0.34888669543E+02  0.19260696679E+02  0.46607799692E+01  0.40123765641E+02  0.51100000000E-03 0.  1.
        -12    1    3    3    0    0 -0.32531191021E+01 -0.13730633059E+02  0.56396615518E+01  0.15196014297E+02  0.00000000000E+00 0.  1.
</event>
<event>
 7    1  0.7819001E-012  0.5930207E+02  0.7816164E-02  0.1266604E+00
        -11   -1    0    0    0    0  0.00000000000E+00  0.00000000000E+00  0.45593999997E+02  0.45594000000E+02  0.51100000000E-03 0.  1.
         11   -1    0    0    0    0 -0.00000000000E+00 -0.00000000000E+00 -0.45593999997E+02  0.45594000000E+02  0.51100000000E-03 0. -1.
    9900012    2    1    2    0    0  0.22552251930E+01  0.20890378029E+02  0.23983719031E+02  0.59302067154E+02  0.50000224553E+02 0.  0.
         12    1    1    2    0    0 -0.22552251930E+01 -0.20890378029E+02 -0.23983719031E+02  0.31885932846E+02  0.00000000000E+00 0. -1.
         11    1    3    3    0    0  0.99745845757E+01  0.47578999541E+01  0.92668653155E+00  0.11090026944E+02  0.51100000000E-03 0. -1.
        -11    1    3    3    0    0 -0.18378332407E+02  0.17452107380E+02  0.30800486739E+01  0.25530880403E+02  0.51100000000E-03 0.  1.
        -12    1    3    3    0    0  0.10658973024E+02 -0.13196293050E+01  0.19976983825E+02  0.22681159807E+02  0.00000000000E+00 0.  1.
</event>
<event>
 7    1  0.7819001E-012  0.5930195E+02  0.7816164E-02  0.1266605E+00
        -11   -1    0    0    0    0  0.00000000000E+00  0.00000000000E+00  0.45593999997E+02  0.45594000000E+02  0.51100000000E-03 0.  1.
         11   -1    0    0    0    0 -0.00000000000E+00 -0.00000000000E+00 -0.45593999997E+02  0.45594000000E+02  0.51100000000E-03 0. -1.
    9900012    2    1    2    0    0 -0.18671838110E+02  0.84479705648E+01  0.24427738374E+02  0.59301950588E+02  0.50000011964E+02 0.  0.
         12    1    1    2    0    0  0.18671838110E+02 -0.84479705648E+01 -0.24427738374E+02  0.31886049412E+02  0.00000000000E+00 0. -1.
         11    1    3    3    0    0 -0.17183687659E+01  0.21577283624E+02  0.12891320042E+02  0.25193612137E+02  0.51100000000E-03 0. -1.
        -11    1    3    3    0    0 -0.20398582780E+02 -0.14041758442E+02  0.15151644923E+02  0.29031801593E+02  0.51100000000E-03 0.  1.
         12    1    3    3    0    0  0.34451134361E+01  0.91244538319E+00 -0.36152265913E+01  0.50765368581E+01  0.00000000000E+00 0. -1.
</event>
<event>
 7    1  0.7819001E-012  0.5930202E+02  0.7816164E-02  0.1266605E+00
        -11   -1    0    0    0    0  0.00000000000E+00  0.00000000000E+00  0.45593999997E+02  0.45594000000E+02  0.51100000000E-03 0.  1.
         11   -1    0    0    0    0 -0.00000000000E+00 -0.00000000000E+00 -0.45593999997E+02  0.45594000000E+02  0.51100000000E-03 0. -1.
    9900012    2    1    2    0    0 -0.31693512626E+02  0.33874820120E+01  0.87303568494E+00  0.59302016115E+02  0.50000131471E+02 0.  0.
         12    1    1    2    0    0  0.31693512626E+02 -0.33874820120E+01 -0.87303568494E+00  0.31885983885E+02  0.00000000000E+00 0. -1.
         11    1    3    3    0    0 -0.57385886420E+01  0.20480759375E+02  0.29241943910E+01  0.21469602168E+02  0.51100000000E-03 0.  1.
        -11    1    3    3    0    0 -0.26958138826E+02 -0.81121097925E+01 -0.44028027542E+01  0.28494424834E+02  0.51100000000E-03 0. -1.
         12    1    3    3    0    0  0.10032148421E+01 -0.89811675703E+01  0.23516440482E+01  0.93379891130E+01  0.00000000000E+00 0. -1.
</event>
<event>
 7    1  0.7819001E-012  0.5930196E+02  0.7816164E-02  0.1266605E+00
        -11   -1    0    0    0    0  0.00000000000E+00  0.00000000000E+00  0.45593999997E+02  0.45594000000E+02  0.51100000000E-03 0.  1.
         11   -1    0    0    0    0 -0.00000000000E+00 -0.00000000000E+00 -0.45593999997E+02  0.45594000000E+02  0.51100000000E-03 0. -1.
    9900012    2    1    2    0    0  0.37693220124E+01 -0.29986495268E+02  0.10164723632E+02  0.59301963975E+02  0.50000036378E+02 0.  0.
         12    1    1    2    0    0 -0.37693220124E+01  0.29986495268E+02 -0.10164723632E+02  0.31886036025E+02  0.00000000000E+00 0. -1.
         11    1    3    3    0    0 -0.46728324465E+01  0.28977599186E+01 -0.10265550140E+01  0.55934060354E+01  0.51100000000E-03 0. -1.
        -11    1    3    3    0    0 -0.37411632917E+01 -0.19460808357E+02  0.24286336505E+02  0.31345581918E+02  0.51100000000E-03 0.  1.
        -12    1    3    3    0    0  0.12183317751E+02 -0.13423446830E+02 -0.13095057859E+02  0.22362976021E+02  0.00000000000E+00 0.  1.
</event>
<event>
 7    1  0.7819001E-012  0.5930204E+02  0.7816164E-02  0.1266604E+00
        -11   -1    0    0    0    0  0.00000000000E+00  0.00000000000E+00  0.45593999997E+02  0.45594000000E+02  0.51100000000E-03 0.  1.
         11   -1    0    0    0    0 -0.00000000000E+00 -0.00000000000E+00 -0.45593999997E+02  0.45594000000E+02  0.51100000000E-03 0. -1.
    9900012    2    1    2    0    0 -0.88577248447E+01  0.24558464843E+02  0.18306742096E+02  0.59302042416E+02  0.50000179436E+02 0.  0.
         12    1    1    2    0    0  0.88577248447E+01 -0.24558464843E+02 -0.18306742096E+02  0.31885957584E+02  0.00000000000E+00 0. -1.
         11    1    3    3    0    0 -0.26253587719E+02  0.17445688441E+02  0.20012924699E+02  0.37337917303E+02  0.51100000000E-03 0.  1.
        -11    1    3    3    0    0  0.18645018349E+02  0.64502394908E+01  0.24530563426E-01  0.19729239741E+02  0.51100000000E-03 0. -1.
         12    1    3    3    0    0 -0.12491554754E+01  0.66253691163E+00 -0.17307131664E+01  0.22348853718E+01  0.00000000000E+00 0. -1.
</event>
<event>
 7    1  0.7819001E-012  0.5930196E+02  0.7816164E-02  0.1266605E+00
        -11   -1    0    0    0    0  0.00000000000E+00  0.00000000000E+00  0.45593999997E+02  0.45594000000E+02  0.51100000000E-03 0. -1.
         11   -1    0    0    0    0 -0.00000000000E+00 -0.00000000000E+00 -0.45593999997E+02  0.45594000000E+02  0.51100000000E-03 0.  1.
    9900012    2    1    2    0    0  0.99056293438E+01  0.20492278622E+02 -0.22330798454E+02  0.59301960180E+02  0.50000029458E+02 0.  0.
         12    1    1    2    0    0 -0.99056293438E+01 -0.20492278622E+02  0.22330798454E+02  0.31886039820E+02  0.00000000000E+00 0. -1.
         11    1    3    3    0    0  0.24481755283E+02 -0.13117772904E+01 -0.18190145461E+02  0.30527995243E+02  0.51100000000E-03 0. -1.
        -11    1    3    3    0    0 -0.58617403914E+01  0.15106746039E+02 -0.66248346900E+01  0.17506062128E+02  0.51100000000E-03 0.  1.
         12    1    3    3    0    0 -0.87143855476E+01  0.66973098735E+01  0.24841816974E+01  0.11267902809E+02  0.00000000000E+00 0. -1.
</event>
<event>
 7    1  0.7819001E-012  0.5930205E+02  0.7816164E-02  0.1266604E+00
        -11   -1    0    0    0    0  0.00000000000E+00  0.00000000000E+00  0.45593999997E+02  0.45594000000E+02  0.51100000000E-03 0.  1.
         11   -1    0    0    0    0 -0.00000000000E+00 -0.00000000000E+00 -0.45593999997E+02  0.45594000000E+02  0.51100000000E-03 0. -1.
    9900012    2    1    2    0    0  0.73220530286E+01  0.10790571475E+02  0.29097502484E+02  0.59302054129E+02  0.50000200798E+02 0.  0.
         12    1    1    2    0    0 -0.73220530286E+01 -0.10790571475E+02 -0.29097502484E+02  0.31885945871E+02  0.00000000000E+00 0. -1.
         11    1    3    3    0    0 -0.47781875389E+01  0.95536804985E+01  0.79627904876E+01  0.13323284874E+02  0.51100000000E-03 0. -1.
        -11    1    3    3    0    0  0.22311965974E+02 -0.11000621530E+02  0.12204142599E+02  0.27708818028E+02  0.51100000000E-03 0.  1.
        -12    1    3    3    0    0 -0.10211725406E+02  0.12237512506E+02  0.89305693971E+01  0.18269951228E+02  0.00000000000E+00 0.  1.
</event>
<event>
 7    1  0.7819001E-012  0.5930194E+02  0.7816164E-02  0.1266605E+00
        -11   -1    0    0    0    0  0.00000000000E+00  0.00000000000E+00  0.45593999997E+02  0.45594000000E+02  0.51100000000E-03 0.  1.
         11   -1    0    0    0    0 -0.00000000000E+00 -0.00000000000E+00 -0.45593999997E+02  0.45594000000E+02  0.51100000000E-03 0. -1.
    9900012    2    1    2    0    0 -0.67869434533E+01  0.34682177754E+01  0.30961740541E+02  0.59301944846E+02  0.50000001492E+02 0.  0.
         12    1    1    2    0    0  0.67869434533E+01 -0.34682177754E+01 -0.30961740541E+02  0.31886055154E+02  0.00000000000E+00 0. -1.
         11    1    3    3    0    0 -0.81469553371E+01 -0.16842166746E+02 -0.19186574223E+01  0.18807251488E+02  0.51100000000E-03 0. -1.
        -11    1    3    3    0    0  0.51168750207E+01  0.30404888473E+01  0.77555703152E+01  0.97762903795E+01  0.51100000000E-03 0.  1.
         12    1    3    3    0    0 -0.37568631369E+01  0.17269895674E+02  0.25124827648E+02  0.30718402979E+02  0.00000000000E+00 0. -1.
</event>
<event>
 7    1  0.7819001E-012  0.5930195E+02  0.7816164E-02  0.1266605E+00
        -11   -1    0    0    0    0  0.00000000000E+00  0.00000000000E+00  0.45593999997E+02  0.45594000000E+02  0.51100000000E-03 0.  1.
         11   -1    0    0    0    0 -0.00000000000E+00 -0.00000000000E+00 -0.45593999997E+02  0.45594000000E+02  0.51100000000E-03 0. -1.
    9900012    2    1    2    0    0 -0.13627837867E+02  0.33523820296E+01 -0.28631521872E+02  0.59301945448E+02  0.50000002590E+02 0.  0.
         12    1    1    2    0    0  0.13627837867E+02 -0.33523820296E+01  0.28631521872E+02  0.31886054552E+02  0.00000000000E+00 0. -1.
         11    1    3    3    0    0  0.29749109325E+00 -0.56812970484E-01 -0.29775389313E+01  0.29929027737E+01  0.51100000000E-03 0. -1.
        -11    1    3    3    0    0 -0.13034489952E+02 -0.14354549309E+02  0.57448387562E+01  0.20222615725E+02  0.51100000000E-03 0.  1.
        -12    1    3    3    0    0 -0.89083900861E+00  0.17763744309E+02 -0.31398821697E+02  0.36086426949E+02  0.00000000000E+00 0.  1.
</event>
<event>
 7    1  0.7819001E-012  0.5930193E+02  0.7816164E-02  0.1266605E+00
        -11   -1    0    0    0    0  0.00000000000E+00  0.00000000000E+00  0.45593999997E+02  0.45594000000E+02  0.51100000000E-03 0.  1.
         11   -1    0    0    0    0 -0.00000000000E+00 -0.00000000000E+00 -0.45593999997E+02  0.45594000000E+02  0.51100000000E-03 0. -1.
    9900012    2    1    2    0    0  0.49252435590E+01 -0.23297229575E+02  0.21206190831E+02  0.59301930008E+02  0.49999974431E+02 0.  0.
         12    1    1    2    0    0 -0.49252435590E+01  0.23297229575E+02 -0.21206190831E+02  0.31886069992E+02  0.00000000000E+00 0. -1.
         11    1    3    3    0    0 -0.22848147803E+01 -0.31577478775E+02  0.10546998028E+02  0.33370596518E+02  0.51100000000E-03 0. -1.
        -11    1    3    3    0    0 -0.14484556074E+01  0.10125967778E+02  0.13220039702E+02  0.16715343164E+02  0.51100000000E-03 0.  1.
         12    1    3    3    0    0  0.86585139467E+01 -0.18457185786E+01 -0.25608468992E+01  0.92159903254E+01  0.00000000000E+00 0. -1.
</event>
<event>
 7    1  0.7819001E-012  0.5930194E+02  0.7816164E-02  0.1266605E+00
        -11   -1    0    0    0    0  0.00000000000E+00  0.00000000000E+00  0.45593999997E+02  0.45594000000E+02  0.51100000000E-03 0.  1.
         11   -1    0    0    0    0 -0.00000000000E+00 -0.00000000000E+00 -0.45593999997E+02  0.45594000000E+02  0.51100000000E-03 0. -1.
    9900012    2    1    2    0    0  0.21847282979E+02  0.39045200677E+01  0.22894792038E+02  0.59301944223E+02  0.50000000357E+02 0.  0.
         12    1    1    2    0    0 -0.21847282979E+02 -0.39045200677E+01 -0.22894792038E+02  0.31886055777E+02  0.00000000000E+00 0. -1.
         11    1    3    3    0    0  0.65739855652E+01  0.21631662293E+02  0.14577732493E+02  0.26900862155E+02  0.51100000000E-03 0. -1.
        -11    1    3    3    0    0  0.14041490211E+02 -0.14992765837E+02 -0.29406460184E+01  0.20750755988E+02  0.51100000000E-03 0.  1.
         12    1    3    3    0    0  0.12318072025E+01 -0.27343763884E+01  0.11257705564E+02  0.11650326081E+02  0.00000000000E+00 0. -1.
</event>
<event>
 7    1  0.7819001E-012  0.5930194E+02  0.7816164E-02  0.1266605E+00
        -11   -1    0    0    0    0  0.00000000000E+00  0.00000000000E+00  0.45593999997E+02  0.45594000000E+02  0.51100000000E-03 0. -1.
         11   -1    0    0    0    0 -0.00000000000E+00 -0.00000000000E+00 -0.45593999997E+02  0.45594000000E+02  0.51100000000E-03 0.  1.
    9900012    2    1    2    0    0 -0.15360810683E+02 -0.26369254865E+02 -0.92427678882E+01  0.59301939328E+02  0.49999991428E+02 0.  0.
         12    1    1    2    0    0  0.15360810683E+02  0.26369254865E+02  0.92427678882E+01  0.31886060672E+02  0.00000000000E+00 0. -1.
         11    1    3    3    0    0 -0.12294983414E+02 -0.27300541657E+02 -0.44468445668E+01  0.30269797138E+02  0.51100000000E-03 0. -1.
        -11    1    3    3    0    0 -0.84126407727E+01  0.26176527019E+01 -0.14996091921E+02  0.17392739968E+02  0.51100000000E-03 0.  1.
         12    1    3    3    0    0  0.53468135032E+01 -0.16863659092E+01  0.10200168599E+02  0.11639402221E+02  0.00000000000E+00 0. -1.
</event>
<event>
 7    1  0.7819001E-012  0.5930194E+02  0.7816164E-02  0.1266605E+00
        -11   -1    0    0    0    0  0.00000000000E+00  0.00000000000E+00  0.45593999997E+02  0.45594000000E+02  0.51100000000E-03 0.  1.
         11   -1    0    0    0    0 -0.00000000000E+00 -0.00000000000E+00 -0.45593999997E+02  0.45594000000E+02  0.51100000000E-03 0. -1.
    9900012    2    1    2    0    0  0.48171811070E+01  0.30006722205E+02  0.96494557561E+01  0.59301943365E+02  0.49999998792E+02 0.  0.
         12    1    1    2    0    0 -0.48171811070E+01 -0.30006722205E+02 -0.96494557561E+01  0.31886056635E+02  0.00000000000E+00 0. -1.
         11    1    3    3    0    0 -0.71278196841E+01  0.40719383762E+01  0.67126596974E+01  0.10604069788E+02  0.51100000000E-03 0. -1.
        -11    1    3    3    0    0  0.22133311076E+02  0.28499790655E+02  0.81130583527E+01  0.36985716739E+02  0.51100000000E-03 0.  1.
        -12    1    3    3    0    0 -0.10188310285E+02 -0.25650068259E+01 -0.51762622941E+01  0.11712156839E+02  0.00000000000E+00 0.  1.
</event>
<event>
 7    1  0.7819001E-012  0.5930193E+02  0.7816164E-02  0.1266605E+00
        -11   -1    0    0    0    0  0.00000000000E+00  0.00000000000E+00  0.45593999997E+02  0.45594000000E+02  0.51100000000E-03 0.  1.
         11   -1    0    0    0    0 -0.00000000000E+00 -0.00000000000E+00 -0.45593999997E+02  0.45594000000E+02  0.51100000000E-03 0. -1.
    9900012    2    1    2    0    0 -0.24427026248E+02  0.12613199331E+02  0.16153914676E+02  0.59301931443E+02  0.49999977048E+02 0.  0.
         12    1    1    2    0    0  0.24427026248E+02 -0.12613199331E+02 -0.16153914676E+02  0.31886068557E+02  0.00000000000E+00 0. -1.
         11    1    3    3    0    0 -0.42929866156E+01  0.21389368926E+02 -0.50099908047E+01  0.22383807658E+02  0.51100000000E-03 0. -1.
        -11    1    3    3    0    0 -0.36394458050E+01  0.38625139418E+01  0.13943712247E+02  0.14919507069E+02  0.51100000000E-03 0.  1.
         12    1    3    3    0    0 -0.16494593827E+02 -0.12638683537E+02  0.72201932338E+01  0.21998616716E+02  0.00000000000E+00 0. -1.
</event>
<event>
 7    1  0.7819001E-012  0.5930197E+02  0.7816164E-02  0.1266605E+00
        -11   -1    0    0    0    0  0.00000000000E+00  0.00000000000E+00  0.45593999997E+02  0.45594000000E+02  0.51100000000E-03 0.  1.
         11   -1    0    0    0    0 -0.00000000000E+00 -0.00000000000E+00 -0.45593999997E+02  0.45594000000E+02  0.51100000000E-03 0. -1.
    9900012    2    1    2    0    0 -0.10856318172E+02  0.60045818497E+01  0.29373534719E+02  0.59301965607E+02  0.50000039355E+02 0.  0.
         12    1    1    2    0    0  0.10856318172E+02 -0.60045818497E+01 -0.29373534719E+02  0.31886034393E+02  0.00000000000E+00 0. -1.
         11    1    3    3    0    0 -0.13829101187E+02  0.25880598267E+02  0.18853565174E+02  0.34878450744E+02  0.51100000000E-03 0. -1.
        -11    1    3    3    0    0  0.10922050997E+01 -0.52978301781E+01  0.77732085595E+01  0.94700944107E+01  0.51100000000E-03 0.  1.
         12    1    3    3    0    0  0.18805779155E+01 -0.14578186239E+02  0.27467609854E+01  0.14953420452E+02  0.00000000000E+00 0. -1.
</event>
<event>
 7    1  0.7819001E-012  0.5930194E+02  0.7816164E-02  0.1266605E+00
        -11   -1    0    0    0    0  0.00000000000E+00  0.00000000000E+00  0.45593999997E+02  0.45594000000E+02  0.51100000000E-03 0.  1.
         11   -1    0    0    0    0 -0.00000000000E+00 -0.00000000000E+00 -0.45593999997E+02  0.45594000000E+02  0.51100000000E-03 0. -1.
    9900012    2    1    2    0    0 -0.12254083224E+01  0.24642221848E+02  0.20198512797E+02  0.59301942822E+02  0.49999997801E+02 0.  0.
         12    1    1    2    0    0  0.12254083224E+01 -0.24642221848E+02 -0.20198512797E+02  0.31886057178E+02  0.00000000000E+00 0. -1.
         11    1    3    3    0    0 -0.92554538202E+01  0.69664273376E+01 -0.19655844042E+00  0.11585903968E+02  0.51100000000E-03 0. -1.
        -11    1    3    3    0    0  0.21730574507E+02  0.65146859392E+01  0.29371011833E+01  0.22875435841E+02  0.51100000000E-03 0.  1.
        -12    1    3    3    0    0 -0.13700529009E+02  0.11161108571E+02  0.17457970054E+02  0.24840603013E+02  0.00000000000E+00 0.  1.
</event>
<event>
 7    1  0.7819001E-012  0.5930191E+02  0.7816164E-02  0.1266605E+00
        -11   -1    0    0    0    0  0.00000000000E+00  0.00000000000E+00  0.45593999997E+02  0.45594000000E+02  0.51100000000E-03 0.  1.
         11   -1    0    0    0    0 -0.00000000000E+00 -0.00000000000E+00 -0.45593999997E+02  0.45594000000E+02  0.51100000000E-03 0. -1.
    9900012    2    1    2    0    0 -0.79764728234E+01 -0.26371948418E+02  0.16050510231E+02  0.59301911172E+02  0.49999940079E+02 0.  0.
         12    1    1    2    0    0  0.79764728234E+01  0.26371948418E+02 -0.16050510231E+02  0.31886088828E+02  0.00000000000E+00 0. -1.
         11    1    3    3    0    0  0.63127621269E+01 -0.22859772888E+02 -0.58100088797E+01  0.24416723482E+02  0.51100000000E-03 0. -1.
        -11    1    3    3    0    0 -0.26923077004E+00 -0.14365958397E+00  0.20389018126E+02  0.20391301668E+02  0.51100000000E-03 0.  1.
        -12    1    3    3    0    0 -0.14020004180E+02 -0.33685159463E+01  0.14715009842E+01  0.14493886023E+02  0.00000000000E+00 0.  1.
</event>
<event>
 7    1  0.7819001E-012  0.5930194E+02  0.7816164E-02  0.1266605E+00
        -11   -1    0    0    0    0  0.00000000000E+00  0.00000000000E+00  0.45593999997E+02  0.45594000000E+02  0.51100000000E-03 0.  1.
         11   -1    0    0    0    0 -0.00000000000E+00 -0.00000000000E+00 -0.45593999997E+02  0.45594000000E+02  0.51100000000E-03 0. -1.
    9900012    2    1    2    0    0 -0.11420756062E+02  0.16486617617E+02  0.24788678473E+02  0.59301940195E+02  0.49999993009E+02 0.  0.
         12    1    1    2    0    0  0.11420756062E+02 -0.16486617617E+02 -0.24788678473E+02  0.31886059805E+02  0.00000000000E+00 0. -1.
         11    1    3    3    0    0 -0.39378655484E+01  0.34762631092E+01 -0.60346503438E+01  0.80005121908E+01  0.51100000000E-03 0. -1.
        -11    1    3    3    0    0 -0.64674086881E+01  0.19952380135E+02  0.36619565908E+02  0.42200917712E+02  0.51100000000E-03 0.  1.
        -12    1    3    3    0    0 -0.10154818254E+01 -0.69420256276E+01 -0.57962370912E+01  0.91005102917E+01  0.00000000000E+00 0.  1.
</event>
<event>
 7    1  0.7819001E-012  0.5930193E+02  0.7816164E-02  0.1266605E+00
        -11   -1    0    0    0    0  0.00000000000E+00  0.00000000000E+00  0.45593999997E+02  0.45594000000E+02  0.51100000000E-03 0.  1.
         11   -1    0    0    0    0 -0.00000000000E+00 -0.00000000000E+00 -0.45593999997E+02  0.45594000000E+02  0.51100000000E-03 0. -1.
    9900012    2    1    2    0    0  0.30990219662E+02 -0.73378396811E+01  0.15761137262E+01  0.59301925605E+02  0.49999966401E+02 0.  0.
         12    1    1    2    0    0 -0.30990219662E+02  0.73378396811E+01 -0.15761137262E+01  0.31886074395E+02  0.00000000000E+00 0. -1.
         11    1    3    3    0    0  0.18433079568E+02  0.19811429038E+02 -0.68330219499E+01  0.27909878755E+02  0.51100000000E-03 0. -1.
        -11    1    3    3    0    0  0.90620792115E+01 -0.14321488909E+02  0.48746885419E+01  0.17634877738E+02  0.51100000000E-03 0.  1.
         12    1    3    3    0    0  0.34950608819E+01 -0.12827779810E+02  0.35344471341E+01  0.13757169111E+02  0.00000000000E+00 0. -1.
</event>
<event>
 7    1  0.7819001E-012  0.5930195E+02  0.7816164E-02  0.1266605E+00
        -11   -1    0    0    0    0  0.00000000000E+00  0.00000000000E+00  0.45593999997E+02  0.45594000000E+02  0.51100000000E-03 0.  1.
         11   -1    0    0    0    0 -0.00000000000E+00 -0.00000000000E+00 -0.45593999997E+02  0.45594000000E+02  0.51100000000E-03 0. -1.
    9900012    2    1    2    0    0 -0.28766084632E+02 -0.12174366995E+02  0.64044929236E+01  0.59301947149E+02  0.50000005693E+02 0.  0.
         12    1    1    2    0    0  0.28766084632E+02  0.12174366995E+02 -0.64044929236E+01  0.31886052851E+02  0.00000000000E+00 0. -1.
         11    1    3    3    0    0 -0.35085374322E+02  0.42769998151E+01  0.98731792656E+01  0.36698172813E+02  0.51100000000E-03 0. -1.
        -11    1    3    3    0    0 -0.17937054868E+01 -0.92164628940E+01  0.31180299436E+01  0.98935675386E+01  0.51100000000E-03 0.  1.
         12    1    3    3    0    0  0.81129951770E+01 -0.72349039159E+01 -0.65867162855E+01  0.12710206798E+02  0.00000000000E+00 0. -1.
</event>
<event>
 7    1  0.7819001E-012  0.5930196E+02  0.7816164E-02  0.1266605E+00
        -11   -1    0    0    0    0  0.00000000000E+00  0.00000000000E+00  0.45593999997E+02  0.45594000000E+02  0.51100000000E-03 0. -1.
         11   -1    0    0    0    0 -0.00000000000E+00 -0.00000000000E+00 -0.45593999997E+02  0.45594000000E+02  0.51100000000E-03 0.  1.
    9900012    2    1    2    0    0 -0.54603038261E-01 -0.75800051094E+01 -0.30971927959E+02  0.59301956338E+02  0.50000022450E+02 0.  0.
         12    1    1    2    0    0  0.54603038261E-01  0.75800051094E+01  0.30971927959E+02  0.31886043662E+02  0.00000000000E+00 0. -1.
         11    1    3    3    0    0  0.54512082248E+01  0.53524715767E+01 -0.26211012319E+02  0.27301681086E+02  0.51100000000E-03 0. -1.
        -11    1    3    3    0    0 -0.65871343862E+01 -0.16083766311E+02 -0.13911371481E+02  0.22262168244E+02  0.51100000000E-03 0.  1.
         12    1    3    3    0    0  0.10813231231E+01  0.31512896251E+01  0.91504558409E+01  0.97381070078E+01  0.00000000000E+00 0. -1.
</event>
<event>
 7    1  0.7819001E-012  0.5930194E+02  0.7816164E-02  0.1266605E+00
        -11   -1    0    0    0    0  0.00000000000E+00  0.00000000000E+00  0.45593999997E+02  0.45594000000E+02  0.51100000000E-03 0. -1.
         11   -1    0    0    0    0 -0.00000000000E+00 -0.00000000000E+00 -0.45593999997E+02  0.45594000000E+02  0.51100000000E-03 0.  1.
    9900012    2    1    2    0    0  0.11820753935E+02  0.15186708337E+02  0.25423499211E+02  0.59301942767E+02  0.49999997701E+02 0.  0.
         12    1    1    2    0    0 -0.11820753935E+02 -0.15186708337E+02 -0.25423499211E+02  0.31886057233E+02  0.00000000000E+00 0. -1.
         11    1    3    3    0    0  0.43041564452E+01  0.76370887687E+00  0.20895433521E+02  0.21347790430E+02  0.51100000000E-03 0. -1.
        -11    1    3    3    0    0  0.81216306781E+01 -0.86211496171E+01 -0.51975433907E+01  0.12934433237E+02  0.51100000000E-03 0.  1.
        -12    1    3    3    0    0 -0.60503318794E+00  0.23044149078E+02  0.97256090813E+01  0.25019719100E+02  0.00000000000E+00 0.  1.
</event>
<event>
 7    1  0.7819001E-012  0.5930193E+02  0.7816164E-02  0.1266605E+00
        -11   -1    0    0    0    0  0.00000000000E+00  0.00000000000E+00  0.45593999997E+02  0.45594000000E+02  0.51100000000E-03 0.  1.
         11   -1    0    0    0    0 -0.00000000000E+00 -0.00000000000E+00 -0.45593999997E+02  0.45594000000E+02  0.51100000000E-03 0. -1.
    9900012    2    1    2    0    0  0.91280090299E+00  0.68930593611E+01  0.31118707795E+02  0.59301930194E+02  0.49999974770E+02 0.  0.
         12    1    1    2    0    0 -0.91280090299E+00 -0.68930593611E+01 -0.31118707795E+02  0.31886069806E+02  0.00000000000E+00 0. -1.
         11    1    3    3    0    0  0.55384875213E+01  0.37645723823E+01  0.10759975765E+02  0.12673749562E+02  0.51100000000E-03 0. -1.
        -11    1    3    3    0    0 -0.75709645344E+01  0.19953709419E+02  0.18186279093E+01  0.21419090347E+02  0.51100000000E-03 0.  1.
        -12    1    3    3    0    0  0.29452779160E+01 -0.16825222440E+02  0.18540104121E+02  0.25209090285E+02  0.00000000000E+00 0.  1.
</event>
<event>
 7    1  0.7819001E-012  0.5930197E+02  0.7816164E-02  0.1266605E+00
        -11   -1    0    0    0    0  0.00000000000E+00  0.00000000000E+00  0.45593999997E+02  0.45594000000E+02  0.51100000000E-03 0. -1.
         11   -1    0    0    0    0 -0.00000000000E+00 -0.00000000000E+00 -0.45593999997E+02  0.45594000000E+02  0.51100000000E-03 0.  1.
    9900012    2    1    2    0    0 -0.13862903269E+02 -0.11155724429E+02 -0.26459186828E+02  0.59301971050E+02  0.50000049283E+02 0.  0.
         12    1    1    2    0    0  0.13862903269E+02  0.11155724429E+02  0.26459186828E+02  0.31886028950E+02  0.00000000000E+00 0. -1.
         11    1    3    3    0    0 -0.11199123982E+02  0.10908607777E+02 -0.20787008092E+02  0.26009955926E+02  0.51100000000E-03 0. -1.
        -11    1    3    3    0    0 -0.30648621233E+01 -0.27251237042E+02 -0.34661563849E+01  0.27641228998E+02  0.51100000000E-03 0.  1.
        -12    1    3    3    0    0  0.40108283704E+00  0.51869048371E+01 -0.22060223510E+01  0.56507861262E+01  0.00000000000E+00 0.  1.
</event>
<event>
 7    1  0.7819001E-012  0.5930194E+02  0.7816164E-02  0.1266605E+00
        -11   -1    0    0    0    0  0.00000000000E+00  0.00000000000E+00  0.45593999997E+02  0.45594000000E+02  0.51100000000E-03 0.  1.
         11   -1    0    0    0    0 -0.00000000000E+00 -0.00000000000E+00 -0.45593999997E+02  0.45594000000E+02  0.51100000000E-03 0. -1.
    9900012    2    1    2    0    0 -0.14354178387E+02 -0.32624929223E+01  0.28284877740E+02  0.59301943392E+02  0.49999998841E+02 0.  0.
         12    1    1    2    0    0  0.14354178387E+02  0.32624929223E+01 -0.28284877740E+02  0.31886056608E+02  0.00000000000E+00 0. -1.
         11    1    3    3    0    0  0.23813151363E+01  0.16925101813E+02  0.84967101244E+01  0.19087268436E+02  0.51100000000E-03 0. -1.
        -11    1    3    3    0    0  0.47457520249E+00 -0.17579509114E+02  0.93222351698E+01  0.19903980283E+02  0.51100000000E-03 0.  1.
        -12    1    3    3    0    0 -0.17210068725E+02 -0.26080856214E+01  0.10465932446E+02  0.20310694673E+02  0.00000000000E+00 0.  1.
</event>
<event>
 7    1  0.7819001E-012  0.5930202E+02  0.7816164E-02  0.1266605E+00
        -11   -1    0    0    0    0  0.00000000000E+00  0.00000000000E+00  0.45593999997E+02  0.45594000000E+02  0.51100000000E-03 0.  1.
         11   -1    0    0    0    0 -0.00000000000E+00 -0.00000000000E+00 -0.45593999997E+02  0.45594000000E+02  0.51100000000E-03 0. -1.
    9900012    2    1    2    0    0  0.66937794054E+01  0.20469424361E+02  0.23514080504E+02  0.59302015644E+02  0.50000130611E+02 0.  0.
         12    1    1    2    0    0 -0.66937794054E+01 -0.20469424361E+02 -0.23514080504E+02  0.31885984356E+02  0.00000000000E+00 0. -1.
         11    1    3    3    0    0  0.19284410994E+02  0.14618654274E+02  0.58378529364E+01  0.24893253852E+02  0.51100000000E-03 0. -1.
        -11    1    3    3    0    0 -0.20004443396E+02 -0.76072149192E-01  0.11319433069E+02  0.22985062711E+02  0.51100000000E-03 0.  1.
        -12    1    3    3    0    0  0.74138118072E+01  0.59268422356E+01  0.63567944981E+01  0.11423699081E+02  0.00000000000E+00 0.  1.
</event>
<event>
 7    1  0.7819001E-012  0.5930196E+02  0.7816164E-02  0.1266605E+00
        -11   -1    0    0    0    0  0.00000000000E+00  0.00000000000E+00  0.45593999997E+02  0.45594000000E+02  0.51100000000E-03 0.  1.
         11   -1    0    0    0    0 -0.00000000000E+00 -0.00000000000E+00 -0.45593999997E+02  0.45594000000E+02  0.51100000000E-03 0. -1.
    9900012    2    1    2    0    0  0.13174227196E+02  0.73523951557E+00  0.29027900244E+02  0.59301955530E+02  0.50000020978E+02 0.  0.
         12    1    1    2    0    0 -0.13174227196E+02 -0.73523951557E+00 -0.29027900244E+02  0.31886044470E+02  0.00000000000E+00 0. -1.
         11    1    3    3    0    0  0.40660391952E+01 -0.17666428688E+02  0.38390136690E+01  0.18530337383E+02  0.51100000000E-03 0. -1.
        -11    1    3    3    0    0  0.10999057701E+02  0.19666047250E+02  0.28761057987E+02  0.36536709506E+02  0.51100000000E-03 0.  1.
        -12    1    3    3    0    0 -0.18908696998E+01 -0.12643790468E+01 -0.35721714126E+01  0.42349086409E+01  0.00000000000E+00 0.  1.
</event>
<event>
 7    1  0.7819001E-012  0.5930199E+02  0.7816164E-02  0.1266605E+00
        -11   -1    0    0    0    0  0.00000000000E+00  0.00000000000E+00  0.45593999997E+02  0.45594000000E+02  0.51100000000E-03 0. -1.
         11   -1    0    0    0    0 -0.00000000000E+00 -0.00000000000E+00 -0.45593999997E+02  0.45594000000E+02  0.51100000000E-03 0.  1.
    9900012    2    1    2    0    0 -0.12310172791E+02  0.13943263711E+02 -0.25899087274E+02  0.59301989295E+02  0.50000082557E+02 0.  0.
         12    1    1    2    0    0  0.12310172791E+02 -0.13943263711E+02  0.25899087274E+02  0.31886010705E+02  0.00000000000E+00 0. -1.
         11    1    3    3    0    0  0.50353240093E+01 -0.27727454434E+01 -0.10410030355E+02  0.11891649904E+02  0.51100000000E-03 0. -1.
        -11    1    3    3    0    0 -0.26539215691E+02  0.15564296487E+02 -0.20408314598E+02  0.36919867275E+02  0.51100000000E-03 0.  1.
        -12    1    3    3    0    0  0.91937188906E+01  0.11517126672E+01  0.49192576793E+01  0.10490472116E+02  0.00000000000E+00 0.  1.
</event>
<event>
 7    1  0.7819001E-012  0.5930194E+02  0.7816164E-02  0.1266605E+00
        -11   -1    0    0    0    0  0.00000000000E+00  0.00000000000E+00  0.45593999997E+02  0.45594000000E+02  0.51100000000E-03 0. -1.
         11   -1    0    0    0    0 -0.00000000000E+00 -0.00000000000E+00 -0.45593999997E+02  0.45594000000E+02  0.51100000000E-03 0.  1.
    9900012    2    1    2    0    0 -0.12499284559E+02 -0.25730020089E+02 -0.14087393558E+02  0.59301941832E+02  0.49999995995E+02 0.  0.
         12    1    1    2    0    0  0.12499284559E+02  0.25730020089E+02  0.14087393558E+02  0.31886058168E+02  0.00000000000E+00 0. -1.
         11    1    3    3    0    0  0.11749770385E+02 -0.12439135080E+02 -0.14515179726E+02  0.22438351731E+02  0.51100000000E-03 0. -1.
        -11    1    3    3    0    0 -0.20510374533E+02 -0.10981301671E+02 -0.10169988547E+02  0.25390807730E+02  0.51100000000E-03 0.  1.
         12    1    3    3    0    0 -0.37386804109E+01 -0.23095833377E+01  0.10597774715E+02  0.11472782371E+02  0.00000000000E+00 0. -1.
</event>
<event>
 7    1  0.7819001E-012  0.5930195E+02  0.7816164E-02  0.1266605E+00
        -11   -1    0    0    0    0  0.00000000000E+00  0.00000000000E+00  0.45593999997E+02  0.45594000000E+02  0.51100000000E-03 0. -1.
         11   -1    0    0    0    0 -0.00000000000E+00 -0.00000000000E+00 -0.45593999997E+02  0.45594000000E+02  0.51100000000E-03 0.  1.
    9900012    2    1    2    0    0  0.20760594051E+02  0.44231101294E+01 -0.23793993837E+02  0.59301948013E+02  0.50000007269E+02 0.  0.
         12    1    1    2    0    0 -0.20760594051E+02 -0.44231101294E+01  0.23793993837E+02  0.31886051987E+02  0.00000000000E+00 0. -1.
         11    1    3    3    0    0  0.26382670523E+02  0.46222000087E+01 -0.92330408586E+01  0.28331238600E+02  0.51100000000E-03 0. -1.
        -11    1    3    3    0    0 -0.23722087144E+01  0.12088695467E+02 -0.13408069279E+02  0.18208246877E+02  0.51100000000E-03 0.  1.
        -12    1    3    3    0    0 -0.32498677575E+01 -0.12287785346E+02 -0.11528836994E+01  0.12762462536E+02  0.00000000000E+00 0.  1.
</event>
<event>
 7    1  0.7819001E-012  0.5930160E+02  0.7816164E-02  0.1266606E+00
        -11   -1    0    0    0    0  0.00000000000E+00  0.00000000000E+00  0.45593999997E+02  0.45594000000E+02  0.51100000000E-03 0.  1.
         11   -1    0    0    0    0 -0.00000000000E+00 -0.00000000000E+00 -0.45593999997E+02  0.45594000000E+02  0.51100000000E-03 0. -1.
    9900012    2    1    2    0    0 -0.24119915653E+02 -0.51698673664E+00  0.20849576161E+02  0.59301601136E+02  0.49999374645E+02 0.  0.
         12    1    1    2    0    0  0.24119915653E+02  0.51698673664E+00 -0.20849576161E+02  0.31886398864E+02  0.00000000000E+00 0. -1.
         11    1    3    3    0    0 -0.98474144929E+00  0.77639914532E+01  0.10568134752E+02  0.13150465825E+02  0.51100000000E-03 0. -1.
        -11    1    3    3    0    0 -0.29095468305E+02 -0.22004159929E+01 -0.40729111408E+01  0.29461444497E+02  0.51100000000E-03 0.  1.
        -12    1    3    3    0    0  0.59602941004E+01 -0.60805621970E+01  0.14354352549E+02  0.16689690815E+02  0.00000000000E+00 0.  1.
</event>
<event>
 7    1  0.7819001E-012  0.5930195E+02  0.7816164E-02  0.1266605E+00
        -11   -1    0    0    0    0  0.00000000000E+00  0.00000000000E+00  0.45593999997E+02  0.45594000000E+02  0.51100000000E-03 0. -1.
         11   -1    0    0    0    0 -0.00000000000E+00 -0.00000000000E+00 -0.45593999997E+02  0.45594000000E+02  0.51100000000E-03 0.  1.
    9900012    2    1    2    0    0 -0.28611479191E+02  0.17318981085E+01  0.13967973356E+02  0.59301945176E+02  0.50000002094E+02 0.  0.
         12    1    1    2    0    0  0.28611479191E+02 -0.17318981085E+01 -0.13967973356E+02  0.31886054824E+02  0.00000000000E+00 0. -1.
         11    1    3    3    0    0 -0.14084644408E+02  0.71230254543E+01  0.31166975450E+02  0.34935584419E+02  0.51100000000E-03 0. -1.
        -11    1    3    3    0    0 -0.14564345357E+02 -0.30385832345E+01 -0.14340192229E+02  0.20663839362E+02  0.51100000000E-03 0.  1.
         12    1    3    3    0    0  0.37510574197E-01 -0.23525441113E+01 -0.28588098647E+01  0.37025213951E+01  0.00000000000E+00 0. -1.
</event>
<event>
 7    1  0.7819001E-012  0.5930195E+02  0.7816164E-02  0.1266605E+00
        -11   -1    0    0    0    0  0.00000000000E+00  0.00000000000E+00  0.45593999997E+02  0.45594000000E+02  0.51100000000E-03 0.  1.
         11   -1    0    0    0    0 -0.00000000000E+00 -0.00000000000E+00 -0.45593999997E+02  0.45594000000E+02  0.51100000000E-03 0. -1.
    9900012    2    1    2    0    0  0.29101685263E+02  0.11552643313E+02  0.60289968350E+01  0.59301945752E+02  0.50000003144E+02 0.  0.
         12    1    1    2    0    0 -0.29101685263E+02 -0.11552643313E+02 -0.60289968350E+01  0.31886054248E+02  0.00000000000E+00 0. -1.
         11    1    3    3    0    0 -0.66984697016E+01  0.91485675926E+01 -0.84402719987E+01  0.14135203466E+02  0.51100000000E-03 0. -1.
        -11    1    3    3    0    0  0.22543651989E+02 -0.38693274026E+01  0.19087023255E+02  0.29790978442E+02  0.51100000000E-03 0.  1.
         12    1    3    3    0    0  0.13256502976E+02  0.62734031232E+01 -0.46177544210E+01  0.15375763844E+02  0.00000000000E+00 0. -1.
</event>
<event>
 7    1  0.1074831E-011  0.5930194E+02  0.7816164E-02  0.1266605E+00
        -11   -1    0    0    0    0  0.00000000000E+00  0.00000000000E+00  0.45593999997E+02  0.45594000000E+02  0.51100000000E-03 0. -1.
         11   -1    0    0    0    0 -0.00000000000E+00 -0.00000000000E+00 -0.45593999997E+02  0.45594000000E+02  0.51100000000E-03 0.  1.
    9900012    2    1    2    0    0 -0.15105184360E+02 -0.51021013927E+01 -0.27613809931E+02  0.59301944551E+02  0.50000000955E+02 0.  0.
         12    1    1    2    0    0  0.15105184360E+02  0.51021013927E+01  0.27613809931E+02  0.31886055449E+02  0.00000000000E+00 0. -1.
         11    1    3    3    0    0 -0.48669728868E+01  0.68816445234E+01  0.85088075878E+01  0.11976821918E+02  0.51100000000E-03 0. -1.
        -11    1    3    3    0    0 -0.12605382569E+02  0.35733952694E+01 -0.24425593548E+02  0.27717764049E+02  0.51100000000E-03 0.  1.
         12    1    3    3    0    0  0.23671710965E+01 -0.15557141185E+02 -0.11697023971E+02  0.19607358584E+02  0.00000000000E+00 0. -1.
</event>
<event>
 7    1  0.7819001E-012  0.5930195E+02  0.7816164E-02  0.1266605E+00
        -11   -1    0    0    0    0  0.00000000000E+00  0.00000000000E+00  0.45593999997E+02  0.45594000000E+02  0.51100000000E-03 0.  1.
         11   -1    0    0    0    0 -0.00000000000E+00 -0.00000000000E+00 -0.45593999997E+02  0.45594000000E+02  0.51100000000E-03 0. -1.
    9900012    2    1    2    0    0 -0.16111706104E+02  0.23497651439E+02  0.14317600982E+02  0.59301946706E+02  0.50000004885E+02 0.  0.
         12    1    1    2    0    0  0.16111706104E+02 -0.23497651439E+02 -0.14317600982E+02  0.31886053294E+02  0.00000000000E+00 0. -1.
         11    1    3    3    0    0 -0.15996134495E+02 -0.92000362648E+00  0.67571974837E+01  0.17389147292E+02  0.51100000000E-03 0. -1.
        -11    1    3    3    0    0  0.66010446425E+01  0.13561993203E+02 -0.11503747121E+02  0.18969387130E+02  0.51100000000E-03 0.  1.
        -12    1    3    3    0    0 -0.67166162523E+01  0.10855661863E+02  0.19064150620E+02  0.22943412284E+02  0.00000000000E+00 0.  1.
</event>
<event>
 7    1  0.7819001E-012  0.5930192E+02  0.7816164E-02  0.1266605E+00
        -11   -1    0    0    0    0  0.00000000000E+00  0.00000000000E+00  0.45593999997E+02  0.45594000000E+02  0.51100000000E-03 0.  1.
         11   -1    0    0    0    0 -0.00000000000E+00 -0.00000000000E+00 -0.45593999997E+02  0.45594000000E+02  0.51100000000E-03 0. -1.
    9900012    2    1    2    0    0  0.28753275100E+02  0.54125034653E+01  0.12675798122E+02  0.59301923403E+02  0.49999962385E+02 0.  0.
         12    1    1    2    0    0 -0.28753275100E+02 -0.54125034653E+01 -0.12675798122E+02  0.31886076597E+02  0.00000000000E+00 0. -1.
         11    1    3    3    0    0 -0.18497871162E+01  0.20172312162E+02  0.53021360499E+01  0.20939353793E+02  0.51100000000E-03 0. -1.
        -11    1    3    3    0    0  0.31404058764E+02 -0.12107492231E+02  0.38449079802E+01  0.33876091755E+02  0.51100000000E-03 0.  1.
         12    1    3    3    0    0 -0.80099654760E+00 -0.26523164653E+01  0.35287540915E+01  0.44864778546E+01  0.00000000000E+00 0. -1.
</event>
<event>
 7    1  0.7819001E-012  0.5930196E+02  0.7816164E-02  0.1266605E+00
        -11   -1    0    0    0    0  0.00000000000E+00  0.00000000000E+00  0.45593999997E+02  0.45594000000E+02  0.51100000000E-03 0.  1.
         11   -1    0    0    0    0 -0.00000000000E+00 -0.00000000000E+00 -0.45593999997E+02  0.45594000000E+02  0.51100000000E-03 0. -1.
    9900012    2    1    2    0    0  0.15853938718E+02 -0.17510275160E+02  0.21418742874E+02  0.59301958299E+02  0.50000026027E+02 0.  0.
         12    1    1    2    0    0 -0.15853938718E+02  0.17510275160E+02 -0.21418742874E+02  0.31886041701E+02  0.00000000000E+00 0. -1.
         11    1    3    3    0    0  0.78335230577E+01  0.38347752036E+01 -0.82262552836E+01  0.11989197663E+02  0.51100000000E-03 0. -1.
        -11    1    3    3    0    0  0.12017111849E+02 -0.49559042597E+00  0.21381431999E+02  0.24532065173E+02  0.51100000000E-03 0.  1.
        -12    1    3    3    0    0 -0.39966961882E+01 -0.20849459937E+02  0.82635661582E+01  0.22780695462E+02  0.00000000000E+00 0.  1.
</event>
<event>
 7    1  0.7819001E-012  0.5930181E+02  0.7816164E-02  0.1266605E+00
        -11   -1    0    0    0    0  0.00000000000E+00  0.00000000000E+00  0.45593999997E+02  0.45594000000E+02  0.51100000000E-03 0.  1.
         11   -1    0    0    0    0 -0.00000000000E+00 -0.00000000000E+00 -0.45593999997E+02  0.45594000000E+02  0.51100000000E-03 0. -1.
    9900012    2    1    2    0    0  0.21380572881E+02  0.23652627211E+02  0.39132719746E+00  0.59301814783E+02  0.49999764288E+02 0.  0.
         12    1    1    2    0    0 -0.21380572881E+02 -0.23652627211E+02 -0.39132719746E+00  0.31886185217E+02  0.00000000000E+00 0. -1.
         11    1    3    3    0    0 -0.84584046527E+01  0.60209235302E+01 -0.98500766923E+01  0.14311538720E+02  0.51100000000E-03 0. -1.
        -11    1    3    3    0    0  0.44760837642E+01  0.27663919980E+01  0.14370448349E+02  0.15303530200E+02  0.51100000000E-03 0.  1.
         12    1    3    3    0    0  0.25362893770E+02  0.14865311683E+02 -0.41290444597E+01  0.29686745863E+02  0.00000000000E+00 0. -1.
</event>
<event>
 7    1  0.7819001E-012  0.5930194E+02  0.7816164E-02  0.1266605E+00
        -11   -1    0    0    0    0  0.00000000000E+00  0.00000000000E+00  0.45593999997E+02  0.45594000000E+02  0.51100000000E-03 0. -1.
         11   -1    0    0    0    0 -0.00000000000E+00 -0.00000000000E+00 -0.45593999997E+02  0.45594000000E+02  0.51100000000E-03 0.  1.
    9900012    2    1    2    0    0  0.25570539317E+02 -0.12947626044E+02 -0.13972371400E+02  0.59301942487E+02  0.49999997191E+02 0.  0.
         12    1    1    2    0    0 -0.25570539317E+02  0.12947626044E+02  0.13972371400E+02  0.31886057513E+02  0.00000000000E+00 0. -1.
         11    1    3    3    0    0  0.50477910675E+01  0.19907779279E+01  0.13603861341E+02  0.14646106481E+02  0.51100000000E-03 0. -1.
        -11    1    3    3    0    0  0.33047559197E+01 -0.16426733020E+01 -0.21851848828E+02  0.22161297000E+02  0.51100000000E-03 0.  1.
        -12    1    3    3    0    0  0.17217992330E+02 -0.13295730670E+02 -0.57243839129E+01  0.22494539006E+02  0.00000000000E+00 0.  1.
</event>
<event>
 7    1  0.7819001E-012  0.5930193E+02  0.7816164E-02  0.1266605E+00
        -11   -1    0    0    0    0  0.00000000000E+00  0.00000000000E+00  0.45593999997E+02  0.45594000000E+02  0.51100000000E-03 0.  1.
         11   -1    0    0    0    0 -0.00000000000E+00 -0.00000000000E+00 -0.45593999997E+02  0.45594000000E+02  0.51100000000E-03 0. -1.
    9900012    2    1    2    0    0 -0.16454047668E+02  0.10599072845E+02  0.25172320070E+02  0.59301925806E+02  0.49999966768E+02 0.  0.
         12    1    1    2    0    0  0.16454047668E+02 -0.10599072845E+02 -0.25172320070E+02  0.31886074194E+02  0.00000000000E+00 0. -1.
         11    1    3    3    0    0 -0.10675543814E+01  0.12045373916E+02 -0.14735853550E+01  0.12182042488E+02  0.51100000000E-03 0. -1.
        -11    1    3    3    0    0  0.49982984411E+01 -0.93682206933E+01  0.22473165034E+02  0.24855375539E+02  0.51100000000E-03 0.  1.
        -12    1    3    3    0    0 -0.20384791727E+02  0.79219196225E+01  0.41727403912E+01  0.22264507779E+02  0.00000000000E+00 0.  1.
</event>
<event>
 7    1  0.7819001E-012  0.5930202E+02  0.7816164E-02  0.1266604E+00
        -11   -1    0    0    0    0  0.00000000000E+00  0.00000000000E+00  0.45593999997E+02  0.45594000000E+02  0.51100000000E-03 0.  1.
         11   -1    0    0    0    0 -0.00000000000E+00 -0.00000000000E+00 -0.45593999997E+02  0.45594000000E+02  0.51100000000E-03 0. -1.
    9900012    2    1    2    0    0 -0.52166709914E+01 -0.99054884158E+01  0.29856039478E+02  0.59302024238E+02  0.50000146284E+02 0.  0.
         12    1    1    2    0    0  0.52166709914E+01  0.99054884158E+01 -0.29856039478E+02  0.31885975762E+02  0.00000000000E+00 0. -1.
         11    1    3    3    0    0  0.12898329718E+02 -0.23377439479E+01  0.78678531114E+00  0.13132059536E+02  0.51100000000E-03 0. -1.
        -11    1    3    3    0    0 -0.13284554169E+02 -0.10012023948E+02  0.34619397837E-01  0.16634939187E+02  0.51100000000E-03 0.  1.
        -12    1    3    3    0    0 -0.48304465403E+01  0.24442794803E+01  0.29034634769E+02  0.29535025514E+02  0.00000000000E+00 0.  1.
</event>
<event>
 7    1  0.7819001E-012  0.5930196E+02  0.7816164E-02  0.1266605E+00
        -11   -1    0    0    0    0  0.00000000000E+00  0.00000000000E+00  0.45593999997E+02  0.45594000000E+02  0.51100000000E-03 0.  1.
         11   -1    0    0    0    0 -0.00000000000E+00 -0.00000000000E+00 -0.45593999997E+02  0.45594000000E+02  0.51100000000E-03 0. -1.
    9900012    2    1    2    0    0  0.21224983792E+02  0.36157985516E+01  0.23519051205E+02  0.59301957509E+02  0.50000024587E+02 0.  0.
         12    1    1    2    0    0 -0.21224983792E+02 -0.36157985516E+01 -0.23519051205E+02  0.31886042491E+02  0.00000000000E+00 0. -1.
         11    1    3    3    0    0  0.14952626183E+02  0.19952006688E+02  0.11698397218E+02  0.27541170969E+02  0.51100000000E-03 0. -1.
        -11    1    3    3    0    0 -0.35433621855E+01 -0.62983911652E+01  0.15624784378E+02  0.17215081585E+02  0.51100000000E-03 0.  1.
         12    1    3    3    0    0  0.98157197945E+01 -0.10037816971E+02 -0.38041303902E+01  0.14545704956E+02  0.00000000000E+00 0. -1.
</event>
<event>
 7    1  0.7819001E-012  0.5930194E+02  0.7816164E-02  0.1266605E+00
        -11   -1    0    0    0    0  0.00000000000E+00  0.00000000000E+00  0.45593999997E+02  0.45594000000E+02  0.51100000000E-03 0. -1.
         11   -1    0    0    0    0 -0.00000000000E+00 -0.00000000000E+00 -0.45593999997E+02  0.45594000000E+02  0.51100000000E-03 0.  1.
    9900012    2    1    2    0    0 -0.13412883767E+02 -0.13511091244E+02 -0.25578621051E+02  0.59301938901E+02  0.49999990649E+02 0.  0.
         12    1    1    2    0    0  0.13412883767E+02  0.13511091244E+02  0.25578621051E+02  0.31886061099E+02  0.00000000000E+00 0. -1.
         11    1    3    3    0    0 -0.24367440676E+01 -0.75178068705E+01  0.12456520083E+02  0.14751950198E+02  0.51100000000E-03 0. -1.
        -11    1    3    3    0    0 -0.44212257593E+01  0.23604073807E+00 -0.34591544347E+02  0.34873742172E+02  0.51100000000E-03 0.  1.
         12    1    3    3    0    0 -0.65549139397E+01 -0.62293251117E+01 -0.34435967870E+01  0.96762465314E+01  0.00000000000E+00 0. -1.
</event>
<event>
 7    1  0.7819001E-012  0.5930196E+02  0.7816164E-02  0.1266605E+00
        -11   -1    0    0    0    0  0.00000000000E+00  0.00000000000E+00  0.45593999997E+02  0.45594000000E+02  0.51100000000E-03 0. -1.
         11   -1    0    0    0    0 -0.00000000000E+00 -0.00000000000E+00 -0.45593999997E+02  0.45594000000E+02  0.51100000000E-03 0.  1.
    9900012    2    1    2    0    0  0.17599469542E+02 -0.23823666205E+02  0.11807256987E+02  0.59301957330E+02  0.50000024260E+02 0.  0.
         12    1    1    2    0    0 -0.17599469542E+02  0.23823666205E+02 -0.11807256987E+02  0.31886042670E+02  0.00000000000E+00 0. -1.
         11    1    3    3    0    0  0.23353715417E+02  0.77737947782E+01  0.36168601074E+01  0.24877893526E+02  0.51100000000E-03 0. -1.
        -11    1    3    3    0    0 -0.66540200702E+01 -0.12632221110E+02  0.17983141307E+01  0.14390376202E+02  0.51100000000E-03 0.  1.
         12    1    3    3    0    0  0.89977419534E+00 -0.18965239873E+02  0.63920827488E+01  0.20033687601E+02  0.00000000000E+00 0. -1.
</event>
<event>
 7    1  0.7819001E-012  0.5930196E+02  0.7816164E-02  0.1266605E+00
        -11   -1    0    0    0    0  0.00000000000E+00  0.00000000000E+00  0.45593999997E+02  0.45594000000E+02  0.51100000000E-03 0. -1.
         11   -1    0    0    0    0 -0.00000000000E+00 -0.00000000000E+00 -0.45593999997E+02  0.45594000000E+02  0.51100000000E-03 0.  1.
    9900012    2    1    2    0    0 -0.54141439583E+01  0.10412074270E-01 -0.31423024502E+02  0.59301960232E+02  0.50000029553E+02 0.  0.
         12    1    1    2    0    0  0.54141439583E+01 -0.10412074270E-01  0.31423024502E+02  0.31886039768E+02  0.00000000000E+00 0. -1.
         11    1    3    3    0    0  0.34219529544E+01 -0.11629656230E+02 -0.12850502970E+02  0.17666185012E+02  0.51100000000E-03 0. -1.
        -11    1    3    3    0    0 -0.13794393836E+02  0.17177534548E+02 -0.23889374088E+02  0.32497002770E+02  0.51100000000E-03 0.  1.
        -12    1    3    3    0    0  0.49582969234E+01 -0.55374662441E+01  0.53168525565E+01  0.91387724500E+01  0.00000000000E+00 0.  1.
</event>
<event>
 7    1  0.7819001E-012  0.5930188E+02  0.7816164E-02  0.1266605E+00
        -11   -1    0    0    0    0  0.00000000000E+00  0.00000000000E+00  0.45593999997E+02  0.45594000000E+02  0.51100000000E-03 0. -1.
         11   -1    0    0    0    0 -0.00000000000E+00 -0.00000000000E+00 -0.45593999997E+02  0.45594000000E+02  0.51100000000E-03 0.  1.
    9900012    2    1    2    0    0 -0.29917807818E+02  0.10210553024E+02 -0.41705863045E+01  0.59301883776E+02  0.49999890115E+02 0.  0.
         12    1    1    2    0    0  0.29917807818E+02 -0.10210553024E+02  0.41705863045E+01  0.31886116224E+02  0.00000000000E+00 0. -1.
         11    1    3    3    0    0 -0.30047926187E+02 -0.10827232166E+01 -0.66102928637E+01  0.30785485699E+02  0.51100000000E-03 0. -1.
        -11    1    3    3    0    0  0.68387982849E+01  0.13050997230E+02 -0.73922528206E+01  0.16484632016E+02  0.51100000000E-03 0.  1.
         12    1    3    3    0    0 -0.67086799164E+01 -0.17577209899E+01  0.98319593799E+01  0.12031766061E+02  0.00000000000E+00 0. -1.
</event>
<event>
 7    1  0.7819001E-012  0.5930194E+02  0.7816164E-02  0.1266605E+00
        -11   -1    0    0    0    0  0.00000000000E+00  0.00000000000E+00  0.45593999997E+02  0.45594000000E+02  0.51100000000E-03 0. -1.
         11   -1    0    0    0    0 -0.00000000000E+00 -0.00000000000E+00 -0.45593999997E+02  0.45594000000E+02  0.51100000000E-03 0.  1.
    9900012    2    1    2    0    0 -0.99811227453E+01  0.28026525795E+02 -0.11472209092E+02  0.59301944414E+02  0.50000000705E+02 0.  0.
         12    1    1    2    0    0  0.99811227453E+01 -0.28026525795E+02  0.11472209092E+02  0.31886055586E+02  0.00000000000E+00 0. -1.
         11    1    3    3    0    0  0.33515399164E+01  0.65290793366E+01 -0.15671545053E+01  0.75045099973E+01  0.51100000000E-03 0. -1.
        -11    1    3    3    0    0  0.47178393878E+00 -0.73191710946E+01  0.11283675216E+02  0.13457866556E+02  0.51100000000E-03 0.  1.
        -12    1    3    3    0    0 -0.13804446601E+02  0.28816617553E+02 -0.21188729803E+02  0.38339567861E+02  0.00000000000E+00 0.  1.
</event>
<event>
 7    1  0.7819001E-012  0.5930196E+02  0.7816164E-02  0.1266605E+00
        -11   -1    0    0    0    0  0.00000000000E+00  0.00000000000E+00  0.45593999997E+02  0.45594000000E+02  0.51100000000E-03 0. -1.
         11   -1    0    0    0    0 -0.00000000000E+00 -0.00000000000E+00 -0.45593999997E+02  0.45594000000E+02  0.51100000000E-03 0.  1.
    9900012    2    1    2    0    0 -0.26585447177E+02  0.48806315423E+01  0.16914876091E+02  0.59301959182E+02  0.50000027638E+02 0.  0.
         12    1    1    2    0    0  0.26585447177E+02 -0.48806315423E+01 -0.16914876091E+02  0.31886040818E+02  0.00000000000E+00 0. -1.
         11    1    3    3    0    0 -0.28351008068E+02 -0.14135675335E+02  0.39245868921E+01  0.31921769345E+02  0.51100000000E-03 0. -1.
        -11    1    3    3    0    0  0.79395542549E+01  0.10727843961E+02  0.98198074829E+01  0.16569604011E+02  0.51100000000E-03 0.  1.
         12    1    3    3    0    0 -0.61739933648E+01  0.82884629164E+01  0.31704817161E+01  0.10810585826E+02  0.00000000000E+00 0. -1.
</event>
<event>
 7    1  0.7819001E-012  0.5930196E+02  0.7816164E-02  0.1266605E+00
        -11   -1    0    0    0    0  0.00000000000E+00  0.00000000000E+00  0.45593999997E+02  0.45594000000E+02  0.51100000000E-03 0.  1.
         11   -1    0    0    0    0 -0.00000000000E+00 -0.00000000000E+00 -0.45593999997E+02  0.45594000000E+02  0.51100000000E-03 0. -1.
    9900012    2    1    2    0    0  0.70368477941E+01  0.17120328185E+01  0.31052719713E+02  0.59301957837E+02  0.50000025185E+02 0.  0.
         12    1    1    2    0    0 -0.70368477941E+01 -0.17120328185E+01 -0.31052719713E+02  0.31886042163E+02  0.00000000000E+00 0. -1.
         11    1    3    3    0    0 -0.16506819924E+02 -0.11079375599E+02  0.67617919875E+01  0.20998797556E+02  0.51100000000E-03 0.  1.
        -11    1    3    3    0    0  0.58255347666E+01 -0.45292947067E+00  0.57419531914E+00  0.58712605927E+01  0.51100000000E-03 0. -1.
        -12    1    3    3    0    0  0.17718132951E+02  0.13244337888E+02  0.23716732406E+02  0.32431899688E+02  0.00000000000E+00 0.  1.
</event>
<event>
 7    1  0.7819001E-012  0.5930195E+02  0.7816164E-02  0.1266605E+00
        -11   -1    0    0    0    0  0.00000000000E+00  0.00000000000E+00  0.45593999997E+02  0.45594000000E+02  0.51100000000E-03 0.  1.
         11   -1    0    0    0    0 -0.00000000000E+00 -0.00000000000E+00 -0.45593999997E+02  0.45594000000E+02  0.51100000000E-03 0. -1.
    9900012    2    1    2    0    0  0.19623008339E+01 -0.42515913982E+01  0.31540348169E+02  0.59301949498E+02  0.50000009977E+02 0.  0.
         12    1    1    2    0    0 -0.19623008339E+01  0.42515913982E+01 -0.31540348169E+02  0.31886050502E+02  0.00000000000E+00 0. -1.
         11    1    3    3    0    0  0.95076575269E+01  0.18221994574E+02  0.19597287726E+02  0.28398773290E+02  0.51100000000E-03 0.  1.
        -11    1    3    3    0    0 -0.93618177025E+01 -0.86496043063E+01  0.11155308962E+02  0.16938128694E+02  0.51100000000E-03 0. -1.
         12    1    3    3    0    0  0.18164610095E+01 -0.13823981666E+02  0.78775148103E+00  0.13965047515E+02  0.00000000000E+00 0. -1.
</event>
<event>
 7    1  0.7819001E-012  0.5930193E+02  0.7816164E-02  0.1266605E+00
        -11   -1    0    0    0    0  0.00000000000E+00  0.00000000000E+00  0.45593999997E+02  0.45594000000E+02  0.51100000000E-03 0. -1.
         11   -1    0    0    0    0 -0.00000000000E+00 -0.00000000000E+00 -0.45593999997E+02  0.45594000000E+02  0.51100000000E-03 0.  1.
    9900012    2    1    2    0    0  0.29274261992E+01  0.31745272858E+02 -0.62398733005E+00  0.59301928853E+02  0.49999972326E+02 0.  0.
         12    1    1    2    0    0 -0.29274261992E+01 -0.31745272858E+02  0.62398733005E+00  0.31886071147E+02  0.00000000000E+00 0. -1.
         11    1    3    3    0    0 -0.13626281723E+01  0.11896429391E+02  0.13230594462E+02  0.17844618738E+02  0.51100000000E-03 0. -1.
        -11    1    3    3    0    0  0.13240892024E+02  0.25303075340E+02 -0.93635625307E+01  0.30054003840E+02  0.51100000000E-03 0.  1.
        -12    1    3    3    0    0 -0.89508376528E+01 -0.54542318734E+01 -0.44910192617E+01  0.11403306276E+02  0.00000000000E+00 0.  1.
</event>
<event>
 7    1  0.7819001E-012  0.5930194E+02  0.7816164E-02  0.1266605E+00
        -11   -1    0    0    0    0  0.00000000000E+00  0.00000000000E+00  0.45593999997E+02  0.45594000000E+02  0.51100000000E-03 0.  1.
         11   -1    0    0    0    0 -0.00000000000E+00 -0.00000000000E+00 -0.45593999997E+02  0.45594000000E+02  0.51100000000E-03 0. -1.
    9900012    2    1    2    0    0  0.10004893504E+01 -0.26105554503E+02 -0.18281677230E+02  0.59301942276E+02  0.49999996805E+02 0.  0.
         12    1    1    2    0    0 -0.10004893504E+01  0.26105554503E+02  0.18281677230E+02  0.31886057724E+02  0.00000000000E+00 0. -1.
         11    1    3    3    0    0  0.21431800347E+02 -0.85532652987E+01  0.34364512382E+01  0.23330015233E+02  0.51100000000E-03 0. -1.
        -11    1    3    3    0    0 -0.14101844996E+02 -0.87346398112E+01 -0.78231985081E+01  0.18340076338E+02  0.51100000000E-03 0.  1.
         12    1    3    3    0    0 -0.63294660001E+01 -0.88176493931E+01 -0.13894929961E+02  0.17631850705E+02  0.00000000000E+00 0. -1.
</event>
<event>
 7    1  0.7819001E-012  0.5930192E+02  0.7816164E-02  0.1266605E+00
        -11   -1    0    0    0    0  0.00000000000E+00  0.00000000000E+00  0.45593999997E+02  0.45594000000E+02  0.51100000000E-03 0.  1.
         11   -1    0    0    0    0 -0.00000000000E+00 -0.00000000000E+00 -0.45593999997E+02  0.45594000000E+02  0.51100000000E-03 0. -1.
    9900012    2    1    2    0    0  0.30427733589E+02  0.43020247649E+01  0.85069025652E+01  0.59301924988E+02  0.49999965275E+02 0.  0.
         12    1    1    2    0    0 -0.30427733589E+02 -0.43020247649E+01 -0.85069025652E+01  0.31886075012E+02  0.00000000000E+00 0. -1.
         11    1    3    3    0    0  0.26245213196E+02  0.18742538288E+02 -0.56792712216E+01  0.32746726234E+02  0.51100000000E-03 0. -1.
        -11    1    3    3    0    0  0.10006971998E+02 -0.95997795509E+01  0.12768545144E+02  0.18850225499E+02  0.51100000000E-03 0.  1.
         12    1    3    3    0    0 -0.58244516050E+01 -0.48407339723E+01  0.14176286427E+01  0.77049732548E+01  0.00000000000E+00 0. -1.
</event>
<event>
 7    1  0.7819001E-012  0.5930194E+02  0.7816164E-02  0.1266605E+00
        -11   -1    0    0    0    0  0.00000000000E+00  0.00000000000E+00  0.45593999997E+02  0.45594000000E+02  0.51100000000E-03 0. -1.
         11   -1    0    0    0    0 -0.00000000000E+00 -0.00000000000E+00 -0.45593999997E+02  0.45594000000E+02  0.51100000000E-03 0.  1.
    9900012    2    1    2    0    0 -0.12994548823E+02  0.25024317232E+02 -0.14887786483E+02  0.59301938180E+02  0.49999989334E+02 0.  0.
         12    1    1    2    0    0  0.12994548823E+02 -0.25024317232E+02  0.14887786483E+02  0.31886061820E+02  0.00000000000E+00 0. -1.
         11    1    3    3    0    0  0.74028555975E+01  0.48510783492E+00  0.10188768888E+02  0.12603515871E+02  0.51100000000E-03 0. -1.
        -11    1    3    3    0    0 -0.18114441700E+02  0.43642909232E+01 -0.84664115342E+01  0.20466073338E+02  0.51100000000E-03 0.  1.
        -12    1    3    3    0    0 -0.22829627209E+01  0.20174918474E+02 -0.16610143836E+02  0.26232348970E+02  0.00000000000E+00 0.  1.
</event>
<event>
 7    1  0.7819001E-012  0.5930194E+02  0.7816164E-02  0.1266605E+00
        -11   -1    0    0    0    0  0.00000000000E+00  0.00000000000E+00  0.45593999997E+02  0.45594000000E+02  0.51100000000E-03 0.  1.
         11   -1    0    0    0    0 -0.00000000000E+00 -0.00000000000E+00 -0.45593999997E+02  0.45594000000E+02  0.51100000000E-03 0. -1.
    9900012    2    1    2    0    0 -0.23077909416E+02 -0.14005330178E+02  0.16970013980E+02  0.59301944257E+02  0.50000000418E+02 0.  0.
         12    1    1    2    0    0  0.23077909416E+02  0.14005330178E+02 -0.16970013980E+02  0.31886055743E+02  0.00000000000E+00 0. -1.
         11    1    3    3    0    0 -0.27490700357E+02 -0.30474176703E+01  0.11137860009E+01  0.27681507908E+02  0.51100000000E-03 0. -1.
        -11    1    3    3    0    0  0.59412443303E+01 -0.17654943865E+02  0.16278365705E+02  0.24738242002E+02  0.51100000000E-03 0.  1.
        -12    1    3    3    0    0 -0.15284533894E+01  0.66970313573E+01 -0.42213772661E+00  0.68821943466E+01  0.00000000000E+00 0.  1.
</event>
<event>
 7    1  0.7819001E-012  0.5930202E+02  0.7816164E-02  0.1266605E+00
        -11   -1    0    0    0    0  0.00000000000E+00  0.00000000000E+00  0.45593999997E+02  0.45594000000E+02  0.51100000000E-03 0.  1.
         11   -1    0    0    0    0 -0.00000000000E+00 -0.00000000000E+00 -0.45593999997E+02  0.45594000000E+02  0.51100000000E-03 0. -1.
    9900012    2    1    2    0    0  0.12611198953E+02  0.29787557942E+01  0.29134182178E+02  0.59302017244E+02  0.50000133528E+02 0.  0.
         12    1    1    2    0    0 -0.12611198953E+02 -0.29787557942E+01 -0.29134182178E+02  0.31885982756E+02  0.00000000000E+00 0. -1.
         11    1    3    3    0    0  0.77305471819E+00  0.18164459789E+02  0.53055730014E+01  0.18939226969E+02  0.51100000000E-03 0. -1.
        -11    1    3    3    0    0 -0.79655372760E+01 -0.83802881080E+01  0.98123962097E+01  0.15164502382E+02  0.51100000000E-03 0.  1.
         12    1    3    3    0    0  0.19803681511E+02 -0.68054158870E+01  0.14016212967E+02  0.25198287893E+02  0.00000000000E+00 0. -1.
</event>
<event>
 7    1  0.7819001E-012  0.5930195E+02  0.7816164E-02  0.1266605E+00
        -11   -1    0    0    0    0  0.00000000000E+00  0.00000000000E+00  0.45593999997E+02  0.45594000000E+02  0.51100000000E-03 0.  1.
         11   -1    0    0    0    0 -0.00000000000E+00 -0.00000000000E+00 -0.45593999997E+02  0.45594000000E+02  0.51100000000E-03 0. -1.
    9900012    2    1    2    0    0  0.24087609268E+02  0.20873440697E+02  0.89829417025E+00  0.59301946949E+02  0.50000005327E+02 0.  0.
         12    1    1    2    0    0 -0.24087609268E+02 -0.20873440697E+02 -0.89829417025E+00  0.31886053051E+02  0.00000000000E+00 0. -1.
         11    1    3    3    0    0 -0.12441354506E+02  0.19188104183E+01  0.17866305839E+01  0.12714605164E+02  0.51100000000E-03 0. -1.
        -11    1    3    3    0    0  0.16854283345E+02  0.76513263917E+01  0.10413548031E+02  0.21237976492E+02  0.51100000000E-03 0.  1.
         12    1    3    3    0    0  0.19674680429E+02  0.11303303887E+02 -0.11301884444E+02  0.25349365292E+02  0.00000000000E+00 0. -1.
</event>
<event>
 7    1  0.7819001E-012  0.5930194E+02  0.7816164E-02  0.1266605E+00
        -11   -1    0    0    0    0  0.00000000000E+00  0.00000000000E+00  0.45593999997E+02  0.45594000000E+02  0.51100000000E-03 0.  1.
         11   -1    0    0    0    0 -0.00000000000E+00 -0.00000000000E+00 -0.45593999997E+02  0.45594000000E+02  0.51100000000E-03 0. -1.
    9900012    2    1    2    0    0 -0.86091675066E+01  0.27469303218E+01  0.30578706345E+02  0.59301942340E+02  0.49999996922E+02 0.  0.
         12    1    1    2    0    0  0.86091675066E+01 -0.27469303218E+01 -0.30578706345E+02  0.31886057660E+02  0.00000000000E+00 0. -1.
         11    1    3    3    0    0 -0.24038903608E+01 -0.28641218286E+01 -0.32542150051E+01  0.49569948837E+01  0.51100000000E-03 0. -1.
        -11    1    3    3    0    0  0.17730527430E+01  0.22075522230E+01  0.42198982945E+02  0.42293866751E+02  0.51100000000E-03 0.  1.
        -12    1    3    3    0    0 -0.79783298888E+01  0.34034999274E+01 -0.83660615947E+01  0.12051080706E+02  0.00000000000E+00 0.  1.
</event>
<event>
 7    1  0.7819001E-012  0.5930197E+02  0.7816164E-02  0.1266605E+00
        -11   -1    0    0    0    0  0.00000000000E+00  0.00000000000E+00  0.45593999997E+02  0.45594000000E+02  0.51100000000E-03 0.  1.
         11   -1    0    0    0    0 -0.00000000000E+00 -0.00000000000E+00 -0.45593999997E+02  0.45594000000E+02  0.51100000000E-03 0. -1.
    9900012    2    1    2    0    0 -0.11318708848E+02 -0.29660780981E+02 -0.29738691252E+01  0.59301968639E+02  0.50000044884E+02 0.  0.
         12    1    1    2    0    0  0.11318708848E+02  0.29660780981E+02  0.29738691252E+01  0.31886031361E+02  0.00000000000E+00 0. -1.
         11    1    3    3    0    0  0.17085715683E+02 -0.90400662783E+01 -0.21787540633E+01  0.19452286453E+02  0.51100000000E-03 0. -1.
        -11    1    3    3    0    0 -0.25771179655E+02 -0.19210893588E+02  0.57512631711E+01  0.32654083383E+02  0.51100000000E-03 0.  1.
        -12    1    3    3    0    0 -0.26332448765E+01 -0.14098211147E+01 -0.65463782330E+01  0.71955988024E+01  0.00000000000E+00 0.  1.
</event>
<event>
 7    1  0.7819001E-012  0.5930193E+02  0.7816164E-02  0.1266605E+00
        -11   -1    0    0    0    0  0.00000000000E+00  0.00000000000E+00  0.45593999997E+02  0.45594000000E+02  0.51100000000E-03 0.  1.
         11   -1    0    0    0    0 -0.00000000000E+00 -0.00000000000E+00 -0.45593999997E+02  0.45594000000E+02  0.51100000000E-03 0. -1.
    9900012    2    1    2    0    0  0.26038138998E+02 -0.45297962807E+01  0.17838650505E+02  0.59301934256E+02  0.49999982178E+02 0.  0.
         12    1    1    2    0    0 -0.26038138998E+02  0.45297962807E+01 -0.17838650505E+02  0.31886065744E+02  0.00000000000E+00 0. -1.
         11    1    3    3    0    0  0.20755163225E+02 -0.17510306890E+02  0.27034888537E+02  0.38318048571E+02  0.51100000000E-03 0.  1.
        -11    1    3    3    0    0 -0.29699935079E+01  0.91368566264E+01 -0.60392145072E+01  0.11347912697E+02  0.51100000000E-03 0. -1.
        -12    1    3    3    0    0  0.82529692805E+01  0.38436539825E+01 -0.31570235244E+01  0.96359729875E+01  0.00000000000E+00 0.  1.
</event>
<event>
 7    1  0.7819001E-012  0.5930193E+02  0.7816164E-02  0.1266605E+00
        -11   -1    0    0    0    0  0.00000000000E+00  0.00000000000E+00  0.45593999997E+02  0.45594000000E+02  0.51100000000E-03 0.  1.
         11   -1    0    0    0    0 -0.00000000000E+00 -0.00000000000E+00 -0.45593999997E+02  0.45594000000E+02  0.51100000000E-03 0. -1.
    9900012    2    1    2    0    0 -0.13213005205E+02 -0.55457534983E+01  0.28484781208E+02  0.59301927039E+02  0.49999969017E+02 0.  0.
         12    1    1    2    0    0  0.13213005205E+02  0.55457534983E+01 -0.28484781208E+02  0.31886072961E+02  0.00000000000E+00 0. -1.
         11    1    3    3    0    0 -0.86448149259E+00 -0.15865123104E+02  0.13305268716E+02  0.20723890446E+02  0.51100000000E-03 0.  1.
        -11    1    3    3    0    0  0.59125476713E+01  0.15397679934E+02  0.76808404672E+01  0.18194561766E+02  0.51100000000E-03 0. -1.
        -12    1    3    3    0    0 -0.18261071384E+02 -0.50783103288E+01  0.74986720250E+01  0.20383474827E+02  0.00000000000E+00 0.  1.
</event>
<event>
 7    1  0.7819001E-012  0.5930196E+02  0.7816164E-02  0.1266605E+00
        -11   -1    0    0    0    0  0.00000000000E+00  0.00000000000E+00  0.45593999997E+02  0.45594000000E+02  0.51100000000E-03 0.  1.
         11   -1    0    0    0    0 -0.00000000000E+00 -0.00000000000E+00 -0.45593999997E+02  0.45594000000E+02  0.51100000000E-03 0. -1.
    9900012    2    1    2    0    0 -0.30945526901E+01 -0.24300502224E+02 -0.20411482247E+02  0.59301964307E+02  0.50000036984E+02 0.  0.
         12    1    1    2    0    0  0.30945526901E+01  0.24300502224E+02  0.20411482247E+02  0.31886035693E+02  0.00000000000E+00 0. -1.
         11    1    3    3    0    0  0.20501045808E+02 -0.11830283597E+02 -0.10031935983E+02  0.25707746478E+02  0.51100000000E-03 0. -1.
        -11    1    3    3    0    0 -0.18239065453E+02 -0.15988098004E+02 -0.40563431189E+01  0.24591394961E+02  0.51100000000E-03 0.  1.
        -12    1    3    3    0    0 -0.53565330443E+01  0.35178793760E+01 -0.63232031453E+01  0.90028228671E+01  0.00000000000E+00 0.  1.
</event>
<event>
 7    1  0.7819001E-012  0.5930194E+02  0.7816164E-02  0.1266605E+00
        -11   -1    0    0    0    0  0.00000000000E+00  0.00000000000E+00  0.45593999997E+02  0.45594000000E+02  0.51100000000E-03 0.  1.
         11   -1    0    0    0    0 -0.00000000000E+00 -0.00000000000E+00 -0.45593999997E+02  0.45594000000E+02  0.51100000000E-03 0. -1.
    9900012    2    1    2    0    0  0.16296079004E+01  0.80069412363E+01  0.30821322466E+02  0.59301942726E+02  0.49999997627E+02 0.  0.
         12    1    1    2    0    0 -0.16296079004E+01 -0.80069412363E+01 -0.30821322466E+02  0.31886057274E+02  0.00000000000E+00 0. -1.
         11    1    3    3    0    0  0.79774983165E+01 -0.11227683446E+02 -0.50193466739E+01  0.14659304085E+02  0.51100000000E-03 0. -1.
        -11    1    3    3    0    0  0.23330188521E+00  0.16953197396E+02  0.14891853709E+02  0.22566183524E+02  0.51100000000E-03 0.  1.
         12    1    3    3    0    0 -0.65811923013E+01  0.22814272867E+01  0.20948815431E+02  0.22076455117E+02  0.00000000000E+00 0. -1.
</event>
<event>
 7    1  0.7819001E-012  0.5930195E+02  0.7816164E-02  0.1266605E+00
        -11   -1    0    0    0    0  0.00000000000E+00  0.00000000000E+00  0.45593999997E+02  0.45594000000E+02  0.51100000000E-03 0.  1.
         11   -1    0    0    0    0 -0.00000000000E+00 -0.00000000000E+00 -0.45593999997E+02  0.45594000000E+02  0.51100000000E-03 0. -1.
    9900012    2    1    2    0    0 -0.30362395303E+02  0.44695994853E+01  0.86526339722E+01  0.59301945952E+02  0.50000003509E+02 0.  0.
         12    1    1    2    0    0  0.30362395303E+02 -0.44695994853E+01 -0.86526339722E+01  0.31886054048E+02  0.00000000000E+00 0. -1.
         11    1    3    3    0    0 -0.82623819575E+01  0.20886359048E+02 -0.91086307270E+01  0.24237865085E+02  0.51100000000E-03 0. -1.
        -11    1    3    3    0    0 -0.14681585940E+02 -0.38812504519E+01  0.59461664795E+01  0.16308585679E+02  0.51100000000E-03 0.  1.
         12    1    3    3    0    0 -0.74184274052E+01 -0.12535509110E+02  0.11815098220E+02  0.18755495188E+02  0.00000000000E+00 0. -1.
</event>
<event>
 7    1  0.7819001E-012  0.5930194E+02  0.7816164E-02  0.1266605E+00
        -11   -1    0    0    0    0  0.00000000000E+00  0.00000000000E+00  0.45593999997E+02  0.45594000000E+02  0.51100000000E-03 0. -1.
         11   -1    0    0    0    0 -0.00000000000E+00 -0.00000000000E+00 -0.45593999997E+02  0.45594000000E+02  0.51100000000E-03 0.  1.
    9900012    2    1    2    0    0  0.30935101266E+02 -0.44661955868E+01  0.63082054283E+01  0.59301939581E+02  0.49999991890E+02 0.  0.
         12    1    1    2    0    0 -0.30935101266E+02  0.44661955868E+01 -0.63082054283E+01  0.31886060419E+02  0.00000000000E+00 0. -1.
         11    1    3    3    0    0  0.73454736271E+01 -0.13358214377E+02 -0.78858248888E+01  0.17163452700E+02  0.51100000000E-03 0.  1.
        -11    1    3    3    0    0  0.25365234234E+02  0.49376172709E+01  0.21518338256E+02  0.33627578765E+02  0.51100000000E-03 0. -1.
         12    1    3    3    0    0 -0.17756065953E+01  0.39544015194E+01 -0.73243079389E+01  0.85109081150E+01  0.00000000000E+00 0. -1.
</event>
<event>
 7    1  0.7819001E-012  0.5930186E+02  0.7816164E-02  0.1266605E+00
        -11   -1    0    0    0    0  0.00000000000E+00  0.00000000000E+00  0.45593999997E+02  0.45594000000E+02  0.51100000000E-03 0.  1.
         11   -1    0    0    0    0 -0.00000000000E+00 -0.00000000000E+00 -0.45593999997E+02  0.45594000000E+02  0.51100000000E-03 0. -1.
    9900012    2    1    2    0    0  0.15328162403E+02  0.23729283561E+02  0.14788311805E+02  0.59301864659E+02  0.49999855250E+02 0.  0.
         12    1    1    2    0    0 -0.15328162403E+02 -0.23729283561E+02 -0.14788311805E+02  0.31886135341E+02  0.00000000000E+00 0. -1.
         11    1    3    3    0    0  0.42564125705E+01  0.11180254797E+02 -0.83323569238E+01  0.14578865438E+02  0.51100000000E-03 0. -1.
        -11    1    3    3    0    0  0.17098855326E+02  0.52783117059E+00  0.25853278594E+02  0.31000668920E+02  0.51100000000E-03 0.  1.
        -12    1    3    3    0    0 -0.60271054930E+01  0.12021197593E+02 -0.27326098654E+01  0.13722330300E+02  0.00000000000E+00 0.  1.
</event>
<event>
 7    1  0.7819001E-012  0.5930196E+02  0.7816164E-02  0.1266605E+00
        -11   -1    0    0    0    0  0.00000000000E+00  0.00000000000E+00  0.45593999997E+02  0.45594000000E+02  0.51100000000E-03 0. -1.
         11   -1    0    0    0    0 -0.00000000000E+00 -0.00000000000E+00 -0.45593999997E+02  0.45594000000E+02  0.51100000000E-03 0.  1.
    9900012    2    1    2    0    0 -0.88554314527E+01  0.72224825705E+01 -0.29768050798E+02  0.59301956517E+02  0.50000022777E+02 0.  0.
         12    1    1    2    0    0  0.88554314527E+01 -0.72224825705E+01  0.29768050798E+02  0.31886043483E+02  0.00000000000E+00 0. -1.
         11    1    3    3    0    0  0.71537578962E+01  0.16166783191E+02  0.10741801174E+01  0.17711436813E+02  0.51100000000E-03 0. -1.
        -11    1    3    3    0    0 -0.18968705054E+02 -0.33129223699E+01 -0.29272418408E+02  0.35038003735E+02  0.51100000000E-03 0.  1.
        -12    1    3    3    0    0  0.29595157052E+01 -0.56313782504E+01 -0.15698125078E+01  0.65525159686E+01  0.00000000000E+00 0.  1.
</event>
<event>
 7    1  0.7819001E-012  0.5930194E+02  0.7816164E-02  0.1266605E+00
        -11   -1    0    0    0    0  0.00000000000E+00  0.00000000000E+00  0.45593999997E+02  0.45594000000E+02  0.51100000000E-03 0.  1.
         11   -1    0    0    0    0 -0.00000000000E+00 -0.00000000000E+00 -0.45593999997E+02  0.45594000000E+02  0.51100000000E-03 0. -1.
    9900012    2    1    2    0    0 -0.48314786259E+01 -0.83032752606E+00  0.31506956925E+02  0.59301937776E+02  0.49999988598E+02 0.  0.
         12    1    1    2    0    0  0.48314786259E+01  0.83032752606E+00 -0.31506956925E+02  0.31886062224E+02  0.00000000000E+00 0. -1.
         11    1    3    3    0    0  0.35279998054E+01 -0.14670155025E+02  0.17662617028E+01  0.15191442056E+02  0.51100000000E-03 0. -1.
        -11    1    3    3    0    0 -0.21352701414E+01  0.15823428512E+02  0.33110959594E+02  0.36759705031E+02  0.51100000000E-03 0.  1.
         12    1    3    3    0    0 -0.62242082900E+01 -0.19836010139E+01 -0.33702643721E+01  0.73507906893E+01  0.00000000000E+00 0. -1.
</event>
<event>
 7    1  0.8070898E-012  0.5930193E+02  0.7816164E-02  0.1266605E+00
        -11   -1    0    0    0    0  0.00000000000E+00  0.00000000000E+00  0.45593999997E+02  0.45594000000E+02  0.51100000000E-03 0. -1.
         11   -1    0    0    0    0 -0.00000000000E+00 -0.00000000000E+00 -0.45593999997E+02  0.45594000000E+02  0.51100000000E-03 0.  1.
    9900012    2    1    2    0    0  0.80546163943E+01  0.25128652147E+02 -0.17899597498E+02  0.59301927890E+02  0.49999970569E+02 0.  0.
         12    1    1    2    0    0 -0.80546163943E+01 -0.25128652147E+02  0.17899597498E+02  0.31886072110E+02  0.00000000000E+00 0. -1.
         11    1    3    3    0    0 -0.52758223558E+01 -0.91397176714E+01 -0.71565755629E+01  0.12750894662E+02  0.51100000000E-03 0. -1.
        -11    1    3    3    0    0  0.12337198459E+02  0.16740543516E+02  0.66551859043E+01  0.21834462730E+02  0.51100000000E-03 0.  1.
        -12    1    3    3    0    0  0.99324029142E+00  0.17527826303E+02 -0.17398207840E+02  0.24716570499E+02  0.00000000000E+00 0.  1.
</event>
<event>
 7    1  0.7819001E-012  0.5930175E+02  0.7816164E-02  0.1266605E+00
        -11   -1    0    0    0    0  0.00000000000E+00  0.00000000000E+00  0.45593999997E+02  0.45594000000E+02  0.51100000000E-03 0.  1.
         11   -1    0    0    0    0 -0.00000000000E+00 -0.00000000000E+00 -0.45593999997E+02  0.45594000000E+02  0.51100000000E-03 0. -1.
    9900012    2    1    2    0    0  0.18505219436E+01 -0.16651738759E+02  0.27129837761E+02  0.59301750109E+02  0.49999646338E+02 0.  0.
         12    1    1    2    0    0 -0.18505219436E+01  0.16651738759E+02 -0.27129837761E+02  0.31886249891E+02  0.00000000000E+00 0. -1.
         11    1    3    3    0    0 -0.35945993242E+01 -0.15913941711E+02  0.59215691346E+01  0.17356257268E+02  0.51100000000E-03 0. -1.
        -11    1    3    3    0    0  0.66879316001E+01  0.12014484076E+02  0.25044325714E+02  0.28570868160E+02  0.51100000000E-03 0.  1.
        -12    1    3    3    0    0 -0.12428103323E+01 -0.12752281124E+02 -0.38360570878E+01  0.13374624681E+02  0.00000000000E+00 0.  1.
</event>
<event>
 7    1  0.7819001E-012  0.5930195E+02  0.7816164E-02  0.1266605E+00
        -11   -1    0    0    0    0  0.00000000000E+00  0.00000000000E+00  0.45593999997E+02  0.45594000000E+02  0.51100000000E-03 0. -1.
         11   -1    0    0    0    0 -0.00000000000E+00 -0.00000000000E+00 -0.45593999997E+02  0.45594000000E+02  0.51100000000E-03 0.  1.
    9900012    2    1    2    0    0 -0.13716046088E+02  0.83528420861E+01 -0.27546698263E+02  0.59301945425E+02  0.50000002548E+02 0.  0.
         12    1    1    2    0    0  0.13716046088E+02 -0.83528420861E+01  0.27546698263E+02  0.31886054575E+02  0.00000000000E+00 0. -1.
         11    1    3    3    0    0 -0.18722521136E+01 -0.65093025062E+01 -0.60409178019E+01  0.90757388264E+01  0.51100000000E-03 0. -1.
        -11    1    3    3    0    0 -0.71305269659E+01  0.22047007262E+02  0.38183650875E+01  0.23483927615E+02  0.51100000000E-03 0.  1.
        -12    1    3    3    0    0 -0.47132670081E+01 -0.71848626700E+01 -0.25324145548E+02  0.26742278983E+02  0.00000000000E+00 0.  1.
</event>
<event>
 7    1  0.7819001E-012  0.5930197E+02  0.7816164E-02  0.1266605E+00
        -11   -1    0    0    0    0  0.00000000000E+00  0.00000000000E+00  0.45593999997E+02  0.45594000000E+02  0.51100000000E-03 0. -1.
         11   -1    0    0    0    0 -0.00000000000E+00 -0.00000000000E+00 -0.45593999997E+02  0.45594000000E+02  0.51100000000E-03 0.  1.
    9900012    2    1    2    0    0  0.43772738644E+01  0.82721711918E+01 -0.30481623957E+02  0.59301972625E+02  0.50000052155E+02 0.  0.
         12    1    1    2    0    0 -0.43772738644E+01 -0.82721711918E+01  0.30481623957E+02  0.31886027375E+02  0.00000000000E+00 0. -1.
         11    1    3    3    0    0  0.39804358376E+01 -0.14332262759E+02 -0.11098156397E+02  0.18558736512E+02  0.51100000000E-03 0. -1.
        -11    1    3    3    0    0  0.69141776654E+01  0.16072366184E+02 -0.24566227522E+02  0.30160012309E+02  0.51100000000E-03 0.  1.
        -12    1    3    3    0    0 -0.65173396386E+01  0.65320677670E+01  0.51827599619E+01  0.10583223805E+02  0.00000000000E+00 0.  1.
</event>
<event>
 7    1  0.7819001E-012  0.5930194E+02  0.7816164E-02  0.1266605E+00
        -11   -1    0    0    0    0  0.00000000000E+00  0.00000000000E+00  0.45593999997E+02  0.45594000000E+02  0.51100000000E-03 0.  1.
         11   -1    0    0    0    0 -0.00000000000E+00 -0.00000000000E+00 -0.45593999997E+02  0.45594000000E+02  0.51100000000E-03 0. -1.
    9900012    2    1    2    0    0 -0.31520230446E+00 -0.15512210778E+02  0.27856643706E+02  0.59301942949E+02  0.49999998032E+02 0.  0.
         12    1    1    2    0    0  0.31520230446E+00  0.15512210778E+02 -0.27856643706E+02  0.31886057051E+02  0.00000000000E+00 0. -1.
         11    1    3    3    0    0 -0.75393597494E+01 -0.12226680727E+02 -0.52603784558E+01  0.15297230102E+02  0.51100000000E-03 0. -1.
        -11    1    3    3    0    0  0.12651556753E+02 -0.12060623544E+02  0.26506467466E+02  0.31750800720E+02  0.51100000000E-03 0.  1.
        -12    1    3    3    0    0 -0.54273993077E+01  0.87750934924E+01  0.66105546952E+01  0.12253912127E+02  0.00000000000E+00 0.  1.
</event>
<event>
 7    1  0.7819001E-012  0.5930195E+02  0.7816164E-02  0.1266605E+00
        -11   -1    0    0    0    0  0.00000000000E+00  0.00000000000E+00  0.45593999997E+02  0.45594000000E+02  0.51100000000E-03 0. -1.
         11   -1    0    0    0    0 -0.00000000000E+00 -0.00000000000E+00 -0.45593999997E+02  0.45594000000E+02  0.51100000000E-03 0.  1.
    9900012    2    1    2    0    0  0.46937704916E+01  0.29756912040E+02 -0.10450601402E+02  0.59301947167E+02  0.50000005726E+02 0.  0.
         12    1    1    2    0    0 -0.46937704916E+01 -0.29756912040E+02  0.10450601402E+02  0.31886052833E+02  0.00000000000E+00 0. -1.
         11    1    3    3    0    0  0.19000310517E+01  0.74765026996E+01  0.99811523573E+01  0.12614737938E+02  0.51100000000E-03 0. -1.
        -11    1    3    3    0    0  0.13004391234E+02 -0.36671150580E+01 -0.10410112669E+02  0.17056739731E+02  0.51100000000E-03 0.  1.
        -12    1    3    3    0    0 -0.10210651795E+02  0.25947524399E+02 -0.10021641090E+02  0.29630469497E+02  0.00000000000E+00 0.  1.
</event>
<event>
 7    1  0.7819001E-012  0.5930193E+02  0.7816164E-02  0.1266605E+00
        -11   -1    0    0    0    0  0.00000000000E+00  0.00000000000E+00  0.45593999997E+02  0.45594000000E+02  0.51100000000E-03 0.  1.
         11   -1    0    0    0    0 -0.00000000000E+00 -0.00000000000E+00 -0.45593999997E+02  0.45594000000E+02  0.51100000000E-03 0. -1.
    9900012    2    1    2    0    0 -0.11809545010E+02  0.15570925949E+02  0.25195279362E+02  0.59301934229E+02  0.49999982129E+02 0.  0.
         12    1    1    2    0    0  0.11809545010E+02 -0.15570925949E+02 -0.25195279362E+02  0.31886065771E+02  0.00000000000E+00 0. -1.
         11    1    3    3    0    0 -0.13203292917E+02 -0.85057352960E+01  0.13561833477E+01  0.15764317629E+02  0.51100000000E-03 0. -1.
        -11    1    3    3    0    0 -0.63070485838E+01  0.10321301777E+02  0.24957026945E+02  0.27733757885E+02  0.51100000000E-03 0.  1.
         12    1    3    3    0    0  0.77007964911E+01  0.13755359468E+02 -0.11179309312E+01  0.15803858714E+02  0.00000000000E+00 0. -1.
</event>
<event>
 7    1  0.7819001E-012  0.5930195E+02  0.7816164E-02  0.1266605E+00
        -11   -1    0    0    0    0  0.00000000000E+00  0.00000000000E+00  0.45593999997E+02  0.45594000000E+02  0.51100000000E-03 0.  1.
         11   -1    0    0    0    0 -0.00000000000E+00 -0.00000000000E+00 -0.45593999997E+02  0.45594000000E+02  0.51100000000E-03 0. -1.
    9900012    2    1    2    0    0 -0.13561800100E+02 -0.21835161608E+02  0.18868577471E+02  0.59301954147E+02  0.50000018454E+02 0.  0.
         12    1    1    2    0    0  0.13561800100E+02  0.21835161608E+02 -0.18868577471E+02  0.31886045853E+02  0.00000000000E+00 0. -1.
         11    1    3    3    0    0  0.45511784637E+01 -0.23236188439E+02  0.17490625700E+02  0.29437317578E+02  0.51100000000E-03 0. -1.
        -11    1    3    3    0    0 -0.19273043350E+02 -0.75790704706E+01  0.27297468393E-01  0.20709738158E+02  0.51100000000E-03 0.  1.
         12    1    3    3    0    0  0.11600647861E+01  0.89800973018E+01  0.13506543030E+01  0.91548984104E+01  0.00000000000E+00 0. -1.
</event>
<event>
 7    1  0.7819001E-012  0.5930195E+02  0.7816164E-02  0.1266605E+00
        -11   -1    0    0    0    0  0.00000000000E+00  0.00000000000E+00  0.45593999997E+02  0.45594000000E+02  0.51100000000E-03 0. -1.
         11   -1    0    0    0    0 -0.00000000000E+00 -0.00000000000E+00 -0.45593999997E+02  0.45594000000E+02  0.51100000000E-03 0.  1.
    9900012    2    1    2    0    0 -0.62159875581E+01  0.24017600868E+02 -0.20030896485E+02  0.59301945576E+02  0.50000002824E+02 0.  0.
         12    1    1    2    0    0  0.62159875581E+01 -0.24017600868E+02  0.20030896485E+02  0.31886054424E+02  0.00000000000E+00 0. -1.
         11    1    3    3    0    0  0.71030101785E+01  0.13403610257E+02  0.88290909098E+01  0.17551705560E+02  0.51100000000E-03 0. -1.
        -11    1    3    3    0    0 -0.86561056870E+01 -0.49274654818E+01 -0.16881649888E+01  0.10102375118E+02  0.51100000000E-03 0.  1.
         12    1    3    3    0    0 -0.46628920496E+01  0.15541456093E+02 -0.27171822406E+02  0.31647864898E+02  0.00000000000E+00 0. -1.
</event>
<event>
 7    1  0.7819001E-012  0.5930211E+02  0.7816164E-02  0.1266604E+00
        -11   -1    0    0    0    0  0.00000000000E+00  0.00000000000E+00  0.45593999997E+02  0.45594000000E+02  0.51100000000E-03 0. -1.
         11   -1    0    0    0    0 -0.00000000000E+00 -0.00000000000E+00 -0.45593999997E+02  0.45594000000E+02  0.51100000000E-03 0.  1.
    9900012    2    1    2    0    0  0.72084274789E+01  0.92653942587E+01 -0.29646268826E+02  0.59302106367E+02  0.50000296067E+02 0.  0.
         12    1    1    2    0    0 -0.72084274789E+01 -0.92653942587E+01  0.29646268826E+02  0.31885893633E+02  0.00000000000E+00 0. -1.
         11    1    3    3    0    0 -0.71697290560E+01 -0.32380368795E+01  0.68511826901E+01  0.10432094808E+02  0.51100000000E-03 0. -1.
        -11    1    3    3    0    0  0.72673710884E+01 -0.57263792591E+01 -0.23822044738E+02  0.25555741384E+02  0.51100000000E-03 0.  1.
         12    1    3    3    0    0  0.71107854465E+01  0.18229810397E+02 -0.12675406778E+02  0.23314270175E+02  0.00000000000E+00 0. -1.
</event>
<event>
 7    1  0.7819001E-012  0.5930189E+02  0.7816164E-02  0.1266605E+00
        -11   -1    0    0    0    0  0.00000000000E+00  0.00000000000E+00  0.45593999997E+02  0.45594000000E+02  0.51100000000E-03 0. -1.
         11   -1    0    0    0    0 -0.00000000000E+00 -0.00000000000E+00 -0.45593999997E+02  0.45594000000E+02  0.51100000000E-03 0.  1.
    9900012    2    1    2    0    0  0.81424163140E+01  0.10112224341E+02 -0.29123328697E+02  0.59301885484E+02  0.49999893230E+02 0.  0.
         12    1    1    2    0    0 -0.81424163140E+01 -0.10112224341E+02  0.29123328697E+02  0.31886114516E+02  0.00000000000E+00 0. -1.
         11    1    3    3    0    0  0.15891728322E+02  0.19433733736E+02 -0.85742881667E+01  0.26528012624E+02  0.51100000000E-03 0. -1.
        -11    1    3    3    0    0 -0.80584812959E+01 -0.36825281232E+01 -0.24386418095E+02  0.25946050219E+02  0.51100000000E-03 0.  1.
        -12    1    3    3    0    0  0.30916928838E+00 -0.56389812720E+01  0.38373775651E+01  0.68278226406E+01  0.00000000000E+00 0.  1.
</event>
<event>
 7    1  0.7819001E-012  0.5930193E+02  0.7816164E-02  0.1266605E+00
        -11   -1    0    0    0    0  0.00000000000E+00  0.00000000000E+00  0.45593999997E+02  0.45594000000E+02  0.51100000000E-03 0. -1.
         11   -1    0    0    0    0 -0.00000000000E+00 -0.00000000000E+00 -0.45593999997E+02  0.45594000000E+02  0.51100000000E-03 0.  1.
    9900012    2    1    2    0    0  0.29248761189E+02  0.48471661117E+00 -0.12688432326E+02  0.59301932570E+02  0.49999979103E+02 0.  0.
         12    1    1    2    0    0 -0.29248761189E+02 -0.48471661117E+00  0.12688432326E+02  0.31886067430E+02  0.00000000000E+00 0. -1.
         11    1    3    3    0    0  0.13587208621E+02 -0.14466178429E+02  0.58079480231E+01  0.20678849507E+02  0.51100000000E-03 0. -1.
        -11    1    3    3    0    0  0.17258879554E+02  0.11092431249E+02 -0.24090123460E+02  0.31642455705E+02  0.51100000000E-03 0.  1.
        -12    1    3    3    0    0 -0.15973269861E+01  0.38584637907E+01  0.55937431102E+01  0.69806273577E+01  0.00000000000E+00 0.  1.
</event>
<event>
 7    1  0.7819001E-012  0.5930196E+02  0.7816164E-02  0.1266605E+00
        -11   -1    0    0    0    0  0.00000000000E+00  0.00000000000E+00  0.45593999997E+02  0.45594000000E+02  0.51100000000E-03 0. -1.
         11   -1    0    0    0    0 -0.00000000000E+00 -0.00000000000E+00 -0.45593999997E+02  0.45594000000E+02  0.51100000000E-03 0.  1.
    9900012    2    1    2    0    0  0.20647186714E+01  0.68682059592E+01 -0.31069021774E+02  0.59301961828E+02  0.50000032464E+02 0.  0.
         12    1    1    2    0    0 -0.20647186714E+01 -0.68682059592E+01  0.31069021774E+02  0.31886038172E+02  0.00000000000E+00 0. -1.
         11    1    3    3    0    0 -0.57298969685E+01  0.17904076457E+01  0.38181560052E+00  0.60152358409E+01  0.51100000000E-03 0. -1.
        -11    1    3    3    0    0  0.12235436247E+02 -0.15965697018E+02 -0.21956081849E+02  0.29777154193E+02  0.51100000000E-03 0.  1.
        -12    1    3    3    0    0 -0.44408206072E+01  0.21043495332E+02 -0.94947555260E+01  0.23509571794E+02  0.00000000000E+00 0.  1.
</event>
<event>
 7    1  0.7819001E-012  0.5930198E+02  0.7816164E-02  0.1266605E+00
        -11   -1    0    0    0    0  0.00000000000E+00  0.00000000000E+00  0.45593999997E+02  0.45594000000E+02  0.51100000000E-03 0. -1.
         11   -1    0    0    0    0 -0.00000000000E+00 -0.00000000000E+00 -0.45593999997E+02  0.45594000000E+02  0.51100000000E-03 0.  1.
    9900012    2    1    2    0    0 -0.11925571781E+02  0.61153101322E+01 -0.28932719046E+02  0.59301976232E+02  0.50000058733E+02 0.  0.
         12    1    1    2    0    0  0.11925571781E+02 -0.61153101322E+01  0.28932719046E+02  0.31886023768E+02  0.00000000000E+00 0. -1.
         11    1    3    3    0    0  0.10590525306E+02  0.23324266099E+01 -0.20403621798E+02  0.23106432500E+02  0.51100000000E-03 0. -1.
        -11    1    3    3    0    0 -0.24158879550E+02  0.89462497563E+01  0.38368177862E+00  0.25764977349E+02  0.51100000000E-03 0.  1.
        -12    1    3    3    0    0  0.16427824630E+01 -0.51633662340E+01 -0.89127790273E+01  0.10430566383E+02  0.00000000000E+00 0.  1.
</event>
<event>
 7    1  0.7819001E-012  0.5930184E+02  0.7816164E-02  0.1266605E+00
        -11   -1    0    0    0    0  0.00000000000E+00  0.00000000000E+00  0.45593999997E+02  0.45594000000E+02  0.51100000000E-03 0.  1.
         11   -1    0    0    0    0 -0.00000000000E+00 -0.00000000000E+00 -0.45593999997E+02  0.45594000000E+02  0.51100000000E-03 0. -1.
    9900012    2    1    2    0    0 -0.17815055704E+02  0.75794475632E+01  0.25335806139E+02  0.59301838302E+02  0.49999807181E+02 0.  0.
         12    1    1    2    0    0  0.17815055704E+02 -0.75794475632E+01 -0.25335806139E+02  0.31886161698E+02  0.00000000000E+00 0. -1.
         11    1    3    3    0    0 -0.28074653283E+02 -0.85649952785E+01  0.68255227882E+01  0.30135246186E+02  0.51100000000E-03 0. -1.
        -11    1    3    3    0    0  0.19871730874E+01  0.12342461917E+02  0.64841135579E+01  0.14082931227E+02  0.51100000000E-03 0.  1.
         12    1    3    3    0    0  0.82724244916E+01  0.38019809248E+01  0.12026169793E+02  0.15083660889E+02  0.00000000000E+00 0. -1.
</event>
<event>
 7    1  0.7819001E-012  0.5930197E+02  0.7816164E-02  0.1266605E+00
        -11   -1    0    0    0    0  0.00000000000E+00  0.00000000000E+00  0.45593999997E+02  0.45594000000E+02  0.51100000000E-03 0.  1.
         11   -1    0    0    0    0 -0.00000000000E+00 -0.00000000000E+00 -0.45593999997E+02  0.45594000000E+02  0.51100000000E-03 0. -1.
    9900012    2    1    2    0    0  0.24759779747E+02 -0.53474337735E+01  0.19366907739E+02  0.59301970827E+02  0.50000048875E+02 0.  0.
         12    1    1    2    0    0 -0.24759779747E+02  0.53474337735E+01 -0.19366907739E+02  0.31886029173E+02  0.00000000000E+00 0. -1.
         11    1    3    3    0    0  0.87797856518E+01  0.52351064018E+00 -0.38195660020E+01  0.95889407229E+01  0.51100000000E-03 0. -1.
        -11    1    3    3    0    0  0.13716591913E+02 -0.58429068338E+01  0.34811412861E+02  0.37869762603E+02  0.51100000000E-03 0.  1.
        -12    1    3    3    0    0  0.22634021823E+01 -0.28037579885E-01 -0.11624939120E+02  0.11843267501E+02  0.00000000000E+00 0.  1.
</event>
<event>
 7    1  0.7819001E-012  0.5930194E+02  0.7816164E-02  0.1266605E+00
        -11   -1    0    0    0    0  0.00000000000E+00  0.00000000000E+00  0.45593999997E+02  0.45594000000E+02  0.51100000000E-03 0. -1.
         11   -1    0    0    0    0 -0.00000000000E+00 -0.00000000000E+00 -0.45593999997E+02  0.45594000000E+02  0.51100000000E-03 0.  1.
    9900012    2    1    2    0    0  0.29537720121E+02 -0.89159874023E+01 -0.80466719095E+01  0.59301942386E+02  0.49999997006E+02 0.  0.
         12    1    1    2    0    0 -0.29537720121E+02  0.89159874023E+01  0.80466719095E+01  0.31886057614E+02  0.00000000000E+00 0. -1.
         11    1    3    3    0    0  0.28129909432E+01 -0.18984381903E+02  0.35929135580E+01  0.19525078806E+02  0.51100000000E-03 0. -1.
        -11    1    3    3    0    0  0.18207281049E+02  0.18504163478E+02 -0.66941941683E+01  0.26808979560E+02  0.51100000000E-03 0.  1.
         12    1    3    3    0    0  0.85174481293E+01 -0.84357689775E+01 -0.49453912993E+01  0.12967884021E+02  0.00000000000E+00 0. -1.
</event>
<event>
 7    1  0.7819001E-012  0.5930190E+02  0.7816164E-02  0.1266605E+00
        -11   -1    0    0    0    0  0.00000000000E+00  0.00000000000E+00  0.45593999997E+02  0.45594000000E+02  0.51100000000E-03 0.  1.
         11   -1    0    0    0    0 -0.00000000000E+00 -0.00000000000E+00 -0.45593999997E+02  0.45594000000E+02  0.51100000000E-03 0. -1.
    9900012    2    1    2    0    0 -0.48862906266E+01 -0.21800814660E+02  0.22750203778E+02  0.59301903848E+02  0.49999926721E+02 0.  0.
         12    1    1    2    0    0  0.48862906266E+01  0.21800814660E+02 -0.22750203778E+02  0.31886096152E+02  0.00000000000E+00 0. -1.
         11    1    3    3    0    0  0.64368295118E+01  0.46234103787E+01  0.26213073701E+02  0.27384921596E+02  0.51100000000E-03 0. -1.
        -11    1    3    3    0    0 -0.71599637494E+01 -0.42189484416E+01  0.22578644583E+01  0.86117686348E+01  0.51100000000E-03 0.  1.
         12    1    3    3    0    0 -0.41631563890E+01 -0.22205276597E+02 -0.57207343822E+01  0.23305213617E+02  0.00000000000E+00 0. -1.
</event>
<event>
 7    1  0.7819001E-012  0.5930195E+02  0.7816164E-02  0.1266605E+00
        -11   -1    0    0    0    0  0.00000000000E+00  0.00000000000E+00  0.45593999997E+02  0.45594000000E+02  0.51100000000E-03 0.  1.
         11   -1    0    0    0    0 -0.00000000000E+00 -0.00000000000E+00 -0.45593999997E+02  0.45594000000E+02  0.51100000000E-03 0. -1.
    9900012    2    1    2    0    0 -0.15394264398E+02 -0.53946043013E+01  0.27397722348E+02  0.59301947850E+02  0.50000006970E+02 0.  0.
         12    1    1    2    0    0  0.15394264398E+02  0.53946043013E+01 -0.27397722348E+02  0.31886052150E+02  0.00000000000E+00 0. -1.
         11    1    3    3    0    0 -0.14809849747E+02 -0.45918504309E+01 -0.11602961135E+02  0.19366090139E+02  0.51100000000E-03 0. -1.
        -11    1    3    3    0    0 -0.10552861238E+01  0.23941882020E+01  0.39588300845E+01  0.47453242090E+01  0.51100000000E-03 0.  1.
         12    1    3    3    0    0  0.47087147354E+00 -0.31969420723E+01  0.35041853398E+02  0.35190533501E+02  0.00000000000E+00 0. -1.
</event>
<event>
 7    1  0.7819001E-012  0.5930195E+02  0.7816164E-02  0.1266605E+00
        -11   -1    0    0    0    0  0.00000000000E+00  0.00000000000E+00  0.45593999997E+02  0.45594000000E+02  0.51100000000E-03 0. -1.
         11   -1    0    0    0    0 -0.00000000000E+00 -0.00000000000E+00 -0.45593999997E+02  0.45594000000E+02  0.51100000000E-03 0.  1.
    9900012    2    1    2    0    0 -0.60405232433E+01 -0.31095449479E+02 -0.36476235075E+01  0.59301952007E+02  0.50000014552E+02 0.  0.
         12    1    1    2    0    0  0.60405232433E+01  0.31095449479E+02  0.36476235075E+01  0.31886047993E+02  0.00000000000E+00 0. -1.
         11    1    3    3    0    0  0.17515229336E+02 -0.20551534446E+02 -0.27089747055E+01  0.27138300813E+02  0.51100000000E-03 0.  1.
        -11    1    3    3    0    0 -0.14852099506E+02  0.38230843441E+01 -0.95394720675E+00  0.15365898906E+02  0.51100000000E-03 0. -1.
        -12    1    3    3    0    0 -0.87036530728E+01 -0.14366999377E+02  0.15298404802E-01  0.16797752288E+02  0.00000000000E+00 0.  1.
</event>
<event>
 7    1  0.7819001E-012  0.5930195E+02  0.7816164E-02  0.1266605E+00
        -11   -1    0    0    0    0  0.00000000000E+00  0.00000000000E+00  0.45593999997E+02  0.45594000000E+02  0.51100000000E-03 0.  1.
         11   -1    0    0    0    0 -0.00000000000E+00 -0.00000000000E+00 -0.45593999997E+02  0.45594000000E+02  0.51100000000E-03 0. -1.
    9900012    2    1    2    0    0 -0.14779734366E+02 -0.11299816004E+02  0.25895828294E+02  0.59301947992E+02  0.50000007230E+02 0.  0.
         12    1    1    2    0    0  0.14779734366E+02  0.11299816004E+02 -0.25895828294E+02  0.31886052008E+02  0.00000000000E+00 0. -1.
         11    1    3    3    0    0  0.71961581645E+01 -0.23597720257E+02  0.15762801745E+02  0.29276321708E+02  0.51100000000E-03 0. -1.
        -11    1    3    3    0    0 -0.15062007385E+02  0.55108375818E+01  0.44818483616E-01  0.16038559981E+02  0.51100000000E-03 0.  1.
         12    1    3    3    0    0 -0.69138851455E+01  0.67870666710E+01  0.10088208065E+02  0.13987066303E+02  0.00000000000E+00 0. -1.
</event>
<event>
 7    1  0.7819001E-012  0.5930198E+02  0.7816164E-02  0.1266605E+00
        -11   -1    0    0    0    0  0.00000000000E+00  0.00000000000E+00  0.45593999997E+02  0.45594000000E+02  0.51100000000E-03 0.  1.
         11   -1    0    0    0    0 -0.00000000000E+00 -0.00000000000E+00 -0.45593999997E+02  0.45594000000E+02  0.51100000000E-03 0. -1.
    9900012    2    1    2    0    0 -0.14101471801E+02 -0.23210187045E+02  0.16707895784E+02  0.59301983141E+02  0.50000071333E+02 0.  0.
         12    1    1    2    0    0  0.14101471801E+02  0.23210187045E+02 -0.16707895784E+02  0.31886016859E+02  0.00000000000E+00 0. -1.
         11    1    3    3    0    0  0.42467387806E+01  0.65767611828E+01 -0.20368689012E+01  0.80893394729E+01  0.51100000000E-03 0. -1.
        -11    1    3    3    0    0 -0.17071947731E+02 -0.26852403689E+02 -0.37987981751E+00  0.31822119542E+02  0.51100000000E-03 0.  1.
        -12    1    3    3    0    0 -0.12762628506E+01 -0.29345445390E+01  0.19124644503E+02  0.19390524126E+02  0.00000000000E+00 0.  1.
</event>
<event>
 7    1  0.7819001E-012  0.5930198E+02  0.7816164E-02  0.1266605E+00
        -11   -1    0    0    0    0  0.00000000000E+00  0.00000000000E+00  0.45593999997E+02  0.45594000000E+02  0.51100000000E-03 0.  1.
         11   -1    0    0    0    0 -0.00000000000E+00 -0.00000000000E+00 -0.45593999997E+02  0.45594000000E+02  0.51100000000E-03 0. -1.
    9900012    2    1    2    0    0 -0.22245966905E+02  0.76900506809E+00  0.22830759587E+02  0.59301984325E+02  0.50000073493E+02 0.  0.
         12    1    1    2    0    0  0.22245966905E+02 -0.76900506809E+00 -0.22830759587E+02  0.31886015675E+02  0.00000000000E+00 0. -1.
         11    1    3    3    0    0 -0.69149206036E+01  0.15919552292E+02 -0.33136285444E+01  0.17669986037E+02  0.51100000000E-03 0. -1.
        -11    1    3    3    0    0 -0.50513928703E+01 -0.79855264412E+01  0.27452897875E+02  0.29033546192E+02  0.51100000000E-03 0.  1.
        -12    1    3    3    0    0 -0.10279653431E+02 -0.71650207829E+01 -0.13085097442E+01  0.12598452097E+02  0.00000000000E+00 0.  1.
</event>
<event>
 7    1  0.7819001E-012  0.5930193E+02  0.7816164E-02  0.1266605E+00
        -11   -1    0    0    0    0  0.00000000000E+00  0.00000000000E+00  0.45593999997E+02  0.45594000000E+02  0.51100000000E-03 0. -1.
         11   -1    0    0    0    0 -0.00000000000E+00 -0.00000000000E+00 -0.45593999997E+02  0.45594000000E+02  0.51100000000E-03 0.  1.
    9900012    2    1    2    0    0  0.23031162024E+02 -0.49086840563E+01 -0.21498644149E+02  0.59301932453E+02  0.49999978891E+02 0.  0.
         12    1    1    2    0    0 -0.23031162024E+02  0.49086840563E+01  0.21498644149E+02  0.31886067547E+02  0.00000000000E+00 0. -1.
         11    1    3    3    0    0  0.11584742526E+02 -0.22618829553E+02 -0.11765780457E+02  0.28004487137E+02  0.51100000000E-03 0.  1.
        -11    1    3    3    0    0  0.93238839114E+01  0.16714053549E+02  0.20824150253E+01  0.19251775238E+02  0.51100000000E-03 0. -1.
        -12    1    3    3    0    0  0.21225355865E+01  0.99609194796E+00 -0.11815278717E+02  0.12045670078E+02  0.00000000000E+00 0.  1.
</event>
<event>
 7    1  0.7819001E-012  0.5930185E+02  0.7816164E-02  0.1266605E+00
        -11   -1    0    0    0    0  0.00000000000E+00  0.00000000000E+00  0.45593999997E+02  0.45594000000E+02  0.51100000000E-03 0.  1.
         11   -1    0    0    0    0 -0.00000000000E+00 -0.00000000000E+00 -0.45593999997E+02  0.45594000000E+02  0.51100000000E-03 0. -1.
    9900012    2    1    2    0    0 -0.30652520680E+02  0.77736634168E+01 -0.40889336275E+01  0.59301854965E+02  0.49999837571E+02 0.  0.
         12    1    1    2    0    0  0.30652520680E+02 -0.77736634168E+01  0.40889336275E+01  0.31886145035E+02  0.00000000000E+00 0. -1.
         11    1    3    3    0    0 -0.38545004788E+02 -0.49946442499E+01 -0.46171994079E+01  0.39140546699E+02  0.51100000000E-03 0. -1.
        -11    1    3    3    0    0  0.90018988743E+01  0.44532082554E+01  0.43478251484E+01  0.10943894686E+02  0.51100000000E-03 0.  1.
         12    1    3    3    0    0 -0.11094147667E+01  0.83150994113E+01 -0.38195593680E+01  0.92174135803E+01  0.00000000000E+00 0. -1.
</event>
<event>
 7    1  0.7819001E-012  0.5930196E+02  0.7816164E-02  0.1266605E+00
        -11   -1    0    0    0    0  0.00000000000E+00  0.00000000000E+00  0.45593999997E+02  0.45594000000E+02  0.51100000000E-03 0. -1.
         11   -1    0    0    0    0 -0.00000000000E+00 -0.00000000000E+00 -0.45593999997E+02  0.45594000000E+02  0.51100000000E-03 0.  1.
    9900012    2    1    2    0    0  0.20137816562E+02 -0.62543620591E+01 -0.23918005463E+02  0.59301957818E+02  0.50000025151E+02 0.  0.
         12    1    1    2    0    0 -0.20137816562E+02  0.62543620591E+01  0.23918005463E+02  0.31886042182E+02  0.00000000000E+00 0. -1.
         11    1    3    3    0    0 -0.78140630916E+01  0.62273397125E+01 -0.25382816632E+02  0.27278686228E+02  0.51100000000E-03 0. -1.
        -11    1    3    3    0    0  0.28605524113E+02 -0.11658462699E+02  0.17323009143E+01  0.30938594490E+02  0.51100000000E-03 0.  1.
         12    1    3    3    0    0 -0.65364445877E+00 -0.82323907264E+00 -0.26748974556E+00  0.10846771009E+01  0.00000000000E+00 0. -1.
</event>
<event>
 7    1  0.7819001E-012  0.5930194E+02  0.7816164E-02  0.1266605E+00
        -11   -1    0    0    0    0  0.00000000000E+00  0.00000000000E+00  0.45593999997E+02  0.45594000000E+02  0.51100000000E-03 0.  1.
         11   -1    0    0    0    0 -0.00000000000E+00 -0.00000000000E+00 -0.45593999997E+02  0.45594000000E+02  0.51100000000E-03 0. -1.
    9900012    2    1    2    0    0 -0.29801116820E+02 -0.10363825073E+02 -0.46049520950E+01  0.59301936937E+02  0.49999987069E+02 0.  0.
         12    1    1    2    0    0  0.29801116820E+02  0.10363825073E+02  0.46049520950E+01  0.31886063063E+02  0.00000000000E+00 0. -1.
         11    1    3    3    0    0 -0.36059074177E+02  0.76667560580E+01  0.24995915769E+01  0.36949748812E+02  0.51100000000E-03 0. -1.
        -11    1    3    3    0    0  0.56820942064E+01 -0.36960012133E+01 -0.31267034937E+01  0.74647769249E+01  0.51100000000E-03 0.  1.
         12    1    3    3    0    0  0.57586315066E+00 -0.14334579917E+02 -0.39778401782E+01  0.14887411201E+02  0.00000000000E+00 0. -1.
</event>
<event>
 7    1  0.7819001E-012  0.5930191E+02  0.7816164E-02  0.1266605E+00
        -11   -1    0    0    0    0  0.00000000000E+00  0.00000000000E+00  0.45593999997E+02  0.45594000000E+02  0.51100000000E-03 0.  1.
         11   -1    0    0    0    0 -0.00000000000E+00 -0.00000000000E+00 -0.45593999997E+02  0.45594000000E+02  0.51100000000E-03 0. -1.
    9900012    2    1    2    0    0  0.10405912129E+02 -0.25829357460E+02  0.15533318088E+02  0.59301910794E+02  0.49999939390E+02 0.  0.
         12    1    1    2    0    0 -0.10405912129E+02  0.25829357460E+02 -0.15533318088E+02  0.31886089206E+02  0.00000000000E+00 0. -1.
         11    1    3    3    0    0  0.26274435372E+01  0.91169484731E+00  0.25254099952E+01  0.37566398471E+01  0.51100000000E-03 0. -1.
        -11    1    3    3    0    0 -0.10970949120E+02 -0.13906631165E+02 -0.12276610952E+02  0.21551596036E+02  0.51100000000E-03 0.  1.
        -12    1    3    3    0    0  0.18749417712E+02 -0.12834421142E+02  0.25284519046E+02  0.33993674911E+02  0.00000000000E+00 0.  1.
</event>
<event>
 7    1  0.7819001E-012  0.5930194E+02  0.7816164E-02  0.1266605E+00
        -11   -1    0    0    0    0  0.00000000000E+00  0.00000000000E+00  0.45593999997E+02  0.45594000000E+02  0.51100000000E-03 0.  1.
         11   -1    0    0    0    0 -0.00000000000E+00 -0.00000000000E+00 -0.45593999997E+02  0.45594000000E+02  0.51100000000E-03 0. -1.
    9900012    2    1    2    0    0  0.76578463294E+01 -0.16765238482E+02  0.26019314981E+02  0.59301943740E+02  0.49999999475E+02 0.  0.
         12    1    1    2    0    0 -0.76578463294E+01  0.16765238482E+02 -0.26019314981E+02  0.31886056260E+02  0.00000000000E+00 0. -1.
         11    1    3    3    0    0  0.10651208568E+02  0.30667298712E+01 -0.43147562333E+01  0.11894124502E+02  0.51100000000E-03 0. -1.
        -11    1    3    3    0    0 -0.16090858415E+02 -0.78569912236E+01  0.20109040684E+02  0.26926224264E+02  0.51100000000E-03 0.  1.
        -12    1    3    3    0    0  0.13097496176E+02 -0.11974977129E+02  0.10225030530E+02  0.20481594974E+02  0.00000000000E+00 0.  1.
</event>
<event>
 7    1  0.7819001E-012  0.5930195E+02  0.7816164E-02  0.1266605E+00
        -11   -1    0    0    0    0  0.00000000000E+00  0.00000000000E+00  0.45593999997E+02  0.45594000000E+02  0.51100000000E-03 0.  1.
         11   -1    0    0    0    0 -0.00000000000E+00 -0.00000000000E+00 -0.45593999997E+02  0.45594000000E+02  0.51100000000E-03 0. -1.
    9900012    2    1    2    0    0  0.18593075512E+02  0.24154960985E+02  0.93571227890E+01  0.59301947499E+02  0.50000006331E+02 0.  0.
         12    1    1    2    0    0 -0.18593075512E+02 -0.24154960985E+02 -0.93571227890E+01  0.31886052501E+02  0.00000000000E+00 0. -1.
         11    1    3    3    0    0  0.10298619071E+02  0.33292734333E+02 -0.41962460542E+01  0.35100942941E+02  0.51100000000E-03 0. -1.
        -11    1    3    3    0    0  0.97211006054E+01 -0.24461111768E+00  0.11316459566E+02  0.14920519058E+02  0.51100000000E-03 0.  1.
         12    1    3    3    0    0 -0.14266441643E+01 -0.88931622299E+01  0.22369092767E+01  0.92804855008E+01  0.00000000000E+00 0. -1.
</event>
<event>
 7    1  0.7819001E-012  0.5930191E+02  0.7816164E-02  0.1266605E+00
        -11   -1    0    0    0    0  0.00000000000E+00  0.00000000000E+00  0.45593999997E+02  0.45594000000E+02  0.51100000000E-03 0.  1.
         11   -1    0    0    0    0 -0.00000000000E+00 -0.00000000000E+00 -0.45593999997E+02  0.45594000000E+02  0.51100000000E-03 0. -1.
    9900012    2    1    2    0    0  0.12934423891E+01  0.33968130641E+01  0.31678249135E+02  0.59301908981E+02  0.49999936083E+02 0.  0.
         12    1    1    2    0    0 -0.12934423891E+01 -0.33968130641E+01 -0.31678249135E+02  0.31886091019E+02  0.00000000000E+00 0. -1.
         11    1    3    3    0    0  0.95515152863E+01 -0.56862353838E+01 -0.51246473948E+01  0.12240372882E+02  0.51100000000E-03 0. -1.
        -11    1    3    3    0    0 -0.13195368300E+02 -0.46207362376E+01  0.12639975472E+02  0.18847756581E+02  0.51100000000E-03 0.  1.
        -12    1    3    3    0    0  0.49372954031E+01  0.13703784685E+02  0.24162921058E+02  0.28213779518E+02  0.00000000000E+00 0.  1.
</event>
<event>
 7    1  0.7819001E-012  0.5930195E+02  0.7816164E-02  0.1266605E+00
        -11   -1    0    0    0    0  0.00000000000E+00  0.00000000000E+00  0.45593999997E+02  0.45594000000E+02  0.51100000000E-03 0. -1.
         11   -1    0    0    0    0 -0.00000000000E+00 -0.00000000000E+00 -0.45593999997E+02  0.45594000000E+02  0.51100000000E-03 0.  1.
    9900012    2    1    2    0    0  0.11226249374E+02 -0.10768404762E+02 -0.27834027249E+02  0.59301948363E+02  0.50000007906E+02 0.  0.
         12    1    1    2    0    0 -0.11226249374E+02  0.10768404762E+02  0.27834027249E+02  0.31886051637E+02  0.00000000000E+00 0. -1.
         11    1    3    3    0    0  0.36304194977E+01 -0.24039539828E+02 -0.33149733420E+01  0.24537083555E+02  0.51100000000E-03 0. -1.
        -11    1    3    3    0    0  0.97166822233E+01  0.21815337889E+01 -0.20481246687E+02  0.22773986679E+02  0.51100000000E-03 0.  1.
         12    1    3    3    0    0 -0.21208523475E+01  0.11089601277E+02 -0.40378072193E+01  0.11990878129E+02  0.00000000000E+00 0. -1.
</event>
<event>
 7    1  0.8197143E-012  0.5930194E+02  0.7816164E-02  0.1266605E+00
        -11   -1    0    0    0    0  0.00000000000E+00  0.00000000000E+00  0.45593999997E+02  0.45594000000E+02  0.51100000000E-03 0. -1.
         11   -1    0    0    0    0 -0.00000000000E+00 -0.00000000000E+00 -0.45593999997E+02  0.45594000000E+02  0.51100000000E-03 0.  1.
    9900012    2    1    2    0    0 -0.12561418036E+02 -0.14209569848E+01 -0.29273066679E+02  0.59301940748E+02  0.49999994018E+02 0.  0.
         12    1    1    2    0    0  0.12561418036E+02  0.14209569848E+01  0.29273066679E+02  0.31886059252E+02  0.00000000000E+00 0. -1.
         11    1    3    3    0    0  0.31970840455E+01 -0.66982996415E+00  0.82302080037E+01  0.88547356042E+01  0.51100000000E-03 0. -1.
        -11    1    3    3    0    0 -0.83682067629E+01  0.12526182112E+02 -0.29844087300E+02  0.33430549947E+02  0.51100000000E-03 0.  1.
        -12    1    3    3    0    0 -0.73902953188E+01 -0.13277309133E+02 -0.76591873833E+01  0.17016655197E+02  0.00000000000E+00 0.  1.
</event>
<event>
 7    1  0.7819001E-012  0.5930198E+02  0.7816164E-02  0.1266605E+00
        -11   -1    0    0    0    0  0.00000000000E+00  0.00000000000E+00  0.45593999997E+02  0.45594000000E+02  0.51100000000E-03 0.  1.
         11   -1    0    0    0    0 -0.00000000000E+00 -0.00000000000E+00 -0.45593999997E+02  0.45594000000E+02  0.51100000000E-03 0. -1.
    9900012    2    1    2    0    0 -0.21595083310E+02 -0.22611898825E+02  0.62508254708E+01  0.59301977816E+02  0.50000061622E+02 0.  0.
         12    1    1    2    0    0  0.21595083310E+02  0.22611898825E+02 -0.62508254708E+01  0.31886022184E+02  0.00000000000E+00 0. -1.
         11    1    3    3    0    0  0.25945744220E+01 -0.42968019545E+01 -0.17974982924E+02  0.18662645440E+02  0.51100000000E-03 0. -1.
        -11    1    3    3    0    0 -0.21280702809E+01 -0.48389653791E+01  0.95416490770E+01  0.10908131665E+02  0.51100000000E-03 0.  1.
         12    1    3    3    0    0 -0.22061587451E+02 -0.13476131491E+02  0.14684159317E+02  0.29731200710E+02  0.00000000000E+00 0. -1.
</event>
<event>
 7    1  0.7819001E-012  0.5930201E+02  0.7816164E-02  0.1266605E+00
        -11   -1    0    0    0    0  0.00000000000E+00  0.00000000000E+00  0.45593999997E+02  0.45594000000E+02  0.51100000000E-03 0. -1.
         11   -1    0    0    0    0 -0.00000000000E+00 -0.00000000000E+00 -0.45593999997E+02  0.45594000000E+02  0.51100000000E-03 0.  1.
    9900012    2    1    2    0    0 -0.14750646676E+01  0.13238264245E+02 -0.28970488076E+02  0.59302005656E+02  0.50000112394E+02 0.  0.
         12    1    1    2    0    0  0.14750646676E+01 -0.13238264245E+02  0.28970488076E+02  0.31885994344E+02  0.00000000000E+00 0. -1.
         11    1    3    3    0    0  0.20567533593E+02  0.49842504678E+01 -0.11611144388E+02  0.24138866276E+02  0.51100000000E-03 0. -1.
        -11    1    3    3    0    0 -0.18847097587E+02  0.73256858110E-02 -0.42023966600E+01  0.19309926957E+02  0.51100000000E-03 0.  1.
        -12    1    3    3    0    0 -0.31955006736E+01  0.82466880915E+01 -0.13156947027E+02  0.15853212422E+02  0.00000000000E+00 0.  1.
</event>
<event>
 7    1  0.7819001E-012  0.5930194E+02  0.7816164E-02  0.1266605E+00
        -11   -1    0    0    0    0  0.00000000000E+00  0.00000000000E+00  0.45593999997E+02  0.45594000000E+02  0.51100000000E-03 0. -1.
         11   -1    0    0    0    0 -0.00000000000E+00 -0.00000000000E+00 -0.45593999997E+02  0.45594000000E+02  0.51100000000E-03 0.  1.
    9900012    2    1    2    0    0 -0.23060096494E+02 -0.69527787585E+01 -0.20895254403E+02  0.59301939733E+02  0.49999992167E+02 0.  0.
         12    1    1    2    0    0  0.23060096494E+02  0.69527787585E+01  0.20895254403E+02  0.31886060267E+02  0.00000000000E+00 0. -1.
         11    1    3    3    0    0  0.83791538808E+00  0.92829951974E+01  0.12758165100E+01  0.94076463613E+01  0.51100000000E-03 0. -1.
        -11    1    3    3    0    0 -0.28832690393E+02 -0.11881552719E+01 -0.14651022555E+02  0.32363377612E+02  0.51100000000E-03 0.  1.
        -12    1    3    3    0    0  0.49346785108E+01 -0.15047618684E+02 -0.75200483580E+01  0.17530915760E+02  0.00000000000E+00 0.  1.
</event>
<event>
 7    1  0.7819001E-012  0.5930192E+02  0.7816164E-02  0.1266605E+00
        -11   -1    0    0    0    0  0.00000000000E+00  0.00000000000E+00  0.45593999997E+02  0.45594000000E+02  0.51100000000E-03 0.  1.
         11   -1    0    0    0    0 -0.00000000000E+00 -0.00000000000E+00 -0.45593999997E+02  0.45594000000E+02  0.51100000000E-03 0. -1.
    9900012    2    1    2    0    0  0.29768945302E+02 -0.10449145632E+02  0.46202903256E+01  0.59301924175E+02  0.49999963793E+02 0.  0.
         12    1    1    2    0    0 -0.29768945302E+02  0.10449145632E+02 -0.46202903256E+01  0.31886075825E+02  0.00000000000E+00 0. -1.
         11    1    3    3    0    0  0.12017670771E+02  0.60307380509E+01  0.94389823404E+00  0.13479063630E+02  0.51100000000E-03 0. -1.
        -11    1    3    3    0    0  0.51748394850E+01 -0.28873762124E+01  0.20171199233E+02  0.21023633935E+02  0.51100000000E-03 0.  1.
        -12    1    3    3    0    0  0.12576435046E+02 -0.13592507471E+02 -0.16494807141E+02  0.24799226610E+02  0.00000000000E+00 0.  1.
</event>
<event>
 7    1  0.7819001E-012  0.5930194E+02  0.7816164E-02  0.1266605E+00
        -11   -1    0    0    0    0  0.00000000000E+00  0.00000000000E+00  0.45593999997E+02  0.45594000000E+02  0.51100000000E-03 0.  1.
         11   -1    0    0    0    0 -0.00000000000E+00 -0.00000000000E+00 -0.45593999997E+02  0.45594000000E+02  0.51100000000E-03 0. -1.
    9900012    2    1    2    0    0  0.67989149972E+01 -0.56408932214E-01  0.31152729352E+02  0.59301937634E+02  0.49999988340E+02 0.  0.
         12    1    1    2    0    0 -0.67989149972E+01  0.56408932214E-01 -0.31152729352E+02  0.31886062366E+02  0.00000000000E+00 0. -1.
         11    1    3    3    0    0  0.75747070326E+01  0.17720621872E+02  0.18165405621E+02  0.26483553156E+02  0.51100000000E-03 0. -1.
        -11    1    3    3    0    0  0.26852614851E+01 -0.12604530545E+02  0.19778580744E+02  0.23606716757E+02  0.51100000000E-03 0.  1.
        -12    1    3    3    0    0 -0.34610535205E+01 -0.51725002589E+01 -0.67912570131E+01  0.92116677218E+01  0.00000000000E+00 0.  1.
</event>
<event>
 7    1  0.7819001E-012  0.5930179E+02  0.7816164E-02  0.1266605E+00
        -11   -1    0    0    0    0  0.00000000000E+00  0.00000000000E+00  0.45593999997E+02  0.45594000000E+02  0.51100000000E-03 0. -1.
         11   -1    0    0    0    0 -0.00000000000E+00 -0.00000000000E+00 -0.45593999997E+02  0.45594000000E+02  0.51100000000E-03 0.  1.
    9900012    2    1    2    0    0 -0.17309941524E+02 -0.60883194543E+01 -0.26077360699E+02  0.59301789025E+02  0.49999717311E+02 0.  0.
         12    1    1    2    0    0  0.17309941524E+02  0.60883194543E+01  0.26077360699E+02  0.31886210975E+02  0.00000000000E+00 0. -1.
         11    1    3    3    0    0 -0.12862308695E+02  0.66543442062E+01  0.56355673778E+01  0.15539591427E+02  0.51100000000E-03 0. -1.
        -11    1    3    3    0    0 -0.62700460387E+01  0.62202852474E+01 -0.18731795187E+02  0.20709552798E+02  0.51100000000E-03 0.  1.
         12    1    3    3    0    0  0.18224132093E+01 -0.18962948908E+02 -0.12981132890E+02  0.23052644800E+02  0.00000000000E+00 0. -1.
</event>
<event>
 7    1  0.7819001E-012  0.5930194E+02  0.7816164E-02  0.1266605E+00
        -11   -1    0    0    0    0  0.00000000000E+00  0.00000000000E+00  0.45593999997E+02  0.45594000000E+02  0.51100000000E-03 0.  1.
         11   -1    0    0    0    0 -0.00000000000E+00 -0.00000000000E+00 -0.45593999997E+02  0.45594000000E+02  0.51100000000E-03 0. -1.
    9900012    2    1    2    0    0 -0.19528058532E+02 -0.14025297042E+02  0.20944380654E+02  0.59301935518E+02  0.49999984480E+02 0.  0.
         12    1    1    2    0    0  0.19528058532E+02  0.14025297042E+02 -0.20944380654E+02  0.31886064482E+02  0.00000000000E+00 0. -1.
         11    1    3    3    0    0 -0.71555739572E+01 -0.93099444966E+00  0.67339591561E+01  0.98699136521E+01  0.51100000000E-03 0. -1.
        -11    1    3    3    0    0  0.34091539234E+01  0.16890351186E+01 -0.13646587958E+02  0.14167022738E+02  0.51100000000E-03 0.  1.
        -12    1    3    3    0    0 -0.15781638499E+02 -0.14783337711E+02  0.27857009456E+02  0.35264999127E+02  0.00000000000E+00 0.  1.
</event>
<event>
 7    1  0.7819001E-012  0.5930195E+02  0.7816164E-02  0.1266605E+00
        -11   -1    0    0    0    0  0.00000000000E+00  0.00000000000E+00  0.45593999997E+02  0.45594000000E+02  0.51100000000E-03 0.  1.
         11   -1    0    0    0    0 -0.00000000000E+00 -0.00000000000E+00 -0.45593999997E+02  0.45594000000E+02  0.51100000000E-03 0. -1.
    9900012    2    1    2    0    0 -0.20152802732E+02 -0.49076954889E+01  0.24217751586E+02  0.59301946233E+02  0.50000004021E+02 0.  0.
         12    1    1    2    0    0  0.20152802732E+02  0.49076954889E+01 -0.24217751586E+02  0.31886053767E+02  0.00000000000E+00 0. -1.
         11    1    3    3    0    0 -0.25855270526E+02  0.94012789243E+01  0.18137703702E+02  0.32952319421E+02  0.51100000000E-03 0. -1.
        -11    1    3    3    0    0 -0.19968606745E+00 -0.11446425477E+02  0.12653039829E+02  0.17063409621E+02  0.51100000000E-03 0.  1.
         12    1    3    3    0    0  0.59021538612E+01 -0.28625489366E+01 -0.65729919444E+01  0.92862171909E+01  0.00000000000E+00 0. -1.
</event>
<event>
 7    1  0.7819001E-012  0.5930194E+02  0.7816164E-02  0.1266605E+00
        -11   -1    0    0    0    0  0.00000000000E+00  0.00000000000E+00  0.45593999997E+02  0.45594000000E+02  0.51100000000E-03 0. -1.
         11   -1    0    0    0    0 -0.00000000000E+00 -0.00000000000E+00 -0.45593999997E+02  0.45594000000E+02  0.51100000000E-03 0.  1.
    9900012    2    1    2    0    0 -0.18576580978E+02 -0.21609321109E+02 -0.14306250595E+02  0.59301938378E+02  0.49999989697E+02 0.  0.
         12    1    1    2    0    0  0.18576580978E+02  0.21609321109E+02  0.14306250595E+02  0.31886061622E+02  0.00000000000E+00 0. -1.
         11    1    3    3    0    0 -0.17389016805E+02  0.63803921956E+01 -0.22440555434E+02  0.29097522892E+02  0.51100000000E-03 0. -1.
        -11    1    3    3    0    0 -0.39996661180E+01 -0.10287017912E+02  0.44758526702E+01  0.11910219308E+02  0.51100000000E-03 0.  1.
         12    1    3    3    0    0  0.28121019454E+01 -0.17702695393E+02  0.36584521686E+01  0.18294196178E+02  0.00000000000E+00 0. -1.
</event>
<event>
 7    1  0.7819001E-012  0.5930197E+02  0.7816164E-02  0.1266605E+00
        -11   -1    0    0    0    0  0.00000000000E+00  0.00000000000E+00  0.45593999997E+02  0.45594000000E+02  0.51100000000E-03 0.  1.
         11   -1    0    0    0    0 -0.00000000000E+00 -0.00000000000E+00 -0.45593999997E+02  0.45594000000E+02  0.51100000000E-03 0. -1.
    9900012    2    1    2    0    0 -0.11999678054E+01 -0.31727938106E+02 -0.29354154742E+01  0.59301974170E+02  0.50000054972E+02 0.  0.
         12    1    1    2    0    0  0.11999678054E+01  0.31727938106E+02  0.29354154742E+01  0.31886025830E+02  0.00000000000E+00 0. -1.
         11    1    3    3    0    0  0.60262029823E+01  0.60395094257E+01  0.43160116365E+01  0.95613154531E+01  0.51100000000E-03 0. -1.
        -11    1    3    3    0    0  0.65901745328E+01 -0.28445187886E+02  0.42274475205E+01  0.29503057927E+02  0.51100000000E-03 0.  1.
        -12    1    3    3    0    0 -0.13816345321E+02 -0.93222596459E+01 -0.11478874631E+02  0.20237600790E+02  0.00000000000E+00 0.  1.
</event>
<event>
 7    1  0.7819001E-012  0.5930208E+02  0.7816164E-02  0.1266604E+00
        -11   -1    0    0    0    0  0.00000000000E+00  0.00000000000E+00  0.45593999997E+02  0.45594000000E+02  0.51100000000E-03 0.  1.
         11   -1    0    0    0    0 -0.00000000000E+00 -0.00000000000E+00 -0.45593999997E+02  0.45594000000E+02  0.51100000000E-03 0. -1.
    9900012    2    1    2    0    0  0.79647677952E+01  0.25898230375E+02  0.16809408061E+02  0.59302077370E+02  0.50000243184E+02 0.  0.
         12    1    1    2    0    0 -0.79647677952E+01 -0.25898230375E+02 -0.16809408061E+02  0.31885922630E+02  0.00000000000E+00 0. -1.
         11    1    3    3    0    0 -0.17377960371E+02  0.54315412157E+00  0.13933433597E+02  0.22280688839E+02  0.51100000000E-03 0. -1.
        -11    1    3    3    0    0  0.17925890443E+02  0.15628260170E+02  0.57265710522E+01  0.24461677792E+02  0.51100000000E-03 0.  1.
         12    1    3    3    0    0  0.74168377232E+01  0.97268160841E+01 -0.28505965886E+01  0.12559710739E+02  0.00000000000E+00 0. -1.
</event>
<event>
 7    1  0.7819001E-012  0.5930196E+02  0.7816164E-02  0.1266605E+00
        -11   -1    0    0    0    0  0.00000000000E+00  0.00000000000E+00  0.45593999997E+02  0.45594000000E+02  0.51100000000E-03 0.  1.
         11   -1    0    0    0    0 -0.00000000000E+00 -0.00000000000E+00 -0.45593999997E+02  0.45594000000E+02  0.51100000000E-03 0. -1.
    9900012    2    1    2    0    0 -0.43935170113E+01 -0.19639337582E+02  0.24732832810E+02  0.59301959305E+02  0.50000027861E+02 0.  0.
         12    1    1    2    0    0  0.43935170113E+01  0.19639337582E+02 -0.24732832810E+02  0.31886040695E+02  0.00000000000E+00 0. -1.
         11    1    3    3    0    0  0.35517155230E+01 -0.33293570326E+02  0.58812685049E+01  0.33995085347E+02  0.51100000000E-03 0. -1.
        -11    1    3    3    0    0 -0.43535798023E+01  0.25513355130E+01  0.41263577571E+01  0.65184199463E+01  0.51100000000E-03 0.  1.
         12    1    3    3    0    0 -0.35916527320E+01  0.11102897231E+02  0.14725206548E+02  0.18788454012E+02  0.00000000000E+00 0. -1.
</event>
<event>
 7    1  0.7819001E-012  0.5930189E+02  0.7816164E-02  0.1266605E+00
        -11   -1    0    0    0    0  0.00000000000E+00  0.00000000000E+00  0.45593999997E+02  0.45594000000E+02  0.51100000000E-03 0.  1.
         11   -1    0    0    0    0 -0.00000000000E+00 -0.00000000000E+00 -0.45593999997E+02  0.45594000000E+02  0.51100000000E-03 0. -1.
    9900012    2    1    2    0    0 -0.27799225896E+02  0.66470280941E+01 -0.14133078288E+02  0.59301892605E+02  0.49999906217E+02 0.  0.
         12    1    1    2    0    0  0.27799225896E+02 -0.66470280941E+01  0.14133078288E+02  0.31886107395E+02  0.00000000000E+00 0. -1.
         11    1    3    3    0    0 -0.56461990529E+01 -0.16752857503E+02 -0.14905889828E+02  0.23124085930E+02  0.51100000000E-03 0. -1.
        -11    1    3    3    0    0 -0.14566739629E+02  0.45394551572E+01 -0.28693524791E+01  0.15525132542E+02  0.51100000000E-03 0.  1.
         12    1    3    3    0    0 -0.75862872141E+01  0.18860430440E+02  0.36421640194E+01  0.20652674133E+02  0.00000000000E+00 0. -1.
</event>
<event>
 7    1  0.7819001E-012  0.5930206E+02  0.7816164E-02  0.1266604E+00
        -11   -1    0    0    0    0  0.00000000000E+00  0.00000000000E+00  0.45593999997E+02  0.45594000000E+02  0.51100000000E-03 0.  1.
         11   -1    0    0    0    0 -0.00000000000E+00 -0.00000000000E+00 -0.45593999997E+02  0.45594000000E+02  0.51100000000E-03 0. -1.
    9900012    2    1    2    0    0 -0.17440308242E+02 -0.22059189826E+02 -0.15031328275E+02  0.59302062079E+02  0.50000215297E+02 0.  0.
         12    1    1    2    0    0  0.17440308242E+02  0.22059189826E+02  0.15031328275E+02  0.31885937921E+02  0.00000000000E+00 0. -1.
         11    1    3    3    0    0 -0.63217711593E+00 -0.32997695175E+02 -0.65973265523E+01  0.33656682140E+02  0.51100000000E-03 0. -1.
        -11    1    3    3    0    0  0.79452920632E+00  0.55344872945E+01 -0.56077817519E+00  0.56192791971E+01  0.51100000000E-03 0.  1.
         12    1    3    3    0    0 -0.17602660333E+02  0.54040180543E+01 -0.78732235477E+01  0.20026100743E+02  0.00000000000E+00 0. -1.
</event>
<event>
 7    1  0.7819001E-012  0.5930198E+02  0.7816164E-02  0.1266605E+00
        -11   -1    0    0    0    0  0.00000000000E+00  0.00000000000E+00  0.45593999997E+02  0.45594000000E+02  0.51100000000E-03 0.  1.
         11   -1    0    0    0    0 -0.00000000000E+00 -0.00000000000E+00 -0.45593999997E+02  0.45594000000E+02  0.51100000000E-03 0. -1.
    9900012    2    1    2    0    0  0.10938365675E+01  0.14017481087E+02  0.28618731650E+02  0.59301983383E+02  0.50000071775E+02 0.  0.
         12    1    1    2    0    0 -0.10938365675E+01 -0.14017481087E+02 -0.28618731650E+02  0.31886016617E+02  0.00000000000E+00 0. -1.
         11    1    3    3    0    0 -0.14619452210E+02  0.13939182018E+02  0.50706831617E+01  0.20826449679E+02  0.51100000000E-03 0.  1.
        -11    1    3    3    0    0  0.21936307707E+02  0.33454871264E+01  0.12751812397E+02  0.25593018572E+02  0.51100000000E-03 0. -1.
         12    1    3    3    0    0 -0.62230189293E+01 -0.32671880576E+01  0.10796236091E+02  0.12882515132E+02  0.00000000000E+00 0. -1.
</event>
<event>
 7    1  0.7819001E-012  0.5930196E+02  0.7816164E-02  0.1266605E+00
        -11   -1    0    0    0    0  0.00000000000E+00  0.00000000000E+00  0.45593999997E+02  0.45594000000E+02  0.51100000000E-03 0. -1.
         11   -1    0    0    0    0 -0.00000000000E+00 -0.00000000000E+00 -0.45593999997E+02  0.45594000000E+02  0.51100000000E-03 0.  1.
    9900012    2    1    2    0    0  0.30474173648E+01 -0.14328472507E+02 -0.28321862928E+02  0.59301956083E+02  0.50000021985E+02 0.  0.
         12    1    1    2    0    0 -0.30474173648E+01  0.14328472507E+02  0.28321862928E+02  0.31886043917E+02  0.00000000000E+00 0. -1.
         11    1    3    3    0    0  0.22715828986E+02  0.52396133492E+01 -0.91757055505E+01  0.25053063829E+02  0.51100000000E-03 0. -1.
        -11    1    3    3    0    0 -0.10926179092E+02 -0.12945045411E+02 -0.14647815295E+02  0.22394510118E+02  0.51100000000E-03 0.  1.
         12    1    3    3    0    0 -0.87422325295E+01 -0.66230404447E+01 -0.44983420825E+01  0.11854382136E+02  0.00000000000E+00 0. -1.
</event>
<event>
 7    1  0.7819001E-012  0.5930193E+02  0.7816164E-02  0.1266605E+00
        -11   -1    0    0    0    0  0.00000000000E+00  0.00000000000E+00  0.45593999997E+02  0.45594000000E+02  0.51100000000E-03 0.  1.
         11   -1    0    0    0    0 -0.00000000000E+00 -0.00000000000E+00 -0.45593999997E+02  0.45594000000E+02  0.51100000000E-03 0. -1.
    9900012    2    1    2    0    0  0.31070587252E+02  0.83795112430E+00  0.71160507401E+01  0.59301925729E+02  0.49999966627E+02 0.  0.
         12    1    1    2    0    0 -0.31070587252E+02 -0.83795112430E+00 -0.71160507401E+01  0.31886074271E+02  0.00000000000E+00 0. -1.
         11    1    3    3    0    0  0.54654437764E+01 -0.89873933712E+01 -0.53565994386E+01  0.11804129493E+02  0.51100000000E-03 0. -1.
        -11    1    3    3    0    0  0.22177052457E+02  0.10364398204E+02  0.24707228553E+02  0.34780591554E+02  0.51100000000E-03 0.  1.
        -12    1    3    3    0    0  0.34280910193E+01 -0.53905370819E+00 -0.12234578374E+02  0.12717204682E+02  0.00000000000E+00 0.  1.
</event>
<event>
 7    1  0.7819001E-012  0.5930231E+02  0.7816164E-02  0.1266603E+00
        -11   -1    0    0    0    0  0.00000000000E+00  0.00000000000E+00  0.45593999997E+02  0.45594000000E+02  0.51100000000E-03 0.  1.
         11   -1    0    0    0    0 -0.00000000000E+00 -0.00000000000E+00 -0.45593999997E+02  0.45594000000E+02  0.51100000000E-03 0. -1.
    9900012    2    1    2    0    0  0.10345997646E+02 -0.28756543156E+01  0.30023123831E+02  0.59302313248E+02  0.50000673365E+02 0.  0.
         12    1    1    2    0    0 -0.10345997646E+02  0.28756543156E+01 -0.30023123831E+02  0.31885686752E+02  0.00000000000E+00 0. -1.
         11    1    3    3    0    0 -0.92515189724E+01 -0.12351163364E+02  0.86527786049E+01  0.17692156951E+02  0.51100000000E-03 0. -1.
        -11    1    3    3    0    0  0.18145279757E+02 -0.61005248439E+01  0.70452723575E+01  0.20398613769E+02  0.51100000000E-03 0.  1.
        -12    1    3    3    0    0  0.14522368610E+01  0.15576033892E+02  0.14325072869E+02  0.21211542528E+02  0.00000000000E+00 0.  1.
</event>
<event>
 7    1  0.7819001E-012  0.5930193E+02  0.7816164E-02  0.1266605E+00
        -11   -1    0    0    0    0  0.00000000000E+00  0.00000000000E+00  0.45593999997E+02  0.45594000000E+02  0.51100000000E-03 0.  1.
         11   -1    0    0    0    0 -0.00000000000E+00 -0.00000000000E+00 -0.45593999997E+02  0.45594000000E+02  0.51100000000E-03 0. -1.
    9900012    2    1    2    0    0 -0.65720800439E+01  0.61829654400E+01  0.30582680192E+02  0.59301927406E+02  0.49999969686E+02 0.  0.
         12    1    1    2    0    0  0.65720800439E+01 -0.61829654400E+01 -0.30582680192E+02  0.31886072594E+02  0.00000000000E+00 0. -1.
         11    1    3    3    0    0 -0.79857108833E+00 -0.63116847564E+01 -0.57404925446E+01  0.85690335023E+01  0.51100000000E-03 0. -1.
        -11    1    3    3    0    0 -0.13737396328E+02  0.20032712141E+02  0.22716489354E+02  0.33257548052E+02  0.51100000000E-03 0.  1.
        -12    1    3    3    0    0  0.79638873729E+01 -0.75380619442E+01  0.13606683382E+02  0.17475345851E+02  0.00000000000E+00 0.  1.
</event>
<event>
 7    1  0.7819001E-012  0.5930196E+02  0.7816164E-02  0.1266605E+00
        -11   -1    0    0    0    0  0.00000000000E+00  0.00000000000E+00  0.45593999997E+02  0.45594000000E+02  0.51100000000E-03 0. -1.
         11   -1    0    0    0    0 -0.00000000000E+00 -0.00000000000E+00 -0.45593999997E+02  0.45594000000E+02  0.51100000000E-03 0.  1.
    9900012    2    1    2    0    0  0.31490485194E+02 -0.69667905795E+00  0.49581799522E+01  0.59301959670E+02  0.50000028529E+02 0.  0.
         12    1    1    2    0    0 -0.31490485194E+02  0.69667905795E+00 -0.49581799522E+01  0.31886040330E+02  0.00000000000E+00 0. -1.
         11    1    3    3    0    0  0.19013325406E+01 -0.38295674483E+01 -0.42068611862E+01  0.59981941926E+01  0.51100000000E-03 0. -1.
        -11    1    3    3    0    0  0.65683102619E+01  0.20180337252E+02  0.12230783910E+02  0.24494505233E+02  0.51100000000E-03 0.  1.
        -12    1    3    3    0    0  0.23020842391E+02 -0.17047448861E+02 -0.30657427721E+01  0.28809260245E+02  0.00000000000E+00 0.  1.
</event>
<event>
 7    1  0.7819001E-012  0.5930187E+02  0.7816164E-02  0.1266605E+00
        -11   -1    0    0    0    0  0.00000000000E+00  0.00000000000E+00  0.45593999997E+02  0.45594000000E+02  0.51100000000E-03 0.  1.
         11   -1    0    0    0    0 -0.00000000000E+00 -0.00000000000E+00 -0.45593999997E+02  0.45594000000E+02  0.51100000000E-03 0. -1.
    9900012    2    1    2    0    0  0.46148706592E+01  0.97184562300E+01  0.30016325982E+02  0.59301870600E+02  0.49999866085E+02 0.  0.
         12    1    1    2    0    0 -0.46148706592E+01 -0.97184562300E+01 -0.30016325982E+02  0.31886129400E+02  0.00000000000E+00 0. -1.
         11    1    3    3    0    0  0.10059182762E+01 -0.16333215685E+02  0.15417232958E+01  0.16436627305E+02  0.51100000000E-03 0. -1.
        -11    1    3    3    0    0 -0.36791847691E+01  0.19660283308E+02  0.10860441665E+02  0.22759884309E+02  0.51100000000E-03 0.  1.
         12    1    3    3    0    0  0.72881371520E+01  0.63913886069E+01  0.17614161021E+02  0.20105358986E+02  0.00000000000E+00 0. -1.
</event>
<event>
 7    1  0.7819001E-012  0.5930194E+02  0.7816164E-02  0.1266605E+00
        -11   -1    0    0    0    0  0.00000000000E+00  0.00000000000E+00  0.45593999997E+02  0.45594000000E+02  0.51100000000E-03 0.  1.
         11   -1    0    0    0    0 -0.00000000000E+00 -0.00000000000E+00 -0.45593999997E+02  0.45594000000E+02  0.51100000000E-03 0. -1.
    9900012    2    1    2    0    0  0.37505750927E+01  0.28698844204E+02  0.13380218462E+02  0.59301941632E+02  0.49999995631E+02 0.  0.
         12    1    1    2    0    0 -0.37505750927E+01 -0.28698844204E+02 -0.13380218462E+02  0.31886058368E+02  0.00000000000E+00 0. -1.
         11    1    3    3    0    0  0.32319102671E+00  0.17059869064E+01  0.46031433837E+01  0.49197330250E+01  0.51100000000E-03 0.  1.
        -11    1    3    3    0    0 -0.15480391142E+02 -0.51962239507E+01  0.22254133521E+01  0.16480161350E+02  0.51100000000E-03 0. -1.
        -12    1    3    3    0    0  0.18907775208E+02  0.32189081248E+02  0.65516617261E+01  0.37902047257E+02  0.00000000000E+00 0.  1.
</event>
<event>
 7    1  0.7819001E-012  0.5930196E+02  0.7816164E-02  0.1266605E+00
        -11   -1    0    0    0    0  0.00000000000E+00  0.00000000000E+00  0.45593999997E+02  0.45594000000E+02  0.51100000000E-03 0. -1.
         11   -1    0    0    0    0 -0.00000000000E+00 -0.00000000000E+00 -0.45593999997E+02  0.45594000000E+02  0.51100000000E-03 0.  1.
    9900012    2    1    2    0    0  0.31214790072E+02  0.65037584114E+01 -0.24000509656E+00  0.59301959243E+02  0.50000027749E+02 0.  0.
         12    1    1    2    0    0 -0.31214790072E+02 -0.65037584114E+01  0.24000509656E+00  0.31886040757E+02  0.00000000000E+00 0. -1.
         11    1    3    3    0    0  0.38088079903E+00  0.10281980670E+02 -0.21622626072E+01  0.10513780315E+02  0.51100000000E-03 0. -1.
        -11    1    3    3    0    0  0.85613901200E+01 -0.19342062839E+02  0.40386382546E+01  0.21534237736E+02  0.51100000000E-03 0.  1.
        -12    1    3    3    0    0  0.22272519153E+02  0.15563840580E+02 -0.21163807439E+01  0.27253941192E+02  0.00000000000E+00 0.  1.
</event>
<event>
 7    1  0.7819001E-012  0.5930194E+02  0.7816164E-02  0.1266605E+00
        -11   -1    0    0    0    0  0.00000000000E+00  0.00000000000E+00  0.45593999997E+02  0.45594000000E+02  0.51100000000E-03 0.  1.
         11   -1    0    0    0    0 -0.00000000000E+00 -0.00000000000E+00 -0.45593999997E+02  0.45594000000E+02  0.51100000000E-03 0. -1.
    9900012    2    1    2    0    0 -0.19731425733E+02  0.10443165288E+02  0.22766899970E+02  0.59301943534E+02  0.49999999100E+02 0.  0.
         12    1    1    2    0    0  0.19731425733E+02 -0.10443165288E+02 -0.22766899970E+02  0.31886056466E+02  0.00000000000E+00 0. -1.
         11    1    3    3    0    0 -0.70618387474E+01 -0.75554260746E+01  0.12179574831E+02  0.15977987138E+02  0.51100000000E-03 0. -1.
        -11    1    3    3    0    0 -0.12694908485E+02  0.13009990697E+02 -0.10947049737E+02  0.21219294465E+02  0.51100000000E-03 0.  1.
        -12    1    3    3    0    0  0.25321499283E-01  0.49886006655E+01  0.21534374877E+02  0.22104661932E+02  0.00000000000E+00 0.  1.
</event>
<event>
 7    1  0.7819001E-012  0.5930198E+02  0.7816164E-02  0.1266605E+00
        -11   -1    0    0    0    0  0.00000000000E+00  0.00000000000E+00  0.45593999997E+02  0.45594000000E+02  0.51100000000E-03 0.  1.
         11   -1    0    0    0    0 -0.00000000000E+00 -0.00000000000E+00 -0.45593999997E+02  0.45594000000E+02  0.51100000000E-03 0. -1.
    9900012    2    1    2    0    0  0.24479907437E+02 -0.18318065463E+02  0.90499247244E+01  0.59301975978E+02  0.50000058269E+02 0.  0.
         12    1    1    2    0    0 -0.24479907437E+02  0.18318065463E+02 -0.90499247244E+01  0.31886024022E+02  0.00000000000E+00 0. -1.
         11    1    3    3    0    0  0.50630902015E+01 -0.97157320759E+00 -0.75112591629E+01  0.91103156564E+01  0.51100000000E-03 0. -1.
        -11    1    3    3    0    0  0.14185074002E+02 -0.25797970071E+02  0.23831056183E+02  0.37877048767E+02  0.51100000000E-03 0.  1.
        -12    1    3    3    0    0  0.52317432331E+01  0.84514778155E+01 -0.72698722961E+01  0.12314611554E+02  0.00000000000E+00 0.  1.
</event>
<event>
 7    1  0.7819001E-012  0.5930195E+02  0.7816164E-02  0.1266605E+00
        -11   -1    0    0    0    0  0.00000000000E+00  0.00000000000E+00  0.45593999997E+02  0.45594000000E+02  0.51100000000E-03 0. -1.
         11   -1    0    0    0    0 -0.00000000000E+00 -0.00000000000E+00 -0.45593999997E+02  0.45594000000E+02  0.51100000000E-03 0.  1.
    9900012    2    1    2    0    0  0.30486714707E+02 -0.63231201151E+01  0.68773865898E+01  0.59301951830E+02  0.50000014229E+02 0.  0.
         12    1    1    2    0    0 -0.30486714707E+02  0.63231201151E+01 -0.68773865898E+01  0.31886048170E+02  0.00000000000E+00 0. -1.
         11    1    3    3    0    0  0.20452150480E+02 -0.98132593587E+01 -0.13973277261E+02  0.26642878901E+02  0.51100000000E-03 0.  1.
        -11    1    3    3    0    0  0.12092625017E+02 -0.38991454569E+01  0.21486674148E+02  0.24962213069E+02  0.51100000000E-03 0. -1.
         12    1    3    3    0    0 -0.20580607901E+01  0.73892847006E+01 -0.63601029710E+00  0.76968598597E+01  0.00000000000E+00 0. -1.
</event>
<event>
 7    1  0.7819001E-012  0.5930195E+02  0.7816164E-02  0.1266605E+00
        -11   -1    0    0    0    0  0.00000000000E+00  0.00000000000E+00  0.45593999997E+02  0.45594000000E+02  0.51100000000E-03 0. -1.
         11   -1    0    0    0    0 -0.00000000000E+00 -0.00000000000E+00 -0.45593999997E+02  0.45594000000E+02  0.51100000000E-03 0.  1.
    9900012    2    1    2    0    0 -0.20342586718E+02  0.22819533048E+02 -0.90646680954E+01  0.59301950847E+02  0.50000012436E+02 0.  0.
         12    1    1    2    0    0  0.20342586718E+02 -0.22819533048E+02  0.90646680954E+01  0.31886049153E+02  0.00000000000E+00 0. -1.
         11    1    3    3    0    0  0.15623922923E+01  0.54954855902E+01 -0.50931743115E+01  0.76538785185E+01  0.51100000000E-03 0. -1.
        -11    1    3    3    0    0 -0.14307003009E+02  0.22243690202E+02  0.15159249901E+02  0.30484011329E+02  0.51100000000E-03 0.  1.
        -12    1    3    3    0    0 -0.75979760014E+01 -0.49196427437E+01 -0.19130743685E+02  0.21164060999E+02  0.00000000000E+00 0.  1.
</event>
<event>
 7    1  0.7819001E-012  0.5930195E+02  0.7816164E-02  0.1266605E+00
        -11   -1    0    0    0    0  0.00000000000E+00  0.00000000000E+00  0.45593999997E+02  0.45594000000E+02  0.51100000000E-03 0. -1.
         11   -1    0    0    0    0 -0.00000000000E+00 -0.00000000000E+00 -0.45593999997E+02  0.45594000000E+02  0.51100000000E-03 0.  1.
    9900012    2    1    2    0    0 -0.20161954342E+02 -0.15724487792E+02 -0.19051411929E+02  0.59301949512E+02  0.50000010003E+02 0.  0.
         12    1    1    2    0    0  0.20161954342E+02  0.15724487792E+02  0.19051411929E+02  0.31886050488E+02  0.00000000000E+00 0. -1.
         11    1    3    3    0    0 -0.25209939965E+02  0.78159713794E+01 -0.22820873018E+02  0.34891585335E+02  0.51100000000E-03 0. -1.
        -11    1    3    3    0    0  0.18247815696E+01 -0.86605311930E+01  0.20806854376E+01  0.90919679098E+01  0.51100000000E-03 0.  1.
         12    1    3    3    0    0  0.32232040528E+01 -0.14879927978E+02  0.16887756516E+01  0.15318396268E+02  0.00000000000E+00 0. -1.
</event>
<event>
 7    1  0.7819001E-012  0.5930187E+02  0.7816164E-02  0.1266605E+00
        -11   -1    0    0    0    0  0.00000000000E+00  0.00000000000E+00  0.45593999997E+02  0.45594000000E+02  0.51100000000E-03 0. -1.
         11   -1    0    0    0    0 -0.00000000000E+00 -0.00000000000E+00 -0.45593999997E+02  0.45594000000E+02  0.51100000000E-03 0.  1.
    9900012    2    1    2    0    0  0.14331813885E+02  0.11616905192E+02 -0.26007145598E+02  0.59301874528E+02  0.49999873249E+02 0.  0.
         12    1    1    2    0    0 -0.14331813885E+02 -0.11616905192E+02  0.26007145598E+02  0.31886125472E+02  0.00000000000E+00 0. -1.
         11    1    3    3    0    0  0.50299915872E+01 -0.17100781585E+02 -0.10453464091E+02  0.20664279759E+02  0.51100000000E-03 0. -1.
        -11    1    3    3    0    0  0.48049565652E+01  0.11470894650E+02  0.31213106326E+01  0.12822309153E+02  0.51100000000E-03 0.  1.
         12    1    3    3    0    0  0.44968657324E+01  0.17246792127E+02 -0.18674992139E+02  0.25815285617E+02  0.00000000000E+00 0. -1.
</event>
<event>
 7    1  0.7819001E-012  0.5930194E+02  0.7816164E-02  0.1266605E+00
        -11   -1    0    0    0    0  0.00000000000E+00  0.00000000000E+00  0.45593999997E+02  0.45594000000E+02  0.51100000000E-03 0. -1.
         11   -1    0    0    0    0 -0.00000000000E+00 -0.00000000000E+00 -0.45593999997E+02  0.45594000000E+02  0.51100000000E-03 0.  1.
    9900012    2    1    2    0    0  0.52828649295E+01 -0.25316179686E+02 -0.18652159853E+02  0.59301942186E+02  0.49999996641E+02 0.  0.
         12    1    1    2    0    0 -0.52828649295E+01  0.25316179686E+02  0.18652159853E+02  0.31886057814E+02  0.00000000000E+00 0. -1.
         11    1    3    3    0    0  0.67438357242E+01  0.13147642174E+02 -0.18390647976E+01  0.14890331581E+02  0.51100000000E-03 0. -1.
        -11    1    3    3    0    0 -0.56363670249E+01 -0.78660916032E+01 -0.72232200508E+01  0.12075551272E+02  0.51100000000E-03 0.  1.
         12    1    3    3    0    0  0.41753962303E+01 -0.30597730257E+02 -0.95898750042E+01  0.32336059333E+02  0.00000000000E+00 0. -1.
</event>
<event>
 7    1  0.7819001E-012  0.5930193E+02  0.7816164E-02  0.1266605E+00
        -11   -1    0    0    0    0  0.00000000000E+00  0.00000000000E+00  0.45593999997E+02  0.45594000000E+02  0.51100000000E-03 0. -1.
         11   -1    0    0    0    0 -0.00000000000E+00 -0.00000000000E+00 -0.45593999997E+02  0.45594000000E+02  0.51100000000E-03 0.  1.
    9900012    2    1    2    0    0 -0.30460678375E+02 -0.93803743681E+01 -0.93662644374E+00  0.59301927500E+02  0.49999969858E+02 0.  0.
         12    1    1    2    0    0  0.30460678375E+02  0.93803743681E+01  0.93662644374E+00  0.31886072500E+02  0.00000000000E+00 0. -1.
         11    1    3    3    0    0  0.27045797929E+00 -0.26864884860E+01 -0.11038817533E+02  0.11364236036E+02  0.51100000000E-03 0. -1.
        -11    1    3    3    0    0  0.23955749206E+01  0.70796708769E+01  0.94596124662E+01  0.12055902587E+02  0.51100000000E-03 0.  1.
        -12    1    3    3    0    0 -0.33126711275E+02 -0.13773556759E+02  0.64257862264E+00  0.35881788877E+02  0.00000000000E+00 0.  1.
</event>
<event>
 7    1  0.7819001E-012  0.5930192E+02  0.7816164E-02  0.1266605E+00
        -11   -1    0    0    0    0  0.00000000000E+00  0.00000000000E+00  0.45593999997E+02  0.45594000000E+02  0.51100000000E-03 0.  1.
         11   -1    0    0    0    0 -0.00000000000E+00 -0.00000000000E+00 -0.45593999997E+02  0.45594000000E+02  0.51100000000E-03 0. -1.
    9900012    2    1    2    0    0  0.19806585254E+02 -0.10962701345E+02  0.22455296962E+02  0.59301921504E+02  0.49999958922E+02 0.  0.
         12    1    1    2    0    0 -0.19806585254E+02  0.10962701345E+02 -0.22455296962E+02  0.31886078496E+02  0.00000000000E+00 0. -1.
         11    1    3    3    0    0  0.17139154856E+02 -0.19820549683E+02 -0.64304402830E+01  0.26980648276E+02  0.51100000000E-03 0. -1.
        -11    1    3    3    0    0  0.65240059004E+01  0.27799391259E+01  0.17086246526E+02  0.18499473915E+02  0.51100000000E-03 0.  1.
         12    1    3    3    0    0 -0.38565755025E+01  0.60779092122E+01  0.11799490719E+02  0.13821799313E+02  0.00000000000E+00 0. -1.
</event>
<event>
 7    1  0.7819001E-012  0.5930189E+02  0.7816164E-02  0.1266605E+00
        -11   -1    0    0    0    0  0.00000000000E+00  0.00000000000E+00  0.45593999997E+02  0.45594000000E+02  0.51100000000E-03 0.  1.
         11   -1    0    0    0    0 -0.00000000000E+00 -0.00000000000E+00 -0.45593999997E+02  0.45594000000E+02  0.51100000000E-03 0. -1.
    9900012    2    1    2    0    0  0.27071271722E+02  0.86181888723E+01  0.14477462586E+02  0.59301892445E+02  0.49999905925E+02 0.  0.
         12    1    1    2    0    0 -0.27071271722E+02 -0.86181888723E+01 -0.14477462586E+02  0.31886107555E+02  0.00000000000E+00 0. -1.
         11    1    3    3    0    0 -0.97197719580E+01  0.85089343228E+01  0.11186630192E+02  0.17088493952E+02  0.51100000000E-03 0. -1.
        -11    1    3    3    0    0  0.56010525138E+01  0.11329239682E+01 -0.72889686293E+01  0.92619852040E+01  0.51100000000E-03 0.  1.
         12    1    3    3    0    0  0.31189991166E+02 -0.10236694188E+01  0.10579801023E+02  0.32951413289E+02  0.00000000000E+00 0. -1.
</event>
<event>
 7    1  0.7819001E-012  0.5930194E+02  0.7816164E-02  0.1266605E+00
        -11   -1    0    0    0    0  0.00000000000E+00  0.00000000000E+00  0.45593999997E+02  0.45594000000E+02  0.51100000000E-03 0. -1.
         11   -1    0    0    0    0 -0.00000000000E+00 -0.00000000000E+00 -0.45593999997E+02  0.45594000000E+02  0.51100000000E-03 0.  1.
    9900012    2    1    2    0    0 -0.30669638595E+02  0.37114040090E+01 -0.78942882421E+01  0.59301936616E+02  0.49999986482E+02 0.  0.
         12    1    1    2    0    0  0.30669638595E+02 -0.37114040090E+01  0.78942882421E+01  0.31886063384E+02  0.00000000000E+00 0. -1.
         11    1    3    3    0    0 -0.33812796448E+02  0.89183661533E+01  0.11457105134E+02  0.36798202630E+02  0.51100000000E-03 0. -1.
        -11    1    3    3    0    0 -0.31967334087E+01 -0.31640750762E+01 -0.52843128064E+01  0.69393398585E+01  0.51100000000E-03 0.  1.
         12    1    3    3    0    0  0.63398912616E+01 -0.20428870681E+01 -0.14067080570E+02  0.15564394127E+02  0.00000000000E+00 0. -1.
</event>
<event>
 7    1  0.7819001E-012  0.5930194E+02  0.7816164E-02  0.1266605E+00
        -11   -1    0    0    0    0  0.00000000000E+00  0.00000000000E+00  0.45593999997E+02  0.45594000000E+02  0.51100000000E-03 0.  1.
         11   -1    0    0    0    0 -0.00000000000E+00 -0.00000000000E+00 -0.45593999997E+02  0.45594000000E+02  0.51100000000E-03 0. -1.
    9900012    2    1    2    0    0  0.54695769278E+01  0.23536365877E+02  0.20804898022E+02  0.59301943922E+02  0.49999999808E+02 0.  0.
         12    1    1    2    0    0 -0.54695769278E+01 -0.23536365877E+02 -0.20804898022E+02  0.31886056078E+02  0.00000000000E+00 0. -1.
         11    1    3    3    0    0 -0.51571795616E+01  0.29746139840E+02  0.14962089718E+01  0.30226941260E+02  0.51100000000E-03 0. -1.
        -11    1    3    3    0    0  0.13619121459E+01 -0.10906325671E+02  0.12549946006E+02  0.16682442548E+02  0.51100000000E-03 0.  1.
        -12    1    3    3    0    0  0.92648443435E+01  0.46965517081E+01  0.67587430445E+01  0.12392560115E+02  0.00000000000E+00 0.  1.
</event>
<event>
 7    1  0.7819001E-012  0.5930194E+02  0.7816164E-02  0.1266605E+00
        -11   -1    0    0    0    0  0.00000000000E+00  0.00000000000E+00  0.45593999997E+02  0.45594000000E+02  0.51100000000E-03 0.  1.
         11   -1    0    0    0    0 -0.00000000000E+00 -0.00000000000E+00 -0.45593999997E+02  0.45594000000E+02  0.51100000000E-03 0. -1.
    9900012    2    1    2    0    0 -0.20088844159E+02  0.20558383695E+02  0.13802599949E+02  0.59301944033E+02  0.50000000009E+02 0.  0.
         12    1    1    2    0    0  0.20088844159E+02 -0.20558383695E+02 -0.13802599949E+02  0.31886055967E+02  0.00000000000E+00 0. -1.
         11    1    3    3    0    0 -0.10679809556E+02  0.46814001638E+01 -0.86445398555E+01  0.14515574712E+02  0.51100000000E-03 0. -1.
        -11    1    3    3    0    0 -0.12992402231E+02  0.17783390065E+02  0.29400673945E+02  0.36734875890E+02  0.51100000000E-03 0.  1.
        -12    1    3    3    0    0  0.35833676277E+01 -0.19064065341E+01 -0.69535341408E+01  0.80514934314E+01  0.00000000000E+00 0.  1.
</event>
<event>
 7    1  0.7819001E-012  0.5930196E+02  0.7816164E-02  0.1266605E+00
        -11   -1    0    0    0    0  0.00000000000E+00  0.00000000000E+00  0.45593999997E+02  0.45594000000E+02  0.51100000000E-03 0. -1.
         11   -1    0    0    0    0 -0.00000000000E+00 -0.00000000000E+00 -0.45593999997E+02  0.45594000000E+02  0.51100000000E-03 0.  1.
    9900012    2    1    2    0    0  0.24540450697E+02 -0.53914771493E+01 -0.19632056155E+02  0.59301962693E+02  0.50000034041E+02 0.  0.
         12    1    1    2    0    0 -0.24540450697E+02  0.53914771493E+01  0.19632056155E+02  0.31886037307E+02  0.00000000000E+00 0. -1.
         11    1    3    3    0    0 -0.83568432186E+01  0.39787394839E+01  0.97450215151E+01  0.13439964325E+02  0.51100000000E-03 0. -1.
        -11    1    3    3    0    0  0.18884948194E+02 -0.12691666272E+01 -0.14065418641E+02  0.23581519332E+02  0.51100000000E-03 0.  1.
         12    1    3    3    0    0  0.14012345722E+02 -0.81010500060E+01 -0.15311659029E+02  0.22280479036E+02  0.00000000000E+00 0. -1.
</event>
<event>
 7    1  0.7819001E-012  0.5930190E+02  0.7816164E-02  0.1266605E+00
        -11   -1    0    0    0    0  0.00000000000E+00  0.00000000000E+00  0.45593999997E+02  0.45594000000E+02  0.51100000000E-03 0.  1.
         11   -1    0    0    0    0 -0.00000000000E+00 -0.00000000000E+00 -0.45593999997E+02  0.45594000000E+02  0.51100000000E-03 0. -1.
    9900012    2    1    2    0    0  0.52045212976E+01 -0.53253734103E+01  0.31004460636E+02  0.59301902352E+02  0.49999923994E+02 0.  0.
         12    1    1    2    0    0 -0.52045212976E+01  0.53253734103E+01 -0.31004460636E+02  0.31886097648E+02  0.00000000000E+00 0. -1.
         11    1    3    3    0    0  0.16020739922E+02 -0.19458249596E+02  0.81272212273E+01  0.26482811598E+02  0.51100000000E-03 0.  1.
        -11    1    3    3    0    0  0.89255027101E+00  0.11038926294E+02  0.81426138766E+01  0.13746152215E+02  0.51100000000E-03 0. -1.
         12    1    3    3    0    0 -0.11708768895E+02  0.30939498919E+01  0.14734625532E+02  0.19072938540E+02  0.00000000000E+00 0. -1.
</event>
<event>
 7    1  0.7819001E-012  0.5930194E+02  0.7816164E-02  0.1266605E+00
        -11   -1    0    0    0    0  0.00000000000E+00  0.00000000000E+00  0.45593999997E+02  0.45594000000E+02  0.51100000000E-03 0.  1.
         11   -1    0    0    0    0 -0.00000000000E+00 -0.00000000000E+00 -0.45593999997E+02  0.45594000000E+02  0.51100000000E-03 0. -1.
    9900012    2    1    2    0    0 -0.24248148400E+02  0.68332702390E+01  0.19546215646E+02  0.59301939894E+02  0.49999992462E+02 0.  0.
         12    1    1    2    0    0  0.24248148400E+02 -0.68332702390E+01 -0.19546215646E+02  0.31886060106E+02  0.00000000000E+00 0. -1.
         11    1    3    3    0    0 -0.66073151401E+01  0.76168570714E+01 -0.12044893204E+02  0.15708360117E+02  0.51100000000E-03 0. -1.
        -11    1    3    3    0    0 -0.15323113950E+02 -0.10099555639E+01  0.35704456947E+02  0.38866773438E+02  0.51100000000E-03 0.  1.
        -12    1    3    3    0    0 -0.23177193096E+01  0.22636873147E+00 -0.41133480963E+01  0.47268063386E+01  0.00000000000E+00 0.  1.
</event>
<event>
 7    1  0.7819001E-012  0.5930196E+02  0.7816164E-02  0.1266605E+00
        -11   -1    0    0    0    0  0.00000000000E+00  0.00000000000E+00  0.45593999997E+02  0.45594000000E+02  0.51100000000E-03 0.  1.
         11   -1    0    0    0    0 -0.00000000000E+00 -0.00000000000E+00 -0.45593999997E+02  0.45594000000E+02  0.51100000000E-03 0. -1.
    9900012    2    1    2    0    0  0.13085430442E+02  0.29026870489E+02  0.17123376496E+01  0.59301956024E+02  0.50000021878E+02 0.  0.
         12    1    1    2    0    0 -0.13085430442E+02 -0.29026870489E+02 -0.17123376496E+01  0.31886043976E+02  0.00000000000E+00 0. -1.
         11    1    3    3    0    0  0.68491036899E+01 -0.97801180828E+01 -0.93841619538E+01  0.15186290755E+02  0.51100000000E-03 0. -1.
        -11    1    3    3    0    0  0.64969840330E+01  0.24754590427E+02  0.14822365498E+02  0.29575379422E+02  0.51100000000E-03 0.  1.
         12    1    3    3    0    0 -0.26065728130E+00  0.14052398145E+02 -0.37258658942E+01  0.14540285846E+02  0.00000000000E+00 0. -1.
</event>
<event>
 7    1  0.7819001E-012  0.5930196E+02  0.7816164E-02  0.1266605E+00
        -11   -1    0    0    0    0  0.00000000000E+00  0.00000000000E+00  0.45593999997E+02  0.45594000000E+02  0.51100000000E-03 0.  1.
         11   -1    0    0    0    0 -0.00000000000E+00 -0.00000000000E+00 -0.45593999997E+02  0.45594000000E+02  0.51100000000E-03 0. -1.
    9900012    2    1    2    0    0 -0.22262014012E+02 -0.20840085639E+02  0.93173671414E+01  0.59301956536E+02  0.50000022813E+02 0.  0.
         12    1    1    2    0    0  0.22262014012E+02  0.20840085639E+02 -0.93173671414E+01  0.31886043464E+02  0.00000000000E+00 0. -1.
         11    1    3    3    0    0 -0.10789117093E+02  0.93162160757E+01 -0.75976789985E+01  0.16153069555E+02  0.51100000000E-03 0. -1.
        -11    1    3    3    0    0 -0.17245713792E+02 -0.13887094180E+02  0.69052176722E+01  0.23193707344E+02  0.51100000000E-03 0.  1.
         12    1    3    3    0    0  0.57728168729E+01 -0.16269207534E+02  0.10009828468E+02  0.19955179638E+02  0.00000000000E+00 0. -1.
</event>
<event>
 7    1  0.7819001E-012  0.5930194E+02  0.7816164E-02  0.1266605E+00
        -11   -1    0    0    0    0  0.00000000000E+00  0.00000000000E+00  0.45593999997E+02  0.45594000000E+02  0.51100000000E-03 0. -1.
         11   -1    0    0    0    0 -0.00000000000E+00 -0.00000000000E+00 -0.45593999997E+02  0.45594000000E+02  0.51100000000E-03 0.  1.
    9900012    2    1    2    0    0 -0.67575616239E+01 -0.39272977345E+01 -0.30913301734E+02  0.59301944573E+02  0.50000000995E+02 0.  0.
         12    1    1    2    0    0  0.67575616239E+01  0.39272977345E+01  0.30913301734E+02  0.31886055427E+02  0.00000000000E+00 0. -1.
         11    1    3    3    0    0 -0.15873951900E+02 -0.14274179278E+02 -0.34491820460E+02  0.40563779680E+02  0.51100000000E-03 0. -1.
        -11    1    3    3    0    0  0.10010394316E+02  0.77706550962E+01 -0.17106667779E+01  0.12787394420E+02  0.51100000000E-03 0.  1.
         12    1    3    3    0    0 -0.89400403908E+00  0.25762264470E+01  0.52891855042E+01  0.59507704733E+01  0.00000000000E+00 0. -1.
</event>
<event>
 7    1  0.7819001E-012  0.5930195E+02  0.7816164E-02  0.1266605E+00
        -11   -1    0    0    0    0  0.00000000000E+00  0.00000000000E+00  0.45593999997E+02  0.45594000000E+02  0.51100000000E-03 0. -1.
         11   -1    0    0    0    0 -0.00000000000E+00 -0.00000000000E+00 -0.45593999997E+02  0.45594000000E+02  0.51100000000E-03 0.  1.
    9900012    2    1    2    0    0 -0.20555949143E+02  0.70188485918E+01 -0.23343280746E+02  0.59301952319E+02  0.50000015121E+02 0.  0.
         12    1    1    2    0    0  0.20555949143E+02 -0.70188485918E+01  0.23343280746E+02  0.31886047681E+02  0.00000000000E+00 0. -1.
         11    1    3    3    0    0  0.36682631080E+01 -0.10766682717E+02 -0.68452544279E+01  0.13275357600E+02  0.51100000000E-03 0. -1.
        -11    1    3    3    0    0 -0.15193635411E+02  0.11989852371E+02  0.66882799490E+01  0.20477700209E+02  0.51100000000E-03 0.  1.
        -12    1    3    3    0    0 -0.90305768395E+01  0.57956789374E+01 -0.23186306267E+02  0.25548894511E+02  0.00000000000E+00 0.  1.
</event>
<event>
 7    1  0.7819001E-012  0.5930192E+02  0.7816164E-02  0.1266605E+00
        -11   -1    0    0    0    0  0.00000000000E+00  0.00000000000E+00  0.45593999997E+02  0.45594000000E+02  0.51100000000E-03 0. -1.
         11   -1    0    0    0    0 -0.00000000000E+00 -0.00000000000E+00 -0.45593999997E+02  0.45594000000E+02  0.51100000000E-03 0.  1.
    9900012    2    1    2    0    0  0.49092793686E+01 -0.45850024180E+01 -0.31170475114E+02  0.59301924827E+02  0.49999964983E+02 0.  0.
         12    1    1    2    0    0 -0.49092793686E+01  0.45850024180E+01  0.31170475114E+02  0.31886075173E+02  0.00000000000E+00 0. -1.
         11    1    3    3    0    0  0.26625194407E+01  0.19743807886E+01  0.88681337952E+01  0.94673642869E+01  0.51100000000E-03 0. -1.
        -11    1    3    3    0    0  0.10033730043E+01 -0.13625441315E+02 -0.40403231389E+02  0.42650680128E+02  0.51100000000E-03 0.  1.
        -12    1    3    3    0    0  0.12433869236E+01  0.70660581082E+01  0.36462247973E+00  0.71838804127E+01  0.00000000000E+00 0.  1.
</event>
<event>
 7    1  0.7819001E-012  0.5930190E+02  0.7816164E-02  0.1266605E+00
        -11   -1    0    0    0    0  0.00000000000E+00  0.00000000000E+00  0.45593999997E+02  0.45594000000E+02  0.51100000000E-03 0.  1.
         11   -1    0    0    0    0 -0.00000000000E+00 -0.00000000000E+00 -0.45593999997E+02  0.45594000000E+02  0.51100000000E-03 0. -1.
    9900012    2    1    2    0    0 -0.77408298725E+01 -0.14120831232E+02  0.27520992039E+02  0.59301900762E+02  0.49999921094E+02 0.  0.
         12    1    1    2    0    0  0.77408298725E+01  0.14120831232E+02 -0.27520992039E+02  0.31886099238E+02  0.00000000000E+00 0. -1.
         11    1    3    3    0    0 -0.12941078872E+02  0.52518121481E+00  0.20719963210E+02  0.24434897450E+02  0.51100000000E-03 0.  1.
        -11    1    3    3    0    0 -0.68311887911E+01 -0.44671096837E+01 -0.92747934948E+01  0.12354837266E+02  0.51100000000E-03 0. -1.
         12    1    3    3    0    0  0.12031437790E+02 -0.10178902763E+02  0.16075822323E+02  0.22512166047E+02  0.00000000000E+00 0. -1.
</event>
<event>
 7    1  0.7819001E-012  0.5930194E+02  0.7816164E-02  0.1266605E+00
        -11   -1    0    0    0    0  0.00000000000E+00  0.00000000000E+00  0.45593999997E+02  0.45594000000E+02  0.51100000000E-03 0.  1.
         11   -1    0    0    0    0 -0.00000000000E+00 -0.00000000000E+00 -0.45593999997E+02  0.45594000000E+02  0.51100000000E-03 0. -1.
    9900012    2    1    2    0    0  0.13211951609E+02 -0.28286476746E+02  0.64838536225E+01  0.59301940509E+02  0.49999993583E+02 0.  0.
         12    1    1    2    0    0 -0.13211951609E+02  0.28286476746E+02 -0.64838536225E+01  0.31886059491E+02  0.00000000000E+00 0. -1.
         11    1    3    3    0    0 -0.33928026612E+01 -0.86122359572E+01  0.25519819862E+02  0.27146692692E+02  0.51100000000E-03 0. -1.
        -11    1    3    3    0    0  0.60173079864E+01 -0.78258089043E+01 -0.56199510681E+01  0.11359363128E+02  0.51100000000E-03 0.  1.
         12    1    3    3    0    0  0.10587446284E+02 -0.11848431885E+02 -0.13416015171E+02  0.20795884689E+02  0.00000000000E+00 0. -1.
</event>
<event>
 7    1  0.7819001E-012  0.5930196E+02  0.7816164E-02  0.1266605E+00
        -11   -1    0    0    0    0  0.00000000000E+00  0.00000000000E+00  0.45593999997E+02  0.45594000000E+02  0.51100000000E-03 0. -1.
         11   -1    0    0    0    0 -0.00000000000E+00 -0.00000000000E+00 -0.45593999997E+02  0.45594000000E+02  0.51100000000E-03 0.  1.
    9900012    2    1    2    0    0 -0.26774257574E+02  0.11313104921E+02 -0.13110011543E+02  0.59301958943E+02  0.50000027202E+02 0.  0.
         12    1    1    2    0    0  0.26774257574E+02 -0.11313104921E+02  0.13110011543E+02  0.31886041057E+02  0.00000000000E+00 0. -1.
         11    1    3    3    0    0 -0.26091008702E+02  0.14862861907E+02 -0.21483190057E+02  0.36921170816E+02  0.51100000000E-03 0.  1.
        -11    1    3    3    0    0  0.77841613891E+01 -0.79308989320E+01  0.33610778855E+01  0.11609873867E+02  0.51100000000E-03 0. -1.
        -12    1    3    3    0    0 -0.84674102613E+01  0.43811419460E+01  0.50121006279E+01  0.10770914260E+02  0.00000000000E+00 0.  1.
</event>
<event>
 7    1  0.7819001E-012  0.5930194E+02  0.7816164E-02  0.1266605E+00
        -11   -1    0    0    0    0  0.00000000000E+00  0.00000000000E+00  0.45593999997E+02  0.45594000000E+02  0.51100000000E-03 0. -1.
         11   -1    0    0    0    0 -0.00000000000E+00 -0.00000000000E+00 -0.45593999997E+02  0.45594000000E+02  0.51100000000E-03 0.  1.
    9900012    2    1    2    0    0  0.90250875681E+01  0.26995080464E+02 -0.14371291486E+02  0.59301943583E+02  0.49999999189E+02 0.  0.
         12    1    1    2    0    0 -0.90250875681E+01 -0.26995080464E+02  0.14371291486E+02  0.31886056417E+02  0.00000000000E+00 0. -1.
         11    1    3    3    0    0  0.14870476341E+02  0.91174201294E+01 -0.67431773723E+00  0.17456033945E+02  0.51100000000E-03 0. -1.
        -11    1    3    3    0    0 -0.14776140056E+02 -0.39250267567E+01 -0.92499459551E+01  0.17869013695E+02  0.51100000000E-03 0.  1.
        -12    1    3    3    0    0  0.89307512832E+01  0.21802687091E+02 -0.44470277935E+01  0.23976895943E+02  0.00000000000E+00 0.  1.
</event>
<event>
 7    1  0.7819001E-012  0.5930195E+02  0.7816164E-02  0.1266605E+00
        -11   -1    0    0    0    0  0.00000000000E+00  0.00000000000E+00  0.45593999997E+02  0.45594000000E+02  0.51100000000E-03 0. -1.
         11   -1    0    0    0    0 -0.00000000000E+00 -0.00000000000E+00 -0.45593999997E+02  0.45594000000E+02  0.51100000000E-03 0.  1.
    9900012    2    1    2    0    0  0.15731896156E+02 -0.27693992476E+02 -0.15067594111E+01  0.59301951329E+02  0.50000013317E+02 0.  0.
         12    1    1    2    0    0 -0.15731896156E+02  0.27693992476E+02  0.15067594111E+01  0.31886048671E+02  0.00000000000E+00 0. -1.
         11    1    3    3    0    0  0.14776544283E+01 -0.25522606156E+01  0.10397832188E+02  0.10807979059E+02  0.51100000000E-03 0. -1.
        -11    1    3    3    0    0 -0.53861046422E+01  0.27195198129E+01 -0.13059946775E+02  0.14386386665E+02  0.51100000000E-03 0.  1.
        -12    1    3    3    0    0  0.19640346370E+02 -0.27861251673E+02  0.11553551762E+01  0.34107585606E+02  0.00000000000E+00 0.  1.
</event>
<event>
 7    1  0.7819001E-012  0.5930194E+02  0.7816164E-02  0.1266605E+00
        -11   -1    0    0    0    0  0.00000000000E+00  0.00000000000E+00  0.45593999997E+02  0.45594000000E+02  0.51100000000E-03 0.  1.
         11   -1    0    0    0    0 -0.00000000000E+00 -0.00000000000E+00 -0.45593999997E+02  0.45594000000E+02  0.51100000000E-03 0. -1.
    9900012    2    1    2    0    0  0.31562430679E+02 -0.41995846317E+01  0.17021669564E+01  0.59301938565E+02  0.49999990038E+02 0.  0.
         12    1    1    2    0    0 -0.31562430679E+02  0.41995846317E+01 -0.17021669564E+01  0.31886061435E+02  0.00000000000E+00 0. -1.
         11    1    3    3    0    0 -0.34826358930E+01 -0.52167714809E+01 -0.10269254124E+02  0.12033330294E+02  0.51100000000E-03 0. -1.
        -11    1    3    3    0    0  0.35260522182E+02  0.98800025846E+01  0.11535219956E+02  0.38392449457E+02  0.51100000000E-03 0.  1.
        -12    1    3    3    0    0 -0.21545560946E+00 -0.88628157353E+01  0.43620112373E+00  0.88761588144E+01  0.00000000000E+00 0.  1.
</event>
<event>
 7    1  0.7819001E-012  0.5930191E+02  0.7816164E-02  0.1266605E+00
        -11   -1    0    0    0    0  0.00000000000E+00  0.00000000000E+00  0.45593999997E+02  0.45594000000E+02  0.51100000000E-03 0.  1.
         11   -1    0    0    0    0 -0.00000000000E+00 -0.00000000000E+00 -0.45593999997E+02  0.45594000000E+02  0.51100000000E-03 0. -1.
    9900012    2    1    2    0    0  0.83499444448E+01 -0.75889595695E+01  0.29822959546E+02  0.59301909057E+02  0.49999936221E+02 0.  0.
         12    1    1    2    0    0 -0.83499444448E+01  0.75889595695E+01 -0.29822959546E+02  0.31886090943E+02  0.00000000000E+00 0. -1.
         11    1    3    3    0    0  0.23562916980E+02  0.24071912843E+01  0.16273212500E+02  0.28737137502E+02  0.51100000000E-03 0. -1.
        -11    1    3    3    0    0 -0.14519544797E+01 -0.13188775847E+02  0.67598055345E+01  0.14891170245E+02  0.51100000000E-03 0.  1.
         12    1    3    3    0    0 -0.13761018056E+02  0.31926249932E+01  0.67899415111E+01  0.15673601309E+02  0.00000000000E+00 0. -1.
</event>
<event>
 7    1  0.7819001E-012  0.5930194E+02  0.7816164E-02  0.1266605E+00
        -11   -1    0    0    0    0  0.00000000000E+00  0.00000000000E+00  0.45593999997E+02  0.45594000000E+02  0.51100000000E-03 0.  1.
         11   -1    0    0    0    0 -0.00000000000E+00 -0.00000000000E+00 -0.45593999997E+02  0.45594000000E+02  0.51100000000E-03 0. -1.
    9900012    2    1    2    0    0  0.52591215249E+01 -0.31432275694E+02  0.10365114102E+01  0.59301942382E+02  0.49999996999E+02 0.  0.
         12    1    1    2    0    0 -0.52591215249E+01  0.31432275694E+02 -0.10365114102E+01  0.31886057618E+02  0.00000000000E+00 0. -1.
         11    1    3    3    0    0  0.15665615582E+02 -0.47423138836E+01  0.25570676827E+01  0.16566220085E+02  0.51100000000E-03 0. -1.
        -11    1    3    3    0    0 -0.46552108038E+01 -0.11184333322E+02  0.15053022736E+02  0.19322365104E+02  0.51100000000E-03 0.  1.
        -12    1    3    3    0    0 -0.57512832529E+01 -0.15505628488E+02 -0.16573579008E+02  0.23413357192E+02  0.00000000000E+00 0.  1.
</event>
<event>
 7    1  0.7819001E-012  0.5930194E+02  0.7816164E-02  0.1266605E+00
        -11   -1    0    0    0    0  0.00000000000E+00  0.00000000000E+00  0.45593999997E+02  0.45594000000E+02  0.51100000000E-03 0.  1.
         11   -1    0    0    0    0 -0.00000000000E+00 -0.00000000000E+00 -0.45593999997E+02  0.45594000000E+02  0.51100000000E-03 0. -1.
    9900012    2    1    2    0    0 -0.15410957177E+02 -0.10608241910E+02  0.25820307099E+02  0.59301942605E+02  0.49999997405E+02 0.  0.
         12    1    1    2    0    0  0.15410957177E+02  0.10608241910E+02 -0.25820307099E+02  0.31886057395E+02  0.00000000000E+00 0. -1.
         11    1    3    3    0    0 -0.13846256900E+02  0.89290973962E+01  0.14469294422E+02  0.21927336632E+02  0.51100000000E-03 0. -1.
        -11    1    3    3    0    0  0.11805187276E+02 -0.18612229530E+02  0.52922162591E+01  0.22666827918E+02  0.51100000000E-03 0.  1.
        -12    1    3    3    0    0 -0.13369887553E+02 -0.92510977662E+00  0.60587964178E+01  0.14707778055E+02  0.00000000000E+00 0.  1.
</event>
<event>
 7    1  0.7819001E-012  0.5930193E+02  0.7816164E-02  0.1266605E+00
        -11   -1    0    0    0    0  0.00000000000E+00  0.00000000000E+00  0.45593999997E+02  0.45594000000E+02  0.51100000000E-03 0.  1.
         11   -1    0    0    0    0 -0.00000000000E+00 -0.00000000000E+00 -0.45593999997E+02  0.45594000000E+02  0.51100000000E-03 0. -1.
    9900012    2    1    2    0    0 -0.43868657225E+01 -0.12264214255E+02  0.29104394705E+02  0.59301931987E+02  0.49999978041E+02 0.  0.
         12    1    1    2    0    0  0.43868657225E+01  0.12264214255E+02 -0.29104394705E+02  0.31886068013E+02  0.00000000000E+00 0. -1.
         11    1    3    3    0    0  0.16745567314E+02  0.63166221364E+01  0.16690649184E+02  0.24472260017E+02  0.51100000000E-03 0. -1.
        -11    1    3    3    0    0 -0.11800552444E+02 -0.10716475953E+02  0.15508280121E+02  0.22239663833E+02  0.51100000000E-03 0.  1.
         12    1    3    3    0    0 -0.93318805933E+01 -0.78643604376E+01 -0.30945346002E+01  0.12590008137E+02  0.00000000000E+00 0. -1.
</event>
<event>
 7    1  0.7819001E-012  0.5930195E+02  0.7816164E-02  0.1266605E+00
        -11   -1    0    0    0    0  0.00000000000E+00  0.00000000000E+00  0.45593999997E+02  0.45594000000E+02  0.51100000000E-03 0.  1.
         11   -1    0    0    0    0 -0.00000000000E+00 -0.00000000000E+00 -0.45593999997E+02  0.45594000000E+02  0.51100000000E-03 0. -1.
    9900012    2    1    2    0    0  0.16129125218E+02  0.16070291671E+02  0.22323024819E+02  0.59301946752E+02  0.50000004968E+02 0.  0.
         12    1    1    2    0    0 -0.16129125218E+02 -0.16070291671E+02 -0.22323024819E+02  0.31886053248E+02  0.00000000000E+00 0. -1.
         11    1    3    3    0    0 -0.12753501505E+02  0.20659042020E+01  0.15644310497E+02  0.20289509901E+02  0.51100000000E-03 0. -1.
        -11    1    3    3    0    0  0.24078792705E+02  0.65308017749E+01  0.12977165034E+02  0.28121992151E+02  0.51100000000E-03 0.  1.
        -12    1    3    3    0    0  0.48038340182E+01  0.74735856941E+01 -0.62984507119E+01  0.10890444700E+02  0.00000000000E+00 0.  1.
</event>
<event>
 7    1  0.7819001E-012  0.5930195E+02  0.7816164E-02  0.1266605E+00
        -11   -1    0    0    0    0  0.00000000000E+00  0.00000000000E+00  0.45593999997E+02  0.45594000000E+02  0.51100000000E-03 0.  1.
         11   -1    0    0    0    0 -0.00000000000E+00 -0.00000000000E+00 -0.45593999997E+02  0.45594000000E+02  0.51100000000E-03 0. -1.
    9900012    2    1    2    0    0  0.20598905677E+02 -0.19490227830E+01  0.24261209995E+02  0.59301954222E+02  0.50000018592E+02 0.  0.
         12    1    1    2    0    0 -0.20598905677E+02  0.19490227830E+01 -0.24261209995E+02  0.31886045778E+02  0.00000000000E+00 0. -1.
         11    1    3    3    0    0  0.83690201705E+01 -0.21952095725E+02  0.13207327385E+01  0.23530391849E+02  0.51100000000E-03 0. -1.
        -11    1    3    3    0    0  0.13725405000E+01  0.15417778319E+02  0.10963418197E+02  0.18968086212E+02  0.51100000000E-03 0.  1.
         12    1    3    3    0    0  0.10857345007E+02  0.45852946234E+01  0.11977059060E+02  0.16803476161E+02  0.00000000000E+00 0. -1.
</event>
<event>
 7    1  0.7819001E-012  0.5930192E+02  0.7816164E-02  0.1266605E+00
        -11   -1    0    0    0    0  0.00000000000E+00  0.00000000000E+00  0.45593999997E+02  0.45594000000E+02  0.51100000000E-03 0.  1.
         11   -1    0    0    0    0 -0.00000000000E+00 -0.00000000000E+00 -0.45593999997E+02  0.45594000000E+02  0.51100000000E-03 0. -1.
    9900012    2    1    2    0    0 -0.28855908475E+02 -0.84777540531E+01  0.10591790558E+02  0.59301924749E+02  0.49999964840E+02 0.  0.
         12    1    1    2    0    0  0.28855908475E+02  0.84777540531E+01 -0.10591790558E+02  0.31886075251E+02  0.00000000000E+00 0. -1.
         11    1    3    3    0    0 -0.31053074310E+01 -0.18627067035E+02 -0.12279827492E+02  0.22525645919E+02  0.51100000000E-03 0. -1.
        -11    1    3    3    0    0 -0.10779759918E+02  0.21583526979E+00  0.75341247642E+01  0.13153434722E+02  0.51100000000E-03 0.  1.
         12    1    3    3    0    0 -0.14970841126E+02  0.99334777118E+01  0.15337493286E+02  0.23622844108E+02  0.00000000000E+00 0. -1.
</event>
<event>
 7    1  0.7819001E-012  0.5930196E+02  0.7816164E-02  0.1266605E+00
        -11   -1    0    0    0    0  0.00000000000E+00  0.00000000000E+00  0.45593999997E+02  0.45594000000E+02  0.51100000000E-03 0. -1.
         11   -1    0    0    0    0 -0.00000000000E+00 -0.00000000000E+00 -0.45593999997E+02  0.45594000000E+02  0.51100000000E-03 0.  1.
    9900012    2    1    2    0    0  0.27479798640E+02 -0.15462661976E+02  0.47419403024E+01  0.59301964710E+02  0.50000037720E+02 0.  0.
         12    1    1    2    0    0 -0.27479798640E+02  0.15462661976E+02 -0.47419403024E+01  0.31886035290E+02  0.00000000000E+00 0. -1.
         11    1    3    3    0    0  0.94585683120E+01  0.13819586572E+02  0.11659116179E+02  0.20405403154E+02  0.51100000000E-03 0. -1.
        -11    1    3    3    0    0  0.19481163507E+02 -0.17401604784E+02 -0.29562481084E+01  0.26288228997E+02  0.51100000000E-03 0.  1.
         12    1    3    3    0    0 -0.14599331795E+01 -0.11880643764E+02 -0.39609277686E+01  0.12608332559E+02  0.00000000000E+00 0. -1.
</event>
<event>
 7    1  0.7819001E-012  0.5930195E+02  0.7816164E-02  0.1266605E+00
        -11   -1    0    0    0    0  0.00000000000E+00  0.00000000000E+00  0.45593999997E+02  0.45594000000E+02  0.51100000000E-03 0. -1.
         11   -1    0    0    0    0 -0.00000000000E+00 -0.00000000000E+00 -0.45593999997E+02  0.45594000000E+02  0.51100000000E-03 0.  1.
    9900012    2    1    2    0    0 -0.28777297915E+02 -0.11406140040E+02  0.76477163616E+01  0.59301945502E+02  0.50000002689E+02 0.  0.
         12    1    1    2    0    0  0.28777297915E+02  0.11406140040E+02 -0.76477163616E+01  0.31886054498E+02  0.00000000000E+00 0. -1.
         11    1    3    3    0    0  0.77887960960E+00 -0.19910516623E+02  0.77307185000E+01  0.21372864442E+02  0.51100000000E-03 0. -1.
        -11    1    3    3    0    0 -0.26185726106E+02  0.10529462304E+02  0.76603966127E+01  0.29244546579E+02  0.51100000000E-03 0.  1.
        -12    1    3    3    0    0 -0.33704514186E+01 -0.20250857207E+01 -0.77433987512E+01  0.86845344816E+01  0.00000000000E+00 0.  1.
</event>
<event>
 7    1  0.7819001E-012  0.5930194E+02  0.7816164E-02  0.1266605E+00
        -11   -1    0    0    0    0  0.00000000000E+00  0.00000000000E+00  0.45593999997E+02  0.45594000000E+02  0.51100000000E-03 0.  1.
         11   -1    0    0    0    0 -0.00000000000E+00 -0.00000000000E+00 -0.45593999997E+02  0.45594000000E+02  0.51100000000E-03 0. -1.
    9900012    2    1    2    0    0 -0.12008270438E+02 -0.26994698433E+02  0.11992031943E+02  0.59301935136E+02  0.49999983784E+02 0.  0.
         12    1    1    2    0    0  0.12008270438E+02  0.26994698433E+02 -0.11992031943E+02  0.31886064864E+02  0.00000000000E+00 0. -1.
         11    1    3    3    0    0  0.38440844043E+01 -0.19229584479E+02 -0.69808679250E+01  0.20815533176E+02  0.51100000000E-03 0. -1.
        -11    1    3    3    0    0 -0.64492911782E+01 -0.86232960883E+01  0.25043988172E+02  0.27260886559E+02  0.51100000000E-03 0.  1.
        -12    1    3    3    0    0 -0.94030636638E+01  0.85818213428E+00 -0.60710883043E+01  0.11225515402E+02  0.00000000000E+00 0.  1.
</event>
<event>
 7    1  0.7819001E-012  0.5930210E+02  0.7816164E-02  0.1266604E+00
        -11   -1    0    0    0    0  0.00000000000E+00  0.00000000000E+00  0.45593999997E+02  0.45594000000E+02  0.51100000000E-03 0.  1.
         11   -1    0    0    0    0 -0.00000000000E+00 -0.00000000000E+00 -0.45593999997E+02  0.45594000000E+02  0.51100000000E-03 0. -1.
    9900012    2    1    2    0    0 -0.27249184885E+02  0.14960507906E+02 -0.70975889527E+01  0.59302099626E+02  0.50000283774E+02 0.  0.
         12    1    1    2    0    0  0.27249184885E+02 -0.14960507906E+02  0.70975889527E+01  0.31885900374E+02  0.00000000000E+00 0. -1.
         11    1    3    3    0    0 -0.39115936152E+01  0.40696982483E+01 -0.13578035839E+02  0.14704627365E+02  0.51100000000E-03 0. -1.
        -11    1    3    3    0    0 -0.12205500020E+01 -0.32798715244E+01  0.16212001064E+02  0.16585423669E+02  0.51100000000E-03 0.  1.
        -12    1    3    3    0    0 -0.22117041268E+02  0.14170681182E+02 -0.97315541784E+01  0.28012048592E+02  0.00000000000E+00 0.  1.
</event>
<event>
 7    1  0.7819001E-012  0.5930201E+02  0.7816164E-02  0.1266605E+00
        -11   -1    0    0    0    0  0.00000000000E+00  0.00000000000E+00  0.45593999997E+02  0.45594000000E+02  0.51100000000E-03 0.  1.
         11   -1    0    0    0    0 -0.00000000000E+00 -0.00000000000E+00 -0.45593999997E+02  0.45594000000E+02  0.51100000000E-03 0. -1.
    9900012    2    1    2    0    0  0.14650520267E+02  0.13650047558E+02  0.24814406465E+02  0.59302010747E+02  0.50000121680E+02 0.  0.
         12    1    1    2    0    0 -0.14650520267E+02 -0.13650047558E+02 -0.24814406465E+02  0.31885989253E+02  0.00000000000E+00 0. -1.
         11    1    3    3    0    0  0.25447825481E+02  0.11621271557E+02  0.64225708307E+01  0.28703574528E+02  0.51100000000E-03 0. -1.
        -11    1    3    3    0    0 -0.97205030082E+01 -0.31602207379E+00  0.23192025901E+02  0.25148719934E+02  0.51100000000E-03 0.  1.
        -12    1    3    3    0    0 -0.10768022062E+01  0.23447980746E+01 -0.48001902660E+01  0.54497162854E+01  0.00000000000E+00 0.  1.
</event>
<event>
 7    1  0.7819001E-012  0.5930195E+02  0.7816164E-02  0.1266605E+00
        -11   -1    0    0    0    0  0.00000000000E+00  0.00000000000E+00  0.45593999997E+02  0.45594000000E+02  0.51100000000E-03 0. -1.
         11   -1    0    0    0    0 -0.00000000000E+00 -0.00000000000E+00 -0.45593999997E+02  0.45594000000E+02  0.51100000000E-03 0.  1.
    9900012    2    1    2    0    0 -0.20399369602E+02 -0.16092979973E+01 -0.24453954454E+02  0.59301952759E+02  0.50000015923E+02 0.  0.
         12    1    1    2    0    0  0.20399369602E+02  0.16092979973E+01  0.24453954454E+02  0.31886047241E+02  0.00000000000E+00 0. -1.
         11    1    3    3    0    0 -0.17327755057E+02  0.12616619899E+01  0.29011150788E+01  0.17614180516E+02  0.51100000000E-03 0. -1.
        -11    1    3    3    0    0 -0.13133370578E+02 -0.57005571780E+01 -0.27752757322E+02  0.31228149387E+02  0.51100000000E-03 0.  1.
        -12    1    3    3    0    0  0.10061756032E+02  0.28295971908E+01  0.39768778929E+00  0.10459622856E+02  0.00000000000E+00 0.  1.
</event>
<event>
 7    1  0.7819001E-012  0.5930180E+02  0.7816164E-02  0.1266605E+00
        -11   -1    0    0    0    0  0.00000000000E+00  0.00000000000E+00  0.45593999997E+02  0.45594000000E+02  0.51100000000E-03 0. -1.
         11   -1    0    0    0    0 -0.00000000000E+00 -0.00000000000E+00 -0.45593999997E+02  0.45594000000E+02  0.51100000000E-03 0.  1.
    9900012    2    1    2    0    0 -0.18844409715E+02 -0.77011465973E+01 -0.24542010805E+02  0.59301800308E+02  0.49999737889E+02 0.  0.
         12    1    1    2    0    0  0.18844409715E+02  0.77011465973E+01  0.24542010805E+02  0.31886199692E+02  0.00000000000E+00 0. -1.
         11    1    3    3    0    0 -0.12222083334E+02  0.11064885682E+02 -0.89014399211E+01  0.18736238927E+02  0.51100000000E-03 0. -1.
        -11    1    3    3    0    0 -0.53590963621E+01 -0.20840521489E+02 -0.23780400257E+02  0.32071088014E+02  0.51100000000E-03 0.  1.
         12    1    3    3    0    0 -0.12632300189E+01  0.20744892094E+01  0.81398293735E+01  0.84944733675E+01  0.00000000000E+00 0. -1.
</event>
<event>
 7    1  0.7819001E-012  0.5930197E+02  0.7816164E-02  0.1266605E+00
        -11   -1    0    0    0    0  0.00000000000E+00  0.00000000000E+00  0.45593999997E+02  0.45594000000E+02  0.51100000000E-03 0.  1.
         11   -1    0    0    0    0 -0.00000000000E+00 -0.00000000000E+00 -0.45593999997E+02  0.45594000000E+02  0.51100000000E-03 0. -1.
    9900012    2    1    2    0    0  0.28043666766E+02 -0.11813653866E+02  0.95241277187E+01  0.59301973717E+02  0.50000054145E+02 0.  0.
         12    1    1    2    0    0 -0.28043666766E+02  0.11813653866E+02 -0.95241277187E+01  0.31886026283E+02  0.00000000000E+00 0. -1.
         11    1    3    3    0    0  0.17815376808E+02 -0.19113323804E+02 -0.12822444350E+02  0.29105358218E+02  0.51100000000E-03 0. -1.
        -11    1    3    3    0    0  0.14424515755E+02  0.70627588645E+01  0.16861767986E+02  0.23286657928E+02  0.51100000000E-03 0.  1.
         12    1    3    3    0    0 -0.41962257976E+01  0.23691107370E+00  0.54848040826E+01  0.69099575705E+01  0.00000000000E+00 0. -1.
</event>
<event>
 7    1  0.7819001E-012  0.5930195E+02  0.7816164E-02  0.1266605E+00
        -11   -1    0    0    0    0  0.00000000000E+00  0.00000000000E+00  0.45593999997E+02  0.45594000000E+02  0.51100000000E-03 0.  1.
         11   -1    0    0    0    0 -0.00000000000E+00 -0.00000000000E+00 -0.45593999997E+02  0.45594000000E+02  0.51100000000E-03 0. -1.
    9900012    2    1    2    0    0  0.17906190592E+02  0.16984128231E+02  0.20189789358E+02  0.59301954970E+02  0.50000019957E+02 0.  0.
         12    1    1    2    0    0 -0.17906190592E+02 -0.16984128231E+02 -0.20189789358E+02  0.31886045030E+02  0.00000000000E+00 0. -1.
         11    1    3    3    0    0 -0.57136873361E+01  0.87027818606E+01  0.12580760156E+02  0.16329732437E+02  0.51100000000E-03 0. -1.
        -11    1    3    3    0    0  0.12558794026E+02 -0.12074366103E+02 -0.26741741470E+01  0.17625686705E+02  0.51100000000E-03 0.  1.
        -12    1    3    3    0    0  0.11061083902E+02  0.20355712474E+02  0.10283203349E+02  0.25346535829E+02  0.00000000000E+00 0.  1.
</event>
<event>
 7    1  0.7819001E-012  0.5930197E+02  0.7816164E-02  0.1266605E+00
        -11   -1    0    0    0    0  0.00000000000E+00  0.00000000000E+00  0.45593999997E+02  0.45594000000E+02  0.51100000000E-03 0.  1.
         11   -1    0    0    0    0 -0.00000000000E+00 -0.00000000000E+00 -0.45593999997E+02  0.45594000000E+02  0.51100000000E-03 0. -1.
    9900012    2    1    2    0    0  0.25414331504E+02 -0.10184223571E+02  0.16343575987E+02  0.59301966513E+02  0.50000041007E+02 0.  0.
         12    1    1    2    0    0 -0.25414331504E+02  0.10184223571E+02 -0.16343575987E+02  0.31886033487E+02  0.00000000000E+00 0. -1.
         11    1    3    3    0    0 -0.90540868055E+01  0.49376967709E+01  0.26397295818E+01  0.10645445496E+02  0.51100000000E-03 0. -1.
        -11    1    3    3    0    0  0.26916915822E+02 -0.20092068920E+02  0.18579716393E+02  0.38385120195E+02  0.51100000000E-03 0.  1.
         12    1    3    3    0    0  0.75515024873E+01  0.49701485780E+01 -0.48758699879E+01  0.10271400822E+02  0.00000000000E+00 0. -1.
</event>
<event>
 7    1  0.7819001E-012  0.5930228E+02  0.7816164E-02  0.1266604E+00
        -11   -1    0    0    0    0  0.00000000000E+00  0.00000000000E+00  0.45593999997E+02  0.45594000000E+02  0.51100000000E-03 0.  1.
         11   -1    0    0    0    0 -0.00000000000E+00 -0.00000000000E+00 -0.45593999997E+02  0.45594000000E+02  0.51100000000E-03 0. -1.
    9900012    2    1    2    0    0 -0.10877636909E+02  0.29950387112E+02  0.11621703699E+01  0.59302277288E+02  0.50000607783E+02 0.  0.
         12    1    1    2    0    0  0.10877636909E+02 -0.29950387112E+02 -0.11621703699E+01  0.31885722712E+02  0.00000000000E+00 0. -1.
         11    1    3    3    0    0  0.62610417398E+00 -0.11961098138E+02 -0.36976614317E+01  0.12535253305E+02  0.51100000000E-03 0. -1.
        -11    1    3    3    0    0 -0.41987703315E+01  0.37109778750E+02  0.63988964490E+01  0.37890780240E+02  0.51100000000E-03 0.  1.
        -12    1    3    3    0    0 -0.73049707514E+01  0.48017065004E+01 -0.15390646474E+01  0.88762437429E+01  0.00000000000E+00 0.  1.
</event>
<event>
 7    1  0.7819001E-012  0.5930194E+02  0.7816164E-02  0.1266605E+00
        -11   -1    0    0    0    0  0.00000000000E+00  0.00000000000E+00  0.45593999997E+02  0.45594000000E+02  0.51100000000E-03 0.  1.
         11   -1    0    0    0    0 -0.00000000000E+00 -0.00000000000E+00 -0.45593999997E+02  0.45594000000E+02  0.51100000000E-03 0. -1.
    9900012    2    1    2    0    0  0.13611582287E+02 -0.16235865259E+02  0.23829444981E+02  0.59301938136E+02  0.49999989255E+02 0.  0.
         12    1    1    2    0    0 -0.13611582287E+02  0.16235865259E+02 -0.23829444981E+02  0.31886061864E+02  0.00000000000E+00 0. -1.
         11    1    3    3    0    0  0.19524484002E+02  0.59422681414E+01  0.50994072571E+01  0.21036158890E+02  0.51100000000E-03 0. -1.
        -11    1    3    3    0    0 -0.98908619677E+01 -0.14910096487E+02  0.11800534084E+00  0.17892849221E+02  0.51100000000E-03 0.  1.
        -12    1    3    3    0    0  0.39779602527E+01 -0.72680369135E+01  0.18612032384E+02  0.20372930025E+02  0.00000000000E+00 0.  1.
</event>
<event>
 7    1  0.7819001E-012  0.5930205E+02  0.7816164E-02  0.1266604E+00
        -11   -1    0    0    0    0  0.00000000000E+00  0.00000000000E+00  0.45593999997E+02  0.45594000000E+02  0.51100000000E-03 0.  1.
         11   -1    0    0    0    0 -0.00000000000E+00 -0.00000000000E+00 -0.45593999997E+02  0.45594000000E+02  0.51100000000E-03 0. -1.
    9900012    2    1    2    0    0 -0.60460739158E+01  0.26832234033E+01  0.31192287469E+02  0.59302054896E+02  0.50000202197E+02 0.  0.
         12    1    1    2    0    0  0.60460739158E+01 -0.26832234033E+01 -0.31192287469E+02  0.31885945104E+02  0.00000000000E+00 0. -1.
         11    1    3    3    0    0  0.49692219995E+01  0.11132507334E+02 -0.51382473610E+01  0.13229794898E+02  0.51100000000E-03 0. -1.
        -11    1    3    3    0    0  0.21873223053E+01 -0.99665435452E+01  0.29324605436E+02  0.31049136113E+02  0.51100000000E-03 0.  1.
         12    1    3    3    0    0 -0.13202618221E+02  0.15172596141E+01  0.70059293931E+01  0.15023123885E+02  0.00000000000E+00 0. -1.
</event>
<event>
 7    1  0.7819001E-012  0.5930195E+02  0.7816164E-02  0.1266605E+00
        -11   -1    0    0    0    0  0.00000000000E+00  0.00000000000E+00  0.45593999997E+02  0.45594000000E+02  0.51100000000E-03 0. -1.
         11   -1    0    0    0    0 -0.00000000000E+00 -0.00000000000E+00 -0.45593999997E+02  0.45594000000E+02  0.51100000000E-03 0.  1.
    9900012    2    1    2    0    0 -0.13491637728E+02  0.28360582481E+02 -0.55111908956E+01  0.59301950506E+02  0.50000011814E+02 0.  0.
         12    1    1    2    0    0  0.13491637728E+02 -0.28360582481E+02  0.55111908956E+01  0.31886049494E+02  0.00000000000E+00 0. -1.
         11    1    3    3    0    0  0.23586961917E+01 -0.46760910979E+01  0.36389175968E+01  0.63773816899E+01  0.51100000000E-03 0. -1.
        -11    1    3    3    0    0 -0.21966071739E+02  0.15359035972E+02 -0.17943772308E+02  0.32255034623E+02  0.51100000000E-03 0.  1.
        -12    1    3    3    0    0  0.61157378193E+01  0.17677637607E+02  0.87936638153E+01  0.20669534193E+02  0.00000000000E+00 0.  1.
</event>
<event>
 7    1  0.7819001E-012  0.5930195E+02  0.7816164E-02  0.1266605E+00
        -11   -1    0    0    0    0  0.00000000000E+00  0.00000000000E+00  0.45593999997E+02  0.45594000000E+02  0.51100000000E-03 0. -1.
         11   -1    0    0    0    0 -0.00000000000E+00 -0.00000000000E+00 -0.45593999997E+02  0.45594000000E+02  0.51100000000E-03 0.  1.
    9900012    2    1    2    0    0 -0.36965732141E+01 -0.18261596345E+02 -0.25876046569E+02  0.59301947554E+02  0.50000006431E+02 0.  0.
         12    1    1    2    0    0  0.36965732141E+01  0.18261596345E+02  0.25876046569E+02  0.31886052446E+02  0.00000000000E+00 0. -1.
         11    1    3    3    0    0 -0.24564092843E+02 -0.11732001875E+02 -0.16953347642E+02  0.32069464007E+02  0.51100000000E-03 0. -1.
        -11    1    3    3    0    0  0.14882051706E+02 -0.45130217168E+01 -0.12519157594E+02  0.19964271465E+02  0.51100000000E-03 0.  1.
         12    1    3    3    0    0  0.59854679223E+01 -0.20165727528E+01  0.35964586674E+01  0.72682120816E+01  0.00000000000E+00 0. -1.
</event>
<event>
 7    1  0.7819001E-012  0.5930194E+02  0.7816164E-02  0.1266605E+00
        -11   -1    0    0    0    0  0.00000000000E+00  0.00000000000E+00  0.45593999997E+02  0.45594000000E+02  0.51100000000E-03 0.  1.
         11   -1    0    0    0    0 -0.00000000000E+00 -0.00000000000E+00 -0.45593999997E+02  0.45594000000E+02  0.51100000000E-03 0. -1.
    9900012    2    1    2    0    0 -0.22438019757E+02 -0.46954763812E+01  0.22163225330E+02  0.59301940568E+02  0.49999993690E+02 0.  0.
         12    1    1    2    0    0  0.22438019757E+02  0.46954763812E+01 -0.22163225330E+02  0.31886059432E+02  0.00000000000E+00 0. -1.
         11    1    3    3    0    0 -0.11739459551E+02 -0.36202000077E+00 -0.10397804286E+02  0.15686309421E+02  0.51100000000E-03 0. -1.
        -11    1    3    3    0    0 -0.17446645090E+02  0.11119439127E+01  0.29738999677E+02  0.34496810667E+02  0.51100000000E-03 0.  1.
         12    1    3    3    0    0  0.67480848840E+01 -0.54454002932E+01  0.28220299397E+01  0.91188204794E+01  0.00000000000E+00 0. -1.
</event>
<event>
 7    1  0.7819001E-012  0.5930195E+02  0.7816164E-02  0.1266605E+00
        -11   -1    0    0    0    0  0.00000000000E+00  0.00000000000E+00  0.45593999997E+02  0.45594000000E+02  0.51100000000E-03 0. -1.
         11   -1    0    0    0    0 -0.00000000000E+00 -0.00000000000E+00 -0.45593999997E+02  0.45594000000E+02  0.51100000000E-03 0.  1.
    9900012    2    1    2    0    0 -0.29550878728E+02 -0.46108599320E+01 -0.11054670452E+02  0.59301949732E+02  0.50000010403E+02 0.  0.
         12    1    1    2    0    0  0.29550878728E+02  0.46108599320E+01  0.11054670452E+02  0.31886050268E+02  0.00000000000E+00 0. -1.
         11    1    3    3    0    0  0.10927509077E+02 -0.82002958159E+01 -0.22692737024E+01  0.13849364949E+02  0.51100000000E-03 0. -1.
        -11    1    3    3    0    0 -0.33760330861E+02 -0.39296071238E+01 -0.37869633049E+01  0.34198579551E+02  0.51100000000E-03 0.  1.
         12    1    3    3    0    0 -0.67180569439E+01  0.75190430077E+01 -0.49984334444E+01  0.11254005232E+02  0.00000000000E+00 0. -1.
</event>
<event>
 7    1  0.7819001E-012  0.5930195E+02  0.7816164E-02  0.1266605E+00
        -11   -1    0    0    0    0  0.00000000000E+00  0.00000000000E+00  0.45593999997E+02  0.45594000000E+02  0.51100000000E-03 0.  1.
         11   -1    0    0    0    0 -0.00000000000E+00 -0.00000000000E+00 -0.45593999997E+02  0.45594000000E+02  0.51100000000E-03 0. -1.
    9900012    2    1    2    0    0  0.20777827922E+02 -0.23839298283E+02  0.40852939670E+01  0.59301954423E+02  0.50000018958E+02 0.  0.
         12    1    1    2    0    0 -0.20777827922E+02  0.23839298283E+02 -0.40852939670E+01  0.31886045577E+02  0.00000000000E+00 0. -1.
         11    1    3    3    0    0 -0.57852755784E+01 -0.20404359371E+01 -0.54266951436E+01  0.81903487578E+01  0.51100000000E-03 0. -1.
        -11    1    3    3    0    0  0.26171114711E+02 -0.13234921625E+02  0.21506875045E+02  0.36368063876E+02  0.51100000000E-03 0.  1.
        -12    1    3    3    0    0  0.39198878939E+00 -0.85639407208E+01 -0.11994885935E+02  0.14743541788E+02  0.00000000000E+00 0.  1.
</event>
<event>
 7    1  0.7819001E-012  0.5930195E+02  0.7816164E-02  0.1266605E+00
        -11   -1    0    0    0    0  0.00000000000E+00  0.00000000000E+00  0.45593999997E+02  0.45594000000E+02  0.51100000000E-03 0. -1.
         11   -1    0    0    0    0 -0.00000000000E+00 -0.00000000000E+00 -0.45593999997E+02  0.45594000000E+02  0.51100000000E-03 0.  1.
    9900012    2    1    2    0    0 -0.27759904583E+02  0.15282162077E+02 -0.35445245266E+01  0.59301946085E+02  0.50000003751E+02 0.  0.
         12    1    1    2    0    0  0.27759904583E+02 -0.15282162077E+02  0.35445245266E+01  0.31886053915E+02  0.00000000000E+00 0. -1.
         11    1    3    3    0    0 -0.10481512319E+02  0.15605681612E+02  0.14688096235E+02  0.23856646251E+02  0.51100000000E-03 0. -1.
        -11    1    3    3    0    0 -0.50854718767E+01  0.24533766911E+01 -0.21737040096E+02  0.22458405860E+02  0.51100000000E-03 0.  1.
        -12    1    3    3    0    0 -0.12192920387E+02 -0.27768962265E+01  0.35044193339E+01  0.12986893973E+02  0.00000000000E+00 0.  1.
</event>
<event>
 7    1  0.7819001E-012  0.5930206E+02  0.7816164E-02  0.1266604E+00
        -11   -1    0    0    0    0  0.00000000000E+00  0.00000000000E+00  0.45593999997E+02  0.45594000000E+02  0.51100000000E-03 0.  1.
         11   -1    0    0    0    0 -0.00000000000E+00 -0.00000000000E+00 -0.45593999997E+02  0.45594000000E+02  0.51100000000E-03 0. -1.
    9900012    2    1    2    0    0  0.30975320701E+02 -0.70725995564E+01  0.26872516849E+01  0.59302055156E+02  0.50000202670E+02 0.  0.
         12    1    1    2    0    0 -0.30975320701E+02  0.70725995564E+01 -0.26872516849E+01  0.31885944844E+02  0.00000000000E+00 0. -1.
         11    1    3    3    0    0  0.12394816135E+02 -0.47156306951E+01 -0.22388492545E+01  0.13449203921E+02  0.51100000000E-03 0. -1.
        -11    1    3    3    0    0  0.19156081087E+02  0.11304070926E+02  0.16695894422E+02  0.27811694536E+02  0.51100000000E-03 0.  1.
        -12    1    3    3    0    0 -0.57557652124E+00 -0.13661039788E+02 -0.11769793482E+02  0.18041156699E+02  0.00000000000E+00 0.  1.
</event>
<event>
 7    1  0.7819001E-012  0.5930195E+02  0.7816164E-02  0.1266605E+00
        -11   -1    0    0    0    0  0.00000000000E+00  0.00000000000E+00  0.45593999997E+02  0.45594000000E+02  0.51100000000E-03 0.  1.
         11   -1    0    0    0    0 -0.00000000000E+00 -0.00000000000E+00 -0.45593999997E+02  0.45594000000E+02  0.51100000000E-03 0. -1.
    9900012    2    1    2    0    0 -0.29116582655E+02  0.78838971658E+01  0.10333887086E+02  0.59301945958E+02  0.50000003521E+02 0.  0.
         12    1    1    2    0    0  0.29116582655E+02 -0.78838971658E+01 -0.10333887086E+02  0.31886054042E+02  0.00000000000E+00 0. -1.
         11    1    3    3    0    0  0.10363442155E+02  0.10404935222E+01 -0.68191326478E+01  0.12449262243E+02  0.51100000000E-03 0. -1.
        -11    1    3    3    0    0 -0.37344928042E+02  0.81684999160E+01  0.10355574428E+02  0.39605630450E+02  0.51100000000E-03 0.  1.
        -12    1    3    3    0    0 -0.21350967686E+01 -0.13250962724E+01  0.67974453060E+01  0.72470532653E+01  0.00000000000E+00 0.  1.
</event>
<event>
 7    1  0.7819001E-012  0.5930195E+02  0.7816164E-02  0.1266605E+00
        -11   -1    0    0    0    0  0.00000000000E+00  0.00000000000E+00  0.45593999997E+02  0.45594000000E+02  0.51100000000E-03 0. -1.
         11   -1    0    0    0    0 -0.00000000000E+00 -0.00000000000E+00 -0.45593999997E+02  0.45594000000E+02  0.51100000000E-03 0.  1.
    9900012    2    1    2    0    0 -0.29079506620E+02  0.12508108748E+02  0.38274937880E+01  0.59301949784E+02  0.50000010497E+02 0.  0.
         12    1    1    2    0    0  0.29079506620E+02 -0.12508108748E+02 -0.38274937880E+01  0.31886050216E+02  0.00000000000E+00 0. -1.
         11    1    3    3    0    0 -0.70369262108E+01  0.11871665819E+02 -0.93122550011E+01  0.16648509641E+02  0.51100000000E-03 0. -1.
        -11    1    3    3    0    0  0.62442723074E+01 -0.54321954252E+01  0.10830622892E+02  0.13630923530E+02  0.51100000000E-03 0.  1.
        -12    1    3    3    0    0 -0.28286852717E+02  0.60686383540E+01  0.23091258967E+01  0.29022516612E+02  0.00000000000E+00 0.  1.
</event>
<event>
 7    1  0.7819001E-012  0.5930194E+02  0.7816164E-02  0.1266605E+00
        -11   -1    0    0    0    0  0.00000000000E+00  0.00000000000E+00  0.45593999997E+02  0.45594000000E+02  0.51100000000E-03 0. -1.
         11   -1    0    0    0    0 -0.00000000000E+00 -0.00000000000E+00 -0.45593999997E+02  0.45594000000E+02  0.51100000000E-03 0.  1.
    9900012    2    1    2    0    0 -0.19396308332E+01 -0.31186353072E+02  0.63537370389E+01  0.59301940977E+02  0.49999994436E+02 0.  0.
         12    1    1    2    0    0  0.19396308332E+01  0.31186353072E+02 -0.63537370389E+01  0.31886059023E+02  0.00000000000E+00 0. -1.
         11    1    3    3    0    0 -0.13330543718E+02 -0.19242832214E+02  0.23291736552E+02  0.33022643433E+02  0.51100000000E-03 0. -1.
        -11    1    3    3    0    0  0.12490491486E+02 -0.71168010677E+01 -0.91160247600E+01  0.17022430575E+02  0.51100000000E-03 0.  1.
         12    1    3    3    0    0 -0.10995786007E+01 -0.48267197900E+01 -0.78219747536E+01  0.92568669687E+01  0.00000000000E+00 0. -1.
</event>
<event>
 7    1  0.7819001E-012  0.5930194E+02  0.7816164E-02  0.1266605E+00
        -11   -1    0    0    0    0  0.00000000000E+00  0.00000000000E+00  0.45593999997E+02  0.45594000000E+02  0.51100000000E-03 0. -1.
         11   -1    0    0    0    0 -0.00000000000E+00 -0.00000000000E+00 -0.45593999997E+02  0.45594000000E+02  0.51100000000E-03 0.  1.
    9900012    2    1    2    0    0 -0.31564136266E+02 -0.43988673344E+00 -0.44980854094E+01  0.59301937670E+02  0.49999988404E+02 0.  0.
         12    1    1    2    0    0  0.31564136266E+02  0.43988673344E+00  0.44980854094E+01  0.31886062330E+02  0.00000000000E+00 0. -1.
         11    1    3    3    0    0  0.31262794194E+01  0.76946875977E+01  0.27972872783E+01  0.87639407011E+01  0.51100000000E-03 0. -1.
        -11    1    3    3    0    0 -0.34289855852E+02 -0.18084284926E+02 -0.10437985504E+01  0.38780473067E+02  0.51100000000E-03 0.  1.
        -12    1    3    3    0    0 -0.40055983362E+00  0.99497105945E+01 -0.62515741373E+01  0.11757523901E+02  0.00000000000E+00 0.  1.
</event>
<event>
 7    1  0.7819001E-012  0.5930194E+02  0.7816164E-02  0.1266605E+00
        -11   -1    0    0    0    0  0.00000000000E+00  0.00000000000E+00  0.45593999997E+02  0.45594000000E+02  0.51100000000E-03 0.  1.
         11   -1    0    0    0    0 -0.00000000000E+00 -0.00000000000E+00 -0.45593999997E+02  0.45594000000E+02  0.51100000000E-03 0. -1.
    9900012    2    1    2    0    0  0.15278219561E+02 -0.43333773047E+01  0.27649929174E+02  0.59301941367E+02  0.49999995147E+02 0.  0.
         12    1    1    2    0    0 -0.15278219561E+02  0.43333773047E+01 -0.27649929174E+02  0.31886058633E+02  0.00000000000E+00 0. -1.
         11    1    3    3    0    0 -0.41575047268E+01  0.98919288531E+00  0.53325465512E+01  0.68336960058E+01  0.51100000000E-03 0. -1.
        -11    1    3    3    0    0  0.22086135261E+02 -0.19031184941E+02  0.39870286773E+01  0.29425835060E+02  0.51100000000E-03 0.  1.
        -12    1    3    3    0    0 -0.26504109737E+01  0.13708614751E+02  0.18330353946E+02  0.23042410301E+02  0.00000000000E+00 0.  1.
</event>
<event>
 7    1  0.7819001E-012  0.5930193E+02  0.7816164E-02  0.1266605E+00
        -11   -1    0    0    0    0  0.00000000000E+00  0.00000000000E+00  0.45593999997E+02  0.45594000000E+02  0.51100000000E-03 0.  1.
         11   -1    0    0    0    0 -0.00000000000E+00 -0.00000000000E+00 -0.45593999997E+02  0.45594000000E+02  0.51100000000E-03 0. -1.
    9900012    2    1    2    0    0  0.18678319308E+02 -0.15107752820E+02  0.20966589635E+02  0.59301926420E+02  0.49999967888E+02 0.  0.
         12    1    1    2    0    0 -0.18678319308E+02  0.15107752820E+02 -0.20966589635E+02  0.31886073580E+02  0.00000000000E+00 0. -1.
         11    1    3    3    0    0  0.20195140472E+02 -0.19173696634E+01 -0.79638131083E+01  0.21793171513E+02  0.51100000000E-03 0. -1.
        -11    1    3    3    0    0  0.34761260852E+01  0.29009999447E+01  0.14934173096E+02  0.15605408664E+02  0.51100000000E-03 0.  1.
         12    1    3    3    0    0 -0.49929472494E+01 -0.16091383101E+02  0.13996229647E+02  0.21903346243E+02  0.00000000000E+00 0. -1.
</event>
<event>
 7    1  0.7819001E-012  0.5930194E+02  0.7816164E-02  0.1266605E+00
        -11   -1    0    0    0    0  0.00000000000E+00  0.00000000000E+00  0.45593999997E+02  0.45594000000E+02  0.51100000000E-03 0.  1.
         11   -1    0    0    0    0 -0.00000000000E+00 -0.00000000000E+00 -0.45593999997E+02  0.45594000000E+02  0.51100000000E-03 0. -1.
    9900012    2    1    2    0    0 -0.16247331935E+02  0.17564346630E+02 -0.21076975593E+02  0.59301937721E+02  0.49999988497E+02 0.  0.
         12    1    1    2    0    0  0.16247331935E+02 -0.17564346630E+02  0.21076975593E+02  0.31886062279E+02  0.00000000000E+00 0. -1.
         11    1    3    3    0    0 -0.12127439888E+02  0.36977570417E+01 -0.70996108961E+01  0.14531093576E+02  0.51100000000E-03 0. -1.
        -11    1    3    3    0    0 -0.28206858869E+01  0.91206883966E+01  0.13678497946E+02  0.16680663417E+02  0.51100000000E-03 0.  1.
        -12    1    3    3    0    0 -0.12992061602E+01  0.47459011917E+01 -0.27655862643E+02  0.28090180727E+02  0.00000000000E+00 0.  1.
</event>
<event>
 7    1  0.7819001E-012  0.5930196E+02  0.7816164E-02  0.1266605E+00
        -11   -1    0    0    0    0  0.00000000000E+00  0.00000000000E+00  0.45593999997E+02  0.45594000000E+02  0.51100000000E-03 0.  1.
         11   -1    0    0    0    0 -0.00000000000E+00 -0.00000000000E+00 -0.45593999997E+02  0.45594000000E+02  0.51100000000E-03 0. -1.
    9900012    2    1    2    0    0 -0.18023258060E+02  0.14397487403E+02  0.22013490558E+02  0.59301964794E+02  0.50000037873E+02 0.  0.
         12    1    1    2    0    0  0.18023258060E+02 -0.14397487403E+02 -0.22013490558E+02  0.31886035206E+02  0.00000000000E+00 0. -1.
         11    1    3    3    0    0  0.50428762517E+01  0.80971477422E-01 -0.11202001029E+02  0.12285030916E+02  0.51100000000E-03 0. -1.
        -11    1    3    3    0    0 -0.21808561116E+02  0.11892763586E+02  0.15913254300E+02  0.29500556373E+02  0.51100000000E-03 0.  1.
         12    1    3    3    0    0 -0.12575731965E+01  0.24237523389E+01  0.17302237288E+02  0.17516377505E+02  0.00000000000E+00 0. -1.
</event>
<event>
 7    1  0.7819001E-012  0.5930194E+02  0.7816164E-02  0.1266605E+00
        -11   -1    0    0    0    0  0.00000000000E+00  0.00000000000E+00  0.45593999997E+02  0.45594000000E+02  0.51100000000E-03 0.  1.
         11   -1    0    0    0    0 -0.00000000000E+00 -0.00000000000E+00 -0.45593999997E+02  0.45594000000E+02  0.51100000000E-03 0. -1.
    9900012    2    1    2    0    0 -0.19614115580E+02 -0.12015397085E+02  0.22082515217E+02  0.59301940735E+02  0.49999993995E+02 0.  0.
         12    1    1    2    0    0  0.19614115580E+02  0.12015397085E+02 -0.22082515217E+02  0.31886059265E+02  0.00000000000E+00 0. -1.
         11    1    3    3    0    0  0.89987429996E+01 -0.16135640159E+02 -0.46886154207E+01  0.19060938428E+02  0.51100000000E-03 0. -1.
        -11    1    3    3    0    0 -0.15566723414E+01  0.19054700006E+01  0.59845334386E+00  0.25322305123E+01  0.51100000000E-03 0.  1.
         12    1    3    3    0    0 -0.27056186239E+02  0.22147730732E+01  0.26172677294E+02  0.37708771795E+02  0.00000000000E+00 0. -1.
</event>
<event>
 7    1  0.7819001E-012  0.5930191E+02  0.7816164E-02  0.1266605E+00
        -11   -1    0    0    0    0  0.00000000000E+00  0.00000000000E+00  0.45593999997E+02  0.45594000000E+02  0.51100000000E-03 0. -1.
         11   -1    0    0    0    0 -0.00000000000E+00 -0.00000000000E+00 -0.45593999997E+02  0.45594000000E+02  0.51100000000E-03 0.  1.
    9900012    2    1    2    0    0 -0.41580271946E+01 -0.29105897733E+02 -0.12340194957E+02  0.59301907663E+02  0.49999933679E+02 0.  0.
         12    1    1    2    0    0  0.41580271946E+01  0.29105897733E+02  0.12340194957E+02  0.31886092337E+02  0.00000000000E+00 0. -1.
         11    1    3    3    0    0  0.77999640034E+01  0.63995466961E+01  0.73551036418E+00  0.10116057143E+02  0.51100000000E-03 0. -1.
        -11    1    3    3    0    0 -0.18730871859E+02 -0.13061575880E+02 -0.11809229366E+02  0.25708135357E+02  0.51100000000E-03 0.  1.
        -12    1    3    3    0    0  0.67728806608E+01 -0.22443868549E+02 -0.12664759549E+01  0.23477715162E+02  0.00000000000E+00 0.  1.
</event>
<event>
 7    1  0.7819001E-012  0.5930194E+02  0.7816164E-02  0.1266605E+00
        -11   -1    0    0    0    0  0.00000000000E+00  0.00000000000E+00  0.45593999997E+02  0.45594000000E+02  0.51100000000E-03 0. -1.
         11   -1    0    0    0    0 -0.00000000000E+00 -0.00000000000E+00 -0.45593999997E+02  0.45594000000E+02  0.51100000000E-03 0.  1.
    9900012    2    1    2    0    0  0.25292492334E+01 -0.99675354785E+01 -0.30182309573E+02  0.59301942289E+02  0.49999996829E+02 0.  0.
         12    1    1    2    0    0 -0.25292492334E+01  0.99675354785E+01  0.30182309573E+02  0.31886057711E+02  0.00000000000E+00 0. -1.
         11    1    3    3    0    0 -0.19049738998E+02 -0.10182130142E+02 -0.22753231412E+02  0.31373203057E+02  0.51100000000E-03 0. -1.
        -11    1    3    3    0    0  0.97080010998E+01 -0.27023747881E+01 -0.11267285336E+02  0.15116210966E+02  0.51100000000E-03 0.  1.
         12    1    3    3    0    0  0.11870987131E+02  0.29169694519E+01  0.38382071754E+01  0.12812528266E+02  0.00000000000E+00 0. -1.
</event>
<event>
 7    1  0.7819001E-012  0.5930192E+02  0.7816164E-02  0.1266605E+00
        -11   -1    0    0    0    0  0.00000000000E+00  0.00000000000E+00  0.45593999997E+02  0.45594000000E+02  0.51100000000E-03 0. -1.
         11   -1    0    0    0    0 -0.00000000000E+00 -0.00000000000E+00 -0.45593999997E+02  0.45594000000E+02  0.51100000000E-03 0.  1.
    9900012    2    1    2    0    0  0.22442965801E+02  0.21616443004E+02  0.67649441720E+01  0.59301924799E+02  0.49999964932E+02 0.  0.
         12    1    1    2    0    0 -0.22442965801E+02 -0.21616443004E+02 -0.67649441720E+01  0.31886075201E+02  0.00000000000E+00 0. -1.
         11    1    3    3    0    0  0.76632916533E+01  0.20878054152E+02  0.99440407588E+01  0.24361919690E+02  0.51100000000E-03 0. -1.
        -11    1    3    3    0    0  0.13037592776E+02 -0.12805485279E+02  0.50974152359E+01  0.18972161737E+02  0.51100000000E-03 0.  1.
        -12    1    3    3    0    0  0.17420813710E+01  0.13543874131E+02 -0.82765118227E+01  0.15967843371E+02  0.00000000000E+00 0.  1.
</event>
<event>
 7    1  0.7819001E-012  0.5930194E+02  0.7816164E-02  0.1266605E+00
        -11   -1    0    0    0    0  0.00000000000E+00  0.00000000000E+00  0.45593999997E+02  0.45594000000E+02  0.51100000000E-03 0. -1.
         11   -1    0    0    0    0 -0.00000000000E+00 -0.00000000000E+00 -0.45593999997E+02  0.45594000000E+02  0.51100000000E-03 0.  1.
    9900012    2    1    2    0    0  0.70142874100E+01 -0.94140915051E+00 -0.31090745799E+02  0.59301937945E+02  0.49999988906E+02 0.  0.
         12    1    1    2    0    0 -0.70142874100E+01  0.94140915051E+00  0.31090745799E+02  0.31886062055E+02  0.00000000000E+00 0. -1.
         11    1    3    3    0    0 -0.67929356735E+01  0.18565037302E+02 -0.16148819449E+02  0.25526240517E+02  0.51100000000E-03 0. -1.
        -11    1    3    3    0    0  0.15061291677E+02 -0.19608890937E+02 -0.69477612619E+01  0.25683116976E+02  0.51100000000E-03 0.  1.
        -12    1    3    3    0    0 -0.12540685933E+01  0.10244448430E+00 -0.79941650883E+01  0.80925804517E+01  0.00000000000E+00 0.  1.
</event>
<event>
 7    1  0.7819001E-012  0.5930195E+02  0.7816164E-02  0.1266605E+00
        -11   -1    0    0    0    0  0.00000000000E+00  0.00000000000E+00  0.45593999997E+02  0.45594000000E+02  0.51100000000E-03 0.  1.
         11   -1    0    0    0    0 -0.00000000000E+00 -0.00000000000E+00 -0.45593999997E+02  0.45594000000E+02  0.51100000000E-03 0. -1.
    9900012    2    1    2    0    0  0.18965388285E+02  0.86905792679E+01  0.24114479502E+02  0.59301949093E+02  0.50000009237E+02 0.  0.
         12    1    1    2    0    0 -0.18965388285E+02 -0.86905792679E+01 -0.24114479502E+02  0.31886050907E+02  0.00000000000E+00 0. -1.
         11    1    3    3    0    0  0.69638902198E+01  0.23673026957E+01 -0.43280884724E+01  0.85341806363E+01  0.51100000000E-03 0. -1.
        -11    1    3    3    0    0  0.19882552798E+02  0.13104577107E+02  0.31902917020E+02  0.39810073619E+02  0.51100000000E-03 0.  1.
        -12    1    3    3    0    0 -0.78810547327E+01 -0.67813005342E+01 -0.34603490455E+01  0.10957694838E+02  0.00000000000E+00 0.  1.
</event>
<event>
 7    1  0.7819001E-012  0.5930201E+02  0.7816164E-02  0.1266605E+00
        -11   -1    0    0    0    0  0.00000000000E+00  0.00000000000E+00  0.45593999997E+02  0.45594000000E+02  0.51100000000E-03 0.  1.
         11   -1    0    0    0    0 -0.00000000000E+00 -0.00000000000E+00 -0.45593999997E+02  0.45594000000E+02  0.51100000000E-03 0. -1.
    9900012    2    1    2    0    0  0.14328029346E+02  0.39502390441E+01  0.28210278049E+02  0.59302006193E+02  0.50000113375E+02 0.  0.
         12    1    1    2    0    0 -0.14328029346E+02 -0.39502390441E+01 -0.28210278049E+02  0.31885993807E+02  0.00000000000E+00 0. -1.
         11    1    3    3    0    0 -0.12745085948E+02  0.39103685441E+01 -0.36096102748E+01  0.13811498274E+02  0.51100000000E-03 0. -1.
        -11    1    3    3    0    0  0.19384109154E+02  0.40169916250E+01  0.31018090045E+02  0.36796763713E+02  0.51100000000E-03 0.  1.
        -12    1    3    3    0    0  0.76890061395E+01 -0.39771211250E+01  0.80179827844E+00  0.86937442069E+01  0.00000000000E+00 0.  1.
</event>
<event>
 7    1  0.7819001E-012  0.5930196E+02  0.7816164E-02  0.1266605E+00
        -11   -1    0    0    0    0  0.00000000000E+00  0.00000000000E+00  0.45593999997E+02  0.45594000000E+02  0.51100000000E-03 0.  1.
         11   -1    0    0    0    0 -0.00000000000E+00 -0.00000000000E+00 -0.45593999997E+02  0.45594000000E+02  0.51100000000E-03 0. -1.
    9900012    2    1    2    0    0  0.89314344854E+01 -0.62082823322E+01  0.29973427149E+02  0.59301958751E+02  0.50000026851E+02 0.  0.
         12    1    1    2    0    0 -0.89314344854E+01  0.62082823322E+01 -0.29973427149E+02  0.31886041249E+02  0.00000000000E+00 0. -1.
         11    1    3    3    0    0 -0.14073426110E+02 -0.17963090467E+02  0.13941947468E+02  0.26741575142E+02  0.51100000000E-03 0. -1.
        -11    1    3    3    0    0  0.16562059530E+02  0.10256523626E+02  0.17024616910E+02  0.25871522452E+02  0.51100000000E-03 0.  1.
         12    1    3    3    0    0  0.64428010647E+01  0.14982845091E+01 -0.99313722819E+00  0.66888611574E+01  0.00000000000E+00 0. -1.
</event>
<event>
 7    1  0.7819001E-012  0.5930193E+02  0.7816164E-02  0.1266605E+00
        -11   -1    0    0    0    0  0.00000000000E+00  0.00000000000E+00  0.45593999997E+02  0.45594000000E+02  0.51100000000E-03 0.  1.
         11   -1    0    0    0    0 -0.00000000000E+00 -0.00000000000E+00 -0.45593999997E+02  0.45594000000E+02  0.51100000000E-03 0. -1.
    9900012    2    1    2    0    0  0.24732891378E+02 -0.99758705380E+01  0.17478207247E+02  0.59301927218E+02  0.49999969343E+02 0.  0.
         12    1    1    2    0    0 -0.24732891378E+02  0.99758705380E+01 -0.17478207247E+02  0.31886072782E+02  0.00000000000E+00 0. -1.
         11    1    3    3    0    0  0.11024643935E+02  0.92242994272E+01 -0.95608842979E+01  0.17263863491E+02  0.51100000000E-03 0. -1.
        -11    1    3    3    0    0  0.55317872888E+01 -0.22604617140E+02  0.18418165607E+02  0.29678244746E+02  0.51100000000E-03 0.  1.
        -12    1    3    3    0    0  0.81764601534E+01  0.34044471746E+01  0.86209259379E+01  0.12359818981E+02  0.00000000000E+00 0.  1.
</event>
<event>
 7    1  0.7819001E-012  0.5930195E+02  0.7816164E-02  0.1266605E+00
        -11   -1    0    0    0    0  0.00000000000E+00  0.00000000000E+00  0.45593999997E+02  0.45594000000E+02  0.51100000000E-03 0.  1.
         11   -1    0    0    0    0 -0.00000000000E+00 -0.00000000000E+00 -0.45593999997E+02  0.45594000000E+02  0.51100000000E-03 0. -1.
    9900012    2    1    2    0    0 -0.16507660818E+02  0.22773957654E+02  0.15018789504E+02  0.59301952093E+02  0.50000014710E+02 0.  0.
         12    1    1    2    0    0  0.16507660818E+02 -0.22773957654E+02 -0.15018789504E+02  0.31886047907E+02  0.00000000000E+00 0. -1.
         11    1    3    3    0    0 -0.31422173607E+02  0.12235742740E+02  0.20884098143E+01  0.33785024055E+02  0.51100000000E-03 0. -1.
        -11    1    3    3    0    0  0.51004916270E+01  0.10994606647E+02  0.62542005693E+01  0.13638600192E+02  0.51100000000E-03 0.  1.
         12    1    3    3    0    0  0.98140211618E+01 -0.45639173322E+00  0.66761791202E+01  0.11878327846E+02  0.00000000000E+00 0. -1.
</event>
<event>
 7    1  0.7819001E-012  0.5930191E+02  0.7816164E-02  0.1266605E+00
        -11   -1    0    0    0    0  0.00000000000E+00  0.00000000000E+00  0.45593999997E+02  0.45594000000E+02  0.51100000000E-03 0.  1.
         11   -1    0    0    0    0 -0.00000000000E+00 -0.00000000000E+00 -0.45593999997E+02  0.45594000000E+02  0.51100000000E-03 0. -1.
    9900012    2    1    2    0    0  0.22699984897E+00 -0.65702866361E+01  0.31201004056E+02  0.59301908212E+02  0.49999934681E+02 0.  0.
         12    1    1    2    0    0 -0.22699984897E+00  0.65702866361E+01 -0.31201004056E+02  0.31886091788E+02  0.00000000000E+00 0. -1.
         11    1    3    3    0    0 -0.14989550276E+02  0.29176131144E+01 -0.58105764952E+01  0.16338968243E+02  0.51100000000E-03 0. -1.
        -11    1    3    3    0    0  0.88814340498E+01 -0.53246501538E+01  0.83106163040E+01  0.13277729989E+02  0.51100000000E-03 0.  1.
         12    1    3    3    0    0  0.63351160753E+01 -0.41632495967E+01  0.28700964247E+02  0.29685209981E+02  0.00000000000E+00 0. -1.
</event>
<event>
 7    1  0.7819001E-012  0.5930192E+02  0.7816164E-02  0.1266605E+00
        -11   -1    0    0    0    0  0.00000000000E+00  0.00000000000E+00  0.45593999997E+02  0.45594000000E+02  0.51100000000E-03 0.  1.
         11   -1    0    0    0    0 -0.00000000000E+00 -0.00000000000E+00 -0.45593999997E+02  0.45594000000E+02  0.51100000000E-03 0. -1.
    9900012    2    1    2    0    0 -0.23714597750E+02  0.78947232256E+01  0.19799331195E+02  0.59301916562E+02  0.49999949909E+02 0.  0.
         12    1    1    2    0    0  0.23714597750E+02 -0.78947232256E+01 -0.19799331195E+02  0.31886083438E+02  0.00000000000E+00 0. -1.
         11    1    3    3    0    0 -0.32765976107E+01  0.21475207969E+02 -0.85314413833E+00  0.21740480777E+02  0.51100000000E-03 0. -1.
        -11    1    3    3    0    0 -0.98568132229E+01  0.35474781396E+01  0.11148800869E+02  0.15298272097E+02  0.51100000000E-03 0.  1.
         12    1    3    3    0    0 -0.10581186916E+02 -0.17127962883E+02  0.95036744648E+01  0.22263163688E+02  0.00000000000E+00 0. -1.
</event>
<event>
 7    1  0.7819001E-012  0.5930194E+02  0.7816164E-02  0.1266605E+00
        -11   -1    0    0    0    0  0.00000000000E+00  0.00000000000E+00  0.45593999997E+02  0.45594000000E+02  0.51100000000E-03 0. -1.
         11   -1    0    0    0    0 -0.00000000000E+00 -0.00000000000E+00 -0.45593999997E+02  0.45594000000E+02  0.51100000000E-03 0.  1.
    9900012    2    1    2    0    0 -0.39934237057E+01  0.45693321682E+01 -0.31303270000E+02  0.59301938122E+02  0.49999989230E+02 0.  0.
         12    1    1    2    0    0  0.39934237057E+01 -0.45693321682E+01  0.31303270000E+02  0.31886061878E+02  0.00000000000E+00 0. -1.
         11    1    3    3    0    0  0.35309363346E+01 -0.11314406287E+02  0.90095309142E+01  0.14888080756E+02  0.51100000000E-03 0. -1.
        -11    1    3    3    0    0 -0.17435821905E+01  0.89757879860E+01 -0.15244859099E+02  0.17776686362E+02  0.51100000000E-03 0.  1.
        -12    1    3    3    0    0 -0.57807778498E+01  0.69079504697E+01 -0.25067941816E+02  0.26637171004E+02  0.00000000000E+00 0.  1.
</event>
<event>
 7    1  0.7819001E-012  0.5930198E+02  0.7816164E-02  0.1266605E+00
        -11   -1    0    0    0    0  0.00000000000E+00  0.00000000000E+00  0.45593999997E+02  0.45594000000E+02  0.51100000000E-03 0. -1.
         11   -1    0    0    0    0 -0.00000000000E+00 -0.00000000000E+00 -0.45593999997E+02  0.45594000000E+02  0.51100000000E-03 0.  1.
    9900012    2    1    2    0    0 -0.35945433645E+01 -0.29240800087E+02 -0.12197260360E+02  0.59301979678E+02  0.50000065017E+02 0.  0.
         12    1    1    2    0    0  0.35945433645E+01  0.29240800087E+02  0.12197260360E+02  0.31886020322E+02  0.00000000000E+00 0. -1.
         11    1    3    3    0    0 -0.13138002931E+02  0.83683577156E+01  0.33807465640E+01  0.15939447276E+02  0.51100000000E-03 0. -1.
        -11    1    3    3    0    0  0.94211964810E+01 -0.36521709268E+02 -0.17161231724E+02  0.41437930275E+02  0.51100000000E-03 0.  1.
        -12    1    3    3    0    0  0.12226308532E+00 -0.10874485348E+01  0.15832248000E+01  0.19246021264E+01  0.00000000000E+00 0.  1.
</event>
<event>
 7    1  0.7819001E-012  0.5930189E+02  0.7816164E-02  0.1266605E+00
        -11   -1    0    0    0    0  0.00000000000E+00  0.00000000000E+00  0.45593999997E+02  0.45594000000E+02  0.51100000000E-03 0. -1.
         11   -1    0    0    0    0 -0.00000000000E+00 -0.00000000000E+00 -0.45593999997E+02  0.45594000000E+02  0.51100000000E-03 0.  1.
    9900012    2    1    2    0    0 -0.28130001393E+02  0.13723760530E+02 -0.60897783851E+01  0.59301890450E+02  0.49999902287E+02 0.  0.
         12    1    1    2    0    0  0.28130001393E+02 -0.13723760530E+02  0.60897783851E+01  0.31886109550E+02  0.00000000000E+00 0. -1.
         11    1    3    3    0    0 -0.69963584179E+00 -0.58981368326E+01  0.13502164010E+02  0.14750794609E+02  0.51100000000E-03 0. -1.
        -11    1    3    3    0    0 -0.20269883501E+02  0.20260390580E+02 -0.61561497425E+01  0.29312962722E+02  0.51100000000E-03 0.  1.
         12    1    3    3    0    0 -0.71604820495E+01 -0.63849321704E+00 -0.13435792652E+02  0.15238133119E+02  0.00000000000E+00 0. -1.
</event>
<event>
 7    1  0.7819001E-012  0.5930196E+02  0.7816164E-02  0.1266605E+00
        -11   -1    0    0    0    0  0.00000000000E+00  0.00000000000E+00  0.45593999997E+02  0.45594000000E+02  0.51100000000E-03 0. -1.
         11   -1    0    0    0    0 -0.00000000000E+00 -0.00000000000E+00 -0.45593999997E+02  0.45594000000E+02  0.51100000000E-03 0.  1.
    9900012    2    1    2    0    0  0.79590974997E+01  0.30357203460E+02  0.56402516360E+01  0.59301961152E+02  0.50000031230E+02 0.  0.
         12    1    1    2    0    0 -0.79590974997E+01 -0.30357203460E+02 -0.56402516360E+01  0.31886038848E+02  0.00000000000E+00 0. -1.
         11    1    3    3    0    0 -0.22239935380E+01  0.34957688109E+01  0.44087640964E+01  0.60501031359E+01  0.51100000000E-03 0. -1.
        -11    1    3    3    0    0  0.29393080585E+01  0.23791846752E+02 -0.19612073633E+02  0.30972971058E+02  0.51100000000E-03 0.  1.
        -12    1    3    3    0    0  0.72437829792E+01  0.30695878970E+01  0.20843561173E+02  0.22278886958E+02  0.00000000000E+00 0.  1.
</event>
<event>
 7    1  0.7819001E-012  0.5930199E+02  0.7816164E-02  0.1266605E+00
        -11   -1    0    0    0    0  0.00000000000E+00  0.00000000000E+00  0.45593999997E+02  0.45594000000E+02  0.51100000000E-03 0.  1.
         11   -1    0    0    0    0 -0.00000000000E+00 -0.00000000000E+00 -0.45593999997E+02  0.45594000000E+02  0.51100000000E-03 0. -1.
    9900012    2    1    2    0    0 -0.10869322990E+02  0.25810932295E+02 -0.15243730759E+02  0.59301988401E+02  0.50000080927E+02 0.  0.
         12    1    1    2    0    0  0.10869322990E+02 -0.25810932295E+02  0.15243730759E+02  0.31886011599E+02  0.00000000000E+00 0. -1.
         11    1    3    3    0    0  0.82542626191E+01  0.21980788177E+02 -0.25287133969E+02  0.34506913001E+02  0.51100000000E-03 0. -1.
        -11    1    3    3    0    0 -0.13450961208E+02 -0.12444951562E+01  0.18879274052E+01  0.13639699254E+02  0.51100000000E-03 0.  1.
         12    1    3    3    0    0 -0.56726244011E+01  0.50746392746E+01  0.81554758040E+01  0.11155376146E+02  0.00000000000E+00 0. -1.
</event>
<event>
 7    1  0.7819001E-012  0.5930190E+02  0.7816164E-02  0.1266605E+00
        -11   -1    0    0    0    0  0.00000000000E+00  0.00000000000E+00  0.45593999997E+02  0.45594000000E+02  0.51100000000E-03 0.  1.
         11   -1    0    0    0    0 -0.00000000000E+00 -0.00000000000E+00 -0.45593999997E+02  0.45594000000E+02  0.51100000000E-03 0. -1.
    9900012    2    1    2    0    0  0.15235881555E+02 -0.24647060006E+02  0.13308415777E+02  0.59301896692E+02  0.49999913671E+02 0.  0.
         12    1    1    2    0    0 -0.15235881555E+02  0.24647060006E+02 -0.13308415777E+02  0.31886103308E+02  0.00000000000E+00 0. -1.
         11    1    3    3    0    0  0.22547585884E+01 -0.57196705014E+01 -0.13837052038E+02  0.15141419230E+02  0.51100000000E-03 0. -1.
        -11    1    3    3    0    0  0.77409949871E+01 -0.81105686779E+01  0.29810609443E+02  0.31849281990E+02  0.51100000000E-03 0.  1.
        -12    1    3    3    0    0  0.52401279793E+01 -0.10816820827E+02 -0.26651416281E+01  0.12311195471E+02  0.00000000000E+00 0.  1.
</event>
<event>
 7    1  0.7819001E-012  0.5930195E+02  0.7816164E-02  0.1266605E+00
        -11   -1    0    0    0    0  0.00000000000E+00  0.00000000000E+00  0.45593999997E+02  0.45594000000E+02  0.51100000000E-03 0.  1.
         11   -1    0    0    0    0 -0.00000000000E+00 -0.00000000000E+00 -0.45593999997E+02  0.45594000000E+02  0.51100000000E-03 0. -1.
    9900012    2    1    2    0    0 -0.25047001589E+01  0.25658364947E+02  0.18764194397E+02  0.59301949664E+02  0.50000010279E+02 0.  0.
         12    1    1    2    0    0  0.25047001589E+01 -0.25658364947E+02 -0.18764194397E+02  0.31886050336E+02  0.00000000000E+00 0. -1.
         11    1    3    3    0    0 -0.11812169936E+02  0.97226624506E+01 -0.96302836128E+01  0.18077607321E+02  0.51100000000E-03 0. -1.
        -11    1    3    3    0    0  0.21867502136E+01  0.21016737451E+02  0.19627806049E+02  0.28839831833E+02  0.51100000000E-03 0.  1.
         12    1    3    3    0    0  0.71207195637E+01 -0.50810349541E+01  0.87666719610E+01  0.12384510510E+02  0.00000000000E+00 0. -1.
</event>
<event>
 7    1  0.7819001E-012  0.5930194E+02  0.7816164E-02  0.1266605E+00
        -11   -1    0    0    0    0  0.00000000000E+00  0.00000000000E+00  0.45593999997E+02  0.45594000000E+02  0.51100000000E-03 0. -1.
         11   -1    0    0    0    0 -0.00000000000E+00 -0.00000000000E+00 -0.45593999997E+02  0.45594000000E+02  0.51100000000E-03 0.  1.
    9900012    2    1    2    0    0 -0.43666936169E+01  0.27248762507E+02 -0.15973651909E+02  0.59301943069E+02  0.49999998251E+02 0.  0.
         12    1    1    2    0    0  0.43666936169E+01 -0.27248762507E+02  0.15973651909E+02  0.31886056931E+02  0.00000000000E+00 0. -1.
         11    1    3    3    0    0 -0.31740835977E+01 -0.77773878130E+01  0.83132270043E+01  0.11818304082E+02  0.51100000000E-03 0. -1.
        -11    1    3    3    0    0  0.81056244371E+01  0.27994105083E+02 -0.17465159065E+02  0.33976504358E+02  0.51100000000E-03 0.  1.
        -12    1    3    3    0    0 -0.92982344563E+01  0.70320452368E+01 -0.68217198479E+01  0.13507134629E+02  0.00000000000E+00 0.  1.
</event>
<event>
 7    1  0.7819001E-012  0.5930196E+02  0.7816164E-02  0.1266605E+00
        -11   -1    0    0    0    0  0.00000000000E+00  0.00000000000E+00  0.45593999997E+02  0.45594000000E+02  0.51100000000E-03 0. -1.
         11   -1    0    0    0    0 -0.00000000000E+00 -0.00000000000E+00 -0.45593999997E+02  0.45594000000E+02  0.51100000000E-03 0.  1.
    9900012    2    1    2    0    0  0.28298251980E+02  0.14530287161E+02 -0.21907649741E+01  0.59301956638E+02  0.50000022999E+02 0.  0.
         12    1    1    2    0    0 -0.28298251980E+02 -0.14530287161E+02  0.21907649741E+01  0.31886043362E+02  0.00000000000E+00 0. -1.
         11    1    3    3    0    0  0.61006538161E+01  0.19214908848E+01  0.58962041461E+01  0.86991567291E+01  0.51100000000E-03 0. -1.
        -11    1    3    3    0    0 -0.38809610645E+01  0.64428733815E+01 -0.19932122561E+02  0.21304036853E+02  0.51100000000E-03 0.  1.
        -12    1    3    3    0    0  0.26078559228E+02  0.61659228946E+01  0.11845153441E+02  0.29298763056E+02  0.00000000000E+00 0.  1.
</event>
<event>
 7    1  0.7819001E-012  0.5930199E+02  0.7816164E-02  0.1266605E+00
        -11   -1    0    0    0    0  0.00000000000E+00  0.00000000000E+00  0.45593999997E+02  0.45594000000E+02  0.51100000000E-03 0. -1.
         11   -1    0    0    0    0 -0.00000000000E+00 -0.00000000000E+00 -0.45593999997E+02  0.45594000000E+02  0.51100000000E-03 0.  1.
    9900012    2    1    2    0    0 -0.20825485536E+02 -0.72972243258E+01 -0.23016671149E+02  0.59301992388E+02  0.50000088198E+02 0.  0.
         12    1    1    2    0    0  0.20825485536E+02  0.72972243258E+01  0.23016671149E+02  0.31886007612E+02  0.00000000000E+00 0. -1.
         11    1    3    3    0    0 -0.97737043245E+01  0.24431189763E+01 -0.24447026699E+02  0.26441468213E+02  0.51100000000E-03 0.  1.
        -11    1    3    3    0    0  0.71065234174E+01 -0.12557587666E+02  0.12636646449E+01  0.14484216640E+02  0.51100000000E-03 0. -1.
         12    1    3    3    0    0 -0.18158304629E+02  0.28172443638E+01  0.16669090547E+00  0.18376307536E+02  0.00000000000E+00 0. -1.
</event>
<event>
 7    1  0.7819001E-012  0.5930187E+02  0.7816164E-02  0.1266605E+00
        -11   -1    0    0    0    0  0.00000000000E+00  0.00000000000E+00  0.45593999997E+02  0.45594000000E+02  0.51100000000E-03 0.  1.
         11   -1    0    0    0    0 -0.00000000000E+00 -0.00000000000E+00 -0.45593999997E+02  0.45594000000E+02  0.51100000000E-03 0. -1.
    9900012    2    1    2    0    0 -0.15680563646E+01 -0.12314224656E+02  0.29370500445E+02  0.59301870946E+02  0.49999866716E+02 0.  0.
         12    1    1    2    0    0  0.15680563646E+01  0.12314224656E+02 -0.29370500445E+02  0.31886129054E+02  0.00000000000E+00 0. -1.
         11    1    3    3    0    0  0.10512786752E+02 -0.13699296663E+01  0.11971274893E+02  0.15990835357E+02  0.51100000000E-03 0. -1.
        -11    1    3    3    0    0 -0.96131594257E+01 -0.12854792624E+02  0.27992169264E+02  0.32267941798E+02  0.51100000000E-03 0.  1.
         12    1    3    3    0    0 -0.24676836908E+01  0.19104976351E+01 -0.10592943711E+02  0.11043093791E+02  0.00000000000E+00 0. -1.
</event>
<event>
 7    1  0.7819001E-012  0.5930197E+02  0.7816164E-02  0.1266605E+00
        -11   -1    0    0    0    0  0.00000000000E+00  0.00000000000E+00  0.45593999997E+02  0.45594000000E+02  0.51100000000E-03 0.  1.
         11   -1    0    0    0    0 -0.00000000000E+00 -0.00000000000E+00 -0.45593999997E+02  0.45594000000E+02  0.51100000000E-03 0. -1.
    9900012    2    1    2    0    0  0.14998947696E+02 -0.27915106562E+02 -0.35351956176E+01  0.59301965213E+02  0.50000038638E+02 0.  0.
         12    1    1    2    0    0 -0.14998947696E+02  0.27915106562E+02  0.35351956176E+01  0.31886034787E+02  0.00000000000E+00 0. -1.
         11    1    3    3    0    0  0.11381183891E+02 -0.19331502976E+01  0.19338425876E+01  0.11705048665E+02  0.51100000000E-03 0. -1.
        -11    1    3    3    0    0 -0.84228472646E+00 -0.31623793921E+02 -0.15520775549E+02  0.35237313453E+02  0.51100000000E-03 0.  1.
        -12    1    3    3    0    0  0.44600485321E+01  0.56418376569E+01  0.10051737343E+02  0.12359603095E+02  0.00000000000E+00 0.  1.
</event>
<event>
 7    1  0.7819001E-012  0.5930196E+02  0.7816164E-02  0.1266605E+00
        -11   -1    0    0    0    0  0.00000000000E+00  0.00000000000E+00  0.45593999997E+02  0.45594000000E+02  0.51100000000E-03 0.  1.
         11   -1    0    0    0    0 -0.00000000000E+00 -0.00000000000E+00 -0.45593999997E+02  0.45594000000E+02  0.51100000000E-03 0. -1.
    9900012    2    1    2    0    0 -0.12760182609E+02 -0.16505049724E+00  0.29221056691E+02  0.59301958288E+02  0.50000026008E+02 0.  0.
         12    1    1    2    0    0  0.12760182609E+02  0.16505049724E+00 -0.29221056691E+02  0.31886041712E+02  0.00000000000E+00 0. -1.
         11    1    3    3    0    0 -0.11549916191E+02 -0.77254739025E+01  0.46158763500E+01  0.14642056747E+02  0.51100000000E-03 0. -1.
        -11    1    3    3    0    0  0.84513780035E+01  0.19887238188E+02  0.14289376834E+02  0.25905874304E+02  0.51100000000E-03 0.  1.
        -12    1    3    3    0    0 -0.96616444217E+01 -0.12326814783E+02  0.10315803508E+02  0.18754027237E+02  0.00000000000E+00 0.  1.
</event>
<event>
 7    1  0.7819001E-012  0.5930192E+02  0.7816164E-02  0.1266605E+00
        -11   -1    0    0    0    0  0.00000000000E+00  0.00000000000E+00  0.45593999997E+02  0.45594000000E+02  0.51100000000E-03 0.  1.
         11   -1    0    0    0    0 -0.00000000000E+00 -0.00000000000E+00 -0.45593999997E+02  0.45594000000E+02  0.51100000000E-03 0. -1.
    9900012    2    1    2    0    0  0.16347462839E+02  0.27090565609E+02  0.39476039674E+01  0.59301923676E+02  0.49999962883E+02 0.  0.
         12    1    1    2    0    0 -0.16347462839E+02 -0.27090565609E+02 -0.39476039674E+01  0.31886076324E+02  0.00000000000E+00 0. -1.
         11    1    3    3    0    0 -0.10835455795E+02  0.27588793424E+02 -0.37184454090E+01  0.29872654074E+02  0.51100000000E-03 0.  1.
        -11    1    3    3    0    0  0.20322090427E+02  0.29874355680E+01  0.40912313166E+01  0.20943980150E+02  0.51100000000E-03 0. -1.
         12    1    3    3    0    0  0.68608282079E+01 -0.34856633832E+01  0.35748180598E+01  0.84852894517E+01  0.00000000000E+00 0. -1.
</event>
<event>
 7    1  0.7819001E-012  0.5930196E+02  0.7816164E-02  0.1266605E+00
        -11   -1    0    0    0    0  0.00000000000E+00  0.00000000000E+00  0.45593999997E+02  0.45594000000E+02  0.51100000000E-03 0. -1.
         11   -1    0    0    0    0 -0.00000000000E+00 -0.00000000000E+00 -0.45593999997E+02  0.45594000000E+02  0.51100000000E-03 0.  1.
    9900012    2    1    2    0    0 -0.20783817759E+02  0.61185491014E+01 -0.23394784779E+02  0.59301957935E+02  0.50000025363E+02 0.  0.
         12    1    1    2    0    0  0.20783817759E+02 -0.61185491014E+01  0.23394784779E+02  0.31886042065E+02  0.00000000000E+00 0. -1.
         11    1    3    3    0    0 -0.13526848406E+02  0.11485519369E+01 -0.46898031894E+01  0.14362766222E+02  0.51100000000E-03 0. -1.
        -11    1    3    3    0    0  0.16869710580E+01  0.88885118695E+01 -0.29220541457E+02  0.30589075793E+02  0.51100000000E-03 0.  1.
        -12    1    3    3    0    0 -0.89439404112E+01 -0.39185147050E+01  0.10515559867E+02  0.14350115919E+02  0.00000000000E+00 0.  1.
</event>
<event>
 7    1  0.7819001E-012  0.5930195E+02  0.7816164E-02  0.1266605E+00
        -11   -1    0    0    0    0  0.00000000000E+00  0.00000000000E+00  0.45593999997E+02  0.45594000000E+02  0.51100000000E-03 0.  1.
         11   -1    0    0    0    0 -0.00000000000E+00 -0.00000000000E+00 -0.45593999997E+02  0.45594000000E+02  0.51100000000E-03 0. -1.
    9900012    2    1    2    0    0 -0.68485076257E+01 -0.20808586240E+02  0.23169395613E+02  0.59301949585E+02  0.50000010135E+02 0.  0.
         12    1    1    2    0    0  0.68485076257E+01  0.20808586240E+02 -0.23169395613E+02  0.31886050415E+02  0.00000000000E+00 0. -1.
         11    1    3    3    0    0  0.83285653107E+01 -0.72217568126E+00 -0.69051565148E+01  0.10842865147E+02  0.51100000000E-03 0. -1.
        -11    1    3    3    0    0 -0.13953778400E+02 -0.47407364269E+01  0.29590378469E+02  0.33057117414E+02  0.51100000000E-03 0.  1.
        -12    1    3    3    0    0 -0.12232945362E+01 -0.15345674132E+02  0.48417365909E+00  0.15401967024E+02  0.00000000000E+00 0.  1.
</event>
<event>
 7    1  0.7819001E-012  0.5930195E+02  0.7816164E-02  0.1266605E+00
        -11   -1    0    0    0    0  0.00000000000E+00  0.00000000000E+00  0.45593999997E+02  0.45594000000E+02  0.51100000000E-03 0. -1.
         11   -1    0    0    0    0 -0.00000000000E+00 -0.00000000000E+00 -0.45593999997E+02  0.45594000000E+02  0.51100000000E-03 0.  1.
    9900012    2    1    2    0    0  0.14533574427E+02  0.17206557538E+02 -0.22570550180E+02  0.59301950647E+02  0.50000012071E+02 0.  0.
         12    1    1    2    0    0 -0.14533574427E+02 -0.17206557538E+02  0.22570550180E+02  0.31886049353E+02  0.00000000000E+00 0. -1.
         11    1    3    3    0    0  0.60542311793E+00  0.25744743709E+02  0.46070166918E+01  0.26160714227E+02  0.51100000000E-03 0. -1.
        -11    1    3    3    0    0  0.36645862626E+01 -0.74077115332E+01 -0.88772269052E+01  0.12128830959E+02  0.51100000000E-03 0.  1.
         12    1    3    3    0    0  0.10263565047E+02 -0.11304746379E+01 -0.18300339967E+02  0.21012405461E+02  0.00000000000E+00 0. -1.
</event>
<event>
 7    1  0.7819001E-012  0.5930193E+02  0.7816164E-02  0.1266605E+00
        -11   -1    0    0    0    0  0.00000000000E+00  0.00000000000E+00  0.45593999997E+02  0.45594000000E+02  0.51100000000E-03 0.  1.
         11   -1    0    0    0    0 -0.00000000000E+00 -0.00000000000E+00 -0.45593999997E+02  0.45594000000E+02  0.51100000000E-03 0. -1.
    9900012    2    1    2    0    0  0.22892602649E+02  0.16253065454E+02 -0.15115814476E+02  0.59301933450E+02  0.49999980710E+02 0.  0.
         12    1    1    2    0    0 -0.22892602649E+02 -0.16253065454E+02  0.15115814476E+02  0.31886066550E+02  0.00000000000E+00 0. -1.
         11    1    3    3    0    0  0.23300194327E+02  0.13323643185E+02 -0.25443189223E+02  0.36983434150E+02  0.51100000000E-03 0. -1.
        -11    1    3    3    0    0 -0.66234028142E+01  0.48564184399E+01 -0.19335441011E+01  0.84375860265E+01  0.51100000000E-03 0.  1.
         12    1    3    3    0    0  0.62158111370E+01 -0.19269961710E+01  0.12260918848E+02  0.13880913274E+02  0.00000000000E+00 0. -1.
</event>
<event>
 7    1  0.7819001E-012  0.5930193E+02  0.7816164E-02  0.1266605E+00
        -11   -1    0    0    0    0  0.00000000000E+00  0.00000000000E+00  0.45593999997E+02  0.45594000000E+02  0.51100000000E-03 0.  1.
         11   -1    0    0    0    0 -0.00000000000E+00 -0.00000000000E+00 -0.45593999997E+02  0.45594000000E+02  0.51100000000E-03 0. -1.
    9900012    2    1    2    0    0 -0.39415708281E+01 -0.27117597518E+01  0.31525093545E+02  0.59301934946E+02  0.49999983438E+02 0.  0.
         12    1    1    2    0    0  0.39415708281E+01  0.27117597518E+01 -0.31525093545E+02  0.31886065054E+02  0.00000000000E+00 0. -1.
         11    1    3    3    0    0 -0.18603337262E+01  0.11021187179E+01 -0.62360001526E+01  0.66002428293E+01  0.51100000000E-03 0. -1.
        -11    1    3    3    0    0 -0.13317749857E+02  0.27946708889E+01  0.37247943902E+02  0.39655793673E+02  0.51100000000E-03 0.  1.
        -12    1    3    3    0    0  0.11236512755E+02 -0.66085493586E+01  0.51314979620E+00  0.13045898445E+02  0.00000000000E+00 0.  1.
</event>
<event>
 7    1  0.7819001E-012  0.5930191E+02  0.7816164E-02  0.1266605E+00
        -11   -1    0    0    0    0  0.00000000000E+00  0.00000000000E+00  0.45593999997E+02  0.45594000000E+02  0.51100000000E-03 0.  1.
         11   -1    0    0    0    0 -0.00000000000E+00 -0.00000000000E+00 -0.45593999997E+02  0.45594000000E+02  0.51100000000E-03 0. -1.
    9900012    2    1    2    0    0 -0.58160095373E+01  0.51255274905E+01  0.30929362422E+02  0.59301914338E+02  0.49999945853E+02 0.  0.
         12    1    1    2    0    0  0.58160095373E+01 -0.51255274905E+01 -0.30929362422E+02  0.31886085662E+02  0.00000000000E+00 0. -1.
         11    1    3    3    0    0  0.32533501657E+01  0.12502967365E+02  0.74525792395E+01  0.14914738275E+02  0.51100000000E-03 0. -1.
        -11    1    3    3    0    0 -0.15968799703E+02 -0.18488166232E+02  0.17220872480E+02  0.29889351011E+02  0.51100000000E-03 0.  1.
        -12    1    3    3    0    0  0.68994400004E+01  0.11110726358E+02  0.62559107031E+01  0.14497825052E+02  0.00000000000E+00 0.  1.
</event>
<event>
 7    1  0.7819001E-012  0.5930198E+02  0.7816164E-02  0.1266605E+00
        -11   -1    0    0    0    0  0.00000000000E+00  0.00000000000E+00  0.45593999997E+02  0.45594000000E+02  0.51100000000E-03 0.  1.
         11   -1    0    0    0    0 -0.00000000000E+00 -0.00000000000E+00 -0.45593999997E+02  0.45594000000E+02  0.51100000000E-03 0. -1.
    9900012    2    1    2    0    0  0.15723360577E+02  0.27733582280E+02  0.58535183669E+00  0.59301979698E+02  0.50000065054E+02 0.  0.
         12    1    1    2    0    0 -0.15723360577E+02 -0.27733582280E+02 -0.58535183669E+00  0.31886020302E+02  0.00000000000E+00 0. -1.
         11    1    3    3    0    0  0.14794074150E+02  0.17160473038E+02 -0.15112569801E+02  0.27234834882E+02  0.51100000000E-03 0. -1.
        -11    1    3    3    0    0 -0.12220000268E+02  0.25732199035E+01  0.82600700776E+01  0.14972595806E+02  0.51100000000E-03 0.  1.
         12    1    3    3    0    0  0.13149286695E+02  0.79998893389E+01  0.74378515600E+01  0.17094549010E+02  0.00000000000E+00 0. -1.
</event>
<event>
 7    1  0.7819001E-012  0.5930197E+02  0.7816164E-02  0.1266605E+00
        -11   -1    0    0    0    0  0.00000000000E+00  0.00000000000E+00  0.45593999997E+02  0.45594000000E+02  0.51100000000E-03 0. -1.
         11   -1    0    0    0    0 -0.00000000000E+00 -0.00000000000E+00 -0.45593999997E+02  0.45594000000E+02  0.51100000000E-03 0.  1.
    9900012    2    1    2    0    0 -0.25486388159E+02 -0.18956513543E+02 -0.27953087336E+01  0.59301966411E+02  0.50000040823E+02 0.  0.
         12    1    1    2    0    0  0.25486388159E+02  0.18956513543E+02  0.27953087336E+01  0.31886033589E+02  0.00000000000E+00 0. -1.
         11    1    3    3    0    0 -0.11674696936E+02 -0.52100658080E+01 -0.22921076522E+02  0.26245363085E+02  0.51100000000E-03 0.  1.
        -11    1    3    3    0    0 -0.17388990970E+02 -0.11165943404E+02  0.12232125688E+02  0.24014166614E+02  0.51100000000E-03 0. -1.
         12    1    3    3    0    0  0.35772997474E+01 -0.25805043318E+01  0.78936421006E+01  0.90424367126E+01  0.00000000000E+00 0. -1.
</event>
<event>
 7    1  0.7819001E-012  0.5930194E+02  0.7816164E-02  0.1266605E+00
        -11   -1    0    0    0    0  0.00000000000E+00  0.00000000000E+00  0.45593999997E+02  0.45594000000E+02  0.51100000000E-03 0.  1.
         11   -1    0    0    0    0 -0.00000000000E+00 -0.00000000000E+00 -0.45593999997E+02  0.45594000000E+02  0.51100000000E-03 0. -1.
    9900012    2    1    2    0    0  0.54752584697E+00 -0.29757668303E+01  0.31742177373E+02  0.59301940395E+02  0.49999993374E+02 0.  0.
         12    1    1    2    0    0 -0.54752584697E+00  0.29757668303E+01 -0.31742177373E+02  0.31886059605E+02  0.00000000000E+00 0. -1.
         11    1    3    3    0    0 -0.15101825228E+02 -0.13902397941E+02  0.59722424747E+01  0.21377779917E+02  0.51100000000E-03 0. -1.
        -11    1    3    3    0    0  0.38369932823E+01  0.12646088501E+02  0.21518986174E+02  0.25252976815E+02  0.51100000000E-03 0.  1.
         12    1    3    3    0    0  0.11812357793E+02 -0.17194573904E+01  0.42509487243E+01  0.12671183662E+02  0.00000000000E+00 0. -1.
</event>
<event>
 7    1  0.7819001E-012  0.5930193E+02  0.7816164E-02  0.1266605E+00
        -11   -1    0    0    0    0  0.00000000000E+00  0.00000000000E+00  0.45593999997E+02  0.45594000000E+02  0.51100000000E-03 0.  1.
         11   -1    0    0    0    0 -0.00000000000E+00 -0.00000000000E+00 -0.45593999997E+02  0.45594000000E+02  0.51100000000E-03 0. -1.
    9900012    2    1    2    0    0 -0.83090431593E+00 -0.19853073829E+02  0.24937649933E+02  0.59301932092E+02  0.49999978232E+02 0.  0.
         12    1    1    2    0    0  0.83090431593E+00  0.19853073829E+02 -0.24937649933E+02  0.31886067908E+02  0.00000000000E+00 0. -1.
         11    1    3    3    0    0 -0.96408303258E+00  0.51286748833E+01 -0.14980091576E+01  0.54292535260E+01  0.51100000000E-03 0. -1.
        -11    1    3    3    0    0 -0.83693738005E+01 -0.13863649628E+02  0.34219030396E+02  0.37857485922E+02  0.51100000000E-03 0.  1.
        -12    1    3    3    0    0  0.85025525172E+01 -0.11118099085E+02 -0.77833713052E+01  0.16015192644E+02  0.00000000000E+00 0.  1.
</event>
