<event>
 7    1  0.2530788E-009  0.4778727E+02  0.7816164E-02  0.1312668E+00
        -11   -1    0    0    0    0  0.00000000000E+00  0.00000000000E+00  0.45593999997E+02  0.45594000000E+02  0.51100000000E-03 0.  1.
         11   -1    0    0    0    0 -0.00000000000E+00 -0.00000000000E+00 -0.45593999997E+02  0.45594000000E+02  0.51100000000E-03 0. -1.
    9900012    2    1    2    0    0  0.39704415043E+02 -0.11028027306E+02 -0.13622245703E+02  0.47787268000E+02  0.19999986119E+02 0.  0.
        -12    1    1    2    0    0 -0.39704415043E+02  0.11028027306E+02  0.13622245703E+02  0.43400732000E+02  0.00000000000E+00 0.  1.
         11    1    3    3    0    0  0.10507543300E+02 -0.12150411472E+02 -0.71727322754E+01  0.17592300977E+02  0.51100000000E-03 0. -1.
        -11    1    3    3    0    0  0.21870732479E+02  0.34503797116E-01 -0.64014331752E+01  0.22788340805E+02  0.51100000000E-03 0.  1.
         12    1    3    3    0    0  0.73261392644E+01  0.10878803687E+01 -0.48080251953E-01  0.74066262177E+01  0.00000000000E+00 0. -1.
</event>
<event>
 7    1  0.2530788E-009  0.4778728E+02  0.7816164E-02  0.1312668E+00
        -11   -1    0    0    0    0  0.00000000000E+00  0.00000000000E+00  0.45593999997E+02  0.45594000000E+02  0.51100000000E-03 0.  1.
         11   -1    0    0    0    0 -0.00000000000E+00 -0.00000000000E+00 -0.45593999997E+02  0.45594000000E+02  0.51100000000E-03 0. -1.
    9900012    2    1    2    0    0  0.24180157818E+02  0.17705170076E+02 -0.31392192221E+02  0.47787276366E+02  0.20000024263E+02 0.  0.
        -12    1    1    2    0    0 -0.24180157818E+02 -0.17705170076E+02  0.31392192221E+02  0.43400723634E+02  0.00000000000E+00 0.  1.
         11    1    3    3    0    0  0.20790204322E+02  0.76778648647E+01 -0.27508812730E+02  0.35325868463E+02  0.51100000000E-03 0. -1.
        -11    1    3    3    0    0  0.34880372872E+01  0.78860534864E+01 -0.50783814582E+01  0.10007307440E+02  0.51100000000E-03 0.  1.
         12    1    3    3    0    0 -0.98083790964E-01  0.21412517245E+01  0.11950019672E+01  0.24541004623E+01  0.00000000000E+00 0. -1.
</event>
<event>
 7    1  0.2530788E-009  0.4778727E+02  0.7816164E-02  0.1312668E+00
        -11   -1    0    0    0    0  0.00000000000E+00  0.00000000000E+00  0.45593999997E+02  0.45594000000E+02  0.51100000000E-03 0. -1.
         11   -1    0    0    0    0 -0.00000000000E+00 -0.00000000000E+00 -0.45593999997E+02  0.45594000000E+02  0.51100000000E-03 0.  1.
    9900012    2    1    2    0    0 -0.17262470959E+02  0.33422970565E+02 -0.21645671055E+02  0.47787274885E+02  0.20000017512E+02 0.  0.
        -12    1    1    2    0    0  0.17262470959E+02 -0.33422970565E+02  0.21645671055E+02  0.43400725115E+02  0.00000000000E+00 0.  1.
         11    1    3    3    0    0 -0.71073040351E+01  0.18677251331E+02 -0.37550607633E+01  0.20333567555E+02  0.51100000000E-03 0. -1.
        -11    1    3    3    0    0  0.52139971818E+00  0.28349107137E+01 -0.83395574289E+01  0.88236497433E+01  0.51100000000E-03 0.  1.
         12    1    3    3    0    0 -0.10676566642E+02  0.11910808521E+02 -0.95510528632E+01  0.18630057587E+02  0.00000000000E+00 0. -1.
</event>
<event>
 7    1  0.2530788E-009  0.4778727E+02  0.7816164E-02  0.1312668E+00
        -11   -1    0    0    0    0  0.00000000000E+00  0.00000000000E+00  0.45593999997E+02  0.45594000000E+02  0.51100000000E-03 0.  1.
         11   -1    0    0    0    0 -0.00000000000E+00 -0.00000000000E+00 -0.45593999997E+02  0.45594000000E+02  0.51100000000E-03 0. -1.
    9900012    2    1    2    0    0 -0.34703131585E+02  0.49723833494E+01 -0.25584986512E+02  0.47787268753E+02  0.19999989553E+02 0.  0.
        -12    1    1    2    0    0  0.34703131585E+02 -0.49723833494E+01  0.25584986512E+02  0.43400731247E+02  0.00000000000E+00 0.  1.
         11    1    3    3    0    0 -0.20947819815E+02  0.51139253323E+01 -0.17989021859E+02  0.28081458207E+02  0.51100000000E-03 0. -1.
        -11    1    3    3    0    0 -0.11413601137E+02 -0.44236149953E+01 -0.22122422697E+01  0.12439159002E+02  0.51100000000E-03 0.  1.
        -12    1    3    3    0    0 -0.23417106319E+01  0.42820730123E+01 -0.53837223837E+01  0.72666515446E+01  0.00000000000E+00 0.  1.
</event>
<event>
 7    1  0.2530788E-009  0.4778727E+02  0.7816164E-02  0.1312668E+00
        -11   -1    0    0    0    0  0.00000000000E+00  0.00000000000E+00  0.45593999997E+02  0.45594000000E+02  0.51100000000E-03 0. -1.
         11   -1    0    0    0    0 -0.00000000000E+00 -0.00000000000E+00 -0.45593999997E+02  0.45594000000E+02  0.51100000000E-03 0.  1.
    9900012    2    1    2    0    0  0.13036519135E+02  0.21414993634E+02  0.35426974482E+02  0.47787270692E+02  0.19999998395E+02 0.  0.
        -12    1    1    2    0    0 -0.13036519135E+02 -0.21414993634E+02 -0.35426974482E+02  0.43400729308E+02  0.00000000000E+00 0.  1.
         11    1    3    3    0    0  0.61367641844E+01  0.58452711926E+01  0.12646230598E+02  0.15223475903E+02  0.51100000000E-03 0. -1.
        -11    1    3    3    0    0 -0.15029916362E+01 -0.13192796273E+01  0.89556802882E+01  0.91762569863E+01  0.51100000000E-03 0.  1.
        -12    1    3    3    0    0  0.84027465865E+01  0.16889002069E+02  0.13825063596E+02  0.23387537804E+02  0.00000000000E+00 0.  1.
</event>
<event>
 7    1  0.2530788E-009  0.4778727E+02  0.7816164E-02  0.1312668E+00
        -11   -1    0    0    0    0  0.00000000000E+00  0.00000000000E+00  0.45593999997E+02  0.45594000000E+02  0.51100000000E-03 0.  1.
         11   -1    0    0    0    0 -0.00000000000E+00 -0.00000000000E+00 -0.45593999997E+02  0.45594000000E+02  0.51100000000E-03 0. -1.
    9900012    2    1    2    0    0 -0.24644498318E+02 -0.20510444577E+02 -0.29250533366E+02  0.47787270325E+02  0.19999996722E+02 0.  0.
        -12    1    1    2    0    0  0.24644498318E+02  0.20510444577E+02  0.29250533366E+02  0.43400729675E+02  0.00000000000E+00 0.  1.
         11    1    3    3    0    0 -0.88206173377E+01 -0.17509047016E+01 -0.12360402253E+02  0.15285565139E+02  0.51100000000E-03 0. -1.
        -11    1    3    3    0    0 -0.15192739772E+02 -0.14240811771E+02 -0.76278932291E+01  0.22176672813E+02  0.51100000000E-03 0.  1.
        -12    1    3    3    0    0 -0.63114120845E+00 -0.45187281041E+01 -0.92622378839E+01  0.10325032374E+02  0.00000000000E+00 0.  1.
</event>
<event>
 7    1  0.2530788E-009  0.4778727E+02  0.7816164E-02  0.1312668E+00
        -11   -1    0    0    0    0  0.00000000000E+00  0.00000000000E+00  0.45593999997E+02  0.45594000000E+02  0.51100000000E-03 0.  1.
         11   -1    0    0    0    0 -0.00000000000E+00 -0.00000000000E+00 -0.45593999997E+02  0.45594000000E+02  0.51100000000E-03 0. -1.
    9900012    2    1    2    0    0 -0.12635772460E+02  0.79385364168E+01 -0.40754634404E+02  0.47787270380E+02  0.19999996972E+02 0.  0.
        -12    1    1    2    0    0  0.12635772460E+02 -0.79385364168E+01  0.40754634404E+02  0.43400729620E+02  0.00000000000E+00 0.  1.
         11    1    3    3    0    0 -0.12560002599E+01  0.10102850768E+02 -0.23681798508E+02  0.25777368197E+02  0.51100000000E-03 0. -1.
        -11    1    3    3    0    0 -0.11401412872E+02 -0.14148729338E+01 -0.17652686520E+02  0.21062084952E+02  0.51100000000E-03 0.  1.
         12    1    3    3    0    0  0.21640672281E-01 -0.74944141787E+00  0.57985062419E+00  0.94781723126E+00  0.00000000000E+00 0. -1.
</event>
<event>
 7    1  0.2813879E-009  0.4778727E+02  0.7816164E-02  0.1312668E+00
        -11   -1    0    0    0    0  0.00000000000E+00  0.00000000000E+00  0.45593999997E+02  0.45594000000E+02  0.51100000000E-03 0.  1.
         11   -1    0    0    0    0 -0.00000000000E+00 -0.00000000000E+00 -0.45593999997E+02  0.45594000000E+02  0.51100000000E-03 0. -1.
    9900012    2    1    2    0    0  0.30821431953E+02 -0.99113477929E+01 -0.28903770500E+02  0.47787269225E+02  0.19999991703E+02 0.  0.
        -12    1    1    2    0    0 -0.30821431953E+02  0.99113477929E+01  0.28903770500E+02  0.43400730775E+02  0.00000000000E+00 0.  1.
         11    1    3    3    0    0  0.12211016292E+02 -0.39483521399E+01 -0.16972049959E+02  0.21277896596E+02  0.51100000000E-03 0. -1.
        -11    1    3    3    0    0  0.16986850323E+02 -0.17625649185E+00 -0.58704528344E+01  0.17973490674E+02  0.51100000000E-03 0.  1.
        -12    1    3    3    0    0  0.16235653377E+01 -0.57867391611E+01 -0.60612677073E+01  0.85358819547E+01  0.00000000000E+00 0.  1.
</event>
<event>
 7    1  0.2530788E-009  0.4778728E+02  0.7816164E-02  0.1312668E+00
        -11   -1    0    0    0    0  0.00000000000E+00  0.00000000000E+00  0.45593999997E+02  0.45594000000E+02  0.51100000000E-03 0.  1.
         11   -1    0    0    0    0 -0.00000000000E+00 -0.00000000000E+00 -0.45593999997E+02  0.45594000000E+02  0.51100000000E-03 0. -1.
    9900012    2    1    2    0    0  0.17529896836E+02  0.26177026807E+02 -0.29851106375E+02  0.47787279184E+02  0.20000037111E+02 0.  0.
        -12    1    1    2    0    0 -0.17529896836E+02 -0.26177026807E+02  0.29851106375E+02  0.43400720816E+02  0.00000000000E+00 0.  1.
         11    1    3    3    0    0  0.55180744587E+01  0.84281659111E+01 -0.22876313702E+02  0.24996176812E+02  0.51100000000E-03 0. -1.
        -11    1    3    3    0    0  0.78063672965E+01  0.11216225522E+02 -0.27213314582E+01  0.13933726368E+02  0.51100000000E-03 0.  1.
         12    1    3    3    0    0  0.42054550813E+01  0.65326353736E+01 -0.42534612145E+01  0.88573760036E+01  0.00000000000E+00 0. -1.
</event>
<event>
 7    1  0.2530788E-009  0.4778727E+02  0.7816164E-02  0.1312668E+00
        -11   -1    0    0    0    0  0.00000000000E+00  0.00000000000E+00  0.45593999997E+02  0.45594000000E+02  0.51100000000E-03 0. -1.
         11   -1    0    0    0    0 -0.00000000000E+00 -0.00000000000E+00 -0.45593999997E+02  0.45594000000E+02  0.51100000000E-03 0.  1.
    9900012    2    1    2    0    0  0.39660539326E+01 -0.35736670065E+02 -0.24306053785E+02  0.47787269341E+02  0.19999992232E+02 0.  0.
        -12    1    1    2    0    0 -0.39660539326E+01  0.35736670065E+02  0.24306053785E+02  0.43400730659E+02  0.00000000000E+00 0.  1.
         11    1    3    3    0    0 -0.39949343845E+01 -0.11712646555E+02 -0.15513532780E+02  0.19844779908E+02  0.51100000000E-03 0. -1.
        -11    1    3    3    0    0  0.34155548079E-03 -0.76935559892E+01 -0.55535901715E+01  0.94885809229E+01  0.51100000000E-03 0.  1.
         12    1    3    3    0    0  0.79606467616E+01 -0.16330467521E+02 -0.32389308344E+01  0.18453908509E+02  0.00000000000E+00 0. -1.
</event>
<event>
 7    1  0.2530788E-009  0.4778727E+02  0.7816164E-02  0.1312668E+00
        -11   -1    0    0    0    0  0.00000000000E+00  0.00000000000E+00  0.45593999997E+02  0.45594000000E+02  0.51100000000E-03 0.  1.
         11   -1    0    0    0    0 -0.00000000000E+00 -0.00000000000E+00 -0.45593999997E+02  0.45594000000E+02  0.51100000000E-03 0. -1.
    9900012    2    1    2    0    0  0.31119018389E+02 -0.30246945792E+02 -0.59360238796E+00  0.47787269603E+02  0.19999993426E+02 0.  0.
        -12    1    1    2    0    0 -0.31119018389E+02  0.30246945792E+02  0.59360238796E+00  0.43400730397E+02  0.00000000000E+00 0.  1.
         11    1    3    3    0    0  0.16414703295E+02 -0.17003715845E+02  0.34431789184E+01  0.23883557485E+02  0.51100000000E-03 0. -1.
        -11    1    3    3    0    0  0.19987219268E+01 -0.29834614396E+01 -0.64630038416E+01  0.73936696179E+01  0.51100000000E-03 0.  1.
        -12    1    3    3    0    0  0.12705593167E+02 -0.10259768508E+02  0.24262225352E+01  0.16510042500E+02  0.00000000000E+00 0.  1.
</event>
<event>
 7    1  0.2530788E-009  0.4778727E+02  0.7816164E-02  0.1312668E+00
        -11   -1    0    0    0    0  0.00000000000E+00  0.00000000000E+00  0.45593999997E+02  0.45594000000E+02  0.51100000000E-03 0. -1.
         11   -1    0    0    0    0 -0.00000000000E+00 -0.00000000000E+00 -0.45593999997E+02  0.45594000000E+02  0.51100000000E-03 0.  1.
    9900012    2    1    2    0    0 -0.50071442062E+01 -0.41837598048E+02  0.10400345499E+02  0.47787270859E+02  0.19999999153E+02 0.  0.
        -12    1    1    2    0    0  0.50071442062E+01  0.41837598048E+02 -0.10400345499E+02  0.43400729141E+02  0.00000000000E+00 0.  1.
         11    1    3    3    0    0  0.14999252170E+01 -0.25024844467E+02  0.13550742494E+02  0.28497635668E+02  0.51100000000E-03 0. -1.
        -11    1    3    3    0    0 -0.17163822370E+01 -0.83640230294E+01 -0.42095188135E+01  0.95196059857E+01  0.51100000000E-03 0.  1.
        -12    1    3    3    0    0 -0.47906871862E+01 -0.84487305510E+01  0.10591218189E+01  0.97700292050E+01  0.00000000000E+00 0.  1.
</event>
<event>
 7    1  0.2530788E-009  0.4778726E+02  0.7816164E-02  0.1312668E+00
        -11   -1    0    0    0    0  0.00000000000E+00  0.00000000000E+00  0.45593999997E+02  0.45594000000E+02  0.51100000000E-03 0. -1.
         11   -1    0    0    0    0 -0.00000000000E+00 -0.00000000000E+00 -0.45593999997E+02  0.45594000000E+02  0.51100000000E-03 0.  1.
    9900012    2    1    2    0    0  0.45938023749E+01 -0.42142352030E+02 -0.93028493579E+01  0.47787264279E+02  0.19999969155E+02 0.  0.
        -12    1    1    2    0    0 -0.45938023749E+01  0.42142352030E+02  0.93028493579E+01  0.43400735721E+02  0.00000000000E+00 0.  1.
         11    1    3    3    0    0 -0.38066945207E+01 -0.19302994215E+02  0.16284955240E+01  0.19742049204E+02  0.51100000000E-03 0. -1.
        -11    1    3    3    0    0  0.42186457817E+01 -0.55846998876E+01 -0.69223659208E+01  0.98440334857E+01  0.51100000000E-03 0.  1.
        -12    1    3    3    0    0  0.41818511139E+01 -0.17254657928E+02 -0.40089789612E+01  0.18201181590E+02  0.00000000000E+00 0.  1.
</event>
<event>
 7    1  0.2530788E-009  0.4778728E+02  0.7816164E-02  0.1312668E+00
        -11   -1    0    0    0    0  0.00000000000E+00  0.00000000000E+00  0.45593999997E+02  0.45594000000E+02  0.51100000000E-03 0.  1.
         11   -1    0    0    0    0 -0.00000000000E+00 -0.00000000000E+00 -0.45593999997E+02  0.45594000000E+02  0.51100000000E-03 0. -1.
    9900012    2    1    2    0    0 -0.22434162243E+02  0.23084155189E+01 -0.37081025913E+02  0.47787275346E+02  0.20000019611E+02 0.  0.
        -12    1    1    2    0    0  0.22434162243E+02 -0.23084155189E+01  0.37081025913E+02  0.43400724654E+02  0.00000000000E+00 0.  1.
         11    1    3    3    0    0 -0.54456924823E+01  0.79325501333E-01 -0.76953507278E+01  0.94276339679E+01  0.51100000000E-03 0. -1.
        -11    1    3    3    0    0 -0.34047846481E+01  0.84232595130E+01 -0.70772032392E+01  0.11516538771E+02  0.51100000000E-03 0.  1.
        -12    1    3    3    0    0 -0.13583685112E+02 -0.61941694955E+01 -0.22308471946E+02  0.26843102606E+02  0.00000000000E+00 0.  1.
</event>
<event>
 7    1  0.2530788E-009  0.4778727E+02  0.7816164E-02  0.1312668E+00
        -11   -1    0    0    0    0  0.00000000000E+00  0.00000000000E+00  0.45593999997E+02  0.45594000000E+02  0.51100000000E-03 0.  1.
         11   -1    0    0    0    0 -0.00000000000E+00 -0.00000000000E+00 -0.45593999997E+02  0.45594000000E+02  0.51100000000E-03 0. -1.
    9900012    2    1    2    0    0 -0.20006218845E+02  0.18919190180E+02 -0.33547557676E+02  0.47787272177E+02  0.20000005164E+02 0.  0.
        -12    1    1    2    0    0  0.20006218845E+02 -0.18919190180E+02  0.33547557676E+02  0.43400727823E+02  0.00000000000E+00 0.  1.
         11    1    3    3    0    0 -0.76341181753E+01  0.86779435473E+01 -0.82590683344E+01  0.14205586033E+02  0.51100000000E-03 0. -1.
        -11    1    3    3    0    0 -0.31611801782E+01  0.36743100752E+01 -0.20889194346E+02  0.21444161334E+02  0.51100000000E-03 0.  1.
        -12    1    3    3    0    0 -0.92109204915E+01  0.65669365576E+01 -0.43992949952E+01  0.12137524810E+02  0.00000000000E+00 0.  1.
</event>
<event>
 7    1  0.2530788E-009  0.4778727E+02  0.7816164E-02  0.1312668E+00
        -11   -1    0    0    0    0  0.00000000000E+00  0.00000000000E+00  0.45593999997E+02  0.45594000000E+02  0.51100000000E-03 0.  1.
         11   -1    0    0    0    0 -0.00000000000E+00 -0.00000000000E+00 -0.45593999997E+02  0.45594000000E+02  0.51100000000E-03 0. -1.
    9900012    2    1    2    0    0  0.35216723556E+02 -0.41500047285E+01 -0.25023653887E+02  0.47787269463E+02  0.19999992791E+02 0.  0.
        -12    1    1    2    0    0 -0.35216723556E+02  0.41500047285E+01  0.25023653887E+02  0.43400730537E+02  0.00000000000E+00 0.  1.
         11    1    3    3    0    0  0.55306425538E+01 -0.49807416637E+01 -0.58352832077E+01  0.94576067244E+01  0.51100000000E-03 0. -1.
        -11    1    3    3    0    0  0.30570229030E+02  0.32102051055E-01 -0.20303002410E+02  0.36698117671E+02  0.51100000000E-03 0.  1.
        -12    1    3    3    0    0 -0.88414802772E+00  0.79863488419E+00  0.11146317308E+01  0.16315450679E+01  0.00000000000E+00 0.  1.
</event>
<event>
 7    1  0.2530788E-009  0.4778727E+02  0.7816164E-02  0.1312668E+00
        -11   -1    0    0    0    0  0.00000000000E+00  0.00000000000E+00  0.45593999997E+02  0.45594000000E+02  0.51100000000E-03 0.  1.
         11   -1    0    0    0    0 -0.00000000000E+00 -0.00000000000E+00 -0.45593999997E+02  0.45594000000E+02  0.51100000000E-03 0. -1.
    9900012    2    1    2    0    0 -0.20360468347E+02  0.32858905944E+01 -0.38187399423E+02  0.47787271631E+02  0.20000002672E+02 0.  0.
        -12    1    1    2    0    0  0.20360468347E+02 -0.32858905944E+01  0.38187399423E+02  0.43400728369E+02  0.00000000000E+00 0.  1.
         11    1    3    3    0    0 -0.33071468558E+00 -0.36753339021E+00 -0.14911365187E+02  0.14919559812E+02  0.51100000000E-03 0. -1.
        -11    1    3    3    0    0 -0.19438971283E+02  0.31066012947E+01 -0.24483798226E+02  0.31416252991E+02  0.51100000000E-03 0.  1.
         12    1    3    3    0    0 -0.59078237903E+00  0.54682268998E+00  0.12077639899E+01  0.14514588278E+01  0.00000000000E+00 0. -1.
</event>
<event>
 7    1  0.2530788E-009  0.4778727E+02  0.7816164E-02  0.1312668E+00
        -11   -1    0    0    0    0  0.00000000000E+00  0.00000000000E+00  0.45593999997E+02  0.45594000000E+02  0.51100000000E-03 0. -1.
         11   -1    0    0    0    0 -0.00000000000E+00 -0.00000000000E+00 -0.45593999997E+02  0.45594000000E+02  0.51100000000E-03 0.  1.
    9900012    2    1    2    0    0 -0.39594713569E+02  0.14914942859E+02  0.96657449871E+01  0.47787268563E+02  0.19999988685E+02 0.  0.
        -12    1    1    2    0    0  0.39594713569E+02 -0.14914942859E+02 -0.96657449871E+01  0.43400731437E+02  0.00000000000E+00 0.  1.
         11    1    3    3    0    0  0.59824821018E+00  0.36628626012E+01  0.84650186247E+00  0.38067084234E+01  0.51100000000E-03 0. -1.
        -11    1    3    3    0    0 -0.37626416790E+01  0.29164031174E+01 -0.18628895806E+01  0.51120678202E+01  0.51100000000E-03 0.  1.
         12    1    3    3    0    0 -0.36430320101E+02  0.83356771404E+01  0.10682132705E+02  0.38868492319E+02  0.00000000000E+00 0. -1.
</event>
<event>
 7    1  0.2530788E-009  0.4778727E+02  0.7816164E-02  0.1312668E+00
        -11   -1    0    0    0    0  0.00000000000E+00  0.00000000000E+00  0.45593999997E+02  0.45594000000E+02  0.51100000000E-03 0.  1.
         11   -1    0    0    0    0 -0.00000000000E+00 -0.00000000000E+00 -0.45593999997E+02  0.45594000000E+02  0.51100000000E-03 0. -1.
    9900012    2    1    2    0    0 -0.38533129598E+02 -0.37850025381E+01 -0.19608544527E+02  0.47787270291E+02  0.19999996563E+02 0.  0.
        -12    1    1    2    0    0  0.38533129598E+02  0.37850025381E+01  0.19608544527E+02  0.43400729709E+02  0.00000000000E+00 0.  1.
         11    1    3    3    0    0 -0.17928701458E+02  0.27768830479E+01 -0.14179986494E+02  0.23026537574E+02  0.51100000000E-03 0. -1.
        -11    1    3    3    0    0 -0.13439071482E+02 -0.84611227585E+01 -0.55714518243E+00  0.15890552276E+02  0.51100000000E-03 0.  1.
        -12    1    3    3    0    0 -0.71653566582E+01  0.18992371725E+01 -0.48714128505E+01  0.88701804399E+01  0.00000000000E+00 0.  1.
</event>
<event>
 7    1  0.2530788E-009  0.4778727E+02  0.7816164E-02  0.1312668E+00
        -11   -1    0    0    0    0  0.00000000000E+00  0.00000000000E+00  0.45593999997E+02  0.45594000000E+02  0.51100000000E-03 0. -1.
         11   -1    0    0    0    0 -0.00000000000E+00 -0.00000000000E+00 -0.45593999997E+02  0.45594000000E+02  0.51100000000E-03 0.  1.
    9900012    2    1    2    0    0  0.12613982458E+02 -0.36910434181E+02  0.19029732020E+02  0.47787269527E+02  0.19999993079E+02 0.  0.
        -12    1    1    2    0    0 -0.12613982458E+02  0.36910434181E+02 -0.19029732020E+02  0.43400730473E+02  0.00000000000E+00 0.  1.
         11    1    3    3    0    0  0.82399168050E+01 -0.16527864876E+02  0.10175353799E+02  0.21085643730E+02  0.51100000000E-03 0. -1.
        -11    1    3    3    0    0 -0.44878470699E+01 -0.88630776365E+01  0.52097008868E+00  0.99481820755E+01  0.51100000000E-03 0.  1.
        -12    1    3    3    0    0  0.88619127233E+01 -0.11519491668E+02  0.83334081325E+01  0.16753443721E+02  0.00000000000E+00 0.  1.
</event>
<event>
 7    1  0.2530788E-009  0.4778727E+02  0.7816164E-02  0.1312668E+00
        -11   -1    0    0    0    0  0.00000000000E+00  0.00000000000E+00  0.45593999997E+02  0.45594000000E+02  0.51100000000E-03 0.  1.
         11   -1    0    0    0    0 -0.00000000000E+00 -0.00000000000E+00 -0.45593999997E+02  0.45594000000E+02  0.51100000000E-03 0. -1.
    9900012    2    1    2    0    0 -0.43288547881E+02 -0.55525030246E+00 -0.30686337183E+01  0.47787271972E+02  0.20000004227E+02 0.  0.
        -12    1    1    2    0    0  0.43288547881E+02  0.55525030246E+00  0.30686337183E+01  0.43400728028E+02  0.00000000000E+00 0.  1.
         11    1    3    3    0    0 -0.16728972167E+02  0.51661908358E+01 -0.63651134675E-01  0.17508628994E+02  0.51100000000E-03 0.  1.
        -11    1    3    3    0    0 -0.11414180124E+02 -0.73992388677E+01 -0.57979247468E+01  0.14786756756E+02  0.51100000000E-03 0. -1.
         12    1    3    3    0    0 -0.15145395590E+02  0.16777977294E+01  0.27929421632E+01  0.15491886222E+02  0.00000000000E+00 0. -1.
</event>
<event>
 7    1  0.2530788E-009  0.4778728E+02  0.7816164E-02  0.1312668E+00
        -11   -1    0    0    0    0  0.00000000000E+00  0.00000000000E+00  0.45593999997E+02  0.45594000000E+02  0.51100000000E-03 0.  1.
         11   -1    0    0    0    0 -0.00000000000E+00 -0.00000000000E+00 -0.45593999997E+02  0.45594000000E+02  0.51100000000E-03 0. -1.
    9900012    2    1    2    0    0 -0.35245424195E+01  0.34807796838E+02 -0.25683018993E+02  0.47787278985E+02  0.20000036206E+02 0.  0.
        -12    1    1    2    0    0  0.35245424195E+01 -0.34807796838E+02  0.25683018993E+02  0.43400721015E+02  0.00000000000E+00 0.  1.
         11    1    3    3    0    0  0.19957902495E+01  0.30238939113E+02 -0.12724444746E+02  0.32867736639E+02  0.51100000000E-03 0. -1.
        -11    1    3    3    0    0 -0.29965518133E+01  0.35447697077E+01 -0.87857061789E+01  0.99364655876E+01  0.51100000000E-03 0.  1.
         12    1    3    3    0    0 -0.25237808556E+01  0.10240880173E+01 -0.41728680676E+01  0.49830767588E+01  0.00000000000E+00 0. -1.
</event>
<event>
 7    1  0.2530788E-009  0.4778727E+02  0.7816164E-02  0.1312668E+00
        -11   -1    0    0    0    0  0.00000000000E+00  0.00000000000E+00  0.45593999997E+02  0.45594000000E+02  0.51100000000E-03 0.  1.
         11   -1    0    0    0    0 -0.00000000000E+00 -0.00000000000E+00 -0.45593999997E+02  0.45594000000E+02  0.51100000000E-03 0. -1.
    9900012    2    1    2    0    0 -0.27005651510E+02  0.14475285418E+02 -0.30737345163E+02  0.47787268565E+02  0.19999988696E+02 0.  0.
        -12    1    1    2    0    0  0.27005651510E+02 -0.14475285418E+02  0.30737345163E+02  0.43400731435E+02  0.00000000000E+00 0.  1.
         11    1    3    3    0    0 -0.79209747331E+01  0.40069370116E+01 -0.16571460868E+02  0.18799220742E+02  0.51100000000E-03 0. -1.
        -11    1    3    3    0    0 -0.78897285578E+01  0.78795253178E+01 -0.53934372808E+00  0.11163584902E+02  0.51100000000E-03 0.  1.
        -12    1    3    3    0    0 -0.11194948219E+02  0.25888230888E+01 -0.13626540567E+02  0.17824462921E+02  0.00000000000E+00 0.  1.
</event>
<event>
 7    1  0.2530788E-009  0.4778727E+02  0.7816164E-02  0.1312668E+00
        -11   -1    0    0    0    0  0.00000000000E+00  0.00000000000E+00  0.45593999997E+02  0.45594000000E+02  0.51100000000E-03 0. -1.
         11   -1    0    0    0    0 -0.00000000000E+00 -0.00000000000E+00 -0.45593999997E+02  0.45594000000E+02  0.51100000000E-03 0.  1.
    9900012    2    1    2    0    0  0.15008949370E+01 -0.39194785841E+02  0.18577926217E+02  0.47787271144E+02  0.20000000455E+02 0.  0.
        -12    1    1    2    0    0 -0.15008949370E+01  0.39194785841E+02 -0.18577926217E+02  0.43400728856E+02  0.00000000000E+00 0.  1.
         11    1    3    3    0    0  0.73436742449E+01 -0.44404407742E+01  0.28368048748E+01  0.90385025222E+01  0.51100000000E-03 0. -1.
        -11    1    3    3    0    0 -0.43675350350E+01 -0.18107885031E+02  0.94987296157E+01  0.20909249799E+02  0.51100000000E-03 0.  1.
         12    1    3    3    0    0 -0.14752442730E+01 -0.16646460035E+02  0.62423917264E+01  0.17839518823E+02  0.00000000000E+00 0. -1.
</event>
<event>
 7    1  0.2530788E-009  0.4778727E+02  0.7816164E-02  0.1312668E+00
        -11   -1    0    0    0    0  0.00000000000E+00  0.00000000000E+00  0.45593999997E+02  0.45594000000E+02  0.51100000000E-03 0.  1.
         11   -1    0    0    0    0 -0.00000000000E+00 -0.00000000000E+00 -0.45593999997E+02  0.45594000000E+02  0.51100000000E-03 0. -1.
    9900012    2    1    2    0    0  0.10894602645E+02  0.24926363743E+01 -0.41937068276E+02  0.47787270761E+02  0.19999998709E+02 0.  0.
        -12    1    1    2    0    0 -0.10894602645E+02 -0.24926363743E+01  0.41937068276E+02  0.43400729239E+02  0.00000000000E+00 0.  1.
         11    1    3    3    0    0  0.53201819548E+01 -0.69679981828E+00 -0.32120838046E+02  0.32565903995E+02  0.51100000000E-03 0. -1.
        -11    1    3    3    0    0  0.51095777206E+01 -0.22222761223E+01 -0.24943632363E+01  0.61047640300E+01  0.51100000000E-03 0.  1.
         12    1    3    3    0    0  0.46484296956E+00  0.54117123150E+01 -0.73218669940E+01  0.91166027359E+01  0.00000000000E+00 0. -1.
</event>
<event>
 7    1  0.2530788E-009  0.4778727E+02  0.7816164E-02  0.1312668E+00
        -11   -1    0    0    0    0  0.00000000000E+00  0.00000000000E+00  0.45593999997E+02  0.45594000000E+02  0.51100000000E-03 0. -1.
         11   -1    0    0    0    0 -0.00000000000E+00 -0.00000000000E+00 -0.45593999997E+02  0.45594000000E+02  0.51100000000E-03 0.  1.
    9900012    2    1    2    0    0  0.21060396609E+02  0.30991306883E+02  0.21900265506E+02  0.47787273775E+02  0.20000012450E+02 0.  0.
        -12    1    1    2    0    0 -0.21060396609E+02 -0.30991306883E+02 -0.21900265506E+02  0.43400726225E+02  0.00000000000E+00 0.  1.
         11    1    3    3    0    0  0.10397521597E+02  0.17527099066E+02  0.21513050159E+02  0.29633072477E+02  0.51100000000E-03 0. -1.
        -11    1    3    3    0    0  0.11266499824E+02  0.12262680447E+02  0.98720034468E+00  0.16681783922E+02  0.51100000000E-03 0.  1.
         12    1    3    3    0    0 -0.60362481186E+00  0.12015273692E+01 -0.59998499767E+00  0.14724173763E+01  0.00000000000E+00 0. -1.
</event>
<event>
 7    1  0.2530788E-009  0.4778728E+02  0.7816164E-02  0.1312668E+00
        -11   -1    0    0    0    0  0.00000000000E+00  0.00000000000E+00  0.45593999997E+02  0.45594000000E+02  0.51100000000E-03 0.  1.
         11   -1    0    0    0    0 -0.00000000000E+00 -0.00000000000E+00 -0.45593999997E+02  0.45594000000E+02  0.51100000000E-03 0. -1.
    9900012    2    1    2    0    0  0.69848222878E+01 -0.42447736869E+02 -0.57467150987E+01  0.47787276018E+02  0.20000022678E+02 0.  0.
        -12    1    1    2    0    0 -0.69848222878E+01  0.42447736869E+02  0.57467150987E+01  0.43400723982E+02  0.00000000000E+00 0.  1.
         11    1    3    3    0    0 -0.31006121449E+01 -0.21893326029E+02 -0.11256080672E+01  0.22140427143E+02  0.51100000000E-03 0. -1.
        -11    1    3    3    0    0  0.10920847210E+02 -0.16854903862E+02 -0.68836642969E+01  0.21230579889E+02  0.51100000000E-03 0.  1.
        -12    1    3    3    0    0 -0.83541277706E+00 -0.36995069774E+01  0.22625572654E+01  0.44162689867E+01  0.00000000000E+00 0.  1.
</event>
<event>
 7    1  0.2530788E-009  0.4778728E+02  0.7816164E-02  0.1312668E+00
        -11   -1    0    0    0    0  0.00000000000E+00  0.00000000000E+00  0.45593999997E+02  0.45594000000E+02  0.51100000000E-03 0. -1.
         11   -1    0    0    0    0 -0.00000000000E+00 -0.00000000000E+00 -0.45593999997E+02  0.45594000000E+02  0.51100000000E-03 0.  1.
    9900012    2    1    2    0    0  0.80725512446E+01  0.16124078559E+02  0.39477471748E+02  0.47787276866E+02  0.20000026543E+02 0.  0.
        -12    1    1    2    0    0 -0.80725512446E+01 -0.16124078559E+02 -0.39477471748E+02  0.43400723134E+02  0.00000000000E+00 0.  1.
         11    1    3    3    0    0  0.84556130643E+01  0.13182773347E+02  0.35323471925E+02  0.38639753810E+02  0.51100000000E-03 0. -1.
        -11    1    3    3    0    0  0.25318212900E+01  0.35765311582E+00 -0.94939162064E+00  0.27275225950E+01  0.51100000000E-03 0.  1.
         12    1    3    3    0    0 -0.29148831097E+01  0.25836520963E+01  0.51033914430E+01  0.64200004609E+01  0.00000000000E+00 0. -1.
</event>
<event>
 7    1  0.2530788E-009  0.4778721E+02  0.7816164E-02  0.1312668E+00
        -11   -1    0    0    0    0  0.00000000000E+00  0.00000000000E+00  0.45593999997E+02  0.45594000000E+02  0.51100000000E-03 0. -1.
         11   -1    0    0    0    0 -0.00000000000E+00 -0.00000000000E+00 -0.45593999997E+02  0.45594000000E+02  0.51100000000E-03 0.  1.
    9900012    2    1    2    0    0  0.63705671827E+01  0.27285467925E+02  0.33144342093E+02  0.47787213154E+02  0.19999736051E+02 0.  0.
        -12    1    1    2    0    0 -0.63705671827E+01 -0.27285467925E+02 -0.33144342093E+02  0.43400786846E+02  0.00000000000E+00 0.  1.
         11    1    3    3    0    0  0.16261602012E+01  0.18223754434E+02  0.88736664145E+01  0.20334492336E+02  0.51100000000E-03 0.  1.
        -11    1    3    3    0    0  0.37244256177E+01  0.81918259157E+01  0.24493091796E+02  0.26093848011E+02  0.51100000000E-03 0. -1.
         12    1    3    3    0    0  0.10199813638E+01  0.86988757497E+00 -0.22241611752E+00  0.13588728067E+01  0.00000000000E+00 0. -1.
</event>
<event>
 7    1  0.2530788E-009  0.4778727E+02  0.7816164E-02  0.1312668E+00
        -11   -1    0    0    0    0  0.00000000000E+00  0.00000000000E+00  0.45593999997E+02  0.45594000000E+02  0.51100000000E-03 0.  1.
         11   -1    0    0    0    0 -0.00000000000E+00 -0.00000000000E+00 -0.45593999997E+02  0.45594000000E+02  0.51100000000E-03 0. -1.
    9900012    2    1    2    0    0  0.24618223043E+02 -0.11795155114E+02 -0.33740794193E+02  0.47787265182E+02  0.19999973269E+02 0.  0.
        -12    1    1    2    0    0 -0.24618223043E+02  0.11795155114E+02  0.33740794193E+02  0.43400734818E+02  0.00000000000E+00 0.  1.
         11    1    3    3    0    0  0.20275048806E+02 -0.13714515052E+02 -0.28613505033E+02  0.37654989015E+02  0.51100000000E-03 0. -1.
        -11    1    3    3    0    0 -0.16734169180E+01  0.74984771253E+00  0.40232255425E+00  0.18773543811E+01  0.51100000000E-03 0.  1.
         12    1    3    3    0    0  0.60165911553E+01  0.11695122247E+01 -0.55296117147E+01  0.82549217858E+01  0.00000000000E+00 0. -1.
</event>
<event>
 7    1  0.2530788E-009  0.4778728E+02  0.7816164E-02  0.1312668E+00
        -11   -1    0    0    0    0  0.00000000000E+00  0.00000000000E+00  0.45593999997E+02  0.45594000000E+02  0.51100000000E-03 0. -1.
         11   -1    0    0    0    0 -0.00000000000E+00 -0.00000000000E+00 -0.45593999997E+02  0.45594000000E+02  0.51100000000E-03 0.  1.
    9900012    2    1    2    0    0  0.27698704468E+02  0.31703858217E+02  0.10548431282E+02  0.47787282753E+02  0.20000053384E+02 0.  0.
        -12    1    1    2    0    0 -0.27698704468E+02 -0.31703858217E+02 -0.10548431282E+02  0.43400717247E+02  0.00000000000E+00 0.  1.
         11    1    3    3    0    0  0.18841236724E+02  0.24123823676E+02  0.68161479540E+01  0.31359383655E+02  0.51100000000E-03 0. -1.
        -11    1    3    3    0    0  0.68430680314E+01 -0.12345203422E+01  0.17796481165E+01  0.71776575731E+01  0.51100000000E-03 0.  1.
         12    1    3    3    0    0  0.20143997122E+01  0.88145548832E+01  0.19526352117E+01  0.92502415244E+01  0.00000000000E+00 0. -1.
</event>
<event>
 7    1  0.2530788E-009  0.4778728E+02  0.7816164E-02  0.1312668E+00
        -11   -1    0    0    0    0  0.00000000000E+00  0.00000000000E+00  0.45593999997E+02  0.45594000000E+02  0.51100000000E-03 0. -1.
         11   -1    0    0    0    0 -0.00000000000E+00 -0.00000000000E+00 -0.45593999997E+02  0.45594000000E+02  0.51100000000E-03 0.  1.
    9900012    2    1    2    0    0 -0.41779023203E+02 -0.62804863883E+01  0.99343502419E+01  0.47787278764E+02  0.20000035198E+02 0.  0.
        -12    1    1    2    0    0  0.41779023203E+02  0.62804863883E+01 -0.99343502419E+01  0.43400721236E+02  0.00000000000E+00 0.  1.
         11    1    3    3    0    0 -0.80490631432E+01 -0.45748877111E+01  0.49905811754E+01  0.10517742903E+02  0.51100000000E-03 0. -1.
        -11    1    3    3    0    0 -0.33837524704E+02  0.95582150079E+00  0.30232256693E+01  0.33985755348E+02  0.51100000000E-03 0.  1.
        -12    1    3    3    0    0  0.10756464474E+00 -0.26614201781E+01  0.19205433971E+01  0.32837805130E+01  0.00000000000E+00 0.  1.
</event>
<event>
 7    1  0.2530788E-009  0.4778727E+02  0.7816164E-02  0.1312668E+00
        -11   -1    0    0    0    0  0.00000000000E+00  0.00000000000E+00  0.45593999997E+02  0.45594000000E+02  0.51100000000E-03 0. -1.
         11   -1    0    0    0    0 -0.00000000000E+00 -0.00000000000E+00 -0.45593999997E+02  0.45594000000E+02  0.51100000000E-03 0.  1.
    9900012    2    1    2    0    0  0.22471456365E+02  0.36087586032E+02 -0.87374803425E+01  0.47787265219E+02  0.19999973441E+02 0.  0.
        -12    1    1    2    0    0 -0.22471456365E+02 -0.36087586032E+02  0.87374803425E+01  0.43400734781E+02  0.00000000000E+00 0.  1.
         11    1    3    3    0    0 -0.69842750507E+00  0.11397923834E+02 -0.21027184542E+01  0.11611283042E+02  0.51100000000E-03 0. -1.
        -11    1    3    3    0    0  0.23502678558E+02  0.21648127621E+02 -0.41247686939E+01  0.32218489194E+02  0.51100000000E-03 0.  1.
        -12    1    3    3    0    0 -0.33279468727E+00  0.30415345762E+01 -0.25099931944E+01  0.39574929839E+01  0.00000000000E+00 0.  1.
</event>
<event>
 7    1  0.2530788E-009  0.4778727E+02  0.7816164E-02  0.1312668E+00
        -11   -1    0    0    0    0  0.00000000000E+00  0.00000000000E+00  0.45593999997E+02  0.45594000000E+02  0.51100000000E-03 0.  1.
         11   -1    0    0    0    0 -0.00000000000E+00 -0.00000000000E+00 -0.45593999997E+02  0.45594000000E+02  0.51100000000E-03 0. -1.
    9900012    2    1    2    0    0 -0.43264587664E+02  0.33486410366E+01 -0.76511697592E+00  0.47787270208E+02  0.19999996185E+02 0.  0.
        -12    1    1    2    0    0  0.43264587664E+02 -0.33486410366E+01  0.76511697592E+00  0.43400729792E+02  0.00000000000E+00 0.  1.
         11    1    3    3    0    0 -0.29818783701E+02  0.75561795902E+01  0.19342015448E+01  0.30822018871E+02  0.51100000000E-03 0. -1.
        -11    1    3    3    0    0 -0.11513920469E+02 -0.26683120240E+01 -0.56642093865E+01  0.13106239806E+02  0.51100000000E-03 0.  1.
         12    1    3    3    0    0 -0.19318834933E+01 -0.15392265296E+01  0.29648908659E+01  0.38590115299E+01  0.00000000000E+00 0. -1.
</event>
<event>
 7    1  0.2530788E-009  0.4778727E+02  0.7816164E-02  0.1312668E+00
        -11   -1    0    0    0    0  0.00000000000E+00  0.00000000000E+00  0.45593999997E+02  0.45594000000E+02  0.51100000000E-03 0.  1.
         11   -1    0    0    0    0 -0.00000000000E+00 -0.00000000000E+00 -0.45593999997E+02  0.45594000000E+02  0.51100000000E-03 0. -1.
    9900012    2    1    2    0    0  0.21197084880E+02  0.37676033038E+02  0.38501697383E+01  0.47787266366E+02  0.19999978671E+02 0.  0.
        -12    1    1    2    0    0 -0.21197084880E+02 -0.37676033038E+02 -0.38501697383E+01  0.43400733634E+02  0.00000000000E+00 0.  1.
         11    1    3    3    0    0  0.93105932620E+01  0.87492782979E+01 -0.62251814718E-01  0.12776575957E+02  0.51100000000E-03 0. -1.
        -11    1    3    3    0    0 -0.10793482871E+01 -0.10822457547E+01 -0.11737076214E+01  0.19271321802E+01  0.51100000000E-03 0.  1.
        -12    1    3    3    0    0  0.12965839905E+02  0.30009000495E+02  0.50861291744E+01  0.33083558230E+02  0.00000000000E+00 0.  1.
</event>
<event>
 7    1  0.2530788E-009  0.4778728E+02  0.7816164E-02  0.1312668E+00
        -11   -1    0    0    0    0  0.00000000000E+00  0.00000000000E+00  0.45593999997E+02  0.45594000000E+02  0.51100000000E-03 0.  1.
         11   -1    0    0    0    0 -0.00000000000E+00 -0.00000000000E+00 -0.45593999997E+02  0.45594000000E+02  0.51100000000E-03 0. -1.
    9900012    2    1    2    0    0  0.26067568606E+02 -0.34359938431E+02  0.48475889174E+01  0.47787278574E+02  0.20000034331E+02 0.  0.
        -12    1    1    2    0    0 -0.26067568606E+02  0.34359938431E+02 -0.48475889174E+01  0.43400721426E+02  0.00000000000E+00 0.  1.
         11    1    3    3    0    0  0.18995240225E+02 -0.19025053380E+02  0.52079902847E+01  0.27384210238E+02  0.51100000000E-03 0. -1.
        -11    1    3    3    0    0 -0.27103823548E-01 -0.12116764619E+02  0.19509245139E+01  0.12272849147E+02  0.51100000000E-03 0.  1.
        -12    1    3    3    0    0  0.70994322041E+01 -0.32181204319E+01 -0.23113258812E+01  0.81302191892E+01  0.00000000000E+00 0.  1.
</event>
<event>
 7    1  0.2530788E-009  0.4778727E+02  0.7816164E-02  0.1312668E+00
        -11   -1    0    0    0    0  0.00000000000E+00  0.00000000000E+00  0.45593999997E+02  0.45594000000E+02  0.51100000000E-03 0. -1.
         11   -1    0    0    0    0 -0.00000000000E+00 -0.00000000000E+00 -0.45593999997E+02  0.45594000000E+02  0.51100000000E-03 0.  1.
    9900012    2    1    2    0    0 -0.26848785556E+02 -0.21654542846E+02  0.26340968024E+02  0.47787272954E+02  0.20000008708E+02 0.  0.
        -12    1    1    2    0    0  0.26848785556E+02  0.21654542846E+02 -0.26340968024E+02  0.43400727046E+02  0.00000000000E+00 0.  1.
         11    1    3    3    0    0 -0.37013921492E-01 -0.61362772843E+00 -0.20368593384E+01  0.21276055191E+01  0.51100000000E-03 0.  1.
        -11    1    3    3    0    0 -0.22032069536E+02 -0.11662981784E+02  0.22622268477E+02  0.33663099433E+02  0.51100000000E-03 0. -1.
        -12    1    3    3    0    0 -0.47797020980E+01 -0.93779333329E+01  0.57555588854E+01  0.11996568002E+02  0.00000000000E+00 0.  1.
</event>
<event>
 7    1  0.2530788E-009  0.4778727E+02  0.7816164E-02  0.1312668E+00
        -11   -1    0    0    0    0  0.00000000000E+00  0.00000000000E+00  0.45593999997E+02  0.45594000000E+02  0.51100000000E-03 0.  1.
         11   -1    0    0    0    0 -0.00000000000E+00 -0.00000000000E+00 -0.45593999997E+02  0.45594000000E+02  0.51100000000E-03 0. -1.
    9900012    2    1    2    0    0  0.93617679340E+01  0.35895526724E+02 -0.22527579117E+02  0.47787270069E+02  0.19999995555E+02 0.  0.
        -12    1    1    2    0    0 -0.93617679340E+01 -0.35895526724E+02  0.22527579117E+02  0.43400729931E+02  0.00000000000E+00 0.  1.
         11    1    3    3    0    0  0.48675529012E+01  0.19309277018E+02 -0.10469508021E+02  0.22497818754E+02  0.51100000000E-03 0. -1.
        -11    1    3    3    0    0 -0.13539561200E+01  0.37587264073E+01  0.27450848135E+01  0.48473407425E+01  0.51100000000E-03 0.  1.
        -12    1    3    3    0    0  0.58481711528E+01  0.12827523298E+02 -0.14803155910E+02  0.20442110573E+02  0.00000000000E+00 0.  1.
</event>
<event>
 7    1  0.2530788E-009  0.4778727E+02  0.7816164E-02  0.1312668E+00
        -11   -1    0    0    0    0  0.00000000000E+00  0.00000000000E+00  0.45593999997E+02  0.45594000000E+02  0.51100000000E-03 0.  1.
         11   -1    0    0    0    0 -0.00000000000E+00 -0.00000000000E+00 -0.45593999997E+02  0.45594000000E+02  0.51100000000E-03 0. -1.
    9900012    2    1    2    0    0  0.35411630641E+01  0.21306251672E+02 -0.37644745823E+02  0.47787273229E+02  0.20000009959E+02 0.  0.
        -12    1    1    2    0    0 -0.35411630641E+01 -0.21306251672E+02  0.37644745823E+02  0.43400726771E+02  0.00000000000E+00 0.  1.
         11    1    3    3    0    0 -0.73861511749E+01  0.78931323281E+01 -0.19389639615E+02  0.22199434492E+02  0.51100000000E-03 0. -1.
        -11    1    3    3    0    0  0.87368704016E+01  0.92795728814E+01 -0.15815369681E+02  0.20311801882E+02  0.51100000000E-03 0.  1.
         12    1    3    3    0    0  0.21904438373E+01  0.41335464629E+01 -0.24397365269E+01  0.52760368541E+01  0.00000000000E+00 0. -1.
</event>
<event>
 7    1  0.2530788E-009  0.4778729E+02  0.7816164E-02  0.1312668E+00
        -11   -1    0    0    0    0  0.00000000000E+00  0.00000000000E+00  0.45593999997E+02  0.45594000000E+02  0.51100000000E-03 0.  1.
         11   -1    0    0    0    0 -0.00000000000E+00 -0.00000000000E+00 -0.45593999997E+02  0.45594000000E+02  0.51100000000E-03 0. -1.
    9900012    2    1    2    0    0 -0.24735989703E+01 -0.27862158807E+02 -0.33184377561E+02  0.47787291488E+02  0.20000093208E+02 0.  0.
        -12    1    1    2    0    0  0.24735989703E+01  0.27862158807E+02  0.33184377561E+02  0.43400708512E+02  0.00000000000E+00 0.  1.
         11    1    3    3    0    0  0.26515235947E+01 -0.28519282833E+01  0.37942144803E+00  0.39125481725E+01  0.51100000000E-03 0.  1.
        -11    1    3    3    0    0  0.11399775598E+01 -0.20505780491E+02 -0.24094285900E+02  0.31659456654E+02  0.51100000000E-03 0. -1.
        -12    1    3    3    0    0 -0.62651001248E+01 -0.45044500334E+01 -0.94695131093E+01  0.12215286661E+02  0.00000000000E+00 0.  1.
</event>
<event>
 7    1  0.2530788E-009  0.4778730E+02  0.7816164E-02  0.1312668E+00
        -11   -1    0    0    0    0  0.00000000000E+00  0.00000000000E+00  0.45593999997E+02  0.45594000000E+02  0.51100000000E-03 0.  1.
         11   -1    0    0    0    0 -0.00000000000E+00 -0.00000000000E+00 -0.45593999997E+02  0.45594000000E+02  0.51100000000E-03 0. -1.
    9900012    2    1    2    0    0 -0.18783404369E+02  0.12612918720E+02 -0.37036727026E+02  0.47787295546E+02  0.20000111711E+02 0.  0.
        -12    1    1    2    0    0  0.18783404369E+02 -0.12612918720E+02  0.37036727026E+02  0.43400704454E+02  0.00000000000E+00 0.  1.
         11    1    3    3    0    0 -0.97950842240E+01  0.19375859668E+01 -0.22739967025E+02  0.24835539352E+02  0.51100000000E-03 0. -1.
        -11    1    3    3    0    0 -0.11229260892E+02  0.10895200223E+02 -0.13073912234E+02  0.20389430337E+02  0.51100000000E-03 0.  1.
        -12    1    3    3    0    0  0.22409407478E+01 -0.21986746934E+00 -0.12228477672E+01  0.25623258577E+01  0.00000000000E+00 0.  1.
</event>
<event>
 7    1  0.2530788E-009  0.4778727E+02  0.7816164E-02  0.1312668E+00
        -11   -1    0    0    0    0  0.00000000000E+00  0.00000000000E+00  0.45593999997E+02  0.45594000000E+02  0.51100000000E-03 0.  1.
         11   -1    0    0    0    0 -0.00000000000E+00 -0.00000000000E+00 -0.45593999997E+02  0.45594000000E+02  0.51100000000E-03 0. -1.
    9900012    2    1    2    0    0 -0.34844198340E+02  0.12232956595E+02 -0.22800436051E+02  0.47787271099E+02  0.20000000250E+02 0.  0.
        -12    1    1    2    0    0  0.34844198340E+02 -0.12232956595E+02  0.22800436051E+02  0.43400728901E+02  0.00000000000E+00 0.  1.
         11    1    3    3    0    0 -0.29831289584E+02  0.10363986237E+02 -0.91892529589E+01  0.32890126470E+02  0.51100000000E-03 0. -1.
        -11    1    3    3    0    0 -0.21983886734E+01 -0.40604587919E-02 -0.84190318262E+01  0.87013232555E+01  0.51100000000E-03 0.  1.
         12    1    3    3    0    0 -0.28145200823E+01  0.18730308170E+01 -0.51921512657E+01  0.61958213742E+01  0.00000000000E+00 0. -1.
</event>
<event>
 7    1  0.2530788E-009  0.4778727E+02  0.7816164E-02  0.1312668E+00
        -11   -1    0    0    0    0  0.00000000000E+00  0.00000000000E+00  0.45593999997E+02  0.45594000000E+02  0.51100000000E-03 0.  1.
         11   -1    0    0    0    0 -0.00000000000E+00 -0.00000000000E+00 -0.45593999997E+02  0.45594000000E+02  0.51100000000E-03 0. -1.
    9900012    2    1    2    0    0 -0.29820400108E+02  0.30619383227E+02 -0.75379255490E+01  0.47787271741E+02  0.20000003178E+02 0.  0.
        -12    1    1    2    0    0  0.29820400108E+02 -0.30619383227E+02  0.75379255490E+01  0.43400728259E+02  0.00000000000E+00 0.  1.
         11    1    3    3    0    0 -0.10644280095E+02  0.54642823561E+01 -0.90432360220E+00  0.11999036705E+02  0.51100000000E-03 0. -1.
        -11    1    3    3    0    0 -0.18542913759E+02  0.21869479653E+02 -0.10626781996E+02  0.30578461158E+02  0.51100000000E-03 0.  1.
        -12    1    3    3    0    0 -0.63320625309E+00  0.32856212183E+01  0.39931800494E+01  0.52097738776E+01  0.00000000000E+00 0.  1.
</event>
<event>
 7    1  0.2530788E-009  0.4778728E+02  0.7816164E-02  0.1312668E+00
        -11   -1    0    0    0    0  0.00000000000E+00  0.00000000000E+00  0.45593999997E+02  0.45594000000E+02  0.51100000000E-03 0.  1.
         11   -1    0    0    0    0 -0.00000000000E+00 -0.00000000000E+00 -0.45593999997E+02  0.45594000000E+02  0.51100000000E-03 0. -1.
    9900012    2    1    2    0    0 -0.23180445894E+02 -0.27309751643E+02 -0.24504423312E+02  0.47787281475E+02  0.20000047555E+02 0.  0.
        -12    1    1    2    0    0  0.23180445894E+02  0.27309751643E+02  0.24504423312E+02  0.43400718525E+02  0.00000000000E+00 0.  1.
         11    1    3    3    0    0 -0.13888175428E+02 -0.85208238265E+01 -0.34441196717E+01  0.16653762817E+02  0.51100000000E-03 0.  1.
        -11    1    3    3    0    0 -0.90108257260E+01 -0.82457945823E+01 -0.94126279544E+01  0.15420300705E+02  0.51100000000E-03 0. -1.
         12    1    3    3    0    0 -0.28144474042E+00 -0.10543133234E+02 -0.11647675686E+02  0.15713217953E+02  0.00000000000E+00 0. -1.
</event>
<event>
 7    1  0.2530788E-009  0.4778727E+02  0.7816164E-02  0.1312668E+00
        -11   -1    0    0    0    0  0.00000000000E+00  0.00000000000E+00  0.45593999997E+02  0.45594000000E+02  0.51100000000E-03 0.  1.
         11   -1    0    0    0    0 -0.00000000000E+00 -0.00000000000E+00 -0.45593999997E+02  0.45594000000E+02  0.51100000000E-03 0. -1.
    9900012    2    1    2    0    0 -0.32951095416E+02 -0.24560656379E+01 -0.28139229441E+02  0.47787272114E+02  0.20000004876E+02 0.  0.
        -12    1    1    2    0    0  0.32951095416E+02  0.24560656379E+01  0.28139229441E+02  0.43400727886E+02  0.00000000000E+00 0.  1.
         11    1    3    3    0    0 -0.20303693425E+02  0.63967692418E+01 -0.19496333497E+02  0.28866341014E+02  0.51100000000E-03 0. -1.
        -11    1    3    3    0    0 -0.59143396402E+01 -0.28963389388E+01 -0.20045530751E+00  0.65885032609E+01  0.51100000000E-03 0.  1.
         12    1    3    3    0    0 -0.67330623501E+01 -0.59564959409E+01 -0.84424406366E+01  0.12332427839E+02  0.00000000000E+00 0. -1.
</event>
<event>
 7    1  0.2530788E-009  0.4778727E+02  0.7816164E-02  0.1312668E+00
        -11   -1    0    0    0    0  0.00000000000E+00  0.00000000000E+00  0.45593999997E+02  0.45594000000E+02  0.51100000000E-03 0.  1.
         11   -1    0    0    0    0 -0.00000000000E+00 -0.00000000000E+00 -0.45593999997E+02  0.45594000000E+02  0.51100000000E-03 0. -1.
    9900012    2    1    2    0    0 -0.79733656814E+00  0.37810573451E+02 -0.21291978929E+02  0.47787267552E+02  0.19999984079E+02 0.  0.
        -12    1    1    2    0    0  0.79733656814E+00 -0.37810573451E+02  0.21291978929E+02  0.43400732448E+02  0.00000000000E+00 0.  1.
         11    1    3    3    0    0 -0.50728531514E+00  0.31174956284E+02 -0.15405438191E+02  0.34777331177E+02  0.51100000000E-03 0. -1.
        -11    1    3    3    0    0  0.38305136229E+01  0.17656133492E+01 -0.50441264761E+01  0.65752138583E+01  0.51100000000E-03 0.  1.
        -12    1    3    3    0    0 -0.41205648759E+01  0.48700038179E+01 -0.84241426130E+00  0.64347225169E+01  0.00000000000E+00 0.  1.
</event>
<event>
 7    1  0.2530788E-009  0.4778727E+02  0.7816164E-02  0.1312668E+00
        -11   -1    0    0    0    0  0.00000000000E+00  0.00000000000E+00  0.45593999997E+02  0.45594000000E+02  0.51100000000E-03 0.  1.
         11   -1    0    0    0    0 -0.00000000000E+00 -0.00000000000E+00 -0.45593999997E+02  0.45594000000E+02  0.51100000000E-03 0. -1.
    9900012    2    1    2    0    0 -0.11557028393E+02 -0.28804439160E+02 -0.30337479570E+02  0.47787270890E+02  0.19999999295E+02 0.  0.
        -12    1    1    2    0    0  0.11557028393E+02  0.28804439160E+02  0.30337479570E+02  0.43400729110E+02  0.00000000000E+00 0.  1.
         11    1    3    3    0    0 -0.72559679039E+01 -0.13127224913E+02 -0.37358480804E+01  0.15457349879E+02  0.51100000000E-03 0. -1.
        -11    1    3    3    0    0  0.47482351203E+00 -0.44478224965E+00  0.53749964921E+00  0.84391631766E+00  0.51100000000E-03 0.  1.
         12    1    3    3    0    0 -0.47758840007E+01 -0.15232431998E+02 -0.27139131139E+02  0.31486004693E+02  0.00000000000E+00 0. -1.
</event>
<event>
 7    1  0.2530788E-009  0.4778727E+02  0.7816164E-02  0.1312668E+00
        -11   -1    0    0    0    0  0.00000000000E+00  0.00000000000E+00  0.45593999997E+02  0.45594000000E+02  0.51100000000E-03 0.  1.
         11   -1    0    0    0    0 -0.00000000000E+00 -0.00000000000E+00 -0.45593999997E+02  0.45594000000E+02  0.51100000000E-03 0. -1.
    9900012    2    1    2    0    0 -0.48970524460E+00  0.13832133212E+01 -0.43375915960E+02  0.47787272175E+02  0.20000005156E+02 0.  0.
        -12    1    1    2    0    0  0.48970524460E+00 -0.13832133212E+01  0.43375915960E+02  0.43400727825E+02  0.00000000000E+00 0.  1.
         11    1    3    3    0    0  0.41631800226E+01  0.37153330758E+01 -0.20192690214E+02  0.20949475079E+02  0.51100000000E-03 0. -1.
        -11    1    3    3    0    0 -0.71686554353E+01 -0.50732517161E+01 -0.20340668495E+02  0.22155592946E+02  0.51100000000E-03 0.  1.
        -12    1    3    3    0    0  0.25157701682E+01  0.27411319615E+01 -0.28425572515E+01  0.46822041495E+01  0.00000000000E+00 0.  1.
</event>
<event>
 7    1  0.2530788E-009  0.4778727E+02  0.7816164E-02  0.1312668E+00
        -11   -1    0    0    0    0  0.00000000000E+00  0.00000000000E+00  0.45593999997E+02  0.45594000000E+02  0.51100000000E-03 0.  1.
         11   -1    0    0    0    0 -0.00000000000E+00 -0.00000000000E+00 -0.45593999997E+02  0.45594000000E+02  0.51100000000E-03 0. -1.
    9900012    2    1    2    0    0  0.80922571019E+01 -0.13578603255E+02 -0.40419796907E+02  0.47787273355E+02  0.20000010534E+02 0.  0.
        -12    1    1    2    0    0 -0.80922571019E+01  0.13578603255E+02  0.40419796907E+02  0.43400726645E+02  0.00000000000E+00 0.  1.
         11    1    3    3    0    0  0.86955699488E+01 -0.30972023576E+01 -0.24443534480E+02  0.26128374945E+02  0.51100000000E-03 0. -1.
        -11    1    3    3    0    0 -0.22421660254E+01 -0.12078242496E+02 -0.12766976270E+02  0.17717418932E+02  0.51100000000E-03 0.  1.
        -12    1    3    3    0    0  0.16388531785E+01  0.15968415985E+01 -0.32092861574E+01  0.39414794775E+01  0.00000000000E+00 0.  1.
</event>
<event>
 7    1  0.2530788E-009  0.4778727E+02  0.7816164E-02  0.1312668E+00
        -11   -1    0    0    0    0  0.00000000000E+00  0.00000000000E+00  0.45593999997E+02  0.45594000000E+02  0.51100000000E-03 0. -1.
         11   -1    0    0    0    0 -0.00000000000E+00 -0.00000000000E+00 -0.45593999997E+02  0.45594000000E+02  0.51100000000E-03 0.  1.
    9900012    2    1    2    0    0  0.50842466467E+01 -0.23930870211E+02  0.35848111509E+02  0.47787271760E+02  0.20000003261E+02 0.  0.
        -12    1    1    2    0    0 -0.50842466467E+01  0.23930870211E+02 -0.35848111509E+02  0.43400728240E+02  0.00000000000E+00 0.  1.
         11    1    3    3    0    0  0.95840366764E+01 -0.71007301499E+01  0.94325497606E+01  0.15206811728E+02  0.51100000000E-03 0. -1.
        -11    1    3    3    0    0  0.62554229068E+00 -0.11263263677E+01 -0.15069634558E+00  0.12971599337E+01  0.51100000000E-03 0.  1.
         12    1    3    3    0    0 -0.51253323205E+01 -0.15703813694E+02  0.26566258094E+02  0.31283300098E+02  0.00000000000E+00 0. -1.
</event>
<event>
 7    1  0.2530788E-009  0.4778726E+02  0.7816164E-02  0.1312668E+00
        -11   -1    0    0    0    0  0.00000000000E+00  0.00000000000E+00  0.45593999997E+02  0.45594000000E+02  0.51100000000E-03 0.  1.
         11   -1    0    0    0    0 -0.00000000000E+00 -0.00000000000E+00 -0.45593999997E+02  0.45594000000E+02  0.51100000000E-03 0. -1.
    9900012    2    1    2    0    0 -0.18308689781E+02  0.38174808572E+02  0.95446190688E+01  0.47787264014E+02  0.19999967943E+02 0.  0.
        -12    1    1    2    0    0  0.18308689781E+02 -0.38174808572E+02 -0.95446190688E+01  0.43400735986E+02  0.00000000000E+00 0.  1.
         11    1    3    3    0    0 -0.19132235904E+02  0.28522934535E+02  0.62224451962E+01  0.34904427651E+02  0.51100000000E-03 0. -1.
        -11    1    3    3    0    0  0.85433520914E+00  0.10479184587E+02  0.45055059718E+01  0.11438653005E+02  0.51100000000E-03 0.  1.
         12    1    3    3    0    0 -0.30789085545E-01 -0.82731054918E+00 -0.11833320992E+01  0.14441833573E+01  0.00000000000E+00 0. -1.
</event>
<event>
 7    1  0.2530788E-009  0.4778727E+02  0.7816164E-02  0.1312668E+00
        -11   -1    0    0    0    0  0.00000000000E+00  0.00000000000E+00  0.45593999997E+02  0.45594000000E+02  0.51100000000E-03 0.  1.
         11   -1    0    0    0    0 -0.00000000000E+00 -0.00000000000E+00 -0.45593999997E+02  0.45594000000E+02  0.51100000000E-03 0. -1.
    9900012    2    1    2    0    0 -0.35181679137E+02  0.22858023552E+02 -0.11107805943E+02  0.47787272581E+02  0.20000007006E+02 0.  0.
        -12    1    1    2    0    0  0.35181679137E+02 -0.22858023552E+02  0.11107805943E+02  0.43400727419E+02  0.00000000000E+00 0.  1.
         11    1    3    3    0    0 -0.17679594679E+02  0.84150926327E+01 -0.26759292440E+01  0.19762146888E+02  0.51100000000E-03 0. -1.
        -11    1    3    3    0    0  0.16012822921E+01  0.43895334932E+01  0.42461979776E+00  0.46917386437E+01  0.51100000000E-03 0.  1.
        -12    1    3    3    0    0 -0.19103366750E+02  0.10053397427E+02 -0.88564964970E+01  0.23333387050E+02  0.00000000000E+00 0.  1.
</event>
<event>
 7    1  0.2530788E-009  0.4778727E+02  0.7816164E-02  0.1312668E+00
        -11   -1    0    0    0    0  0.00000000000E+00  0.00000000000E+00  0.45593999997E+02  0.45594000000E+02  0.51100000000E-03 0. -1.
         11   -1    0    0    0    0 -0.00000000000E+00 -0.00000000000E+00 -0.45593999997E+02  0.45594000000E+02  0.51100000000E-03 0.  1.
    9900012    2    1    2    0    0 -0.15492406080E+02 -0.39934508750E+02 -0.69888288813E+01  0.47787270002E+02  0.19999995245E+02 0.  0.
        -12    1    1    2    0    0  0.15492406080E+02  0.39934508750E+02  0.69888288813E+01  0.43400729998E+02  0.00000000000E+00 0.  1.
         11    1    3    3    0    0 -0.76388311718E+01 -0.28425062513E+02  0.37627958014E+01  0.29673128467E+02  0.51100000000E-03 0. -1.
        -11    1    3    3    0    0 -0.68978532648E+01 -0.67506234165E+01 -0.62819443475E+01  0.11515820475E+02  0.51100000000E-03 0.  1.
         12    1    3    3    0    0 -0.95572164337E+00 -0.47588228206E+01 -0.44696803352E+01  0.65983210589E+01  0.00000000000E+00 0. -1.
</event>
<event>
 7    1  0.2530788E-009  0.4778727E+02  0.7816164E-02  0.1312668E+00
        -11   -1    0    0    0    0  0.00000000000E+00  0.00000000000E+00  0.45593999997E+02  0.45594000000E+02  0.51100000000E-03 0. -1.
         11   -1    0    0    0    0 -0.00000000000E+00 -0.00000000000E+00 -0.45593999997E+02  0.45594000000E+02  0.51100000000E-03 0.  1.
    9900012    2    1    2    0    0  0.59182066421E+01  0.39575413412E+02  0.16804304928E+02  0.47787272117E+02  0.20000004892E+02 0.  0.
        -12    1    1    2    0    0 -0.59182066421E+01 -0.39575413412E+02 -0.16804304928E+02  0.43400727883E+02  0.00000000000E+00 0.  1.
         11    1    3    3    0    0  0.66984151812E+01  0.11535017344E+02  0.13972414085E+02  0.19317187857E+02  0.51100000000E-03 0. -1.
        -11    1    3    3    0    0  0.12505812934E+01  0.11506376308E+02  0.78825175223E-02  0.11574139783E+02  0.51100000000E-03 0.  1.
         12    1    3    3    0    0 -0.20307898326E+01  0.16534019761E+02  0.28240083258E+01  0.16895944478E+02  0.00000000000E+00 0. -1.
</event>
<event>
 7    1  0.2530788E-009  0.4778727E+02  0.7816164E-02  0.1312668E+00
        -11   -1    0    0    0    0  0.00000000000E+00  0.00000000000E+00  0.45593999997E+02  0.45594000000E+02  0.51100000000E-03 0.  1.
         11   -1    0    0    0    0 -0.00000000000E+00 -0.00000000000E+00 -0.45593999997E+02  0.45594000000E+02  0.51100000000E-03 0. -1.
    9900012    2    1    2    0    0 -0.38006153571E+02 -0.20718271419E+02 -0.31478509236E+01  0.47787269069E+02  0.19999990995E+02 0.  0.
        -12    1    1    2    0    0  0.38006153571E+02  0.20718271419E+02  0.31478509236E+01  0.43400730931E+02  0.00000000000E+00 0.  1.
         11    1    3    3    0    0 -0.25084777140E+02 -0.90947813309E+01 -0.35647359968E+01  0.26919666317E+02  0.51100000000E-03 0. -1.
        -11    1    3    3    0    0 -0.25355973655E+01 -0.77422530875E+01  0.41831334308E+01  0.91580752581E+01  0.51100000000E-03 0.  1.
        -12    1    3    3    0    0 -0.10385779066E+02 -0.38812370004E+01 -0.37662483576E+01  0.11709527495E+02  0.00000000000E+00 0.  1.
</event>
<event>
 7    1  0.2530788E-009  0.4778727E+02  0.7816164E-02  0.1312668E+00
        -11   -1    0    0    0    0  0.00000000000E+00  0.00000000000E+00  0.45593999997E+02  0.45594000000E+02  0.51100000000E-03 0.  1.
         11   -1    0    0    0    0 -0.00000000000E+00 -0.00000000000E+00 -0.45593999997E+02  0.45594000000E+02  0.51100000000E-03 0. -1.
    9900012    2    1    2    0    0 -0.16428884604E+02 -0.15786064412E+02 -0.36939347259E+02  0.47787268959E+02  0.19999990493E+02 0.  0.
        -12    1    1    2    0    0  0.16428884604E+02  0.15786064412E+02  0.36939347259E+02  0.43400731041E+02  0.00000000000E+00 0.  1.
         11    1    3    3    0    0 -0.10160169028E+02 -0.22594446400E+01 -0.12901789822E+02  0.16576800223E+02  0.51100000000E-03 0. -1.
        -11    1    3    3    0    0 -0.27726474572E+01 -0.13177923473E+02 -0.10089896038E+02  0.16827098481E+02  0.51100000000E-03 0.  1.
        -12    1    3    3    0    0 -0.34960681187E+01 -0.34869629961E+00 -0.13947661399E+02  0.14383370256E+02  0.00000000000E+00 0.  1.
</event>
<event>
 7    1  0.2530788E-009  0.4778725E+02  0.7816164E-02  0.1312668E+00
        -11   -1    0    0    0    0  0.00000000000E+00  0.00000000000E+00  0.45593999997E+02  0.45594000000E+02  0.51100000000E-03 0.  1.
         11   -1    0    0    0    0 -0.00000000000E+00 -0.00000000000E+00 -0.45593999997E+02  0.45594000000E+02  0.51100000000E-03 0. -1.
    9900012    2    1    2    0    0 -0.14070870915E+02  0.40999068944E+02 -0.21706286459E+01  0.47787254715E+02  0.19999925547E+02 0.  0.
        -12    1    1    2    0    0  0.14070870915E+02 -0.40999068944E+02  0.21706286459E+01  0.43400745285E+02  0.00000000000E+00 0.  1.
         11    1    3    3    0    0 -0.27715233512E+01  0.25239913550E+02 -0.60553407476E+01  0.26103672721E+02  0.51100000000E-03 0. -1.
        -11    1    3    3    0    0 -0.48316875011E+01  0.29509143725E+01 -0.22320081927E+01  0.60856355934E+01  0.51100000000E-03 0.  1.
         12    1    3    3    0    0 -0.64676600633E+01  0.12808241021E+02  0.61167202944E+01  0.15597946400E+02  0.00000000000E+00 0. -1.
</event>
<event>
 7    1  0.2530788E-009  0.4778729E+02  0.7816164E-02  0.1312668E+00
        -11   -1    0    0    0    0  0.00000000000E+00  0.00000000000E+00  0.45593999997E+02  0.45594000000E+02  0.51100000000E-03 0. -1.
         11   -1    0    0    0    0 -0.00000000000E+00 -0.00000000000E+00 -0.45593999997E+02  0.45594000000E+02  0.51100000000E-03 0.  1.
    9900012    2    1    2    0    0 -0.26774678461E+02  0.27626011496E+02  0.20088358303E+02  0.47787285061E+02  0.20000063908E+02 0.  0.
        -12    1    1    2    0    0  0.26774678461E+02 -0.27626011496E+02 -0.20088358303E+02  0.43400714939E+02  0.00000000000E+00 0.  1.
         11    1    3    3    0    0 -0.19541154023E+02  0.24062849978E+02  0.12112062005E+02  0.33280316944E+02  0.51100000000E-03 0. -1.
        -11    1    3    3    0    0 -0.91826669989E+01  0.41344404381E+01  0.63541454227E+01  0.11907566303E+02  0.51100000000E-03 0.  1.
         12    1    3    3    0    0  0.19491425606E+01 -0.57127892057E+00  0.16221508757E+01  0.25994018139E+01  0.00000000000E+00 0. -1.
</event>
<event>
 7    1  0.2530788E-009  0.4778727E+02  0.7816164E-02  0.1312668E+00
        -11   -1    0    0    0    0  0.00000000000E+00  0.00000000000E+00  0.45593999997E+02  0.45594000000E+02  0.51100000000E-03 0.  1.
         11   -1    0    0    0    0 -0.00000000000E+00 -0.00000000000E+00 -0.45593999997E+02  0.45594000000E+02  0.51100000000E-03 0. -1.
    9900012    2    1    2    0    0 -0.21965269521E+02  0.37026919394E+02 -0.54915875346E+01  0.47787270069E+02  0.19999995550E+02 0.  0.
        -12    1    1    2    0    0  0.21965269521E+02 -0.37026919394E+02  0.54915875346E+01  0.43400729931E+02  0.00000000000E+00 0.  1.
         11    1    3    3    0    0 -0.18414660547E+01  0.49272715349E+01 -0.32884964264E+01  0.62034837807E+01  0.51100000000E-03 0. -1.
        -11    1    3    3    0    0 -0.18256518017E+02  0.18150999546E+02 -0.70626208700E+01  0.26695315103E+02  0.51100000000E-03 0.  1.
        -12    1    3    3    0    0 -0.18672854487E+01  0.13948648314E+02  0.48595297619E+01  0.14888471185E+02  0.00000000000E+00 0.  1.
</event>
<event>
 7    1  0.2530788E-009  0.4778726E+02  0.7816164E-02  0.1312668E+00
        -11   -1    0    0    0    0  0.00000000000E+00  0.00000000000E+00  0.45593999997E+02  0.45594000000E+02  0.51100000000E-03 0.  1.
         11   -1    0    0    0    0 -0.00000000000E+00 -0.00000000000E+00 -0.45593999997E+02  0.45594000000E+02  0.51100000000E-03 0. -1.
    9900012    2    1    2    0    0  0.25040797606E+02 -0.13311992166E+01 -0.35423308329E+02  0.47787257967E+02  0.19999940373E+02 0.  0.
        -12    1    1    2    0    0 -0.25040797606E+02  0.13311992166E+01  0.35423308329E+02  0.43400742033E+02  0.00000000000E+00 0.  1.
         11    1    3    3    0    0  0.72248392465E+01  0.70560864313E+01 -0.17259783268E+02  0.19997169214E+02  0.51100000000E-03 0.  1.
        -11    1    3    3    0    0  0.11882999234E+02 -0.65408692187E+01 -0.76367911094E+01  0.15566284709E+02  0.51100000000E-03 0. -1.
        -12    1    3    3    0    0  0.59329591257E+01 -0.18464164292E+01 -0.10526733951E+02  0.12223804044E+02  0.00000000000E+00 0.  1.
</event>
<event>
 7    1  0.2530788E-009  0.4778727E+02  0.7816164E-02  0.1312668E+00
        -11   -1    0    0    0    0  0.00000000000E+00  0.00000000000E+00  0.45593999997E+02  0.45594000000E+02  0.51100000000E-03 0.  1.
         11   -1    0    0    0    0 -0.00000000000E+00 -0.00000000000E+00 -0.45593999997E+02  0.45594000000E+02  0.51100000000E-03 0. -1.
    9900012    2    1    2    0    0 -0.18607307087E+02  0.28391528842E+02 -0.27042786137E+02  0.47787273404E+02  0.20000010757E+02 0.  0.
        -12    1    1    2    0    0  0.18607307087E+02 -0.28391528842E+02  0.27042786137E+02  0.43400726596E+02  0.00000000000E+00 0.  1.
         11    1    3    3    0    0 -0.84906927727E+01  0.16557216498E+02 -0.19360861156E+02  0.26852862545E+02  0.51100000000E-03 0. -1.
        -11    1    3    3    0    0  0.89472784191E+00 -0.38496937461E+00  0.17284923029E+01  0.19840426490E+01  0.51100000000E-03 0.  1.
        -12    1    3    3    0    0 -0.11011342156E+02  0.12219281719E+02 -0.94104172846E+01  0.18950368210E+02  0.00000000000E+00 0.  1.
</event>
<event>
 7    1  0.2530788E-009  0.4778727E+02  0.7816164E-02  0.1312668E+00
        -11   -1    0    0    0    0  0.00000000000E+00  0.00000000000E+00  0.45593999997E+02  0.45594000000E+02  0.51100000000E-03 0. -1.
         11   -1    0    0    0    0 -0.00000000000E+00 -0.00000000000E+00 -0.45593999997E+02  0.45594000000E+02  0.51100000000E-03 0.  1.
    9900012    2    1    2    0    0  0.24626427130E+02 -0.35403039673E+02  0.48772115221E+01  0.47787270473E+02  0.19999997394E+02 0.  0.
        -12    1    1    2    0    0 -0.24626427130E+02  0.35403039673E+02 -0.48772115221E+01  0.43400729527E+02  0.00000000000E+00 0.  1.
         11    1    3    3    0    0  0.46426693229E+00 -0.64453665680E+01  0.10920669676E+01  0.65536939586E+01  0.51100000000E-03 0. -1.
        -11    1    3    3    0    0  0.69064516459E+01 -0.17444521230E+02  0.74156737037E+01  0.20174305738E+02  0.51100000000E-03 0.  1.
        -12    1    3    3    0    0  0.17255708552E+02 -0.11513151875E+02 -0.36305291491E+01  0.21059270776E+02  0.00000000000E+00 0.  1.
</event>
<event>
 7    1  0.2530788E-009  0.4778728E+02  0.7816164E-02  0.1312668E+00
        -11   -1    0    0    0    0  0.00000000000E+00  0.00000000000E+00  0.45593999997E+02  0.45594000000E+02  0.51100000000E-03 0.  1.
         11   -1    0    0    0    0 -0.00000000000E+00 -0.00000000000E+00 -0.45593999997E+02  0.45594000000E+02  0.51100000000E-03 0. -1.
    9900012    2    1    2    0    0 -0.26046436336E+02 -0.24228117897E+02 -0.24863704815E+02  0.47787281576E+02  0.20000048015E+02 0.  0.
        -12    1    1    2    0    0  0.26046436336E+02  0.24228117897E+02  0.24863704815E+02  0.43400718424E+02  0.00000000000E+00 0.  1.
         11    1    3    3    0    0 -0.24259509688E+02 -0.20758172963E+02 -0.20069884154E+02  0.37712409168E+02  0.51100000000E-03 0. -1.
        -11    1    3    3    0    0  0.13214077618E+01 -0.40309923122E+00  0.17365819681E+01  0.22190819399E+01  0.51100000000E-03 0.  1.
         12    1    3    3    0    0 -0.31083344100E+01 -0.30668457029E+01 -0.65304026294E+01  0.78557904677E+01  0.00000000000E+00 0. -1.
</event>
<event>
 7    1  0.2530788E-009  0.4778727E+02  0.7816164E-02  0.1312668E+00
        -11   -1    0    0    0    0  0.00000000000E+00  0.00000000000E+00  0.45593999997E+02  0.45594000000E+02  0.51100000000E-03 0.  1.
         11   -1    0    0    0    0 -0.00000000000E+00 -0.00000000000E+00 -0.45593999997E+02  0.45594000000E+02  0.51100000000E-03 0. -1.
    9900012    2    1    2    0    0 -0.37046276884E+02  0.22387408886E+02  0.31623792835E+01  0.47787270163E+02  0.19999995983E+02 0.  0.
        -12    1    1    2    0    0  0.37046276884E+02 -0.22387408886E+02 -0.31623792835E+01  0.43400729837E+02  0.00000000000E+00 0.  1.
         11    1    3    3    0    0 -0.15861909115E+02  0.81167551011E+01  0.92329715855E+01  0.20068124943E+02  0.51100000000E-03 0. -1.
        -11    1    3    3    0    0 -0.63331239540E+00 -0.11235886262E+01 -0.76421545810E+00  0.14991869525E+01  0.51100000000E-03 0.  1.
         12    1    3    3    0    0 -0.20551055373E+02  0.15394242411E+02 -0.53063768439E+01  0.26219958268E+02  0.00000000000E+00 0. -1.
</event>
<event>
 7    1  0.2530788E-009  0.4778727E+02  0.7816164E-02  0.1312668E+00
        -11   -1    0    0    0    0  0.00000000000E+00  0.00000000000E+00  0.45593999997E+02  0.45594000000E+02  0.51100000000E-03 0. -1.
         11   -1    0    0    0    0 -0.00000000000E+00 -0.00000000000E+00 -0.45593999997E+02  0.45594000000E+02  0.51100000000E-03 0.  1.
    9900012    2    1    2    0    0 -0.24629492625E+02 -0.26222075695E+02  0.24277849449E+02  0.47787272649E+02  0.20000007316E+02 0.  0.
        -12    1    1    2    0    0  0.24629492625E+02  0.26222075695E+02 -0.24277849449E+02  0.43400727351E+02  0.00000000000E+00 0.  1.
         11    1    3    3    0    0 -0.71910584166E+01 -0.88530240736E+01  0.15793464138E+02  0.19481295289E+02  0.51100000000E-03 0. -1.
        -11    1    3    3    0    0 -0.54044518446E-01 -0.20965519388E+01  0.43088215831E+01  0.47921179596E+01  0.51100000000E-03 0.  1.
         12    1    3    3    0    0 -0.17384389690E+02 -0.15272499683E+02  0.41755637277E+01  0.23513859400E+02  0.00000000000E+00 0. -1.
</event>
<event>
 7    1  0.2530788E-009  0.4778727E+02  0.7816164E-02  0.1312668E+00
        -11   -1    0    0    0    0  0.00000000000E+00  0.00000000000E+00  0.45593999997E+02  0.45594000000E+02  0.51100000000E-03 0.  1.
         11   -1    0    0    0    0 -0.00000000000E+00 -0.00000000000E+00 -0.45593999997E+02  0.45594000000E+02  0.51100000000E-03 0. -1.
    9900012    2    1    2    0    0  0.31167868682E+02 -0.27929083548E+02  0.11495816634E+02  0.47787267908E+02  0.19999985699E+02 0.  0.
        -12    1    1    2    0    0 -0.31167868682E+02  0.27929083548E+02 -0.11495816634E+02  0.43400732092E+02  0.00000000000E+00 0.  1.
         11    1    3    3    0    0  0.17206588581E+02 -0.16654885063E+02  0.10324432919E+02  0.26077687828E+02  0.51100000000E-03 0. -1.
        -11    1    3    3    0    0  0.12254375190E+02 -0.93961515876E+01 -0.39976682372E+01  0.15951135619E+02  0.51100000000E-03 0.  1.
        -12    1    3    3    0    0  0.17069049113E+01 -0.18780468974E+01  0.51690519521E+01  0.57584444608E+01  0.00000000000E+00 0.  1.
</event>
<event>
 7    1  0.2530788E-009  0.4778727E+02  0.7816164E-02  0.1312668E+00
        -11   -1    0    0    0    0  0.00000000000E+00  0.00000000000E+00  0.45593999997E+02  0.45594000000E+02  0.51100000000E-03 0.  1.
         11   -1    0    0    0    0 -0.00000000000E+00 -0.00000000000E+00 -0.45593999997E+02  0.45594000000E+02  0.51100000000E-03 0. -1.
    9900012    2    1    2    0    0 -0.37213226048E+02  0.98053397711E+01 -0.20066254000E+02  0.47787269239E+02  0.19999991770E+02 0.  0.
        -12    1    1    2    0    0  0.37213226048E+02 -0.98053397711E+01  0.20066254000E+02  0.43400730761E+02  0.00000000000E+00 0.  1.
         11    1    3    3    0    0 -0.12533394553E+02  0.44828452371E+01 -0.59213188579E+01  0.14568592853E+02  0.51100000000E-03 0. -1.
        -11    1    3    3    0    0 -0.18765288729E+02  0.88891377006E+01 -0.15829037005E+02  0.26109600589E+02  0.51100000000E-03 0.  1.
        -12    1    3    3    0    0 -0.59145427661E+01 -0.35666431666E+01  0.16841018623E+01  0.71090757973E+01  0.00000000000E+00 0.  1.
</event>
<event>
 7    1  0.2530788E-009  0.4778726E+02  0.7816164E-02  0.1312668E+00
        -11   -1    0    0    0    0  0.00000000000E+00  0.00000000000E+00  0.45593999997E+02  0.45594000000E+02  0.51100000000E-03 0.  1.
         11   -1    0    0    0    0 -0.00000000000E+00 -0.00000000000E+00 -0.45593999997E+02  0.45594000000E+02  0.51100000000E-03 0. -1.
    9900012    2    1    2    0    0  0.15784025985E+02 -0.34354018723E+02 -0.21314083771E+02  0.47787259848E+02  0.19999948952E+02 0.  0.
        -12    1    1    2    0    0 -0.15784025985E+02  0.34354018723E+02  0.21314083771E+02  0.43400740152E+02  0.00000000000E+00 0.  1.
         11    1    3    3    0    0  0.27698277311E+01 -0.15725084655E+01 -0.38141467353E+01  0.49691492344E+01  0.51100000000E-03 0. -1.
        -11    1    3    3    0    0  0.12647955806E+02 -0.31253628476E+02 -0.10017620857E+02  0.35172614445E+02  0.51100000000E-03 0.  1.
        -12    1    3    3    0    0  0.36624244763E+00 -0.15278817816E+01 -0.74823161786E+01  0.76454961687E+01  0.00000000000E+00 0.  1.
</event>
<event>
 7    1  0.2530788E-009  0.4778727E+02  0.7816164E-02  0.1312668E+00
        -11   -1    0    0    0    0  0.00000000000E+00  0.00000000000E+00  0.45593999997E+02  0.45594000000E+02  0.51100000000E-03 0.  1.
         11   -1    0    0    0    0 -0.00000000000E+00 -0.00000000000E+00 -0.45593999997E+02  0.45594000000E+02  0.51100000000E-03 0. -1.
    9900012    2    1    2    0    0  0.41689571026E+02  0.15041888357E+01 -0.11972487668E+02  0.47787269853E+02  0.19999994566E+02 0.  0.
        -12    1    1    2    0    0 -0.41689571026E+02 -0.15041888357E+01  0.11972487668E+02  0.43400730147E+02  0.00000000000E+00 0.  1.
         11    1    3    3    0    0  0.27167575083E+02  0.13067992702E+00 -0.40506716753E+01  0.27468202607E+02  0.51100000000E-03 0. -1.
        -11    1    3    3    0    0  0.81431151686E+01  0.47419941599E+01 -0.89936407370E+01  0.13026219990E+02  0.51100000000E-03 0.  1.
        -12    1    3    3    0    0  0.63788807738E+01 -0.33684852512E+01  0.10718247441E+01  0.72928472558E+01  0.00000000000E+00 0.  1.
</event>
<event>
 7    1  0.2530788E-009  0.4778726E+02  0.7816164E-02  0.1312668E+00
        -11   -1    0    0    0    0  0.00000000000E+00  0.00000000000E+00  0.45593999997E+02  0.45594000000E+02  0.51100000000E-03 0. -1.
         11   -1    0    0    0    0 -0.00000000000E+00 -0.00000000000E+00 -0.45593999997E+02  0.45594000000E+02  0.51100000000E-03 0.  1.
    9900012    2    1    2    0    0  0.39288877276E+02 -0.33289703649E+00  0.18436302706E+02  0.47787263192E+02  0.19999964196E+02 0.  0.
        -12    1    1    2    0    0 -0.39288877276E+02  0.33289703649E+00 -0.18436302706E+02  0.43400736808E+02  0.00000000000E+00 0.  1.
         11    1    3    3    0    0  0.62743552313E+01  0.66721151791E+01  0.51352283077E+01  0.10500248786E+02  0.51100000000E-03 0. -1.
        -11    1    3    3    0    0  0.18496063031E+02 -0.14444593528E+01  0.34176638501E+01  0.18864549741E+02  0.51100000000E-03 0.  1.
         12    1    3    3    0    0  0.14518459013E+02 -0.55605528628E+01  0.98834105486E+01  0.18422464665E+02  0.00000000000E+00 0. -1.
</event>
<event>
 7    1  0.2530788E-009  0.4778730E+02  0.7816164E-02  0.1312668E+00
        -11   -1    0    0    0    0  0.00000000000E+00  0.00000000000E+00  0.45593999997E+02  0.45594000000E+02  0.51100000000E-03 0. -1.
         11   -1    0    0    0    0 -0.00000000000E+00 -0.00000000000E+00 -0.45593999997E+02  0.45594000000E+02  0.51100000000E-03 0.  1.
    9900012    2    1    2    0    0  0.19547357779E+02  0.38316175468E+02  0.57786100768E+01  0.47787299165E+02  0.20000128211E+02 0.  0.
        -12    1    1    2    0    0 -0.19547357779E+02 -0.38316175468E+02 -0.57786100768E+01  0.43400700835E+02  0.00000000000E+00 0.  1.
         11    1    3    3    0    0  0.16569672505E+02  0.36721041227E+02  0.10639691116E+02  0.41667636639E+02  0.51100000000E-03 0. -1.
        -11    1    3    3    0    0  0.10360266320E+01 -0.21998065025E+00 -0.14296277045E+01  0.17792072120E+01  0.51100000000E-03 0.  1.
         12    1    3    3    0    0  0.19416586412E+01  0.18151148904E+01 -0.34314533345E+01  0.43404553138E+01  0.00000000000E+00 0. -1.
</event>
<event>
 7    1  0.2530788E-009  0.4778728E+02  0.7816164E-02  0.1312668E+00
        -11   -1    0    0    0    0  0.00000000000E+00  0.00000000000E+00  0.45593999997E+02  0.45594000000E+02  0.51100000000E-03 0.  1.
         11   -1    0    0    0    0 -0.00000000000E+00 -0.00000000000E+00 -0.45593999997E+02  0.45594000000E+02  0.51100000000E-03 0. -1.
    9900012    2    1    2    0    0 -0.31090289514E+02 -0.25661072669E+01 -0.30173363828E+02  0.47787275429E+02  0.20000019992E+02 0.  0.
        -12    1    1    2    0    0  0.31090289514E+02  0.25661072669E+01  0.30173363828E+02  0.43400724571E+02  0.00000000000E+00 0.  1.
         11    1    3    3    0    0 -0.22503544907E+02  0.57472256805E+01 -0.26519136257E+02  0.35252017311E+02  0.51100000000E-03 0. -1.
        -11    1    3    3    0    0 -0.57919672048E+01 -0.62164130010E+01 -0.26308335396E+01  0.88944904337E+01  0.51100000000E-03 0.  1.
         12    1    3    3    0    0 -0.27947774017E+01 -0.20969199464E+01 -0.10233940312E+01  0.36407676842E+01  0.00000000000E+00 0. -1.
</event>
<event>
 7    1  0.2530788E-009  0.4778727E+02  0.7816164E-02  0.1312668E+00
        -11   -1    0    0    0    0  0.00000000000E+00  0.00000000000E+00  0.45593999997E+02  0.45594000000E+02  0.51100000000E-03 0.  1.
         11   -1    0    0    0    0 -0.00000000000E+00 -0.00000000000E+00 -0.45593999997E+02  0.45594000000E+02  0.51100000000E-03 0. -1.
    9900012    2    1    2    0    0  0.38772385504E+02  0.32205011060E+01 -0.19234186230E+02  0.47787269304E+02  0.19999992066E+02 0.  0.
        -12    1    1    2    0    0 -0.38772385504E+02 -0.32205011060E+01  0.19234186230E+02  0.43400730696E+02  0.00000000000E+00 0.  1.
         11    1    3    3    0    0  0.80839452877E+01  0.30184410818E+01 -0.37729632812E+01  0.94178771579E+01  0.51100000000E-03 0. -1.
        -11    1    3    3    0    0  0.15473817742E+02  0.65074563939E+01 -0.13958077694E+02  0.21831490040E+02  0.51100000000E-03 0.  1.
        -12    1    3    3    0    0  0.15214622474E+02 -0.63053963697E+01 -0.15031452548E+01  0.16537902106E+02  0.00000000000E+00 0.  1.
</event>
<event>
 7    1  0.2530788E-009  0.4778727E+02  0.7816164E-02  0.1312668E+00
        -11   -1    0    0    0    0  0.00000000000E+00  0.00000000000E+00  0.45593999997E+02  0.45594000000E+02  0.51100000000E-03 0. -1.
         11   -1    0    0    0    0 -0.00000000000E+00 -0.00000000000E+00 -0.45593999997E+02  0.45594000000E+02  0.51100000000E-03 0.  1.
    9900012    2    1    2    0    0 -0.36132175861E+02  0.40928847964E+01  0.23692560008E+02  0.47787271456E+02  0.20000001879E+02 0.  0.
        -12    1    1    2    0    0  0.36132175861E+02 -0.40928847964E+01 -0.23692560008E+02  0.43400728544E+02  0.00000000000E+00 0.  1.
         11    1    3    3    0    0 -0.68439488008E+00  0.48342491295E+01  0.32198254123E+01  0.58485585356E+01  0.51100000000E-03 0.  1.
        -11    1    3    3    0    0 -0.22106496228E+02 -0.44061184530E+01  0.10399055867E+02  0.24824411745E+02  0.51100000000E-03 0. -1.
         12    1    3    3    0    0 -0.13341284752E+02  0.36647541199E+01  0.10073678729E+02  0.17114301176E+02  0.00000000000E+00 0. -1.
</event>
<event>
 7    1  0.2530788E-009  0.4778727E+02  0.7816164E-02  0.1312668E+00
        -11   -1    0    0    0    0  0.00000000000E+00  0.00000000000E+00  0.45593999997E+02  0.45594000000E+02  0.51100000000E-03 0. -1.
         11   -1    0    0    0    0 -0.00000000000E+00 -0.00000000000E+00 -0.45593999997E+02  0.45594000000E+02  0.51100000000E-03 0.  1.
    9900012    2    1    2    0    0  0.35546233847E+02  0.24725272008E+02  0.29579134721E+01  0.47787273409E+02  0.20000010780E+02 0.  0.
        -12    1    1    2    0    0 -0.35546233847E+02 -0.24725272008E+02 -0.29579134721E+01  0.43400726591E+02  0.00000000000E+00 0.  1.
         11    1    3    3    0    0  0.11869705743E+02  0.42874340650E+01 -0.66052724408E+01  0.14244354305E+02  0.51100000000E-03 0. -1.
        -11    1    3    3    0    0  0.27781316559E+01  0.50645287456E+01  0.39527195427E+01  0.69993898989E+01  0.51100000000E-03 0.  1.
         12    1    3    3    0    0  0.20898396448E+02  0.15373309197E+02  0.56104663702E+01  0.26543529205E+02  0.00000000000E+00 0. -1.
</event>
<event>
 7    1  0.2530788E-009  0.4778728E+02  0.7816164E-02  0.1312668E+00
        -11   -1    0    0    0    0  0.00000000000E+00  0.00000000000E+00  0.45593999997E+02  0.45594000000E+02  0.51100000000E-03 0.  1.
         11   -1    0    0    0    0 -0.00000000000E+00 -0.00000000000E+00 -0.45593999997E+02  0.45594000000E+02  0.51100000000E-03 0. -1.
    9900012    2    1    2    0    0 -0.17809459958E+02 -0.23615749481E+02 -0.31760692617E+02  0.47787284764E+02  0.20000062551E+02 0.  0.
        -12    1    1    2    0    0  0.17809459958E+02  0.23615749481E+02  0.31760692617E+02  0.43400715236E+02  0.00000000000E+00 0.  1.
         11    1    3    3    0    0 -0.90520493355E+01 -0.14175085255E+02 -0.65714415249E+01  0.18057034173E+02  0.51100000000E-03 0. -1.
        -11    1    3    3    0    0  0.52793547706E+00  0.65156610436E+00  0.21060188417E+00  0.86464308881E+00  0.51100000000E-03 0.  1.
         12    1    3    3    0    0 -0.92853460994E+01 -0.10092230330E+02 -0.25399852976E+02  0.28865607502E+02  0.00000000000E+00 0. -1.
</event>
<event>
 7    1  0.2530788E-009  0.4778727E+02  0.7816164E-02  0.1312668E+00
        -11   -1    0    0    0    0  0.00000000000E+00  0.00000000000E+00  0.45593999997E+02  0.45594000000E+02  0.51100000000E-03 0.  1.
         11   -1    0    0    0    0 -0.00000000000E+00 -0.00000000000E+00 -0.45593999997E+02  0.45594000000E+02  0.51100000000E-03 0. -1.
    9900012    2    1    2    0    0  0.29310772726E+02 -0.17576201845E+02 -0.26750316199E+02  0.47787266298E+02  0.19999978360E+02 0.  0.
        -12    1    1    2    0    0 -0.29310772726E+02  0.17576201845E+02  0.26750316199E+02  0.43400733702E+02  0.00000000000E+00 0.  1.
         11    1    3    3    0    0  0.64353688596E+01 -0.59748861299E+01 -0.48794964474E+00  0.87949605878E+01  0.51100000000E-03 0. -1.
        -11    1    3    3    0    0  0.42228215990E+01 -0.36432894310E+01 -0.14530259361E+02  0.15563875400E+02  0.51100000000E-03 0.  1.
        -12    1    3    3    0    0  0.18652582267E+02 -0.79580262842E+01 -0.11732107194E+02  0.23428430310E+02  0.00000000000E+00 0.  1.
</event>
<event>
 7    1  0.2530788E-009  0.4778728E+02  0.7816164E-02  0.1312668E+00
        -11   -1    0    0    0    0  0.00000000000E+00  0.00000000000E+00  0.45593999997E+02  0.45594000000E+02  0.51100000000E-03 0.  1.
         11   -1    0    0    0    0 -0.00000000000E+00 -0.00000000000E+00 -0.45593999997E+02  0.45594000000E+02  0.51100000000E-03 0. -1.
    9900012    2    1    2    0    0  0.49947886813E+01  0.39812144752E+02 -0.16542913057E+02  0.47787277009E+02  0.20000027194E+02 0.  0.
        -12    1    1    2    0    0 -0.49947886813E+01 -0.39812144752E+02  0.16542913057E+02  0.43400722991E+02  0.00000000000E+00 0.  1.
         11    1    3    3    0    0  0.40508443224E+01  0.31068210499E+02 -0.15075738843E+02  0.34769540481E+02  0.51100000000E-03 0. -1.
        -11    1    3    3    0    0  0.44816040845E+01  0.80960244970E+01 -0.17207813131E+01  0.94123045220E+01  0.51100000000E-03 0.  1.
         12    1    3    3    0    0 -0.35376597256E+01  0.64790975593E+00  0.25360709893E+00  0.36054320055E+01  0.00000000000E+00 0. -1.
</event>
<event>
 7    1  0.2530788E-009  0.4778726E+02  0.7816164E-02  0.1312668E+00
        -11   -1    0    0    0    0  0.00000000000E+00  0.00000000000E+00  0.45593999997E+02  0.45594000000E+02  0.51100000000E-03 0.  1.
         11   -1    0    0    0    0 -0.00000000000E+00 -0.00000000000E+00 -0.45593999997E+02  0.45594000000E+02  0.51100000000E-03 0. -1.
    9900012    2    1    2    0    0 -0.20771047789E+02  0.76649221223E+01 -0.37328761949E+02  0.47787263531E+02  0.19999965743E+02 0.  0.
        -12    1    1    2    0    0  0.20771047789E+02 -0.76649221223E+01  0.37328761949E+02  0.43400736469E+02  0.00000000000E+00 0.  1.
         11    1    3    3    0    0 -0.46847438706E+01  0.31950799393E+01 -0.36943748739E+01  0.67678480274E+01  0.51100000000E-03 0. -1.
        -11    1    3    3    0    0 -0.37428278042E+01 -0.21639624990E+01  0.27146037575E+00  0.43318800382E+01  0.51100000000E-03 0.  1.
        -12    1    3    3    0    0 -0.12343476114E+02  0.66338046819E+01 -0.33905847451E+02  0.36687535465E+02  0.00000000000E+00 0.  1.
</event>
<event>
 7    1  0.2530788E-009  0.4778727E+02  0.7816164E-02  0.1312668E+00
        -11   -1    0    0    0    0  0.00000000000E+00  0.00000000000E+00  0.45593999997E+02  0.45594000000E+02  0.51100000000E-03 0.  1.
         11   -1    0    0    0    0 -0.00000000000E+00 -0.00000000000E+00 -0.45593999997E+02  0.45594000000E+02  0.51100000000E-03 0. -1.
    9900012    2    1    2    0    0 -0.25358971517E+02 -0.24257212020E+02 -0.25536903534E+02  0.47787271740E+02  0.20000003173E+02 0.  0.
        -12    1    1    2    0    0  0.25358971517E+02  0.24257212020E+02  0.25536903534E+02  0.43400728260E+02  0.00000000000E+00 0.  1.
         11    1    3    3    0    0 -0.11326351245E+02 -0.89836750906E+01 -0.84955235643E+01  0.16768022291E+02  0.51100000000E-03 0. -1.
        -11    1    3    3    0    0 -0.95664343209E+01 -0.94374560175E+01 -0.11212421939E+01  0.13484784982E+02  0.51100000000E-03 0.  1.
        -12    1    3    3    0    0 -0.44661859506E+01 -0.58360809119E+01 -0.15920137776E+02  0.17534464467E+02  0.00000000000E+00 0.  1.
</event>
<event>
 7    1  0.2530788E-009  0.4778727E+02  0.7816164E-02  0.1312668E+00
        -11   -1    0    0    0    0  0.00000000000E+00  0.00000000000E+00  0.45593999997E+02  0.45594000000E+02  0.51100000000E-03 0.  1.
         11   -1    0    0    0    0 -0.00000000000E+00 -0.00000000000E+00 -0.45593999997E+02  0.45594000000E+02  0.51100000000E-03 0. -1.
    9900012    2    1    2    0    0  0.40385414727E+02 -0.15114555959E+02  0.49185415491E+01  0.47787267569E+02  0.19999984155E+02 0.  0.
        -12    1    1    2    0    0 -0.40385414727E+02  0.15114555959E+02 -0.49185415491E+01  0.43400732431E+02  0.00000000000E+00 0.  1.
         11    1    3    3    0    0  0.51188575870E+01  0.25090486201E+01 -0.32230115844E+01  0.65487275030E+01  0.51100000000E-03 0. -1.
        -11    1    3    3    0    0  0.41541591305E+01 -0.24006134667E+01  0.42027321860E+01  0.63783180531E+01  0.51100000000E-03 0.  1.
         12    1    3    3    0    0  0.31112398010E+02 -0.15222991113E+02  0.39388209475E+01  0.34860222013E+02  0.00000000000E+00 0. -1.
</event>
<event>
 7    1  0.2530788E-009  0.4778727E+02  0.7816164E-02  0.1312668E+00
        -11   -1    0    0    0    0  0.00000000000E+00  0.00000000000E+00  0.45593999997E+02  0.45594000000E+02  0.51100000000E-03 0.  1.
         11   -1    0    0    0    0 -0.00000000000E+00 -0.00000000000E+00 -0.45593999997E+02  0.45594000000E+02  0.51100000000E-03 0. -1.
    9900012    2    1    2    0    0 -0.24716749591E+02 -0.87834597693E+01 -0.34576824216E+02  0.47787266725E+02  0.19999980308E+02 0.  0.
        -12    1    1    2    0    0  0.24716749591E+02  0.87834597693E+01  0.34576824216E+02  0.43400733275E+02  0.00000000000E+00 0.  1.
         11    1    3    3    0    0 -0.81281029532E+01  0.23279050279E+01 -0.16592116885E+02  0.18622125078E+02  0.51100000000E-03 0. -1.
        -11    1    3    3    0    0 -0.88273041620E+01 -0.73394303939E+01 -0.29871777649E+01  0.11862199144E+02  0.51100000000E-03 0.  1.
         12    1    3    3    0    0 -0.77613424762E+01 -0.37719344034E+01 -0.14997529567E+02  0.17302942504E+02  0.00000000000E+00 0. -1.
</event>
<event>
 7    1  0.2530788E-009  0.4778727E+02  0.7816164E-02  0.1312668E+00
        -11   -1    0    0    0    0  0.00000000000E+00  0.00000000000E+00  0.45593999997E+02  0.45594000000E+02  0.51100000000E-03 0. -1.
         11   -1    0    0    0    0 -0.00000000000E+00 -0.00000000000E+00 -0.45593999997E+02  0.45594000000E+02  0.51100000000E-03 0.  1.
    9900012    2    1    2    0    0 -0.12176303178E+02  0.38703245170E+02 -0.15408429768E+02  0.47787271277E+02  0.20000001062E+02 0.  0.
        -12    1    1    2    0    0  0.12176303178E+02 -0.38703245170E+02  0.15408429768E+02  0.43400728723E+02  0.00000000000E+00 0.  1.
         11    1    3    3    0    0 -0.69246188054E+01  0.14378261735E+02  0.19334659159E+01  0.16075541883E+02  0.51100000000E-03 0. -1.
        -11    1    3    3    0    0 -0.10755529852E+01  0.12365374768E+02 -0.33895410797E+01  0.12866557285E+02  0.51100000000E-03 0.  1.
         12    1    3    3    0    0 -0.41761313875E+01  0.11959608667E+02 -0.13952354604E+02  0.18845172109E+02  0.00000000000E+00 0. -1.
</event>
<event>
 7    1  0.2530788E-009  0.4778727E+02  0.7816164E-02  0.1312668E+00
        -11   -1    0    0    0    0  0.00000000000E+00  0.00000000000E+00  0.45593999997E+02  0.45594000000E+02  0.51100000000E-03 0.  1.
         11   -1    0    0    0    0 -0.00000000000E+00 -0.00000000000E+00 -0.45593999997E+02  0.45594000000E+02  0.51100000000E-03 0. -1.
    9900012    2    1    2    0    0  0.29801290974E+02  0.14729544562E+02 -0.27902450583E+02  0.47787272181E+02  0.20000005181E+02 0.  0.
        -12    1    1    2    0    0 -0.29801290974E+02 -0.14729544562E+02  0.27902450583E+02  0.43400727819E+02  0.00000000000E+00 0.  1.
         11    1    3    3    0    0  0.18910848221E+02  0.70122361611E+01 -0.21165645383E+02  0.29236555563E+02  0.51100000000E-03 0. -1.
        -11    1    3    3    0    0  0.16356816187E+01 -0.11510399013E+01  0.21630599390E+01  0.29460440888E+01  0.51100000000E-03 0.  1.
        -12    1    3    3    0    0  0.92547611344E+01  0.88683483021E+01 -0.88998651386E+01  0.15604672529E+02  0.00000000000E+00 0.  1.
</event>
<event>
 7    1  0.2530788E-009  0.4778727E+02  0.7816164E-02  0.1312668E+00
        -11   -1    0    0    0    0  0.00000000000E+00  0.00000000000E+00  0.45593999997E+02  0.45594000000E+02  0.51100000000E-03 0.  1.
         11   -1    0    0    0    0 -0.00000000000E+00 -0.00000000000E+00 -0.45593999997E+02  0.45594000000E+02  0.51100000000E-03 0. -1.
    9900012    2    1    2    0    0  0.40554669621E+02 -0.17847176334E+01  0.15354388868E+02  0.47787266105E+02  0.19999977481E+02 0.  0.
        -12    1    1    2    0    0 -0.40554669621E+02  0.17847176334E+01 -0.15354388868E+02  0.43400733895E+02  0.00000000000E+00 0.  1.
         11    1    3    3    0    0  0.23577246125E+02  0.15480653416E+00  0.38164715063E+01  0.23884638472E+02  0.51100000000E-03 0. -1.
        -11    1    3    3    0    0  0.69611458244E+01 -0.63215567195E+01  0.81867705236E+01  0.12467671892E+02  0.51100000000E-03 0.  1.
         12    1    3    3    0    0  0.10016277671E+02  0.43820325519E+01  0.33511468381E+01  0.11434955741E+02  0.00000000000E+00 0. -1.
</event>
<event>
 7    1  0.2530788E-009  0.4778727E+02  0.7816164E-02  0.1312668E+00
        -11   -1    0    0    0    0  0.00000000000E+00  0.00000000000E+00  0.45593999997E+02  0.45594000000E+02  0.51100000000E-03 0.  1.
         11   -1    0    0    0    0 -0.00000000000E+00 -0.00000000000E+00 -0.45593999997E+02  0.45594000000E+02  0.51100000000E-03 0. -1.
    9900012    2    1    2    0    0  0.30794645861E+02  0.25214354753E+02 -0.17307490018E+02  0.47787272933E+02  0.20000008609E+02 0.  0.
        -12    1    1    2    0    0 -0.30794645861E+02 -0.25214354753E+02  0.17307490018E+02  0.43400727067E+02  0.00000000000E+00 0.  1.
         11    1    3    3    0    0  0.11432238093E+02  0.17032228112E+01 -0.87109473965E+01  0.14473342411E+02  0.51100000000E-03 0.  1.
        -11    1    3    3    0    0  0.19523997648E+02  0.23775152438E+02 -0.96290261561E+01  0.32236043532E+02  0.51100000000E-03 0. -1.
        -12    1    3    3    0    0 -0.16158988038E+00 -0.26402049630E+00  0.10324835350E+01  0.10778869894E+01  0.00000000000E+00 0.  1.
</event>
<event>
 7    1  0.2530788E-009  0.4778727E+02  0.7816164E-02  0.1312668E+00
        -11   -1    0    0    0    0  0.00000000000E+00  0.00000000000E+00  0.45593999997E+02  0.45594000000E+02  0.51100000000E-03 0.  1.
         11   -1    0    0    0    0 -0.00000000000E+00 -0.00000000000E+00 -0.45593999997E+02  0.45594000000E+02  0.51100000000E-03 0. -1.
    9900012    2    1    2    0    0  0.34252222007E+02  0.13672900817E+02 -0.22879262618E+02  0.47787267435E+02  0.19999983545E+02 0.  0.
        -12    1    1    2    0    0 -0.34252222007E+02 -0.13672900817E+02  0.22879262618E+02  0.43400732565E+02  0.00000000000E+00 0.  1.
         11    1    3    3    0    0  0.15642614467E+02  0.13979124079E+02 -0.13316707519E+02  0.24848380164E+02  0.51100000000E-03 0. -1.
        -11    1    3    3    0    0  0.19700228496E+02 -0.33831702944E+00 -0.94178027583E+01  0.21838234138E+02  0.51100000000E-03 0.  1.
        -12    1    3    3    0    0 -0.10906209561E+01  0.32093767397E-01 -0.14475234152E+00  0.11006531334E+01  0.00000000000E+00 0.  1.
</event>
<event>
 7    1  0.2530788E-009  0.4778727E+02  0.7816164E-02  0.1312668E+00
        -11   -1    0    0    0    0  0.00000000000E+00  0.00000000000E+00  0.45593999997E+02  0.45594000000E+02  0.51100000000E-03 0.  1.
         11   -1    0    0    0    0 -0.00000000000E+00 -0.00000000000E+00 -0.45593999997E+02  0.45594000000E+02  0.51100000000E-03 0. -1.
    9900012    2    1    2    0    0  0.19868695183E+02 -0.27367757715E+02 -0.27200445385E+02  0.47787269133E+02  0.19999991286E+02 0.  0.
        -12    1    1    2    0    0 -0.19868695183E+02  0.27367757715E+02  0.27200445385E+02  0.43400730867E+02  0.00000000000E+00 0.  1.
         11    1    3    3    0    0 -0.21613955014E+01 -0.81832233124E+01 -0.24961596458E+01  0.88242613024E+01  0.51100000000E-03 0.  1.
        -11    1    3    3    0    0  0.16308349652E+02 -0.17399989332E+02 -0.17435267446E+02  0.29541673078E+02  0.51100000000E-03 0. -1.
        -12    1    3    3    0    0  0.57217410331E+01 -0.17845450705E+01 -0.72690182940E+01  0.94213347524E+01  0.00000000000E+00 0.  1.
</event>
<event>
 7    1  0.2530788E-009  0.4778726E+02  0.7816164E-02  0.1312668E+00
        -11   -1    0    0    0    0  0.00000000000E+00  0.00000000000E+00  0.45593999997E+02  0.45594000000E+02  0.51100000000E-03 0.  1.
         11   -1    0    0    0    0 -0.00000000000E+00 -0.00000000000E+00 -0.45593999997E+02  0.45594000000E+02  0.51100000000E-03 0. -1.
    9900012    2    1    2    0    0  0.15290200292E+02 -0.51064378480E+01 -0.40295881528E+02  0.47787262673E+02  0.19999961831E+02 0.  0.
        -12    1    1    2    0    0 -0.15290200292E+02  0.51064378480E+01  0.40295881528E+02  0.43400737327E+02  0.00000000000E+00 0.  1.
         11    1    3    3    0    0  0.22488536496E+01 -0.90079605235E+00 -0.11959995564E+02  0.12202879595E+02  0.51100000000E-03 0. -1.
        -11    1    3    3    0    0 -0.31919599281E+00 -0.69121464234E+01 -0.14976214721E+02  0.16497474409E+02  0.51100000000E-03 0.  1.
        -12    1    3    3    0    0  0.13360542635E+02  0.27065046278E+01 -0.13359671243E+02  0.19086908669E+02  0.00000000000E+00 0.  1.
</event>
<event>
 7    1  0.2530788E-009  0.4778727E+02  0.7816164E-02  0.1312668E+00
        -11   -1    0    0    0    0  0.00000000000E+00  0.00000000000E+00  0.45593999997E+02  0.45594000000E+02  0.51100000000E-03 0. -1.
         11   -1    0    0    0    0 -0.00000000000E+00 -0.00000000000E+00 -0.45593999997E+02  0.45594000000E+02  0.51100000000E-03 0.  1.
    9900012    2    1    2    0    0  0.31230260665E+01 -0.35996310554E+02  0.24044449867E+02  0.47787271496E+02  0.20000002059E+02 0.  0.
        -12    1    1    2    0    0 -0.31230260665E+01  0.35996310554E+02 -0.24044449867E+02  0.43400728504E+02  0.00000000000E+00 0.  1.
         11    1    3    3    0    0  0.28564257848E+01 -0.42886455087E+01  0.40885292895E+01  0.65778203514E+01  0.51100000000E-03 0. -1.
        -11    1    3    3    0    0  0.77238694448E+01 -0.12897414264E+02  0.12807738504E+02  0.19749420745E+02  0.51100000000E-03 0.  1.
        -12    1    3    3    0    0 -0.74572691631E+01 -0.18810250781E+02  0.71481820730E+01  0.21460030400E+02  0.00000000000E+00 0.  1.
</event>
<event>
 7    1  0.2530788E-009  0.4778727E+02  0.7816164E-02  0.1312668E+00
        -11   -1    0    0    0    0  0.00000000000E+00  0.00000000000E+00  0.45593999997E+02  0.45594000000E+02  0.51100000000E-03 0.  1.
         11   -1    0    0    0    0 -0.00000000000E+00 -0.00000000000E+00 -0.45593999997E+02  0.45594000000E+02  0.51100000000E-03 0. -1.
    9900012    2    1    2    0    0  0.19438577245E+02 -0.87199383867E+01 -0.37811738164E+02  0.47787272428E+02  0.20000006308E+02 0.  0.
        -12    1    1    2    0    0 -0.19438577245E+02  0.87199383867E+01  0.37811738164E+02  0.43400727572E+02  0.00000000000E+00 0.  1.
         11    1    3    3    0    0  0.12925405925E+02 -0.26363160421E+01 -0.21927931919E+02  0.25590046484E+02  0.51100000000E-03 0. -1.
        -11    1    3    3    0    0 -0.29271157014E+01  0.11302463856E+01 -0.58827678968E+01  0.66672649273E+01  0.51100000000E-03 0.  1.
        -12    1    3    3    0    0  0.94402870219E+01 -0.72138687302E+01 -0.10001038349E+02  0.15529961016E+02  0.00000000000E+00 0.  1.
</event>
<event>
 7    1  0.2530788E-009  0.4778727E+02  0.7816164E-02  0.1312668E+00
        -11   -1    0    0    0    0  0.00000000000E+00  0.00000000000E+00  0.45593999997E+02  0.45594000000E+02  0.51100000000E-03 0.  1.
         11   -1    0    0    0    0 -0.00000000000E+00 -0.00000000000E+00 -0.45593999997E+02  0.45594000000E+02  0.51100000000E-03 0. -1.
    9900012    2    1    2    0    0 -0.38354720625E+02  0.13166670502E+02 -0.15465359215E+02  0.47787272564E+02  0.20000006930E+02 0.  0.
        -12    1    1    2    0    0  0.38354720625E+02 -0.13166670502E+02  0.15465359215E+02  0.43400727436E+02  0.00000000000E+00 0.  1.
         11    1    3    3    0    0 -0.12228173500E+02  0.84831932979E-01 -0.10795164492E+02  0.16311682938E+02  0.51100000000E-03 0. -1.
        -11    1    3    3    0    0 -0.18118556887E+02  0.13740642919E+02 -0.55075893115E+01  0.23397027841E+02  0.51100000000E-03 0.  1.
        -12    1    3    3    0    0 -0.80079902379E+01 -0.65880435051E+00  0.83739458897E+00  0.80785617854E+01  0.00000000000E+00 0.  1.
</event>
<event>
 7    1  0.2530788E-009  0.4778727E+02  0.7816164E-02  0.1312668E+00
        -11   -1    0    0    0    0  0.00000000000E+00  0.00000000000E+00  0.45593999997E+02  0.45594000000E+02  0.51100000000E-03 0.  1.
         11   -1    0    0    0    0 -0.00000000000E+00 -0.00000000000E+00 -0.45593999997E+02  0.45594000000E+02  0.51100000000E-03 0. -1.
    9900012    2    1    2    0    0 -0.34009206487E+02  0.42567620835E+01 -0.26624747602E+02  0.47787270350E+02  0.19999996833E+02 0.  0.
        -12    1    1    2    0    0  0.34009206487E+02 -0.42567620835E+01  0.26624747602E+02  0.43400729650E+02  0.00000000000E+00 0.  1.
         11    1    3    3    0    0 -0.20637075048E+02 -0.10707821500E+01 -0.77428040225E+01  0.22067769605E+02  0.51100000000E-03 0. -1.
        -11    1    3    3    0    0  0.13154363647E+00  0.38302387363E+01 -0.34217524886E+01  0.51377449197E+01  0.51100000000E-03 0.  1.
        -12    1    3    3    0    0 -0.13503675076E+02  0.14973054972E+01 -0.15460191091E+02  0.20581755825E+02  0.00000000000E+00 0.  1.
</event>
<event>
 7    1  0.2530788E-009  0.4778727E+02  0.7816164E-02  0.1312668E+00
        -11   -1    0    0    0    0  0.00000000000E+00  0.00000000000E+00  0.45593999997E+02  0.45594000000E+02  0.51100000000E-03 0.  1.
         11   -1    0    0    0    0 -0.00000000000E+00 -0.00000000000E+00 -0.45593999997E+02  0.45594000000E+02  0.51100000000E-03 0. -1.
    9900012    2    1    2    0    0  0.27542077854E+02  0.91381176226E+01 -0.32273085175E+02  0.47787271055E+02  0.20000000048E+02 0.  0.
        -12    1    1    2    0    0 -0.27542077854E+02 -0.91381176226E+01  0.32273085175E+02  0.43400728945E+02  0.00000000000E+00 0.  1.
         11    1    3    3    0    0 -0.10752492400E+01  0.72780422967E+00 -0.52374628340E+01  0.53960056638E+01  0.51100000000E-03 0. -1.
        -11    1    3    3    0    0  0.23061593294E+02  0.82775303876E+00 -0.21137324291E+02  0.31293908973E+02  0.51100000000E-03 0.  1.
        -12    1    3    3    0    0  0.55557338005E+01  0.75825603542E+01 -0.58982980506E+01  0.11097356419E+02  0.00000000000E+00 0.  1.
</event>
<event>
 7    1  0.2530788E-009  0.4778727E+02  0.7816164E-02  0.1312668E+00
        -11   -1    0    0    0    0  0.00000000000E+00  0.00000000000E+00  0.45593999997E+02  0.45594000000E+02  0.51100000000E-03 0.  1.
         11   -1    0    0    0    0 -0.00000000000E+00 -0.00000000000E+00 -0.45593999997E+02  0.45594000000E+02  0.51100000000E-03 0. -1.
    9900012    2    1    2    0    0  0.60039175252E-01 -0.11303549051E+02 -0.41902856867E+02  0.47787271440E+02  0.20000001805E+02 0.  0.
        -12    1    1    2    0    0 -0.60039175252E-01  0.11303549051E+02  0.41902856867E+02  0.43400728560E+02  0.00000000000E+00 0.  1.
         11    1    3    3    0    0  0.47703191824E+01 -0.64672131709E+00 -0.18990775092E+02  0.19591419868E+02  0.51100000000E-03 0. -1.
        -11    1    3    3    0    0 -0.64580018322E+01 -0.68603526318E+01 -0.69825388638E+01  0.11727151195E+02  0.51100000000E-03 0.  1.
        -12    1    3    3    0    0  0.17477218251E+01 -0.37964751024E+01 -0.15929542911E+02  0.16468700378E+02  0.00000000000E+00 0.  1.
</event>
<event>
 7    1  0.2530788E-009  0.4778727E+02  0.7816164E-02  0.1312668E+00
        -11   -1    0    0    0    0  0.00000000000E+00  0.00000000000E+00  0.45593999997E+02  0.45594000000E+02  0.51100000000E-03 0.  1.
         11   -1    0    0    0    0 -0.00000000000E+00 -0.00000000000E+00 -0.45593999997E+02  0.45594000000E+02  0.51100000000E-03 0. -1.
    9900012    2    1    2    0    0 -0.25036552136E+02  0.21710111187E+01 -0.35384755927E+02  0.47787272078E+02  0.20000004713E+02 0.  0.
        -12    1    1    2    0    0  0.25036552136E+02 -0.21710111187E+01  0.35384755927E+02  0.43400727922E+02  0.00000000000E+00 0.  1.
         11    1    3    3    0    0 -0.33824100138E+01 -0.56717304202E+00 -0.76291646242E+01  0.83646001629E+01  0.51100000000E-03 0. -1.
        -11    1    3    3    0    0  0.22599203144E+01  0.13408609380E+01 -0.78455456167E+01  0.82739189123E+01  0.51100000000E-03 0.  1.
        -12    1    3    3    0    0 -0.23914062437E+02  0.13973232227E+01 -0.19910045686E+02  0.31148753003E+02  0.00000000000E+00 0.  1.
</event>
<event>
 7    1  0.2530788E-009  0.4778727E+02  0.7816164E-02  0.1312668E+00
        -11   -1    0    0    0    0  0.00000000000E+00  0.00000000000E+00  0.45593999997E+02  0.45594000000E+02  0.51100000000E-03 0.  1.
         11   -1    0    0    0    0 -0.00000000000E+00 -0.00000000000E+00 -0.45593999997E+02  0.45594000000E+02  0.51100000000E-03 0. -1.
    9900012    2    1    2    0    0  0.42286921931E+02 -0.94835473175E+01  0.23455936352E+01  0.47787271370E+02  0.20000001482E+02 0.  0.
        -12    1    1    2    0    0 -0.42286921931E+02  0.94835473175E+01 -0.23455936352E+01  0.43400728630E+02  0.00000000000E+00 0.  1.
         11    1    3    3    0    0  0.86263666072E+00 -0.56576418593E-01 -0.33773822698E+01  0.34862665069E+01  0.51100000000E-03 0. -1.
        -11    1    3    3    0    0  0.23369592728E+02 -0.47651985758E+01  0.87603187382E+01  0.25408427074E+02  0.51100000000E-03 0.  1.
         12    1    3    3    0    0  0.18054692543E+02 -0.46617723231E+01 -0.30373428331E+01  0.18892577788E+02  0.00000000000E+00 0. -1.
</event>
<event>
 7    1  0.2530788E-009  0.4778726E+02  0.7816164E-02  0.1312668E+00
        -11   -1    0    0    0    0  0.00000000000E+00  0.00000000000E+00  0.45593999997E+02  0.45594000000E+02  0.51100000000E-03 0.  1.
         11   -1    0    0    0    0 -0.00000000000E+00 -0.00000000000E+00 -0.45593999997E+02  0.45594000000E+02  0.51100000000E-03 0. -1.
    9900012    2    1    2    0    0  0.39158560352E+02 -0.13326326092E+02 -0.13139261899E+02  0.47787262458E+02  0.19999960850E+02 0.  0.
        -12    1    1    2    0    0 -0.39158560352E+02  0.13326326092E+02  0.13139261899E+02  0.43400737542E+02  0.00000000000E+00 0.  1.
         11    1    3    3    0    0  0.11671225053E+02  0.74498321149E+00 -0.96186446212E+01  0.15142351826E+02  0.51100000000E-03 0. -1.
        -11    1    3    3    0    0  0.22634850390E+02 -0.79233296894E+01  0.18039426869E+00  0.23982246515E+02  0.51100000000E-03 0.  1.
        -12    1    3    3    0    0  0.48524849088E+01 -0.61479796144E+01 -0.37010115463E+01  0.86626641165E+01  0.00000000000E+00 0.  1.
</event>
<event>
 7    1  0.2530788E-009  0.4778727E+02  0.7816164E-02  0.1312668E+00
        -11   -1    0    0    0    0  0.00000000000E+00  0.00000000000E+00  0.45593999997E+02  0.45594000000E+02  0.51100000000E-03 0.  1.
         11   -1    0    0    0    0 -0.00000000000E+00 -0.00000000000E+00 -0.45593999997E+02  0.45594000000E+02  0.51100000000E-03 0. -1.
    9900012    2    1    2    0    0  0.14561939268E+02  0.23648457973E+02 -0.33351518511E+02  0.47787269283E+02  0.19999991971E+02 0.  0.
        -12    1    1    2    0    0 -0.14561939268E+02 -0.23648457973E+02  0.33351518511E+02  0.43400730717E+02  0.00000000000E+00 0.  1.
         11    1    3    3    0    0  0.11978325227E+02  0.78156307012E+01 -0.73044383100E+01  0.16059862322E+02  0.51100000000E-03 0.  1.
        -11    1    3    3    0    0  0.51620604524E+01  0.13365235330E+02 -0.18684565845E+02  0.23545474823E+02  0.51100000000E-03 0. -1.
        -12    1    3    3    0    0 -0.25784464118E+01  0.24675919421E+01 -0.73625143555E+01  0.81819321389E+01  0.00000000000E+00 0.  1.
</event>
<event>
 7    1  0.2530788E-009  0.4778727E+02  0.7816164E-02  0.1312668E+00
        -11   -1    0    0    0    0  0.00000000000E+00  0.00000000000E+00  0.45593999997E+02  0.45594000000E+02  0.51100000000E-03 0.  1.
         11   -1    0    0    0    0 -0.00000000000E+00 -0.00000000000E+00 -0.45593999997E+02  0.45594000000E+02  0.51100000000E-03 0. -1.
    9900012    2    1    2    0    0  0.11162472629E+02 -0.83761790217E+01 -0.41095770493E+02  0.47787268179E+02  0.19999986934E+02 0.  0.
        -12    1    1    2    0    0 -0.11162472629E+02  0.83761790217E+01  0.41095770493E+02  0.43400731821E+02  0.00000000000E+00 0.  1.
         11    1    3    3    0    0  0.46952694495E+01 -0.51198141601E+01 -0.59740889087E+01  0.91623027011E+01  0.51100000000E-03 0. -1.
        -11    1    3    3    0    0 -0.70978568783E+00 -0.22861094828E+01  0.35203481290E+00  0.24195084337E+01  0.51100000000E-03 0.  1.
        -12    1    3    3    0    0  0.71769888678E+01 -0.97025537881E+00 -0.35473716397E+02  0.36205457044E+02  0.00000000000E+00 0.  1.
</event>
<event>
 7    1  0.2530788E-009  0.4778727E+02  0.7816164E-02  0.1312668E+00
        -11   -1    0    0    0    0  0.00000000000E+00  0.00000000000E+00  0.45593999997E+02  0.45594000000E+02  0.51100000000E-03 0. -1.
         11   -1    0    0    0    0 -0.00000000000E+00 -0.00000000000E+00 -0.45593999997E+02  0.45594000000E+02  0.51100000000E-03 0.  1.
    9900012    2    1    2    0    0 -0.39652823506E+02 -0.44118714090E+01  0.17082507910E+02  0.47787273072E+02  0.20000009246E+02 0.  0.
        -12    1    1    2    0    0  0.39652823506E+02  0.44118714090E+01 -0.17082507910E+02  0.43400726928E+02  0.00000000000E+00 0.  1.
         11    1    3    3    0    0 -0.35424137880E+02 -0.56074287000E+01  0.21006205548E+02  0.41564088742E+02  0.51100000000E-03 0. -1.
        -11    1    3    3    0    0 -0.32407988551E+01  0.13155744872E+01 -0.19297004788E+01  0.39946536332E+01  0.51100000000E-03 0.  1.
         12    1    3    3    0    0 -0.98788677072E+00 -0.12001719613E+00 -0.19939971586E+01  0.22285306970E+01  0.00000000000E+00 0. -1.
</event>
<event>
 7    1  0.2530788E-009  0.4778730E+02  0.7816164E-02  0.1312668E+00
        -11   -1    0    0    0    0  0.00000000000E+00  0.00000000000E+00  0.45593999997E+02  0.45594000000E+02  0.51100000000E-03 0. -1.
         11   -1    0    0    0    0 -0.00000000000E+00 -0.00000000000E+00 -0.45593999997E+02  0.45594000000E+02  0.51100000000E-03 0.  1.
    9900012    2    1    2    0    0 -0.38403073284E+02  0.14840830137E+02  0.13732249050E+02  0.47787297923E+02  0.20000122551E+02 0.  0.
        -12    1    1    2    0    0  0.38403073284E+02 -0.14840830137E+02 -0.13732249050E+02  0.43400702077E+02  0.00000000000E+00 0.  1.
         11    1    3    3    0    0 -0.15441068948E+02  0.50412726732E+01 -0.97144671642E+00  0.16272207884E+02  0.51100000000E-03 0. -1.
        -11    1    3    3    0    0 -0.22476557254E+02  0.90484829191E+01  0.16632562099E+02  0.29388990990E+02  0.51100000000E-03 0.  1.
        -12    1    3    3    0    0 -0.48544708172E+00  0.75107454456E+00 -0.19288663331E+01  0.21260990503E+01  0.00000000000E+00 0.  1.
</event>
<event>
 7    1  0.2530788E-009  0.4778727E+02  0.7816164E-02  0.1312668E+00
        -11   -1    0    0    0    0  0.00000000000E+00  0.00000000000E+00  0.45593999997E+02  0.45594000000E+02  0.51100000000E-03 0.  1.
         11   -1    0    0    0    0 -0.00000000000E+00 -0.00000000000E+00 -0.45593999997E+02  0.45594000000E+02  0.51100000000E-03 0. -1.
    9900012    2    1    2    0    0  0.42313190520E+02 -0.42779503383E+00 -0.96454404513E+01  0.47787267033E+02  0.19999981712E+02 0.  0.
        -12    1    1    2    0    0 -0.42313190520E+02  0.42779503383E+00  0.96454404513E+01  0.43400732967E+02  0.00000000000E+00 0.  1.
         11    1    3    3    0    0  0.29735316427E+02 -0.36179424074E+01 -0.33584482800E+01  0.30142291309E+02  0.51100000000E-03 0. -1.
        -11    1    3    3    0    0 -0.13221886692E+01  0.77555515612E+00  0.93519575232E+00  0.17956224640E+01  0.51100000000E-03 0.  1.
         12    1    3    3    0    0  0.13900062762E+02  0.24145922174E+01 -0.72221879236E+01  0.15849353260E+02  0.00000000000E+00 0. -1.
</event>
<event>
 7    1  0.2530788E-009  0.4778727E+02  0.7816164E-02  0.1312668E+00
        -11   -1    0    0    0    0  0.00000000000E+00  0.00000000000E+00  0.45593999997E+02  0.45594000000E+02  0.51100000000E-03 0.  1.
         11   -1    0    0    0    0 -0.00000000000E+00 -0.00000000000E+00 -0.45593999997E+02  0.45594000000E+02  0.51100000000E-03 0. -1.
    9900012    2    1    2    0    0 -0.21721668067E+02  0.37571351516E+02  0.43103664432E+00  0.47787272922E+02  0.20000008561E+02 0.  0.
        -12    1    1    2    0    0  0.21721668067E+02 -0.37571351516E+02 -0.43103664432E+00  0.43400727078E+02  0.00000000000E+00 0.  1.
         11    1    3    3    0    0 -0.16102674184E+02  0.22274731642E+02 -0.16281971955E+01  0.27533812158E+02  0.51100000000E-03 0. -1.
        -11    1    3    3    0    0 -0.90979962659E+01  0.87551897135E+01  0.26009819200E+00  0.12629114550E+02  0.51100000000E-03 0.  1.
         12    1    3    3    0    0  0.34790023829E+01  0.65414301599E+01  0.17991356478E+01  0.76243462144E+01  0.00000000000E+00 0. -1.
</event>
<event>
 7    1  0.2530788E-009  0.4778727E+02  0.7816164E-02  0.1312668E+00
        -11   -1    0    0    0    0  0.00000000000E+00  0.00000000000E+00  0.45593999997E+02  0.45594000000E+02  0.51100000000E-03 0.  1.
         11   -1    0    0    0    0 -0.00000000000E+00 -0.00000000000E+00 -0.45593999997E+02  0.45594000000E+02  0.51100000000E-03 0. -1.
    9900012    2    1    2    0    0  0.26251021457E+02  0.30815434244E+02 -0.15649797437E+02  0.47787271031E+02  0.19999999940E+02 0.  0.
        -12    1    1    2    0    0 -0.26251021457E+02 -0.30815434244E+02  0.15649797437E+02  0.43400728969E+02  0.00000000000E+00 0.  1.
         11    1    3    3    0    0  0.86857059901E+01  0.24477137471E+02 -0.90753642578E+01  0.27512433262E+02  0.51100000000E-03 0. -1.
        -11    1    3    3    0    0  0.12573019036E+02  0.28890600406E+01 -0.58455098035E+01  0.14163243298E+02  0.51100000000E-03 0.  1.
         12    1    3    3    0    0  0.49922964312E+01  0.34492367320E+01 -0.72892337615E+00  0.61115944711E+01  0.00000000000E+00 0. -1.
</event>
<event>
 7    1  0.2530788E-009  0.4778727E+02  0.7816164E-02  0.1312668E+00
        -11   -1    0    0    0    0  0.00000000000E+00  0.00000000000E+00  0.45593999997E+02  0.45594000000E+02  0.51100000000E-03 0.  1.
         11   -1    0    0    0    0 -0.00000000000E+00 -0.00000000000E+00 -0.45593999997E+02  0.45594000000E+02  0.51100000000E-03 0. -1.
    9900012    2    1    2    0    0 -0.47660766070E+01 -0.17933337167E+02 -0.39233955015E+02  0.47787270809E+02  0.19999998928E+02 0.  0.
        -12    1    1    2    0    0  0.47660766070E+01  0.17933337167E+02  0.39233955015E+02  0.43400729191E+02  0.00000000000E+00 0.  1.
         11    1    3    3    0    0  0.26520498040E+01 -0.12358802900E+02 -0.13360521317E+02  0.18392305658E+02  0.51100000000E-03 0. -1.
        -11    1    3    3    0    0 -0.17963663879E+01  0.28115866281E+01 -0.34291428668E+01  0.47844511314E+01  0.51100000000E-03 0.  1.
         12    1    3    3    0    0 -0.56217600231E+01 -0.83861208944E+01 -0.22444290831E+02  0.24610514020E+02  0.00000000000E+00 0. -1.
</event>
<event>
 7    1  0.2530788E-009  0.4778727E+02  0.7816164E-02  0.1312668E+00
        -11   -1    0    0    0    0  0.00000000000E+00  0.00000000000E+00  0.45593999997E+02  0.45594000000E+02  0.51100000000E-03 0.  1.
         11   -1    0    0    0    0 -0.00000000000E+00 -0.00000000000E+00 -0.45593999997E+02  0.45594000000E+02  0.51100000000E-03 0. -1.
    9900012    2    1    2    0    0 -0.22995681605E+02  0.84026877445E+01 -0.35835965509E+02  0.47787274686E+02  0.20000016603E+02 0.  0.
        -12    1    1    2    0    0  0.22995681605E+02 -0.84026877445E+01  0.35835965509E+02  0.43400725314E+02  0.00000000000E+00 0.  1.
         11    1    3    3    0    0 -0.70336976165E+01  0.27011971561E+01 -0.73330478006E+01  0.10513941152E+02  0.51100000000E-03 0. -1.
        -11    1    3    3    0    0 -0.32904344843E+01  0.84090144966E+01 -0.47185761382E+01  0.10188397565E+02  0.51100000000E-03 0.  1.
        -12    1    3    3    0    0 -0.12671549505E+02 -0.27075239082E+01 -0.23784341570E+02  0.27084935970E+02  0.00000000000E+00 0.  1.
</event>
<event>
 7    1  0.2530788E-009  0.4778727E+02  0.7816164E-02  0.1312668E+00
        -11   -1    0    0    0    0  0.00000000000E+00  0.00000000000E+00  0.45593999997E+02  0.45594000000E+02  0.51100000000E-03 0. -1.
         11   -1    0    0    0    0 -0.00000000000E+00 -0.00000000000E+00 -0.45593999997E+02  0.45594000000E+02  0.51100000000E-03 0.  1.
    9900012    2    1    2    0    0 -0.30308814837E+02 -0.25981404666E+02  0.17028375727E+02  0.47787271606E+02  0.20000002560E+02 0.  0.
        -12    1    1    2    0    0  0.30308814837E+02  0.25981404666E+02 -0.17028375727E+02  0.43400728394E+02  0.00000000000E+00 0.  1.
         11    1    3    3    0    0 -0.37072883911E+01  0.22305082893E+01  0.29873717692E+00  0.43368650666E+01  0.51100000000E-03 0. -1.
        -11    1    3    3    0    0 -0.25803396352E+01 -0.26655526913E+00 -0.69846953673E+00  0.26864594356E+01  0.51100000000E-03 0.  1.
         12    1    3    3    0    0 -0.24021186811E+02 -0.27945357686E+02  0.17428108087E+02  0.40763947104E+02  0.00000000000E+00 0. -1.
</event>
<event>
 7    1  0.2530788E-009  0.4778727E+02  0.7816164E-02  0.1312668E+00
        -11   -1    0    0    0    0  0.00000000000E+00  0.00000000000E+00  0.45593999997E+02  0.45594000000E+02  0.51100000000E-03 0.  1.
         11   -1    0    0    0    0 -0.00000000000E+00 -0.00000000000E+00 -0.45593999997E+02  0.45594000000E+02  0.51100000000E-03 0. -1.
    9900012    2    1    2    0    0  0.27994187090E+02 -0.14856700175E+02 -0.29651768954E+02  0.47787268981E+02  0.19999990590E+02 0.  0.
        -12    1    1    2    0    0 -0.27994187090E+02  0.14856700175E+02  0.29651768954E+02  0.43400731019E+02  0.00000000000E+00 0.  1.
         11    1    3    3    0    0  0.34617675376E+01  0.47747448386E+00 -0.11918587709E+02  0.12420328080E+02  0.51100000000E-03 0. -1.
        -11    1    3    3    0    0  0.46027445388E+01 -0.78863756876E+01 -0.35506350538E+01  0.97973051561E+01  0.51100000000E-03 0.  1.
         12    1    3    3    0    0  0.19929675014E+02 -0.74477989717E+01 -0.14182546191E+02  0.25569635745E+02  0.00000000000E+00 0. -1.
</event>
<event>
 7    1  0.2530788E-009  0.4778728E+02  0.7816164E-02  0.1312668E+00
        -11   -1    0    0    0    0  0.00000000000E+00  0.00000000000E+00  0.45593999997E+02  0.45594000000E+02  0.51100000000E-03 0.  1.
         11   -1    0    0    0    0 -0.00000000000E+00 -0.00000000000E+00 -0.45593999997E+02  0.45594000000E+02  0.51100000000E-03 0. -1.
    9900012    2    1    2    0    0  0.21408953737E+02  0.16762838494E+02 -0.33827309484E+02  0.47787275105E+02  0.20000018514E+02 0.  0.
        -12    1    1    2    0    0 -0.21408953737E+02 -0.16762838494E+02  0.33827309484E+02  0.43400724895E+02  0.00000000000E+00 0.  1.
         11    1    3    3    0    0  0.35777658744E+01  0.11789973576E+02 -0.74406786554E+01  0.14393317362E+02  0.51100000000E-03 0. -1.
        -11    1    3    3    0    0  0.14820156431E+02  0.57077289157E+01 -0.15955369810E+02  0.22511975303E+02  0.51100000000E-03 0.  1.
         12    1    3    3    0    0  0.30110314312E+01 -0.73486399788E+00 -0.10431261019E+02  0.10881982440E+02  0.00000000000E+00 0. -1.
</event>
<event>
 7    1  0.2530788E-009  0.4778728E+02  0.7816164E-02  0.1312668E+00
        -11   -1    0    0    0    0  0.00000000000E+00  0.00000000000E+00  0.45593999997E+02  0.45594000000E+02  0.51100000000E-03 0.  1.
         11   -1    0    0    0    0 -0.00000000000E+00 -0.00000000000E+00 -0.45593999997E+02  0.45594000000E+02  0.51100000000E-03 0. -1.
    9900012    2    1    2    0    0  0.67198811788E+01 -0.42739113915E+02  0.34400924273E+01  0.47787275383E+02  0.20000019783E+02 0.  0.
        -12    1    1    2    0    0 -0.67198811788E+01  0.42739113915E+02 -0.34400924273E+01  0.43400724617E+02  0.00000000000E+00 0.  1.
         11    1    3    3    0    0 -0.14968514308E+01 -0.11965257894E+02  0.25313041581E+00  0.12061178879E+02  0.51100000000E-03 0. -1.
        -11    1    3    3    0    0  0.54148230174E+00 -0.65521878690E+01 -0.58077556256E+01  0.87723653948E+01  0.51100000000E-03 0.  1.
        -12    1    3    3    0    0  0.76752503079E+01 -0.24221668152E+02  0.89947176371E+01  0.26953731110E+02  0.00000000000E+00 0.  1.
</event>
<event>
 7    1  0.2530788E-009  0.4778723E+02  0.7816164E-02  0.1312668E+00
        -11   -1    0    0    0    0  0.00000000000E+00  0.00000000000E+00  0.45593999997E+02  0.45594000000E+02  0.51100000000E-03 0.  1.
         11   -1    0    0    0    0 -0.00000000000E+00 -0.00000000000E+00 -0.45593999997E+02  0.45594000000E+02  0.51100000000E-03 0. -1.
    9900012    2    1    2    0    0  0.41889975152E+02 -0.67656619505E+01 -0.91149503708E+01  0.47787233646E+02  0.19999829485E+02 0.  0.
        -12    1    1    2    0    0 -0.41889975152E+02  0.67656619505E+01  0.91149503708E+01  0.43400766354E+02  0.00000000000E+00 0.  1.
         11    1    3    3    0    0  0.19747773452E+02 -0.59460534488E+01 -0.74730247923E+01  0.21935729023E+02  0.51100000000E-03 0. -1.
        -11    1    3    3    0    0  0.82127818912E+01  0.61033454379E+01 -0.10380562195E+01  0.10284851623E+02  0.51100000000E-03 0.  1.
        -12    1    3    3    0    0  0.13929419808E+02 -0.69229539396E+01 -0.60386935904E+00  0.15566653001E+02  0.00000000000E+00 0.  1.
</event>
<event>
 7    1  0.2530788E-009  0.4778728E+02  0.7816164E-02  0.1312668E+00
        -11   -1    0    0    0    0  0.00000000000E+00  0.00000000000E+00  0.45593999997E+02  0.45594000000E+02  0.51100000000E-03 0. -1.
         11   -1    0    0    0    0 -0.00000000000E+00 -0.00000000000E+00 -0.45593999997E+02  0.45594000000E+02  0.51100000000E-03 0.  1.
    9900012    2    1    2    0    0 -0.46280618764E+01 -0.40730438031E+02  0.14256063315E+02  0.47787275580E+02  0.20000020679E+02 0.  0.
        -12    1    1    2    0    0  0.46280618764E+01  0.40730438031E+02 -0.14256063315E+02  0.43400724420E+02  0.00000000000E+00 0.  1.
         11    1    3    3    0    0 -0.43932659224E+01 -0.10972282144E+02 -0.35784429305E+01  0.12348968175E+02  0.51100000000E-03 0.  1.
        -11    1    3    3    0    0  0.34018455235E+01 -0.11162458703E+02  0.64489198886E+01  0.13332726850E+02  0.51100000000E-03 0. -1.
         12    1    3    3    0    0 -0.36366414775E+01 -0.18595697184E+02  0.11385586357E+02  0.22105580556E+02  0.00000000000E+00 0. -1.
</event>
<event>
 7    1  0.2530788E-009  0.4778728E+02  0.7816164E-02  0.1312668E+00
        -11   -1    0    0    0    0  0.00000000000E+00  0.00000000000E+00  0.45593999997E+02  0.45594000000E+02  0.51100000000E-03 0.  1.
         11   -1    0    0    0    0 -0.00000000000E+00 -0.00000000000E+00 -0.45593999997E+02  0.45594000000E+02  0.51100000000E-03 0. -1.
    9900012    2    1    2    0    0 -0.70818136253E+01 -0.13921870786E+02 -0.40492618499E+02  0.47787277387E+02  0.20000028919E+02 0.  0.
        -12    1    1    2    0    0  0.70818136253E+01  0.13921870786E+02  0.40492618499E+02  0.43400722613E+02  0.00000000000E+00 0.  1.
         11    1    3    3    0    0 -0.29837116127E+01 -0.43834191993E-01 -0.10281326091E+02  0.10705611747E+02  0.51100000000E-03 0. -1.
        -11    1    3    3    0    0 -0.88917733679E+01 -0.14101590551E+02 -0.24277218493E+02  0.29449988586E+02  0.51100000000E-03 0.  1.
        -12    1    3    3    0    0  0.47936713553E+01  0.22355395695E+00 -0.59340739152E+01  0.76316770546E+01  0.00000000000E+00 0.  1.
</event>
<event>
 7    1  0.2530788E-009  0.4778727E+02  0.7816164E-02  0.1312668E+00
        -11   -1    0    0    0    0  0.00000000000E+00  0.00000000000E+00  0.45593999997E+02  0.45594000000E+02  0.51100000000E-03 0.  1.
         11   -1    0    0    0    0 -0.00000000000E+00 -0.00000000000E+00 -0.45593999997E+02  0.45594000000E+02  0.51100000000E-03 0. -1.
    9900012    2    1    2    0    0 -0.14003241757E+02  0.71259526802E+01 -0.40456812166E+02  0.47787266919E+02  0.19999981192E+02 0.  0.
        -12    1    1    2    0    0  0.14003241757E+02 -0.71259526802E+01  0.40456812166E+02  0.43400733081E+02  0.00000000000E+00 0.  1.
         11    1    3    3    0    0 -0.91238409373E+01  0.83806491775E+01 -0.31946500284E+02  0.34264539027E+02  0.51100000000E-03 0. -1.
        -11    1    3    3    0    0 -0.29543969516E+01 -0.51153670371E+01 -0.33293369458E+01  0.67808499491E+01  0.51100000000E-03 0.  1.
        -12    1    3    3    0    0 -0.19250038683E+01  0.38606705399E+01 -0.51809749359E+01  0.67418779429E+01  0.00000000000E+00 0.  1.
</event>
<event>
 7    1  0.2530788E-009  0.4778732E+02  0.7816164E-02  0.1312668E+00
        -11   -1    0    0    0    0  0.00000000000E+00  0.00000000000E+00  0.45593999997E+02  0.45594000000E+02  0.51100000000E-03 0.  1.
         11   -1    0    0    0    0 -0.00000000000E+00 -0.00000000000E+00 -0.45593999997E+02  0.45594000000E+02  0.51100000000E-03 0. -1.
    9900012    2    1    2    0    0  0.33795501672E+02  0.26976921918E+02 -0.37052891563E+01  0.47787315476E+02  0.20000202581E+02 0.  0.
        -12    1    1    2    0    0 -0.33795501672E+02 -0.26976921918E+02  0.37052891563E+01  0.43400684524E+02  0.00000000000E+00 0.  1.
         11    1    3    3    0    0  0.13363187395E+02  0.13454705945E+02 -0.95334962853E+01  0.21224783653E+02  0.51100000000E-03 0. -1.
        -11    1    3    3    0    0  0.14499080839E+02  0.12722913896E+02  0.68878745243E+01  0.20482643845E+02  0.51100000000E-03 0.  1.
         12    1    3    3    0    0  0.59332334381E+01  0.79930207725E+00 -0.10596673953E+01  0.60798879784E+01  0.00000000000E+00 0. -1.
</event>
<event>
 7    1  0.2530788E-009  0.4778727E+02  0.7816164E-02  0.1312668E+00
        -11   -1    0    0    0    0  0.00000000000E+00  0.00000000000E+00  0.45593999997E+02  0.45594000000E+02  0.51100000000E-03 0.  1.
         11   -1    0    0    0    0 -0.00000000000E+00 -0.00000000000E+00 -0.45593999997E+02  0.45594000000E+02  0.51100000000E-03 0. -1.
    9900012    2    1    2    0    0  0.24502089221E+02 -0.18885148793E+02 -0.30440468221E+02  0.47787270436E+02  0.19999997227E+02 0.  0.
        -12    1    1    2    0    0 -0.24502089221E+02  0.18885148793E+02  0.30440468221E+02  0.43400729564E+02  0.00000000000E+00 0.  1.
         11    1    3    3    0    0 -0.84097234309E+00  0.20358419842E+00 -0.30740019016E+01  0.31934572112E+01  0.51100000000E-03 0.  1.
        -11    1    3    3    0    0  0.11792754405E+02 -0.16591791522E+01 -0.15446483492E+02  0.19504250420E+02  0.51100000000E-03 0. -1.
        -12    1    3    3    0    0  0.13550307160E+02 -0.17429553839E+02 -0.11919982828E+02  0.25089562805E+02  0.00000000000E+00 0.  1.
</event>
<event>
 7    1  0.2530788E-009  0.4778726E+02  0.7816164E-02  0.1312668E+00
        -11   -1    0    0    0    0  0.00000000000E+00  0.00000000000E+00  0.45593999997E+02  0.45594000000E+02  0.51100000000E-03 0. -1.
         11   -1    0    0    0    0 -0.00000000000E+00 -0.00000000000E+00 -0.45593999997E+02  0.45594000000E+02  0.51100000000E-03 0.  1.
    9900012    2    1    2    0    0  0.10741749848E+01  0.41637432509E+02  0.12198130620E+02  0.47787262351E+02  0.19999960365E+02 0.  0.
        -12    1    1    2    0    0 -0.10741749848E+01 -0.41637432509E+02 -0.12198130620E+02  0.43400737649E+02  0.00000000000E+00 0.  1.
         11    1    3    3    0    0 -0.37889606656E+01  0.17357307388E+02  0.11869253027E+02  0.21366129981E+02  0.51100000000E-03 0. -1.
        -11    1    3    3    0    0 -0.20760019748E+01  0.14763701350E+01 -0.37317358166E+00  0.25746284699E+01  0.51100000000E-03 0.  1.
         12    1    3    3    0    0  0.69391376252E+01  0.22803754986E+02  0.70205117517E+00  0.23846503900E+02  0.00000000000E+00 0. -1.
</event>
<event>
 7    1  0.2530788E-009  0.4778727E+02  0.7816164E-02  0.1312668E+00
        -11   -1    0    0    0    0  0.00000000000E+00  0.00000000000E+00  0.45593999997E+02  0.45594000000E+02  0.51100000000E-03 0.  1.
         11   -1    0    0    0    0 -0.00000000000E+00 -0.00000000000E+00 -0.45593999997E+02  0.45594000000E+02  0.51100000000E-03 0. -1.
    9900012    2    1    2    0    0  0.16529918446E+01 -0.43025991715E+00 -0.43367104626E+02  0.47787271097E+02  0.20000000240E+02 0.  0.
        -12    1    1    2    0    0 -0.16529918446E+01  0.43025991715E+00  0.43367104626E+02  0.43400728903E+02  0.00000000000E+00 0.  1.
         11    1    3    3    0    0  0.16095200763E+01 -0.60066972458E+01 -0.27327861388E+02  0.28026469185E+02  0.51100000000E-03 0. -1.
        -11    1    3    3    0    0 -0.15034140262E+01  0.74909543289E+01 -0.15440902191E+02  0.17227771511E+02  0.51100000000E-03 0.  1.
         12    1    3    3    0    0  0.15468857945E+01 -0.19145170002E+01 -0.59834104724E+00  0.25330304014E+01  0.00000000000E+00 0. -1.
</event>
<event>
 7    1  0.2530788E-009  0.4778727E+02  0.7816164E-02  0.1312668E+00
        -11   -1    0    0    0    0  0.00000000000E+00  0.00000000000E+00  0.45593999997E+02  0.45594000000E+02  0.51100000000E-03 0. -1.
         11   -1    0    0    0    0 -0.00000000000E+00 -0.00000000000E+00 -0.45593999997E+02  0.45594000000E+02  0.51100000000E-03 0.  1.
    9900012    2    1    2    0    0 -0.27688179494E+02 -0.59676966899E+01  0.32884257825E+02  0.47787273046E+02  0.20000009125E+02 0.  0.
        -12    1    1    2    0    0  0.27688179494E+02  0.59676966899E+01 -0.32884257825E+02  0.43400726954E+02  0.00000000000E+00 0.  1.
         11    1    3    3    0    0 -0.66824079081E+01 -0.49906537330E+01  0.19890980090E+02  0.21568780432E+02  0.51100000000E-03 0. -1.
        -11    1    3    3    0    0 -0.56207636988E+01 -0.39746470845E+01  0.23583668360E+01  0.72768604767E+01  0.51100000000E-03 0.  1.
         12    1    3    3    0    0 -0.15385007887E+02  0.29976041277E+01  0.10634910899E+02  0.18941632137E+02  0.00000000000E+00 0. -1.
</event>
<event>
 7    1  0.2530788E-009  0.4778727E+02  0.7816164E-02  0.1312668E+00
        -11   -1    0    0    0    0  0.00000000000E+00  0.00000000000E+00  0.45593999997E+02  0.45594000000E+02  0.51100000000E-03 0. -1.
         11   -1    0    0    0    0 -0.00000000000E+00 -0.00000000000E+00 -0.45593999997E+02  0.45594000000E+02  0.51100000000E-03 0.  1.
    9900012    2    1    2    0    0  0.14311829635E+02 -0.13457754420E+02  0.38699918896E+02  0.47787270236E+02  0.19999996312E+02 0.  0.
        -12    1    1    2    0    0 -0.14311829635E+02  0.13457754420E+02 -0.38699918896E+02  0.43400729764E+02  0.00000000000E+00 0.  1.
         11    1    3    3    0    0  0.13800649106E+02 -0.24217684018E+01  0.25764016611E+02  0.29327588208E+02  0.51100000000E-03 0. -1.
        -11    1    3    3    0    0 -0.25009773491E+01 -0.72875532948E+01  0.10624867346E+02  0.13124447688E+02  0.51100000000E-03 0.  1.
         12    1    3    3    0    0  0.30121578780E+01 -0.37484327238E+01  0.23110349391E+01  0.53352343394E+01  0.00000000000E+00 0. -1.
</event>
<event>
 7    1  0.2530788E-009  0.4778727E+02  0.7816164E-02  0.1312668E+00
        -11   -1    0    0    0    0  0.00000000000E+00  0.00000000000E+00  0.45593999997E+02  0.45594000000E+02  0.51100000000E-03 0. -1.
         11   -1    0    0    0    0 -0.00000000000E+00 -0.00000000000E+00 -0.45593999997E+02  0.45594000000E+02  0.51100000000E-03 0.  1.
    9900012    2    1    2    0    0 -0.80233400025E+01  0.42450858156E+02  0.41441792674E+01  0.47787267693E+02  0.19999984718E+02 0.  0.
        -12    1    1    2    0    0  0.80233400025E+01 -0.42450858156E+02 -0.41441792674E+01  0.43400732307E+02  0.00000000000E+00 0.  1.
         11    1    3    3    0    0  0.38091138268E+01  0.12273903199E+02  0.51128770108E+01  0.13831108396E+02  0.51100000000E-03 0. -1.
        -11    1    3    3    0    0 -0.97426980019E+01  0.14055128123E+02  0.26386707089E+01  0.17304027689E+02  0.51100000000E-03 0.  1.
         12    1    3    3    0    0 -0.20897558275E+01  0.16121826835E+02 -0.36073684523E+01  0.16652131607E+02  0.00000000000E+00 0. -1.
</event>
<event>
 7    1  0.2530788E-009  0.4778727E+02  0.7816164E-02  0.1312668E+00
        -11   -1    0    0    0    0  0.00000000000E+00  0.00000000000E+00  0.45593999997E+02  0.45594000000E+02  0.51100000000E-03 0.  1.
         11   -1    0    0    0    0 -0.00000000000E+00 -0.00000000000E+00 -0.45593999997E+02  0.45594000000E+02  0.51100000000E-03 0. -1.
    9900012    2    1    2    0    0 -0.83270116230E+01  0.18630919032E+02 -0.38303696463E+02  0.47787269254E+02  0.19999991837E+02 0.  0.
        -12    1    1    2    0    0  0.83270116230E+01 -0.18630919032E+02  0.38303696463E+02  0.43400730746E+02  0.00000000000E+00 0.  1.
         11    1    3    3    0    0 -0.14557199406E+02  0.14967196316E+02 -0.30207987872E+02  0.36721268383E+02  0.51100000000E-03 0. -1.
        -11    1    3    3    0    0  0.44593721899E+01  0.16798221761E+01 -0.42170791293E+01  0.63632978490E+01  0.51100000000E-03 0.  1.
         12    1    3    3    0    0  0.17708155927E+01  0.19839005393E+01 -0.38786294622E+01  0.47027030225E+01  0.00000000000E+00 0. -1.
</event>
<event>
 7    1  0.2530788E-009  0.4778730E+02  0.7816164E-02  0.1312668E+00
        -11   -1    0    0    0    0  0.00000000000E+00  0.00000000000E+00  0.45593999997E+02  0.45594000000E+02  0.51100000000E-03 0.  1.
         11   -1    0    0    0    0 -0.00000000000E+00 -0.00000000000E+00 -0.45593999997E+02  0.45594000000E+02  0.51100000000E-03 0. -1.
    9900012    2    1    2    0    0 -0.41260863323E+01 -0.23563191904E+02 -0.36212876792E+02  0.47787296703E+02  0.20000116987E+02 0.  0.
        -12    1    1    2    0    0  0.41260863323E+01  0.23563191904E+02  0.36212876792E+02  0.43400703297E+02  0.00000000000E+00 0.  1.
         11    1    3    3    0    0 -0.50284400043E+01 -0.69317878268E+01 -0.17604687698E+02  0.19577025325E+02  0.51100000000E-03 0. -1.
        -11    1    3    3    0    0  0.58178295749E+01 -0.13555897278E+02 -0.16260194010E+02  0.21954575866E+02  0.51100000000E-03 0.  1.
        -12    1    3    3    0    0 -0.49154759029E+01 -0.30755067996E+01 -0.23479950843E+01  0.62556955123E+01  0.00000000000E+00 0.  1.
</event>
<event>
 7    1  0.2530788E-009  0.4778727E+02  0.7816164E-02  0.1312668E+00
        -11   -1    0    0    0    0  0.00000000000E+00  0.00000000000E+00  0.45593999997E+02  0.45594000000E+02  0.51100000000E-03 0.  1.
         11   -1    0    0    0    0 -0.00000000000E+00 -0.00000000000E+00 -0.45593999997E+02  0.45594000000E+02  0.51100000000E-03 0. -1.
    9900012    2    1    2    0    0 -0.23615854305E+02  0.14164418285E+02 -0.33545252540E+02  0.47787270883E+02  0.19999999263E+02 0.  0.
        -12    1    1    2    0    0  0.23615854305E+02 -0.14164418285E+02  0.33545252540E+02  0.43400729117E+02  0.00000000000E+00 0.  1.
         11    1    3    3    0    0 -0.60343694186E+01  0.28646064041E+01 -0.59294385601E+01  0.89318433724E+01  0.51100000000E-03 0. -1.
        -11    1    3    3    0    0 -0.86924794438E+01 -0.15808523729E+01 -0.23617740249E+01  0.91452867594E+01  0.51100000000E-03 0.  1.
        -12    1    3    3    0    0 -0.88890054424E+01  0.12880664254E+02 -0.25254039956E+02  0.29710140751E+02  0.00000000000E+00 0.  1.
</event>
<event>
 7    1  0.2530788E-009  0.4778727E+02  0.7816164E-02  0.1312668E+00
        -11   -1    0    0    0    0  0.00000000000E+00  0.00000000000E+00  0.45593999997E+02  0.45594000000E+02  0.51100000000E-03 0.  1.
         11   -1    0    0    0    0 -0.00000000000E+00 -0.00000000000E+00 -0.45593999997E+02  0.45594000000E+02  0.51100000000E-03 0. -1.
    9900012    2    1    2    0    0  0.34661533285E+02  0.14293165117E+02 -0.21861082032E+02  0.47787269979E+02  0.19999995144E+02 0.  0.
        -12    1    1    2    0    0 -0.34661533285E+02 -0.14293165117E+02  0.21861082032E+02  0.43400730021E+02  0.00000000000E+00 0.  1.
         11    1    3    3    0    0  0.90436504429E+01 -0.94341066564E+00 -0.11044453290E+02  0.14305858442E+02  0.51100000000E-03 0. -1.
        -11    1    3    3    0    0  0.14968081515E+02  0.12390484754E+02 -0.23316274821E+01  0.19570489612E+02  0.51100000000E-03 0.  1.
         12    1    3    3    0    0  0.10649801327E+02  0.28460910287E+01 -0.84850012594E+01  0.13910921926E+02  0.00000000000E+00 0. -1.
</event>
<event>
 7    1  0.2530788E-009  0.4778727E+02  0.7816164E-02  0.1312668E+00
        -11   -1    0    0    0    0  0.00000000000E+00  0.00000000000E+00  0.45593999997E+02  0.45594000000E+02  0.51100000000E-03 0.  1.
         11   -1    0    0    0    0 -0.00000000000E+00 -0.00000000000E+00 -0.45593999997E+02  0.45594000000E+02  0.51100000000E-03 0. -1.
    9900012    2    1    2    0    0 -0.56293587563E+01  0.10037710414E+02 -0.41847077558E+02  0.47787271775E+02  0.20000003329E+02 0.  0.
        -12    1    1    2    0    0  0.56293587563E+01 -0.10037710414E+02  0.41847077558E+02  0.43400728225E+02  0.00000000000E+00 0.  1.
         11    1    3    3    0    0 -0.11711050973E+02  0.25876072131E+01 -0.22547504347E+02  0.25538879743E+02  0.51100000000E-03 0. -1.
        -11    1    3    3    0    0  0.47078307154E+01  0.81119888850E+01 -0.15048275792E+02  0.17731853775E+02  0.51100000000E-03 0.  1.
         12    1    3    3    0    0  0.13738615012E+01 -0.66188568446E+00 -0.42512974185E+01  0.45165382567E+01  0.00000000000E+00 0. -1.
</event>
<event>
 7    1  0.3061722E-009  0.4778727E+02  0.7816164E-02  0.1312668E+00
        -11   -1    0    0    0    0  0.00000000000E+00  0.00000000000E+00  0.45593999997E+02  0.45594000000E+02  0.51100000000E-03 0.  1.
         11   -1    0    0    0    0 -0.00000000000E+00 -0.00000000000E+00 -0.45593999997E+02  0.45594000000E+02  0.51100000000E-03 0. -1.
    9900012    2    1    2    0    0 -0.66774757708E+01 -0.38589268496E+02 -0.18705700400E+02  0.47787267827E+02  0.19999985330E+02 0.  0.
        -12    1    1    2    0    0  0.66774757708E+01  0.38589268496E+02  0.18705700400E+02  0.43400732173E+02  0.00000000000E+00 0.  1.
         11    1    3    3    0    0 -0.67261238450E+01 -0.28888914209E+02 -0.13065882363E+02  0.32411840249E+02  0.51100000000E-03 0. -1.
        -11    1    3    3    0    0 -0.21241663638E+01  0.43720220758E+00  0.16298912735E+01  0.27128904025E+01  0.51100000000E-03 0.  1.
        -12    1    3    3    0    0  0.21728144380E+01 -0.10137556494E+02 -0.72697093106E+01  0.12662537175E+02  0.00000000000E+00 0.  1.
</event>
<event>
 7    1  0.2530788E-009  0.4778727E+02  0.7816164E-02  0.1312668E+00
        -11   -1    0    0    0    0  0.00000000000E+00  0.00000000000E+00  0.45593999997E+02  0.45594000000E+02  0.51100000000E-03 0.  1.
         11   -1    0    0    0    0 -0.00000000000E+00 -0.00000000000E+00 -0.45593999997E+02  0.45594000000E+02  0.51100000000E-03 0. -1.
    9900012    2    1    2    0    0 -0.39976015579E+01  0.33104314464E+01 -0.43089252420E+02  0.47787269030E+02  0.19999990816E+02 0.  0.
        -12    1    1    2    0    0  0.39976015579E+01 -0.33104314464E+01  0.43089252420E+02  0.43400730970E+02  0.00000000000E+00 0.  1.
         11    1    3    3    0    0 -0.19970320641E+00  0.30119595412E+01 -0.10947464124E+02  0.11356000733E+02  0.51100000000E-03 0. -1.
        -11    1    3    3    0    0 -0.10821904905E+01 -0.54647575449E+01 -0.28608943337E+02  0.29146292224E+02  0.51100000000E-03 0.  1.
        -12    1    3    3    0    0 -0.27157078610E+01  0.57632294501E+01 -0.35328449597E+01  0.72849760734E+01  0.00000000000E+00 0.  1.
</event>
<event>
 7    1  0.2891466E-009  0.4778727E+02  0.7816164E-02  0.1312668E+00
        -11   -1    0    0    0    0  0.00000000000E+00  0.00000000000E+00  0.45593999997E+02  0.45594000000E+02  0.51100000000E-03 0.  1.
         11   -1    0    0    0    0 -0.00000000000E+00 -0.00000000000E+00 -0.45593999997E+02  0.45594000000E+02  0.51100000000E-03 0. -1.
    9900012    2    1    2    0    0  0.38869330797E+02 -0.64077336397E+01 -0.18213720043E+02  0.47787268154E+02  0.19999986819E+02 0.  0.
        -12    1    1    2    0    0 -0.38869330797E+02  0.64077336397E+01  0.18213720043E+02  0.43400731846E+02  0.00000000000E+00 0.  1.
         11    1    3    3    0    0  0.24868470027E+02 -0.87606179517E+00 -0.93327358218E+01  0.26576460334E+02  0.51100000000E-03 0. -1.
        -11    1    3    3    0    0  0.71193515801E+01 -0.33863865162E+01 -0.11148541462E+02  0.13654404328E+02  0.51100000000E-03 0.  1.
        -12    1    3    3    0    0  0.68815091904E+01 -0.21452853284E+01  0.22675572410E+01  0.75564034910E+01  0.00000000000E+00 0.  1.
</event>
<event>
 7    1  0.2530788E-009  0.4778725E+02  0.7816164E-02  0.1312668E+00
        -11   -1    0    0    0    0  0.00000000000E+00  0.00000000000E+00  0.45593999997E+02  0.45594000000E+02  0.51100000000E-03 0.  1.
         11   -1    0    0    0    0 -0.00000000000E+00 -0.00000000000E+00 -0.45593999997E+02  0.45594000000E+02  0.51100000000E-03 0. -1.
    9900012    2    1    2    0    0  0.30273132549E+01  0.27193709077E+02 -0.33689209150E+02  0.47787248255E+02  0.19999896092E+02 0.  0.
        -12    1    1    2    0    0 -0.30273132549E+01 -0.27193709077E+02  0.33689209150E+02  0.43400751745E+02  0.00000000000E+00 0.  1.
         11    1    3    3    0    0  0.77338772223E+01  0.11603020357E+02 -0.60373889473E+01  0.15195163831E+02  0.51100000000E-03 0. -1.
        -11    1    3    3    0    0  0.26525849523E+00  0.69753617079E+01 -0.14591051089E+02  0.16174820097E+02  0.51100000000E-03 0.  1.
         12    1    3    3    0    0 -0.49718224627E+01  0.86153270126E+01 -0.13060769114E+02  0.16417264327E+02  0.00000000000E+00 0. -1.
</event>
<event>
 7    1  0.2530788E-009  0.4778727E+02  0.7816164E-02  0.1312668E+00
        -11   -1    0    0    0    0  0.00000000000E+00  0.00000000000E+00  0.45593999997E+02  0.45594000000E+02  0.51100000000E-03 0.  1.
         11   -1    0    0    0    0 -0.00000000000E+00 -0.00000000000E+00 -0.45593999997E+02  0.45594000000E+02  0.51100000000E-03 0. -1.
    9900012    2    1    2    0    0 -0.27176180309E+02  0.17236015813E+02 -0.29120409779E+02  0.47787270939E+02  0.19999999521E+02 0.  0.
        -12    1    1    2    0    0  0.27176180309E+02 -0.17236015813E+02  0.29120409779E+02  0.43400729061E+02  0.00000000000E+00 0.  1.
         11    1    3    3    0    0 -0.58819345185E+01  0.31525265469E+01 -0.95779831661E+01  0.11673617224E+02  0.51100000000E-03 0. -1.
        -11    1    3    3    0    0 -0.14988567854E+02  0.47637705586E+01 -0.19249326924E+02  0.24857338223E+02  0.51100000000E-03 0.  1.
        -12    1    3    3    0    0 -0.63056779371E+01  0.93197187074E+01 -0.29309968900E+00  0.11256315492E+02  0.00000000000E+00 0.  1.
</event>
<event>
 7    1  0.2530788E-009  0.4778726E+02  0.7816164E-02  0.1312668E+00
        -11   -1    0    0    0    0  0.00000000000E+00  0.00000000000E+00  0.45593999997E+02  0.45594000000E+02  0.51100000000E-03 0.  1.
         11   -1    0    0    0    0 -0.00000000000E+00 -0.00000000000E+00 -0.45593999997E+02  0.45594000000E+02  0.51100000000E-03 0. -1.
    9900012    2    1    2    0    0 -0.37131039219E+02  0.10758504085E+01 -0.22444426976E+02  0.47787264640E+02  0.19999970798E+02 0.  0.
        -12    1    1    2    0    0  0.37131039219E+02 -0.10758504085E+01  0.22444426976E+02  0.43400735360E+02  0.00000000000E+00 0.  1.
         11    1    3    3    0    0 -0.16970449312E+02 -0.40627190961E+01 -0.16066385040E+02  0.23719834839E+02  0.51100000000E-03 0. -1.
        -11    1    3    3    0    0 -0.15439444335E+02  0.14849951993E+01 -0.25062417676E+00  0.15512719454E+02  0.51100000000E-03 0.  1.
        -12    1    3    3    0    0 -0.47211455719E+01  0.36535743053E+01 -0.61274177595E+01  0.85547103467E+01  0.00000000000E+00 0.  1.
</event>
<event>
 7    1  0.2530788E-009  0.4778727E+02  0.7816164E-02  0.1312668E+00
        -11   -1    0    0    0    0  0.00000000000E+00  0.00000000000E+00  0.45593999997E+02  0.45594000000E+02  0.51100000000E-03 0. -1.
         11   -1    0    0    0    0 -0.00000000000E+00 -0.00000000000E+00 -0.45593999997E+02  0.45594000000E+02  0.51100000000E-03 0.  1.
    9900012    2    1    2    0    0 -0.19004499933E+02  0.24148838229E+02  0.30647767161E+02  0.47787273768E+02  0.20000012418E+02 0.  0.
        -12    1    1    2    0    0  0.19004499933E+02 -0.24148838229E+02 -0.30647767161E+02  0.43400726232E+02  0.00000000000E+00 0.  1.
         11    1    3    3    0    0 -0.45011678887E+01  0.86787867669E+01  0.22210075650E+02  0.24266629613E+02  0.51100000000E-03 0. -1.
        -11    1    3    3    0    0 -0.93608760110E+01  0.12138368953E+02  0.36829503804E+01  0.15764838226E+02  0.51100000000E-03 0.  1.
         12    1    3    3    0    0 -0.51424560329E+01  0.33316825090E+01  0.47547411307E+01  0.77558059292E+01  0.00000000000E+00 0. -1.
</event>
<event>
 7    1  0.2530788E-009  0.4778728E+02  0.7816164E-02  0.1312668E+00
        -11   -1    0    0    0    0  0.00000000000E+00  0.00000000000E+00  0.45593999997E+02  0.45594000000E+02  0.51100000000E-03 0. -1.
         11   -1    0    0    0    0 -0.00000000000E+00 -0.00000000000E+00 -0.45593999997E+02  0.45594000000E+02  0.51100000000E-03 0.  1.
    9900012    2    1    2    0    0  0.31141229150E+02  0.28274070053E+02  0.10696877179E+02  0.47787281438E+02  0.20000047389E+02 0.  0.
        -12    1    1    2    0    0 -0.31141229150E+02 -0.28274070053E+02 -0.10696877179E+02  0.43400718562E+02  0.00000000000E+00 0.  1.
         11    1    3    3    0    0  0.71031853082E+01  0.49437708791E+01 -0.33808638005E+01  0.92911975722E+01  0.51100000000E-03 0. -1.
        -11    1    3    3    0    0  0.18580027026E+02  0.23895677276E+02  0.12786252968E+02  0.32858926672E+02  0.51100000000E-03 0.  1.
        -12    1    3    3    0    0  0.54580168149E+01 -0.56537810200E+00  0.12914880114E+01  0.56371571943E+01  0.00000000000E+00 0.  1.
</event>
<event>
 7    1  0.2530788E-009  0.4778727E+02  0.7816164E-02  0.1312668E+00
        -11   -1    0    0    0    0  0.00000000000E+00  0.00000000000E+00  0.45593999997E+02  0.45594000000E+02  0.51100000000E-03 0. -1.
         11   -1    0    0    0    0 -0.00000000000E+00 -0.00000000000E+00 -0.45593999997E+02  0.45594000000E+02  0.51100000000E-03 0.  1.
    9900012    2    1    2    0    0 -0.35252794468E+02 -0.24215727333E+02  0.73798544577E+01  0.47787271667E+02  0.20000002838E+02 0.  0.
        -12    1    1    2    0    0  0.35252794468E+02  0.24215727333E+02 -0.73798544577E+01  0.43400728333E+02  0.00000000000E+00 0.  1.
         11    1    3    3    0    0 -0.25053884945E+02 -0.21099258489E+02  0.60847728034E+01  0.33315166515E+02  0.51100000000E-03 0. -1.
        -11    1    3    3    0    0 -0.86663928223E+01  0.18340289074E+01 -0.77390923836E+00  0.88920730065E+01  0.51100000000E-03 0.  1.
        -12    1    3    3    0    0 -0.15325167000E+01 -0.49504977517E+01  0.20689908927E+01  0.55800321450E+01  0.00000000000E+00 0.  1.
</event>
<event>
 7    1  0.2530788E-009  0.4778727E+02  0.7816164E-02  0.1312668E+00
        -11   -1    0    0    0    0  0.00000000000E+00  0.00000000000E+00  0.45593999997E+02  0.45594000000E+02  0.51100000000E-03 0.  1.
         11   -1    0    0    0    0 -0.00000000000E+00 -0.00000000000E+00 -0.45593999997E+02  0.45594000000E+02  0.51100000000E-03 0. -1.
    9900012    2    1    2    0    0 -0.40245282246E+01 -0.22576762290E+02 -0.36847203080E+02  0.47787269617E+02  0.19999993493E+02 0.  0.
        -12    1    1    2    0    0  0.40245282246E+01  0.22576762290E+02  0.36847203080E+02  0.43400730383E+02  0.00000000000E+00 0.  1.
         11    1    3    3    0    0 -0.16948133300E+01  0.24095648242E+01 -0.10589483623E+01  0.31304579155E+01  0.51100000000E-03 0. -1.
        -11    1    3    3    0    0 -0.40235726098E+00 -0.10794213919E+02 -0.81620610101E+01  0.13538692171E+02  0.51100000000E-03 0.  1.
         12    1    3    3    0    0 -0.19273576336E+01 -0.14192113195E+02 -0.27626193707E+02  0.31118119531E+02  0.00000000000E+00 0. -1.
</event>
<event>
 7    1  0.2530788E-009  0.4778727E+02  0.7816164E-02  0.1312668E+00
        -11   -1    0    0    0    0  0.00000000000E+00  0.00000000000E+00  0.45593999997E+02  0.45594000000E+02  0.51100000000E-03 0.  1.
         11   -1    0    0    0    0 -0.00000000000E+00 -0.00000000000E+00 -0.45593999997E+02  0.45594000000E+02  0.51100000000E-03 0. -1.
    9900012    2    1    2    0    0  0.15725482842E+02  0.33565791426E+02 -0.22575879095E+02  0.47787268652E+02  0.19999989091E+02 0.  0.
        -12    1    1    2    0    0 -0.15725482842E+02 -0.33565791426E+02  0.22575879095E+02  0.43400731348E+02  0.00000000000E+00 0.  1.
         11    1    3    3    0    0  0.32279320388E+01  0.11659130078E+02 -0.12715689286E+02  0.17551171291E+02  0.51100000000E-03 0. -1.
        -11    1    3    3    0    0  0.27432878484E+01  0.66027516746E-01  0.21352798033E+01  0.34769825930E+01  0.51100000000E-03 0.  1.
        -12    1    3    3    0    0  0.97542629544E+01  0.21840633831E+02 -0.11995469613E+02  0.26759114768E+02  0.00000000000E+00 0.  1.
</event>
<event>
 7    1  0.2530788E-009  0.4778727E+02  0.7816164E-02  0.1312668E+00
        -11   -1    0    0    0    0  0.00000000000E+00  0.00000000000E+00  0.45593999997E+02  0.45594000000E+02  0.51100000000E-03 0. -1.
         11   -1    0    0    0    0 -0.00000000000E+00 -0.00000000000E+00 -0.45593999997E+02  0.45594000000E+02  0.51100000000E-03 0.  1.
    9900012    2    1    2    0    0 -0.39545822073E+02 -0.84350807193E+01 -0.15767072128E+02  0.47787271968E+02  0.20000004212E+02 0.  0.
        -12    1    1    2    0    0  0.39545822073E+02  0.84350807193E+01  0.15767072128E+02  0.43400728032E+02  0.00000000000E+00 0.  1.
         11    1    3    3    0    0 -0.28743299198E+02 -0.89316227115E+01 -0.17782433825E+02  0.34959492073E+02  0.51100000000E-03 0. -1.
        -11    1    3    3    0    0 -0.41041853357E+01 -0.28555604041E+01  0.18638602440E+01  0.53359664318E+01  0.51100000000E-03 0.  1.
         12    1    3    3    0    0 -0.66983375399E+01  0.33521023963E+01  0.15150145269E+00  0.74918134629E+01  0.00000000000E+00 0. -1.
</event>
<event>
 7    1  0.2877146E-009  0.4778727E+02  0.7816164E-02  0.1312668E+00
        -11   -1    0    0    0    0  0.00000000000E+00  0.00000000000E+00  0.45593999997E+02  0.45594000000E+02  0.51100000000E-03 0. -1.
         11   -1    0    0    0    0 -0.00000000000E+00 -0.00000000000E+00 -0.45593999997E+02  0.45594000000E+02  0.51100000000E-03 0.  1.
    9900012    2    1    2    0    0 -0.95472173498E+01 -0.11066370072E+02  0.40865745986E+02  0.47787273039E+02  0.20000009094E+02 0.  0.
        -12    1    1    2    0    0  0.95472173498E+01  0.11066370072E+02 -0.40865745986E+02  0.43400726961E+02  0.00000000000E+00 0.  1.
         11    1    3    3    0    0 -0.11511319617E+02 -0.73037473884E+01  0.13434768071E+02  0.19140224623E+02  0.51100000000E-03 0.  1.
        -11    1    3    3    0    0  0.10892743404E+01  0.16357445020E+01  0.14124973954E+02  0.14261033207E+02  0.51100000000E-03 0. -1.
        -12    1    3    3    0    0  0.87482792683E+00 -0.53983671860E+01  0.13306003962E+02  0.14386015210E+02  0.00000000000E+00 0.  1.
</event>
<event>
 7    1  0.2530788E-009  0.4778727E+02  0.7816164E-02  0.1312668E+00
        -11   -1    0    0    0    0  0.00000000000E+00  0.00000000000E+00  0.45593999997E+02  0.45594000000E+02  0.51100000000E-03 0.  1.
         11   -1    0    0    0    0 -0.00000000000E+00 -0.00000000000E+00 -0.45593999997E+02  0.45594000000E+02  0.51100000000E-03 0. -1.
    9900012    2    1    2    0    0  0.86835964784E-01 -0.16626372690E+02 -0.40089644127E+02  0.47787269874E+02  0.19999994661E+02 0.  0.
        -12    1    1    2    0    0 -0.86835964784E-01  0.16626372690E+02  0.40089644127E+02  0.43400730126E+02  0.00000000000E+00 0.  1.
         11    1    3    3    0    0 -0.45453681718E+01 -0.49534793365E+01 -0.47962977308E+01  0.82584382021E+01  0.51100000000E-03 0. -1.
        -11    1    3    3    0    0  0.79342161467E+01 -0.96298483338E+01 -0.18653199196E+02  0.22441648899E+02  0.51100000000E-03 0.  1.
        -12    1    3    3    0    0 -0.33020120101E+01 -0.20430450195E+01 -0.16640147200E+02  0.17087182773E+02  0.00000000000E+00 0.  1.
</event>
<event>
 7    1  0.2530788E-009  0.4778726E+02  0.7816164E-02  0.1312668E+00
        -11   -1    0    0    0    0  0.00000000000E+00  0.00000000000E+00  0.45593999997E+02  0.45594000000E+02  0.51100000000E-03 0.  1.
         11   -1    0    0    0    0 -0.00000000000E+00 -0.00000000000E+00 -0.45593999997E+02  0.45594000000E+02  0.51100000000E-03 0. -1.
    9900012    2    1    2    0    0 -0.82227775865E+00 -0.27047954801E+02 -0.33931638049E+02  0.47787261984E+02  0.19999958689E+02 0.  0.
        -12    1    1    2    0    0  0.82227775865E+00  0.27047954801E+02  0.33931638049E+02  0.43400738016E+02  0.00000000000E+00 0.  1.
         11    1    3    3    0    0 -0.66020049907E+00 -0.28324014568E+02 -0.27786678796E+02  0.39683563155E+02  0.51100000000E-03 0. -1.
        -11    1    3    3    0    0 -0.81058050079E+00  0.15628386012E+01 -0.68685514063E+01  0.70905926356E+01  0.51100000000E-03 0.  1.
        -12    1    3    3    0    0  0.64850324121E+00 -0.28677883485E+00  0.72359215308E+00  0.10131061928E+01  0.00000000000E+00 0.  1.
</event>
<event>
 7    1  0.2530788E-009  0.4778727E+02  0.7816164E-02  0.1312668E+00
        -11   -1    0    0    0    0  0.00000000000E+00  0.00000000000E+00  0.45593999997E+02  0.45594000000E+02  0.51100000000E-03 0.  1.
         11   -1    0    0    0    0 -0.00000000000E+00 -0.00000000000E+00 -0.45593999997E+02  0.45594000000E+02  0.51100000000E-03 0. -1.
    9900012    2    1    2    0    0 -0.62227631220E+01 -0.33054688092E+02 -0.27427868062E+02  0.47787272677E+02  0.20000007444E+02 0.  0.
        -12    1    1    2    0    0  0.62227631220E+01  0.33054688092E+02  0.27427868062E+02  0.43400727323E+02  0.00000000000E+00 0.  1.
         11    1    3    3    0    0 -0.34101761289E+01 -0.22654313238E+02 -0.77865983835E+01  0.24196659360E+02  0.51100000000E-03 0. -1.
        -11    1    3    3    0    0  0.65340998983E+00  0.38164214676E+00  0.16545708420E+00  0.77457836971E+00  0.51100000000E-03 0.  1.
         12    1    3    3    0    0 -0.34659969829E+01 -0.10782017000E+02 -0.19806726762E+02  0.22816034948E+02  0.00000000000E+00 0. -1.
</event>
<event>
 7    1  0.2530788E-009  0.4778724E+02  0.7816164E-02  0.1312668E+00
        -11   -1    0    0    0    0  0.00000000000E+00  0.00000000000E+00  0.45593999997E+02  0.45594000000E+02  0.51100000000E-03 0. -1.
         11   -1    0    0    0    0 -0.00000000000E+00 -0.00000000000E+00 -0.45593999997E+02  0.45594000000E+02  0.51100000000E-03 0.  1.
    9900012    2    1    2    0    0 -0.26748325131E+02 -0.25889740268E+02  0.22313107171E+02  0.47787236181E+02  0.19999841042E+02 0.  0.
        -12    1    1    2    0    0  0.26748325131E+02  0.25889740268E+02 -0.22313107171E+02  0.43400763819E+02  0.00000000000E+00 0.  1.
         11    1    3    3    0    0 -0.17752446430E+01 -0.41945081106E+01  0.68447524201E+01  0.82216803505E+01  0.51100000000E-03 0. -1.
        -11    1    3    3    0    0 -0.35859660565E+01  0.18197520471E+01 -0.39529273046E+00  0.40406567133E+01  0.51100000000E-03 0.  1.
        -12    1    3    3    0    0 -0.21387114432E+02 -0.23514984204E+02  0.15863647482E+02  0.35524899117E+02  0.00000000000E+00 0.  1.
</event>
<event>
 7    1  0.2530788E-009  0.4778728E+02  0.7816164E-02  0.1312668E+00
        -11   -1    0    0    0    0  0.00000000000E+00  0.00000000000E+00  0.45593999997E+02  0.45594000000E+02  0.51100000000E-03 0.  1.
         11   -1    0    0    0    0 -0.00000000000E+00 -0.00000000000E+00 -0.45593999997E+02  0.45594000000E+02  0.51100000000E-03 0. -1.
    9900012    2    1    2    0    0  0.25340255957E+02  0.20319584199E+02 -0.28785559064E+02  0.47787280137E+02  0.20000041458E+02 0.  0.
        -12    1    1    2    0    0 -0.25340255957E+02 -0.20319584199E+02  0.28785559064E+02  0.43400719863E+02  0.00000000000E+00 0.  1.
         11    1    3    3    0    0  0.18286697690E+01  0.37333765629E+01 -0.10976199351E+02  0.11737081670E+02  0.51100000000E-03 0. -1.
        -11    1    3    3    0    0  0.20785770925E+02  0.18593027081E+02 -0.15094456535E+02  0.31711063485E+02  0.51100000000E-03 0.  1.
        -12    1    3    3    0    0  0.27258152622E+01 -0.20068194448E+01 -0.27149031782E+01  0.43391349823E+01  0.00000000000E+00 0.  1.
</event>
<event>
 7    1  0.2530788E-009  0.4778727E+02  0.7816164E-02  0.1312668E+00
        -11   -1    0    0    0    0  0.00000000000E+00  0.00000000000E+00  0.45593999997E+02  0.45594000000E+02  0.51100000000E-03 0.  1.
         11   -1    0    0    0    0 -0.00000000000E+00 -0.00000000000E+00 -0.45593999997E+02  0.45594000000E+02  0.51100000000E-03 0. -1.
    9900012    2    1    2    0    0 -0.36941054874E+01 -0.21188061341E+02 -0.37696723847E+02  0.47787270196E+02  0.19999996131E+02 0.  0.
        -12    1    1    2    0    0  0.36941054874E+01  0.21188061341E+02  0.37696723847E+02  0.43400729804E+02  0.00000000000E+00 0.  1.
         11    1    3    3    0    0  0.21494583447E+01 -0.13749167543E+02 -0.21068170581E+02  0.25249308726E+02  0.51100000000E-03 0. -1.
        -11    1    3    3    0    0 -0.90856750802E+01 -0.37856678514E+01 -0.82653280757E+01  0.12852875990E+02  0.51100000000E-03 0.  1.
        -12    1    3    3    0    0  0.32421112481E+01 -0.36532259469E+01 -0.83632251906E+01  0.96850854799E+01  0.00000000000E+00 0.  1.
</event>
<event>
 7    1  0.2530788E-009  0.4778726E+02  0.7816164E-02  0.1312668E+00
        -11   -1    0    0    0    0  0.00000000000E+00  0.00000000000E+00  0.45593999997E+02  0.45594000000E+02  0.51100000000E-03 0.  1.
         11   -1    0    0    0    0 -0.00000000000E+00 -0.00000000000E+00 -0.45593999997E+02  0.45594000000E+02  0.51100000000E-03 0. -1.
    9900012    2    1    2    0    0 -0.36503306489E+02 -0.16414813535E+02  0.16783528577E+02  0.47787258999E+02  0.19999945079E+02 0.  0.
        -12    1    1    2    0    0  0.36503306489E+02  0.16414813535E+02 -0.16783528577E+02  0.43400741001E+02  0.00000000000E+00 0.  1.
         11    1    3    3    0    0 -0.94570746862E+01 -0.27224492543E+01 -0.15016123258E+01  0.99550405022E+01  0.51100000000E-03 0. -1.
        -11    1    3    3    0    0 -0.18579606666E+02 -0.15382264941E+02  0.15847621564E+02  0.28861097832E+02  0.51100000000E-03 0.  1.
         12    1    3    3    0    0 -0.84666251368E+01  0.16899006609E+01  0.24375193380E+01  0.89711206643E+01  0.00000000000E+00 0. -1.
</event>
<event>
 7    1  0.2530788E-009  0.4778729E+02  0.7816164E-02  0.1312668E+00
        -11   -1    0    0    0    0  0.00000000000E+00  0.00000000000E+00  0.45593999997E+02  0.45594000000E+02  0.51100000000E-03 0. -1.
         11   -1    0    0    0    0 -0.00000000000E+00 -0.00000000000E+00 -0.45593999997E+02  0.45594000000E+02  0.51100000000E-03 0.  1.
    9900012    2    1    2    0    0 -0.10730091505E+02  0.14701821351E+02  0.39399784994E+02  0.47787291800E+02  0.20000094630E+02 0.  0.
        -12    1    1    2    0    0  0.10730091505E+02 -0.14701821351E+02 -0.39399784994E+02  0.43400708200E+02  0.00000000000E+00 0.  1.
         11    1    3    3    0    0  0.41118382115E+01  0.34736434237E+01  0.18393144022E+02  0.19164580856E+02  0.51100000000E-03 0. -1.
        -11    1    3    3    0    0 -0.10466117644E+02  0.10599792402E+02  0.14762028142E+02  0.20971711724E+02  0.51100000000E-03 0.  1.
        -12    1    3    3    0    0 -0.43758120728E+01  0.62838552514E+00  0.62446128300E+01  0.76509992197E+01  0.00000000000E+00 0.  1.
</event>
<event>
 7    1  0.2530788E-009  0.4778727E+02  0.7816164E-02  0.1312668E+00
        -11   -1    0    0    0    0  0.00000000000E+00  0.00000000000E+00  0.45593999997E+02  0.45594000000E+02  0.51100000000E-03 0.  1.
         11   -1    0    0    0    0 -0.00000000000E+00 -0.00000000000E+00 -0.45593999997E+02  0.45594000000E+02  0.51100000000E-03 0. -1.
    9900012    2    1    2    0    0  0.21707542287E+02  0.31541919336E+02  0.20433138828E+02  0.47787271551E+02  0.20000002310E+02 0.  0.
        -12    1    1    2    0    0 -0.21707542287E+02 -0.31541919336E+02 -0.20433138828E+02  0.43400728449E+02  0.00000000000E+00 0.  1.
         11    1    3    3    0    0  0.30886225340E+01  0.17088407052E+02  0.53797601827E+01  0.18179523223E+02  0.51100000000E-03 0. -1.
        -11    1    3    3    0    0  0.13852256689E+02  0.53320084371E+01  0.64105141072E+01  0.16168179264E+02  0.51100000000E-03 0.  1.
         12    1    3    3    0    0  0.47666630642E+01  0.91215038470E+01  0.86428645385E+01  0.13439569064E+02  0.00000000000E+00 0. -1.
</event>
<event>
 7    1  0.2530788E-009  0.4778727E+02  0.7816164E-02  0.1312668E+00
        -11   -1    0    0    0    0  0.00000000000E+00  0.00000000000E+00  0.45593999997E+02  0.45594000000E+02  0.51100000000E-03 0. -1.
         11   -1    0    0    0    0 -0.00000000000E+00 -0.00000000000E+00 -0.45593999997E+02  0.45594000000E+02  0.51100000000E-03 0.  1.
    9900012    2    1    2    0    0 -0.11704319519E+02 -0.30314579849E+02  0.28769050154E+02  0.47787273121E+02  0.20000009468E+02 0.  0.
        -12    1    1    2    0    0  0.11704319519E+02  0.30314579849E+02 -0.28769050154E+02  0.43400726879E+02  0.00000000000E+00 0.  1.
         11    1    3    3    0    0  0.25829866733E+01 -0.10454320940E+02  0.11774080220E+02  0.15955989839E+02  0.51100000000E-03 0. -1.
        -11    1    3    3    0    0 -0.10913674408E+02 -0.18219997859E+02  0.91305791283E+01  0.23118046772E+02  0.51100000000E-03 0.  1.
        -12    1    3    3    0    0 -0.33736317844E+01 -0.16402610509E+01  0.78643908062E+01  0.87132365103E+01  0.00000000000E+00 0.  1.
</event>
<event>
 7    1  0.2530788E-009  0.4778727E+02  0.7816164E-02  0.1312668E+00
        -11   -1    0    0    0    0  0.00000000000E+00  0.00000000000E+00  0.45593999997E+02  0.45594000000E+02  0.51100000000E-03 0. -1.
         11   -1    0    0    0    0 -0.00000000000E+00 -0.00000000000E+00 -0.45593999997E+02  0.45594000000E+02  0.51100000000E-03 0.  1.
    9900012    2    1    2    0    0  0.43207782839E+02  0.32949422026E+01  0.24195586495E+01  0.47787269522E+02  0.19999993056E+02 0.  0.
        -12    1    1    2    0    0 -0.43207782839E+02 -0.32949422026E+01 -0.24195586495E+01  0.43400730478E+02  0.00000000000E+00 0.  1.
         11    1    3    3    0    0  0.82391643871E+01 -0.13334861827E+01  0.32712955877E+01  0.89645630279E+01  0.51100000000E-03 0. -1.
        -11    1    3    3    0    0 -0.12986361910E+01 -0.15503961090E+01 -0.10970040524E+00  0.20253934164E+01  0.51100000000E-03 0.  1.
        -12    1    3    3    0    0  0.36267254643E+02  0.61788244943E+01 -0.74203653298E+00  0.36797313077E+02  0.00000000000E+00 0.  1.
</event>
<event>
 7    1  0.2530788E-009  0.4778728E+02  0.7816164E-02  0.1312668E+00
        -11   -1    0    0    0    0  0.00000000000E+00  0.00000000000E+00  0.45593999997E+02  0.45594000000E+02  0.51100000000E-03 0.  1.
         11   -1    0    0    0    0 -0.00000000000E+00 -0.00000000000E+00 -0.45593999997E+02  0.45594000000E+02  0.51100000000E-03 0. -1.
    9900012    2    1    2    0    0  0.20080555559E+02  0.32870563447E+02 -0.19998006183E+02  0.47787275304E+02  0.20000019420E+02 0.  0.
        -12    1    1    2    0    0 -0.20080555559E+02 -0.32870563447E+02  0.19998006183E+02  0.43400724696E+02  0.00000000000E+00 0.  1.
         11    1    3    3    0    0  0.10643017510E+02  0.14497121055E+02  0.10633985641E+01  0.18015858497E+02  0.51100000000E-03 0. -1.
        -11    1    3    3    0    0  0.38155815024E+01  0.10227954226E+02 -0.88524213542E+01  0.14054717142E+02  0.51100000000E-03 0.  1.
         12    1    3    3    0    0  0.56219565462E+01  0.81454881650E+01 -0.12208983393E+02  0.15716699665E+02  0.00000000000E+00 0. -1.
</event>
<event>
 7    1  0.2530788E-009  0.4778727E+02  0.7816164E-02  0.1312668E+00
        -11   -1    0    0    0    0  0.00000000000E+00  0.00000000000E+00  0.45593999997E+02  0.45594000000E+02  0.51100000000E-03 0.  1.
         11   -1    0    0    0    0 -0.00000000000E+00 -0.00000000000E+00 -0.45593999997E+02  0.45594000000E+02  0.51100000000E-03 0. -1.
    9900012    2    1    2    0    0  0.21127924839E+02 -0.36442330948E+02 -0.10449443776E+02  0.47787267654E+02  0.19999984541E+02 0.  0.
        -12    1    1    2    0    0 -0.21127924839E+02  0.36442330948E+02  0.10449443776E+02  0.43400732346E+02  0.00000000000E+00 0.  1.
         11    1    3    3    0    0  0.43911488179E+01  0.15622565538E+01  0.78136790746E+00  0.47258194579E+01  0.51100000000E-03 0. -1.
        -11    1    3    3    0    0  0.43331302472E+01 -0.10993335866E+02 -0.39558692836E+01  0.12461073519E+02  0.51100000000E-03 0.  1.
         12    1    3    3    0    0  0.12403645774E+02 -0.27011251636E+02 -0.72749423996E+01  0.30600374677E+02  0.00000000000E+00 0. -1.
</event>
<event>
 7    1  0.2530788E-009  0.4778728E+02  0.7816164E-02  0.1312668E+00
        -11   -1    0    0    0    0  0.00000000000E+00  0.00000000000E+00  0.45593999997E+02  0.45594000000E+02  0.51100000000E-03 0.  1.
         11   -1    0    0    0    0 -0.00000000000E+00 -0.00000000000E+00 -0.45593999997E+02  0.45594000000E+02  0.51100000000E-03 0. -1.
    9900012    2    1    2    0    0 -0.32354659192E+02 -0.26904692087E+02 -0.10627157146E+02  0.47787275389E+02  0.20000019810E+02 0.  0.
        -12    1    1    2    0    0  0.32354659192E+02  0.26904692087E+02  0.10627157146E+02  0.43400724611E+02  0.00000000000E+00 0.  1.
         11    1    3    3    0    0 -0.30965834580E+02 -0.23817754428E+02 -0.14606760606E+02  0.41707622720E+02  0.51100000000E-03 0. -1.
        -11    1    3    3    0    0 -0.12045133736E+01 -0.27131849331E+00  0.27249753156E+01  0.29916478609E+01  0.51100000000E-03 0.  1.
        -12    1    3    3    0    0 -0.18431123825E+00 -0.28156191653E+01  0.12546281451E+01  0.30880048088E+01  0.00000000000E+00 0.  1.
</event>
<event>
 7    1  0.2530788E-009  0.4778727E+02  0.7816164E-02  0.1312668E+00
        -11   -1    0    0    0    0  0.00000000000E+00  0.00000000000E+00  0.45593999997E+02  0.45594000000E+02  0.51100000000E-03 0. -1.
         11   -1    0    0    0    0 -0.00000000000E+00 -0.00000000000E+00 -0.45593999997E+02  0.45594000000E+02  0.51100000000E-03 0.  1.
    9900012    2    1    2    0    0  0.30520616513E+02  0.23899899903E+02 -0.19516918775E+02  0.47787269981E+02  0.19999995152E+02 0.  0.
        -12    1    1    2    0    0 -0.30520616513E+02 -0.23899899903E+02  0.19516918775E+02  0.43400730019E+02  0.00000000000E+00 0.  1.
         11    1    3    3    0    0  0.86435285192E+01  0.60039198207E+01 -0.12774882526E+02  0.16551593950E+02  0.51100000000E-03 0. -1.
        -11    1    3    3    0    0  0.19862398099E+02  0.19526445201E+02 -0.56353580063E+01  0.28417497788E+02  0.51100000000E-03 0.  1.
        -12    1    3    3    0    0  0.20146898946E+01 -0.16304651187E+01 -0.11066782426E+01  0.28181782426E+01  0.00000000000E+00 0.  1.
</event>
<event>
 7    1  0.2530788E-009  0.4778728E+02  0.7816164E-02  0.1312668E+00
        -11   -1    0    0    0    0  0.00000000000E+00  0.00000000000E+00  0.45593999997E+02  0.45594000000E+02  0.51100000000E-03 0.  1.
         11   -1    0    0    0    0 -0.00000000000E+00 -0.00000000000E+00 -0.45593999997E+02  0.45594000000E+02  0.51100000000E-03 0. -1.
    9900012    2    1    2    0    0 -0.13315608326E+02 -0.36645773781E+02 -0.19063160269E+02  0.47787282950E+02  0.20000054280E+02 0.  0.
        -12    1    1    2    0    0  0.13315608326E+02  0.36645773781E+02  0.19063160269E+02  0.43400717050E+02  0.00000000000E+00 0.  1.
         11    1    3    3    0    0 -0.11176802225E+02 -0.23682766700E+02 -0.10089476081E+02  0.28064067318E+02  0.51100000000E-03 0. -1.
        -11    1    3    3    0    0  0.24578501461E+01  0.11548255709E+01 -0.14473427305E+01  0.30772472569E+01  0.51100000000E-03 0.  1.
         12    1    3    3    0    0 -0.45966562473E+01 -0.14117832651E+02 -0.75263414569E+01  0.16645968375E+02  0.00000000000E+00 0. -1.
</event>
<event>
 7    1  0.2530788E-009  0.4778727E+02  0.7816164E-02  0.1312668E+00
        -11   -1    0    0    0    0  0.00000000000E+00  0.00000000000E+00  0.45593999997E+02  0.45594000000E+02  0.51100000000E-03 0. -1.
         11   -1    0    0    0    0 -0.00000000000E+00 -0.00000000000E+00 -0.45593999997E+02  0.45594000000E+02  0.51100000000E-03 0.  1.
    9900012    2    1    2    0    0  0.35530271748E+02  0.15370711304E+02  0.19620507235E+02  0.47787270967E+02  0.19999999646E+02 0.  0.
        -12    1    1    2    0    0 -0.35530271748E+02 -0.15370711304E+02 -0.19620507235E+02  0.43400729033E+02  0.00000000000E+00 0.  1.
         11    1    3    3    0    0 -0.90514515563E+00  0.46279624563E+01  0.50760460003E+00  0.47428880379E+01  0.51100000000E-03 0. -1.
        -11    1    3    3    0    0  0.45548073046E+01 -0.61980230557E+00  0.11973966355E+01  0.47501772013E+01  0.51100000000E-03 0.  1.
         12    1    3    3    0    0  0.31880609599E+02  0.11362551153E+02  0.17915506000E+02  0.38294205728E+02  0.00000000000E+00 0. -1.
</event>
<event>
 7    1  0.2530788E-009  0.4778727E+02  0.7816164E-02  0.1312668E+00
        -11   -1    0    0    0    0  0.00000000000E+00  0.00000000000E+00  0.45593999997E+02  0.45594000000E+02  0.51100000000E-03 0.  1.
         11   -1    0    0    0    0 -0.00000000000E+00 -0.00000000000E+00 -0.45593999997E+02  0.45594000000E+02  0.51100000000E-03 0. -1.
    9900012    2    1    2    0    0  0.21849750839E+01  0.41752878338E+02 -0.11642436140E+02  0.47787270918E+02  0.19999999422E+02 0.  0.
        -12    1    1    2    0    0 -0.21849750839E+01 -0.41752878338E+02  0.11642436140E+02  0.43400729082E+02  0.00000000000E+00 0.  1.
         11    1    3    3    0    0  0.49327823366E+01  0.12756809263E+02  0.65315993479E+00  0.13692886559E+02  0.51100000000E-03 0. -1.
        -11    1    3    3    0    0  0.70232297936E+00  0.10907335173E+02 -0.11196365276E+02  0.15646782858E+02  0.51100000000E-03 0.  1.
        -12    1    3    3    0    0 -0.34501302321E+01  0.18088733901E+02 -0.10992307987E+01  0.18447601500E+02  0.00000000000E+00 0.  1.
</event>
<event>
 7    1  0.2530788E-009  0.4778727E+02  0.7816164E-02  0.1312668E+00
        -11   -1    0    0    0    0  0.00000000000E+00  0.00000000000E+00  0.45593999997E+02  0.45594000000E+02  0.51100000000E-03 0.  1.
         11   -1    0    0    0    0 -0.00000000000E+00 -0.00000000000E+00 -0.45593999997E+02  0.45594000000E+02  0.51100000000E-03 0. -1.
    9900012    2    1    2    0    0 -0.38933283442E+02 -0.17416548691E+02 -0.80303511015E+01  0.47787271127E+02  0.20000000376E+02 0.  0.
        -12    1    1    2    0    0  0.38933283442E+02  0.17416548691E+02  0.80303511015E+01  0.43400728873E+02  0.00000000000E+00 0.  1.
         11    1    3    3    0    0 -0.17771820240E+02 -0.42486418445E+01 -0.55838609039E-01  0.18272702875E+02  0.51100000000E-03 0. -1.
        -11    1    3    3    0    0 -0.77502143917E+00 -0.67657431098E+01 -0.32223784048E+00  0.68176077583E+01  0.51100000000E-03 0.  1.
        -12    1    3    3    0    0 -0.20386441763E+02 -0.64021637367E+01 -0.76522746520E+01  0.22696960493E+02  0.00000000000E+00 0.  1.
</event>
<event>
 7    1  0.2530788E-009  0.4778727E+02  0.7816164E-02  0.1312668E+00
        -11   -1    0    0    0    0  0.00000000000E+00  0.00000000000E+00  0.45593999997E+02  0.45594000000E+02  0.51100000000E-03 0. -1.
         11   -1    0    0    0    0 -0.00000000000E+00 -0.00000000000E+00 -0.45593999997E+02  0.45594000000E+02  0.51100000000E-03 0.  1.
    9900012    2    1    2    0    0  0.23166429833E+02  0.21042498052E+02  0.30069136357E+02  0.47787272394E+02  0.20000006153E+02 0.  0.
        -12    1    1    2    0    0 -0.23166429833E+02 -0.21042498052E+02 -0.30069136357E+02  0.43400727606E+02  0.00000000000E+00 0.  1.
         11    1    3    3    0    0  0.68432589043E+01  0.18436612685E+02  0.14459753527E+02  0.24409493072E+02  0.51100000000E-03 0. -1.
        -11    1    3    3    0    0  0.92268725318E+01 -0.26449051036E+00  0.11308304852E+02  0.14597359036E+02  0.51100000000E-03 0.  1.
         12    1    3    3    0    0  0.70962983970E+01  0.28703758780E+01  0.43010779785E+01  0.87804202859E+01  0.00000000000E+00 0. -1.
</event>
<event>
 7    1  0.2530788E-009  0.4778727E+02  0.7816164E-02  0.1312668E+00
        -11   -1    0    0    0    0  0.00000000000E+00  0.00000000000E+00  0.45593999997E+02  0.45594000000E+02  0.51100000000E-03 0.  1.
         11   -1    0    0    0    0 -0.00000000000E+00 -0.00000000000E+00 -0.45593999997E+02  0.45594000000E+02  0.51100000000E-03 0. -1.
    9900012    2    1    2    0    0 -0.41029326697E+02 -0.25248811002E+01 -0.13922735201E+02  0.47787271558E+02  0.20000002344E+02 0.  0.
        -12    1    1    2    0    0  0.41029326697E+02  0.25248811002E+01  0.13922735201E+02  0.43400728442E+02  0.00000000000E+00 0.  1.
         11    1    3    3    0    0 -0.11007850856E+02  0.69473630820E+01 -0.12598995851E+01  0.13077690220E+02  0.51100000000E-03 0. -1.
        -11    1    3    3    0    0 -0.40699702582E+01 -0.17785031095E+01  0.74376779613E+00  0.45034344681E+01  0.51100000000E-03 0.  1.
         12    1    3    3    0    0 -0.25951505583E+02 -0.76937410727E+01 -0.13406603412E+02  0.30206146871E+02  0.00000000000E+00 0. -1.
</event>
<event>
 7    1  0.2530788E-009  0.4778727E+02  0.7816164E-02  0.1312668E+00
        -11   -1    0    0    0    0  0.00000000000E+00  0.00000000000E+00  0.45593999997E+02  0.45594000000E+02  0.51100000000E-03 0.  1.
         11   -1    0    0    0    0 -0.00000000000E+00 -0.00000000000E+00 -0.45593999997E+02  0.45594000000E+02  0.51100000000E-03 0. -1.
    9900012    2    1    2    0    0  0.24900547094E+02 -0.35429512052E+02 -0.28871440070E+01  0.47787272237E+02  0.20000005436E+02 0.  0.
        -12    1    1    2    0    0 -0.24900547094E+02  0.35429512052E+02  0.28871440070E+01  0.43400727763E+02  0.00000000000E+00 0.  1.
         11    1    3    3    0    0  0.11576525219E+02 -0.18337469819E+02  0.71510105211E+01  0.22834528400E+02  0.51100000000E-03 0. -1.
        -11    1    3    3    0    0  0.23868073066E+01 -0.69738929389E+01 -0.78281465977E+00  0.74124780536E+01  0.51100000000E-03 0.  1.
         12    1    3    3    0    0  0.10937214569E+02 -0.10118149295E+02 -0.92553398683E+01  0.17540265783E+02  0.00000000000E+00 0. -1.
</event>
<event>
 7    1  0.2530788E-009  0.4778727E+02  0.7816164E-02  0.1312668E+00
        -11   -1    0    0    0    0  0.00000000000E+00  0.00000000000E+00  0.45593999997E+02  0.45594000000E+02  0.51100000000E-03 0.  1.
         11   -1    0    0    0    0 -0.00000000000E+00 -0.00000000000E+00 -0.45593999997E+02  0.45594000000E+02  0.51100000000E-03 0. -1.
    9900012    2    1    2    0    0 -0.27333915565E+02 -0.51749419090E+01 -0.33312166280E+02  0.47787269751E+02  0.19999994104E+02 0.  0.
        -12    1    1    2    0    0  0.27333915565E+02  0.51749419090E+01  0.33312166280E+02  0.43400730249E+02  0.00000000000E+00 0.  1.
         11    1    3    3    0    0 -0.20653483000E+02 -0.35613153381E+01 -0.34791384862E+02  0.40616373396E+02  0.51100000000E-03 0. -1.
        -11    1    3    3    0    0 -0.47654072493E+01 -0.62760911790E+00  0.14360690864E+01  0.50165021816E+01  0.51100000000E-03 0.  1.
         12    1    3    3    0    0 -0.19150253152E+01 -0.98601745300E+00  0.43149496013E-01  0.21543941735E+01  0.00000000000E+00 0. -1.
</event>
<event>
 7    1  0.2530788E-009  0.4778727E+02  0.7816164E-02  0.1312668E+00
        -11   -1    0    0    0    0  0.00000000000E+00  0.00000000000E+00  0.45593999997E+02  0.45594000000E+02  0.51100000000E-03 0. -1.
         11   -1    0    0    0    0 -0.00000000000E+00 -0.00000000000E+00 -0.45593999997E+02  0.45594000000E+02  0.51100000000E-03 0.  1.
    9900012    2    1    2    0    0 -0.24874198010E+02 -0.27102729560E+02  0.23029104778E+02  0.47787270247E+02  0.19999996365E+02 0.  0.
        -12    1    1    2    0    0  0.24874198010E+02  0.27102729560E+02 -0.23029104778E+02  0.43400729753E+02  0.00000000000E+00 0.  1.
         11    1    3    3    0    0 -0.16490565681E+02 -0.16918604556E+02  0.17413860904E+02  0.29349965732E+02  0.51100000000E-03 0. -1.
        -11    1    3    3    0    0  0.24789142149E+01 -0.81090710822E+00  0.27806490206E+01  0.38124264268E+01  0.51100000000E-03 0.  1.
         12    1    3    3    0    0 -0.10862546543E+02 -0.93732178960E+01  0.28345948524E+01  0.14624878089E+02  0.00000000000E+00 0. -1.
</event>
<event>
 7    1  0.2530788E-009  0.4778727E+02  0.7816164E-02  0.1312668E+00
        -11   -1    0    0    0    0  0.00000000000E+00  0.00000000000E+00  0.45593999997E+02  0.45594000000E+02  0.51100000000E-03 0.  1.
         11   -1    0    0    0    0 -0.00000000000E+00 -0.00000000000E+00 -0.45593999997E+02  0.45594000000E+02  0.51100000000E-03 0. -1.
    9900012    2    1    2    0    0  0.19303640474E+02  0.20659609408E+01 -0.38816552627E+02  0.47787268577E+02  0.19999988751E+02 0.  0.
        -12    1    1    2    0    0 -0.19303640474E+02 -0.20659609408E+01  0.38816552627E+02  0.43400731423E+02  0.00000000000E+00 0.  1.
         11    1    3    3    0    0  0.75335365250E+01  0.38107553223E+01 -0.72268042531E+01  0.11113178154E+02  0.51100000000E-03 0. -1.
        -11    1    3    3    0    0 -0.79099743256E+00 -0.54297261689E+01 -0.10622604568E+02  0.11956058350E+02  0.51100000000E-03 0.  1.
        -12    1    3    3    0    0  0.12561101381E+02  0.36849317874E+01 -0.20967143806E+02  0.24718032074E+02  0.00000000000E+00 0.  1.
</event>
<event>
 7    1  0.2530788E-009  0.4778727E+02  0.7816164E-02  0.1312668E+00
        -11   -1    0    0    0    0  0.00000000000E+00  0.00000000000E+00  0.45593999997E+02  0.45594000000E+02  0.51100000000E-03 0.  1.
         11   -1    0    0    0    0 -0.00000000000E+00 -0.00000000000E+00 -0.45593999997E+02  0.45594000000E+02  0.51100000000E-03 0. -1.
    9900012    2    1    2    0    0  0.23273862066E+02  0.23737258467E+02 -0.27901492398E+02  0.47787269902E+02  0.19999994790E+02 0.  0.
        -12    1    1    2    0    0 -0.23273862066E+02 -0.23737258467E+02  0.27901492398E+02  0.43400730098E+02  0.00000000000E+00 0.  1.
         11    1    3    3    0    0  0.19364232817E+02  0.10134329351E+02 -0.20000502779E+02  0.29625972654E+02  0.51100000000E-03 0. -1.
        -11    1    3    3    0    0 -0.13225015032E+01  0.34163689139E+00  0.67588928511E+00  0.15239923157E+01  0.51100000000E-03 0.  1.
         12    1    3    3    0    0  0.52321307519E+01  0.13261292224E+02 -0.85768789047E+01  0.16637304932E+02  0.00000000000E+00 0. -1.
</event>
<event>
 7    1  0.2530788E-009  0.4778727E+02  0.7816164E-02  0.1312668E+00
        -11   -1    0    0    0    0  0.00000000000E+00  0.00000000000E+00  0.45593999997E+02  0.45594000000E+02  0.51100000000E-03 0.  1.
         11   -1    0    0    0    0 -0.00000000000E+00 -0.00000000000E+00 -0.45593999997E+02  0.45594000000E+02  0.51100000000E-03 0. -1.
    9900012    2    1    2    0    0  0.32166602352E+02 -0.14541856909E+02 -0.25248116521E+02  0.47787270776E+02  0.19999998778E+02 0.  0.
        -12    1    1    2    0    0 -0.32166602352E+02  0.14541856909E+02  0.25248116521E+02  0.43400729224E+02  0.00000000000E+00 0.  1.
         11    1    3    3    0    0  0.10714230321E+02 -0.13192409757E+02 -0.12375843892E+02  0.21023698981E+02  0.51100000000E-03 0. -1.
        -11    1    3    3    0    0  0.19437450515E+02 -0.20232723432E+00 -0.73629689229E+01  0.20786263023E+02  0.51100000000E-03 0.  1.
        -12    1    3    3    0    0  0.20149215161E+01 -0.11471199179E+01 -0.55093037067E+01  0.59773087720E+01  0.00000000000E+00 0.  1.
</event>
<event>
 7    1  0.2530788E-009  0.4778727E+02  0.7816164E-02  0.1312668E+00
        -11   -1    0    0    0    0  0.00000000000E+00  0.00000000000E+00  0.45593999997E+02  0.45594000000E+02  0.51100000000E-03 0.  1.
         11   -1    0    0    0    0 -0.00000000000E+00 -0.00000000000E+00 -0.45593999997E+02  0.45594000000E+02  0.51100000000E-03 0. -1.
    9900012    2    1    2    0    0  0.29718596947E+01  0.11984474082E+02 -0.41607253614E+02  0.47787272790E+02  0.20000007957E+02 0.  0.
        -12    1    1    2    0    0 -0.29718596947E+01 -0.11984474082E+02  0.41607253614E+02  0.43400727210E+02  0.00000000000E+00 0.  1.
         11    1    3    3    0    0 -0.20849465520E+01  0.13349437471E+02 -0.28381212169E+02  0.31433225851E+02  0.51100000000E-03 0. -1.
        -11    1    3    3    0    0  0.61799127863E+01 -0.16902977320E+01 -0.13675064069E+02  0.15101516680E+02  0.51100000000E-03 0.  1.
         12    1    3    3    0    0 -0.11231065396E+01  0.32533434266E+00  0.44902262399E+00  0.12525302594E+01  0.00000000000E+00 0. -1.
</event>
<event>
 7    1  0.2530788E-009  0.4778728E+02  0.7816164E-02  0.1312668E+00
        -11   -1    0    0    0    0  0.00000000000E+00  0.00000000000E+00  0.45593999997E+02  0.45594000000E+02  0.51100000000E-03 0. -1.
         11   -1    0    0    0    0 -0.00000000000E+00 -0.00000000000E+00 -0.45593999997E+02  0.45594000000E+02  0.51100000000E-03 0.  1.
    9900012    2    1    2    0    0 -0.10859164691E+02 -0.14207667060E+02  0.39545462088E+02  0.47787276126E+02  0.20000023169E+02 0.  0.
        -12    1    1    2    0    0  0.10859164691E+02  0.14207667060E+02 -0.39545462088E+02  0.43400723874E+02  0.00000000000E+00 0.  1.
         11    1    3    3    0    0 -0.28489257850E+01 -0.97105485804E+01  0.31133140878E+02  0.32736578823E+02  0.51100000000E-03 0. -1.
        -11    1    3    3    0    0 -0.51748079029E+01  0.17942820581E+01  0.46858176343E+01  0.72079797516E+01  0.51100000000E-03 0.  1.
         12    1    3    3    0    0 -0.28354310028E+01 -0.62914005375E+01  0.37265035758E+01  0.78427175517E+01  0.00000000000E+00 0. -1.
</event>
<event>
 7    1  0.2530788E-009  0.4778727E+02  0.7816164E-02  0.1312668E+00
        -11   -1    0    0    0    0  0.00000000000E+00  0.00000000000E+00  0.45593999997E+02  0.45594000000E+02  0.51100000000E-03 0.  1.
         11   -1    0    0    0    0 -0.00000000000E+00 -0.00000000000E+00 -0.45593999997E+02  0.45594000000E+02  0.51100000000E-03 0. -1.
    9900012    2    1    2    0    0 -0.86185542140E+01 -0.10862226073E+02 -0.41126094828E+02  0.47787272957E+02  0.20000008722E+02 0.  0.
        -12    1    1    2    0    0  0.86185542140E+01  0.10862226073E+02  0.41126094828E+02  0.43400727043E+02  0.00000000000E+00 0.  1.
         11    1    3    3    0    0 -0.29281567324E+01  0.19628405839E+01 -0.13547226977E+02  0.13998364334E+02  0.51100000000E-03 0. -1.
        -11    1    3    3    0    0 -0.82594448439E+01 -0.13587277464E+02 -0.26491174887E+02  0.30896842641E+02  0.51100000000E-03 0.  1.
        -12    1    3    3    0    0  0.25690473622E+01  0.76221080671E+00 -0.10876929644E+01  0.28920659826E+01  0.00000000000E+00 0.  1.
</event>
<event>
 7    1  0.2530788E-009  0.4778727E+02  0.7816164E-02  0.1312668E+00
        -11   -1    0    0    0    0  0.00000000000E+00  0.00000000000E+00  0.45593999997E+02  0.45594000000E+02  0.51100000000E-03 0. -1.
         11   -1    0    0    0    0 -0.00000000000E+00 -0.00000000000E+00 -0.45593999997E+02  0.45594000000E+02  0.51100000000E-03 0.  1.
    9900012    2    1    2    0    0 -0.22032189414E+02 -0.33271380610E+02  0.17065207797E+02  0.47787268955E+02  0.19999990474E+02 0.  0.
        -12    1    1    2    0    0  0.22032189414E+02  0.33271380610E+02 -0.17065207797E+02  0.43400731045E+02  0.00000000000E+00 0.  1.
         11    1    3    3    0    0 -0.10297779641E+02 -0.19507263258E+02  0.83619401658E+01  0.23590244360E+02  0.51100000000E-03 0. -1.
        -11    1    3    3    0    0 -0.64415464688E+01  0.81667876518E+00  0.51399284742E+01  0.82812650058E+01  0.51100000000E-03 0.  1.
        -12    1    3    3    0    0 -0.52928633037E+01 -0.14580796117E+02  0.35633391567E+01  0.15915759589E+02  0.00000000000E+00 0.  1.
</event>
<event>
 7    1  0.2530788E-009  0.4778727E+02  0.7816164E-02  0.1312668E+00
        -11   -1    0    0    0    0  0.00000000000E+00  0.00000000000E+00  0.45593999997E+02  0.45594000000E+02  0.51100000000E-03 0.  1.
         11   -1    0    0    0    0 -0.00000000000E+00 -0.00000000000E+00 -0.45593999997E+02  0.45594000000E+02  0.51100000000E-03 0. -1.
    9900012    2    1    2    0    0 -0.17002193383E+02 -0.39771308411E+02 -0.35765356832E+01  0.47787272356E+02  0.20000005980E+02 0.  0.
        -12    1    1    2    0    0  0.17002193383E+02  0.39771308411E+02  0.35765356832E+01  0.43400727644E+02  0.00000000000E+00 0.  1.
         11    1    3    3    0    0 -0.12918010475E+02 -0.32675432853E+02 -0.39346845571E+01  0.35355913927E+02  0.51100000000E-03 0. -1.
        -11    1    3    3    0    0 -0.45383515922E+01  0.42362675762E+00 -0.12543115142E+01  0.47275144040E+01  0.51100000000E-03 0.  1.
        -12    1    3    3    0    0  0.45416868396E+00 -0.75195023150E+01  0.16124603882E+01  0.77038440251E+01  0.00000000000E+00 0.  1.
</event>
<event>
 7    1  0.2530788E-009  0.4778727E+02  0.7816164E-02  0.1312668E+00
        -11   -1    0    0    0    0  0.00000000000E+00  0.00000000000E+00  0.45593999997E+02  0.45594000000E+02  0.51100000000E-03 0.  1.
         11   -1    0    0    0    0 -0.00000000000E+00 -0.00000000000E+00 -0.45593999997E+02  0.45594000000E+02  0.51100000000E-03 0. -1.
    9900012    2    1    2    0    0  0.27554735623E+02 -0.93946247283E+01 -0.32188528098E+02  0.47787265327E+02  0.19999973932E+02 0.  0.
        -12    1    1    2    0    0 -0.27554735623E+02  0.93946247283E+01  0.32188528098E+02  0.43400734673E+02  0.00000000000E+00 0.  1.
         11    1    3    3    0    0  0.15462026136E+02 -0.48997434028E+00 -0.18677938985E+02  0.24252417036E+02  0.51100000000E-03 0. -1.
        -11    1    3    3    0    0  0.56431571960E+01 -0.48546296585E+01  0.63338988760E+00  0.74708657645E+01  0.51100000000E-03 0.  1.
        -12    1    3    3    0    0  0.64495522914E+01 -0.40500207295E+01 -0.14143979000E+02  0.16063982527E+02  0.00000000000E+00 0.  1.
</event>
<event>
 7    1  0.2530788E-009  0.4778726E+02  0.7816164E-02  0.1312668E+00
        -11   -1    0    0    0    0  0.00000000000E+00  0.00000000000E+00  0.45593999997E+02  0.45594000000E+02  0.51100000000E-03 0.  1.
         11   -1    0    0    0    0 -0.00000000000E+00 -0.00000000000E+00 -0.45593999997E+02  0.45594000000E+02  0.51100000000E-03 0. -1.
    9900012    2    1    2    0    0 -0.26267333114E+02 -0.11697446432E+02 -0.32508788874E+02  0.47787258117E+02  0.19999941057E+02 0.  0.
        -12    1    1    2    0    0  0.26267333114E+02  0.11697446432E+02  0.32508788874E+02  0.43400741883E+02  0.00000000000E+00 0.  1.
         11    1    3    3    0    0 -0.20680295773E+02 -0.79955433126E+01 -0.31525321041E+02  0.38541525827E+02  0.51100000000E-03 0. -1.
        -11    1    3    3    0    0 -0.56613890212E+01 -0.52008990101E+01 -0.71266881824E+00  0.77206588623E+01  0.51100000000E-03 0.  1.
         12    1    3    3    0    0  0.74351679971E-01  0.14989958902E+01 -0.27079901510E+00  0.15250734270E+01  0.00000000000E+00 0. -1.
</event>
<event>
 7    1  0.2530788E-009  0.4778721E+02  0.7816164E-02  0.1312668E+00
        -11   -1    0    0    0    0  0.00000000000E+00  0.00000000000E+00  0.45593999997E+02  0.45594000000E+02  0.51100000000E-03 0.  1.
         11   -1    0    0    0    0 -0.00000000000E+00 -0.00000000000E+00 -0.45593999997E+02  0.45594000000E+02  0.51100000000E-03 0. -1.
    9900012    2    1    2    0    0 -0.14793692216E+02 -0.98279657660E+01 -0.39600336254E+02  0.47787206552E+02  0.19999705949E+02 0.  0.
        -12    1    1    2    0    0  0.14793692216E+02  0.98279657660E+01  0.39600336254E+02  0.43400793448E+02  0.00000000000E+00 0.  1.
         11    1    3    3    0    0 -0.57050218855E+01  0.24682592291E+01 -0.66365897130E+01  0.90930688778E+01  0.51100000000E-03 0. -1.
        -11    1    3    3    0    0 -0.29583839478E+01 -0.12748055172E+02 -0.16117519600E+02  0.20761488015E+02  0.51100000000E-03 0.  1.
        -12    1    3    3    0    0 -0.61302863827E+01  0.45183017717E+00 -0.16846226941E+02  0.17932649659E+02  0.00000000000E+00 0.  1.
</event>
<event>
 7    1  0.2530788E-009  0.4778727E+02  0.7816164E-02  0.1312668E+00
        -11   -1    0    0    0    0  0.00000000000E+00  0.00000000000E+00  0.45593999997E+02  0.45594000000E+02  0.51100000000E-03 0.  1.
         11   -1    0    0    0    0 -0.00000000000E+00 -0.00000000000E+00 -0.45593999997E+02  0.45594000000E+02  0.51100000000E-03 0. -1.
    9900012    2    1    2    0    0 -0.84926379815E+01 -0.28638944007E+02 -0.31485058860E+02  0.47787274831E+02  0.20000017266E+02 0.  0.
        -12    1    1    2    0    0  0.84926379815E+01  0.28638944007E+02  0.31485058860E+02  0.43400725169E+02  0.00000000000E+00 0.  1.
         11    1    3    3    0    0 -0.25862478119E+01 -0.13839266510E+02 -0.38226557529E+01  0.14588580210E+02  0.51100000000E-03 0. -1.
        -11    1    3    3    0    0 -0.63393709643E+00 -0.15822886073E+01  0.38532885921E+00  0.17475674722E+01  0.51100000000E-03 0.  1.
         12    1    3    3    0    0 -0.52724530731E+01 -0.13217388890E+02 -0.28047731967E+02  0.31451127149E+02  0.00000000000E+00 0. -1.
</event>
<event>
 7    1  0.2530788E-009  0.4778727E+02  0.7816164E-02  0.1312668E+00
        -11   -1    0    0    0    0  0.00000000000E+00  0.00000000000E+00  0.45593999997E+02  0.45594000000E+02  0.51100000000E-03 0. -1.
         11   -1    0    0    0    0 -0.00000000000E+00 -0.00000000000E+00 -0.45593999997E+02  0.45594000000E+02  0.51100000000E-03 0.  1.
    9900012    2    1    2    0    0  0.16834378214E+02 -0.36696122623E+02  0.15925499620E+02  0.47787271394E+02  0.20000001593E+02 0.  0.
        -12    1    1    2    0    0 -0.16834378214E+02  0.36696122623E+02 -0.15925499620E+02  0.43400728606E+02  0.00000000000E+00 0.  1.
         11    1    3    3    0    0  0.24502190625E+01 -0.22810823465E+02  0.97168255374E+01  0.24914934064E+02  0.51100000000E-03 0. -1.
        -11    1    3    3    0    0 -0.98918055569E+00  0.33987993300E+00  0.52234735918E+00  0.11691208515E+01  0.51100000000E-03 0.  1.
         12    1    3    3    0    0  0.15373339707E+02 -0.14225179091E+02  0.56863267238E+01  0.21703216479E+02  0.00000000000E+00 0. -1.
</event>
<event>
 7    1  0.2530788E-009  0.4778727E+02  0.7816164E-02  0.1312668E+00
        -11   -1    0    0    0    0  0.00000000000E+00  0.00000000000E+00  0.45593999997E+02  0.45594000000E+02  0.51100000000E-03 0.  1.
         11   -1    0    0    0    0 -0.00000000000E+00 -0.00000000000E+00 -0.45593999997E+02  0.45594000000E+02  0.51100000000E-03 0. -1.
    9900012    2    1    2    0    0 -0.25341806551E+01 -0.37159444838E+02 -0.22279515325E+02  0.47787271719E+02  0.20000003075E+02 0.  0.
        -12    1    1    2    0    0  0.25341806551E+01  0.37159444838E+02  0.22279515325E+02  0.43400728281E+02  0.00000000000E+00 0.  1.
         11    1    3    3    0    0  0.64162829350E+01 -0.23981988116E+02 -0.14145294255E+02  0.28572605595E+02  0.51100000000E-03 0. -1.
        -11    1    3    3    0    0 -0.57827140984E+01 -0.11266805242E+02 -0.32262173394E+01  0.13068632725E+02  0.51100000000E-03 0.  1.
         12    1    3    3    0    0 -0.31677494918E+01 -0.19106514794E+01 -0.49080037306E+01  0.61460333987E+01  0.00000000000E+00 0. -1.
</event>
<event>
 7    1  0.2530788E-009  0.4778727E+02  0.7816164E-02  0.1312668E+00
        -11   -1    0    0    0    0  0.00000000000E+00  0.00000000000E+00  0.45593999997E+02  0.45594000000E+02  0.51100000000E-03 0. -1.
         11   -1    0    0    0    0 -0.00000000000E+00 -0.00000000000E+00 -0.45593999997E+02  0.45594000000E+02  0.51100000000E-03 0.  1.
    9900012    2    1    2    0    0 -0.14712179032E+01 -0.41444852271E+02 -0.12797787150E+02  0.47787267082E+02  0.19999981933E+02 0.  0.
        -12    1    1    2    0    0  0.14712179032E+01  0.41444852271E+02  0.12797787150E+02  0.43400732918E+02  0.00000000000E+00 0.  1.
         11    1    3    3    0    0 -0.41265930935E+00 -0.27434811724E+02 -0.41395527235E+01  0.27748424803E+02  0.51100000000E-03 0. -1.
        -11    1    3    3    0    0  0.16684938038E+01 -0.40141375417E+01 -0.86463320320E+01  0.96776148738E+01  0.51100000000E-03 0.  1.
        -12    1    3    3    0    0 -0.27270523977E+01 -0.99959030058E+01 -0.11902394772E-01  0.10361227405E+02  0.00000000000E+00 0.  1.
</event>
<event>
 7    1  0.2530788E-009  0.4778727E+02  0.7816164E-02  0.1312668E+00
        -11   -1    0    0    0    0  0.00000000000E+00  0.00000000000E+00  0.45593999997E+02  0.45594000000E+02  0.51100000000E-03 0.  1.
         11   -1    0    0    0    0 -0.00000000000E+00 -0.00000000000E+00 -0.45593999997E+02  0.45594000000E+02  0.51100000000E-03 0. -1.
    9900012    2    1    2    0    0 -0.20464243382E+02 -0.65614887614E+01 -0.37706561138E+02  0.47787272532E+02  0.20000006781E+02 0.  0.
        -12    1    1    2    0    0  0.20464243382E+02  0.65614887614E+01  0.37706561138E+02  0.43400727468E+02  0.00000000000E+00 0.  1.
         11    1    3    3    0    0 -0.14028604856E+02  0.16765842385E+01 -0.12571680469E+02  0.18911896758E+02  0.51100000000E-03 0. -1.
        -11    1    3    3    0    0 -0.27178193439E+00 -0.71892593086E+01 -0.86878786194E+01  0.11280006649E+02  0.51100000000E-03 0.  1.
        -12    1    3    3    0    0 -0.61638565915E+01 -0.10488136913E+01 -0.16447002049E+02  0.17595369125E+02  0.00000000000E+00 0.  1.
</event>
<event>
 7    1  0.2530788E-009  0.4778729E+02  0.7816164E-02  0.1312668E+00
        -11   -1    0    0    0    0  0.00000000000E+00  0.00000000000E+00  0.45593999997E+02  0.45594000000E+02  0.51100000000E-03 0.  1.
         11   -1    0    0    0    0 -0.00000000000E+00 -0.00000000000E+00 -0.45593999997E+02  0.45594000000E+02  0.51100000000E-03 0. -1.
    9900012    2    1    2    0    0  0.19522218198E+02  0.30549780997E+02 -0.23858241793E+02  0.47787287750E+02  0.20000076169E+02 0.  0.
        -12    1    1    2    0    0 -0.19522218198E+02 -0.30549780997E+02  0.23858241793E+02  0.43400712250E+02  0.00000000000E+00 0.  1.
         11    1    3    3    0    0  0.19283373980E+01  0.19931476255E+02 -0.12485604335E+02  0.23598147103E+02  0.51100000000E-03 0. -1.
        -11    1    3    3    0    0  0.16142807136E+02  0.11052612252E+02 -0.11457458619E+02  0.22672093376E+02  0.51100000000E-03 0.  1.
        -12    1    3    3    0    0  0.14510736644E+01 -0.43430751028E+00  0.84821160572E-01  0.15170472709E+01  0.00000000000E+00 0.  1.
</event>
<event>
 7    1  0.2530788E-009  0.4778727E+02  0.7816164E-02  0.1312668E+00
        -11   -1    0    0    0    0  0.00000000000E+00  0.00000000000E+00  0.45593999997E+02  0.45594000000E+02  0.51100000000E-03 0.  1.
         11   -1    0    0    0    0 -0.00000000000E+00 -0.00000000000E+00 -0.45593999997E+02  0.45594000000E+02  0.51100000000E-03 0. -1.
    9900012    2    1    2    0    0 -0.34019035263E+02  0.30895289674E+01 -0.26772809511E+02  0.47787270991E+02  0.19999999755E+02 0.  0.
        -12    1    1    2    0    0  0.34019035263E+02 -0.30895289674E+01  0.26772809511E+02  0.43400729009E+02  0.00000000000E+00 0.  1.
         11    1    3    3    0    0 -0.26831558565E+02  0.66206120946E+01 -0.22017171895E+02  0.35334415207E+02  0.51100000000E-03 0. -1.
        -11    1    3    3    0    0 -0.81359550886E+01 -0.20591202737E+01 -0.11847005192E+01  0.84756862311E+01  0.51100000000E-03 0.  1.
         12    1    3    3    0    0  0.94847839084E+00 -0.14719628535E+01 -0.35709370970E+01  0.39771695526E+01  0.00000000000E+00 0. -1.
</event>
<event>
 7    1  0.2530788E-009  0.4778726E+02  0.7816164E-02  0.1312668E+00
        -11   -1    0    0    0    0  0.00000000000E+00  0.00000000000E+00  0.45593999997E+02  0.45594000000E+02  0.51100000000E-03 0.  1.
         11   -1    0    0    0    0 -0.00000000000E+00 -0.00000000000E+00 -0.45593999997E+02  0.45594000000E+02  0.51100000000E-03 0. -1.
    9900012    2    1    2    0    0  0.10049422008E+02  0.19004806753E+02 -0.37702133628E+02  0.47787257581E+02  0.19999938614E+02 0.  0.
        -12    1    1    2    0    0 -0.10049422008E+02 -0.19004806753E+02  0.37702133628E+02  0.43400742419E+02  0.00000000000E+00 0.  1.
         11    1    3    3    0    0  0.92875358507E+00  0.11418301973E+02 -0.88385073002E+01  0.14469257573E+02  0.51100000000E-03 0.  1.
        -11    1    3    3    0    0  0.21712244418E+01  0.30809805227E+01 -0.22656747901E+02  0.22968127530E+02  0.51100000000E-03 0. -1.
        -12    1    3    3    0    0  0.69494439810E+01  0.45055242576E+01 -0.62068784274E+01  0.10349872477E+02  0.00000000000E+00 0.  1.
</event>
<event>
 7    1  0.2530788E-009  0.4778727E+02  0.7816164E-02  0.1312668E+00
        -11   -1    0    0    0    0  0.00000000000E+00  0.00000000000E+00  0.45593999997E+02  0.45594000000E+02  0.51100000000E-03 0. -1.
         11   -1    0    0    0    0 -0.00000000000E+00 -0.00000000000E+00 -0.45593999997E+02  0.45594000000E+02  0.51100000000E-03 0.  1.
    9900012    2    1    2    0    0  0.85539177263E+01  0.42405638843E+02 -0.34950817786E+01  0.47787270619E+02  0.19999998060E+02 0.  0.
        -12    1    1    2    0    0 -0.85539177263E+01 -0.42405638843E+02  0.34950817786E+01  0.43400729381E+02  0.00000000000E+00 0.  1.
         11    1    3    3    0    0  0.62176724412E+01  0.26980751009E+02  0.10328649944E+00  0.27688102932E+02  0.51100000000E-03 0. -1.
        -11    1    3    3    0    0 -0.39531785941E+01  0.10701321864E+01 -0.96047293912E+00  0.42065796582E+01  0.51100000000E-03 0.  1.
        -12    1    3    3    0    0  0.62894238791E+01  0.14354755648E+02 -0.26378953389E+01  0.15892588029E+02  0.00000000000E+00 0.  1.
</event>
<event>
 7    1  0.2530788E-009  0.4778727E+02  0.7816164E-02  0.1312668E+00
        -11   -1    0    0    0    0  0.00000000000E+00  0.00000000000E+00  0.45593999997E+02  0.45594000000E+02  0.51100000000E-03 0.  1.
         11   -1    0    0    0    0 -0.00000000000E+00 -0.00000000000E+00 -0.45593999997E+02  0.45594000000E+02  0.51100000000E-03 0. -1.
    9900012    2    1    2    0    0 -0.35967012505E+01  0.33647199477E+02 -0.27176332592E+02  0.47787270218E+02  0.19999996230E+02 0.  0.
        -12    1    1    2    0    0  0.35967012505E+01 -0.33647199477E+02  0.27176332592E+02  0.43400729782E+02  0.00000000000E+00 0.  1.
         11    1    3    3    0    0 -0.92188031993E+01  0.17922957142E+02 -0.13293861037E+02  0.24144263639E+02  0.51100000000E-03 0. -1.
        -11    1    3    3    0    0  0.19103901023E+01  0.75761852030E+00 -0.59650688918E+01  0.63091697798E+01  0.51100000000E-03 0.  1.
         12    1    3    3    0    0  0.37117118465E+01  0.14966623815E+02 -0.79174026628E+01  0.17333836799E+02  0.00000000000E+00 0. -1.
</event>
<event>
 7    1  0.2530788E-009  0.4778727E+02  0.7816164E-02  0.1312668E+00
        -11   -1    0    0    0    0  0.00000000000E+00  0.00000000000E+00  0.45593999997E+02  0.45594000000E+02  0.51100000000E-03 0.  1.
         11   -1    0    0    0    0 -0.00000000000E+00 -0.00000000000E+00 -0.45593999997E+02  0.45594000000E+02  0.51100000000E-03 0. -1.
    9900012    2    1    2    0    0  0.16515051278E+02 -0.10970975786E+02 -0.38607174112E+02  0.47787272801E+02  0.20000008011E+02 0.  0.
        -12    1    1    2    0    0 -0.16515051278E+02  0.10970975786E+02  0.38607174112E+02  0.43400727199E+02  0.00000000000E+00 0.  1.
         11    1    3    3    0    0  0.12761944675E+02 -0.61038658396E+01 -0.34520323742E+02  0.37306529745E+02  0.51100000000E-03 0. -1.
        -11    1    3    3    0    0 -0.12862429040E+01  0.10757243197E+01  0.11524773828E-01  0.16768233960E+01  0.51100000000E-03 0.  1.
         12    1    3    3    0    0  0.50393495077E+01 -0.59428342659E+01 -0.40983751441E+01  0.88039196609E+01  0.00000000000E+00 0. -1.
</event>
<event>
 7    1  0.2530788E-009  0.4778727E+02  0.7816164E-02  0.1312668E+00
        -11   -1    0    0    0    0  0.00000000000E+00  0.00000000000E+00  0.45593999997E+02  0.45594000000E+02  0.51100000000E-03 0.  1.
         11   -1    0    0    0    0 -0.00000000000E+00 -0.00000000000E+00 -0.45593999997E+02  0.45594000000E+02  0.51100000000E-03 0. -1.
    9900012    2    1    2    0    0  0.13850731375E+02  0.13650972018E+02 -0.38799890381E+02  0.47787270856E+02  0.19999999143E+02 0.  0.
        -12    1    1    2    0    0 -0.13850731375E+02 -0.13650972018E+02  0.38799890381E+02  0.43400729144E+02  0.00000000000E+00 0.  1.
         11    1    3    3    0    0  0.81037498767E+01  0.63767622382E+01 -0.18026122084E+02  0.20767160045E+02  0.51100000000E-03 0. -1.
        -11    1    3    3    0    0  0.40869080796E+01 -0.15789104023E+01 -0.16459783699E+02  0.17032916819E+02  0.51100000000E-03 0.  1.
        -12    1    3    3    0    0  0.16600734184E+01  0.88531201822E+01 -0.43139845982E+01  0.99871939917E+01  0.00000000000E+00 0.  1.
</event>
<event>
 7    1  0.2530788E-009  0.4778727E+02  0.7816164E-02  0.1312668E+00
        -11   -1    0    0    0    0  0.00000000000E+00  0.00000000000E+00  0.45593999997E+02  0.45594000000E+02  0.51100000000E-03 0. -1.
         11   -1    0    0    0    0 -0.00000000000E+00 -0.00000000000E+00 -0.45593999997E+02  0.45594000000E+02  0.51100000000E-03 0.  1.
    9900012    2    1    2    0    0  0.37489687547E+02 -0.11525502779E+02  0.18582501395E+02  0.47787271379E+02  0.20000001526E+02 0.  0.
        -12    1    1    2    0    0 -0.37489687547E+02  0.11525502779E+02 -0.18582501395E+02  0.43400728621E+02  0.00000000000E+00 0.  1.
         11    1    3    3    0    0  0.31136277005E+02 -0.16415549965E+02  0.11835539579E+02  0.37135131934E+02  0.51100000000E-03 0. -1.
        -11    1    3    3    0    0  0.57458602435E+01  0.35355155933E+01  0.57446152679E+01  0.88608907727E+01  0.51100000000E-03 0.  1.
         12    1    3    3    0    0  0.60755029898E+00  0.13545315930E+01  0.10023465489E+01  0.17912486724E+01  0.00000000000E+00 0. -1.
</event>
<event>
 7    1  0.2530788E-009  0.4778729E+02  0.7816164E-02  0.1312668E+00
        -11   -1    0    0    0    0  0.00000000000E+00  0.00000000000E+00  0.45593999997E+02  0.45594000000E+02  0.51100000000E-03 0. -1.
         11   -1    0    0    0    0 -0.00000000000E+00 -0.00000000000E+00 -0.45593999997E+02  0.45594000000E+02  0.51100000000E-03 0.  1.
    9900012    2    1    2    0    0 -0.10871260495E+01 -0.37794168395E+02  0.21308239064E+02  0.47787285032E+02  0.20000063776E+02 0.  0.
        -12    1    1    2    0    0  0.10871260495E+01  0.37794168395E+02 -0.21308239064E+02  0.43400714968E+02  0.00000000000E+00 0.  1.
         11    1    3    3    0    0 -0.14001536716E+01  0.11255442090E+01  0.38748099663E+00  0.18377763341E+01  0.51100000000E-03 0. -1.
        -11    1    3    3    0    0  0.53963011658E+01 -0.25975437506E+02  0.10333753087E+02  0.28471562532E+02  0.51100000000E-03 0.  1.
         12    1    3    3    0    0 -0.50832735437E+01 -0.12944275098E+02  0.10587004980E+02  0.17477946166E+02  0.00000000000E+00 0. -1.
</event>
<event>
 7    1  0.2530788E-009  0.4778727E+02  0.7816164E-02  0.1312668E+00
        -11   -1    0    0    0    0  0.00000000000E+00  0.00000000000E+00  0.45593999997E+02  0.45594000000E+02  0.51100000000E-03 0.  1.
         11   -1    0    0    0    0 -0.00000000000E+00 -0.00000000000E+00 -0.45593999997E+02  0.45594000000E+02  0.51100000000E-03 0. -1.
    9900012    2    1    2    0    0 -0.36170418074E+01 -0.43134853584E+02 -0.31503324610E+01  0.47787272128E+02  0.20000004941E+02 0.  0.
        -12    1    1    2    0    0  0.36170418074E+01  0.43134853584E+02  0.31503324610E+01  0.43400727872E+02  0.00000000000E+00 0.  1.
         11    1    3    3    0    0  0.55634605057E+00 -0.17854664910E+02 -0.58857864107E+01  0.18808005261E+02  0.51100000000E-03 0. -1.
        -11    1    3    3    0    0 -0.89028591875E+01 -0.15573311413E+02  0.29498033796E+01  0.18179391363E+02  0.51100000000E-03 0.  1.
        -12    1    3    3    0    0  0.47294713295E+01 -0.97068772618E+01 -0.21434943002E+00  0.10799875504E+02  0.00000000000E+00 0.  1.
</event>
<event>
 7    1  0.2530788E-009  0.4778727E+02  0.7816164E-02  0.1312668E+00
        -11   -1    0    0    0    0  0.00000000000E+00  0.00000000000E+00  0.45593999997E+02  0.45594000000E+02  0.51100000000E-03 0.  1.
         11   -1    0    0    0    0 -0.00000000000E+00 -0.00000000000E+00 -0.45593999997E+02  0.45594000000E+02  0.51100000000E-03 0. -1.
    9900012    2    1    2    0    0 -0.51784122764E+01  0.31618915041E+02 -0.29275440449E+02  0.47787272407E+02  0.20000006213E+02 0.  0.
        -12    1    1    2    0    0  0.51784122764E+01 -0.31618915041E+02  0.29275440449E+02  0.43400727593E+02  0.00000000000E+00 0.  1.
         11    1    3    3    0    0 -0.38191969835E+01  0.30051357472E+02 -0.29087241010E+02  0.41996880138E+02  0.51100000000E-03 0. -1.
        -11    1    3    3    0    0 -0.21056289842E+01  0.17345482606E+01  0.20581775429E+01  0.34173712334E+01  0.51100000000E-03 0.  1.
        -12    1    3    3    0    0  0.74641369136E+00 -0.16699069121E+00 -0.22463769824E+01  0.23730210358E+01  0.00000000000E+00 0.  1.
</event>
<event>
 7    1  0.2530788E-009  0.4778727E+02  0.7816164E-02  0.1312668E+00
        -11   -1    0    0    0    0  0.00000000000E+00  0.00000000000E+00  0.45593999997E+02  0.45594000000E+02  0.51100000000E-03 0. -1.
         11   -1    0    0    0    0 -0.00000000000E+00 -0.00000000000E+00 -0.45593999997E+02  0.45594000000E+02  0.51100000000E-03 0.  1.
    9900012    2    1    2    0    0 -0.29768624071E+02  0.28992224755E+02  0.12526099414E+02  0.47787271413E+02  0.20000001682E+02 0.  0.
        -12    1    1    2    0    0  0.29768624071E+02 -0.28992224755E+02 -0.12526099414E+02  0.43400728587E+02  0.00000000000E+00 0.  1.
         11    1    3    3    0    0 -0.26616060069E+02  0.23526152498E+02  0.16461615794E+02  0.39152002500E+02  0.51100000000E-03 0. -1.
        -11    1    3    3    0    0 -0.15498651494E+01  0.54104333225E+01 -0.16907599451E+01  0.58765244977E+01  0.51100000000E-03 0.  1.
         12    1    3    3    0    0 -0.16026988528E+01  0.55638933957E-01 -0.22447564340E+01  0.27587444158E+01  0.00000000000E+00 0. -1.
</event>
<event>
 7    1  0.2530788E-009  0.4778726E+02  0.7816164E-02  0.1312668E+00
        -11   -1    0    0    0    0  0.00000000000E+00  0.00000000000E+00  0.45593999997E+02  0.45594000000E+02  0.51100000000E-03 0.  1.
         11   -1    0    0    0    0 -0.00000000000E+00 -0.00000000000E+00 -0.45593999997E+02  0.45594000000E+02  0.51100000000E-03 0. -1.
    9900012    2    1    2    0    0  0.32156252191E+02  0.17859963715E+02 -0.23035219842E+02  0.47787260236E+02  0.19999950720E+02 0.  0.
        -12    1    1    2    0    0 -0.32156252191E+02 -0.17859963715E+02  0.23035219842E+02  0.43400739764E+02  0.00000000000E+00 0.  1.
         11    1    3    3    0    0  0.89402588908E+01  0.67484477531E+01 -0.75194489753E+01  0.13491178202E+02  0.51100000000E-03 0. -1.
        -11    1    3    3    0    0  0.82873050033E+01  0.12096578593E+02 -0.34192513289E+01  0.15056490885E+02  0.51100000000E-03 0.  1.
        -12    1    3    3    0    0  0.14928688297E+02 -0.98506263070E+00 -0.12096519538E+02  0.19239591149E+02  0.00000000000E+00 0.  1.
</event>
<event>
 7    1  0.2530788E-009  0.4778727E+02  0.7816164E-02  0.1312668E+00
        -11   -1    0    0    0    0  0.00000000000E+00  0.00000000000E+00  0.45593999997E+02  0.45594000000E+02  0.51100000000E-03 0.  1.
         11   -1    0    0    0    0 -0.00000000000E+00 -0.00000000000E+00 -0.45593999997E+02  0.45594000000E+02  0.51100000000E-03 0. -1.
    9900012    2    1    2    0    0 -0.12976885746E+02  0.15865665360E+02 -0.38255781203E+02  0.47787266177E+02  0.19999977806E+02 0.  0.
        -12    1    1    2    0    0  0.12976885746E+02 -0.15865665360E+02  0.38255781203E+02  0.43400733823E+02  0.00000000000E+00 0.  1.
         11    1    3    3    0    0 -0.34741909079E+01  0.70292291015E+01 -0.32372745173E+01  0.84829246600E+01  0.51100000000E-03 0. -1.
        -11    1    3    3    0    0 -0.55800655429E+01  0.86801776544E+01 -0.33569518282E+02  0.35119726274E+02  0.51100000000E-03 0.  1.
         12    1    3    3    0    0 -0.39226292955E+01  0.15625860360E+00 -0.14489884032E+01  0.41846152432E+01  0.00000000000E+00 0. -1.
</event>
<event>
 7    1  0.2530788E-009  0.4778727E+02  0.7816164E-02  0.1312668E+00
        -11   -1    0    0    0    0  0.00000000000E+00  0.00000000000E+00  0.45593999997E+02  0.45594000000E+02  0.51100000000E-03 0.  1.
         11   -1    0    0    0    0 -0.00000000000E+00 -0.00000000000E+00 -0.45593999997E+02  0.45594000000E+02  0.51100000000E-03 0. -1.
    9900012    2    1    2    0    0  0.24800366920E+02 -0.35165377043E+02 -0.56534383648E+01  0.47787270660E+02  0.19999998245E+02 0.  0.
        -12    1    1    2    0    0 -0.24800366920E+02  0.35165377043E+02  0.56534383648E+01  0.43400729340E+02  0.00000000000E+00 0.  1.
         11    1    3    3    0    0  0.21935689153E+01 -0.99666852096E+01 -0.86833117118E-01  0.10205591551E+02  0.51100000000E-03 0. -1.
        -11    1    3    3    0    0  0.33880534031E+01 -0.12405357018E+02 -0.66331198395E+01  0.14469625692E+02  0.51100000000E-03 0.  1.
        -12    1    3    3    0    0  0.19218744601E+02 -0.12793334815E+02  0.10665145918E+01  0.23112053416E+02  0.00000000000E+00 0.  1.
</event>
<event>
 7    1  0.2530788E-009  0.4778727E+02  0.7816164E-02  0.1312668E+00
        -11   -1    0    0    0    0  0.00000000000E+00  0.00000000000E+00  0.45593999997E+02  0.45594000000E+02  0.51100000000E-03 0.  1.
         11   -1    0    0    0    0 -0.00000000000E+00 -0.00000000000E+00 -0.45593999997E+02  0.45594000000E+02  0.51100000000E-03 0. -1.
    9900012    2    1    2    0    0  0.18154406518E+02 -0.38081655250E+02  0.10189602881E+02  0.47787274782E+02  0.20000017040E+02 0.  0.
        -12    1    1    2    0    0 -0.18154406518E+02  0.38081655250E+02 -0.10189602881E+02  0.43400725218E+02  0.00000000000E+00 0.  1.
         11    1    3    3    0    0 -0.22609766378E+01 -0.12717432517E+02  0.17827363311E+01  0.13039296541E+02  0.51100000000E-03 0. -1.
        -11    1    3    3    0    0  0.13776614529E+02 -0.19437530435E+02  0.97600937010E+01  0.25746303164E+02  0.51100000000E-03 0.  1.
         12    1    3    3    0    0  0.66387686267E+01 -0.59266922976E+01 -0.13532271515E+01  0.90016750771E+01  0.00000000000E+00 0. -1.
</event>
<event>
 7    1  0.2530788E-009  0.4778727E+02  0.7816164E-02  0.1312668E+00
        -11   -1    0    0    0    0  0.00000000000E+00  0.00000000000E+00  0.45593999997E+02  0.45594000000E+02  0.51100000000E-03 0.  1.
         11   -1    0    0    0    0 -0.00000000000E+00 -0.00000000000E+00 -0.45593999997E+02  0.45594000000E+02  0.51100000000E-03 0. -1.
    9900012    2    1    2    0    0  0.23489831004E+02  0.35943702349E+02  0.63167479333E+01  0.47787271854E+02  0.20000003692E+02 0.  0.
        -12    1    1    2    0    0 -0.23489831004E+02 -0.35943702349E+02 -0.63167479333E+01  0.43400728146E+02  0.00000000000E+00 0.  1.
         11    1    3    3    0    0  0.21603822529E+02  0.33222787678E+02  0.14727856188E+01  0.39656624500E+02  0.51100000000E-03 0. -1.
        -11    1    3    3    0    0  0.22515074450E+01  0.27783408720E+01  0.59624000442E+01  0.69526022700E+01  0.51100000000E-03 0.  1.
         12    1    3    3    0    0 -0.36549896995E+00 -0.57426201323E-01 -0.11184377297E+01  0.11780450844E+01  0.00000000000E+00 0. -1.
</event>
<event>
 7    1  0.2530788E-009  0.4778727E+02  0.7816164E-02  0.1312668E+00
        -11   -1    0    0    0    0  0.00000000000E+00  0.00000000000E+00  0.45593999997E+02  0.45594000000E+02  0.51100000000E-03 0.  1.
         11   -1    0    0    0    0 -0.00000000000E+00 -0.00000000000E+00 -0.45593999997E+02  0.45594000000E+02  0.51100000000E-03 0. -1.
    9900012    2    1    2    0    0 -0.21829012627E+02 -0.35873258225E+02  0.10964810908E+02  0.47787268138E+02  0.19999986747E+02 0.  0.
        -12    1    1    2    0    0  0.21829012627E+02  0.35873258225E+02 -0.10964810908E+02  0.43400731862E+02  0.00000000000E+00 0.  1.
         11    1    3    3    0    0  0.13760771178E+00 -0.12557178977E+02  0.32308504240E+01  0.12966883761E+02  0.51100000000E-03 0. -1.
        -11    1    3    3    0    0 -0.16613756228E+02 -0.10866039494E+02  0.76315194057E+01  0.21267999412E+02  0.51100000000E-03 0.  1.
        -12    1    3    3    0    0 -0.53528641113E+01 -0.12450039754E+02  0.10244107782E+00  0.13552384965E+02  0.00000000000E+00 0.  1.
</event>
<event>
 7    1  0.2530788E-009  0.4778727E+02  0.7816164E-02  0.1312668E+00
        -11   -1    0    0    0    0  0.00000000000E+00  0.00000000000E+00  0.45593999997E+02  0.45594000000E+02  0.51100000000E-03 0.  1.
         11   -1    0    0    0    0 -0.00000000000E+00 -0.00000000000E+00 -0.45593999997E+02  0.45594000000E+02  0.51100000000E-03 0. -1.
    9900012    2    1    2    0    0 -0.12945202412E+02  0.39297124841E+02 -0.13106530379E+02  0.47787269305E+02  0.19999992068E+02 0.  0.
        -12    1    1    2    0    0  0.12945202412E+02 -0.39297124841E+02  0.13106530379E+02  0.43400730695E+02  0.00000000000E+00 0.  1.
         11    1    3    3    0    0  0.30869594594E+00  0.98493655767E+01 -0.10193053951E+02  0.14177575412E+02  0.51100000000E-03 0. -1.
        -11    1    3    3    0    0  0.12704716535E+01  0.24340618793E+01  0.34078300639E+00  0.27667469658E+01  0.51100000000E-03 0.  1.
         12    1    3    3    0    0 -0.14524370012E+02  0.27013697385E+02 -0.32542594346E+01  0.30842946927E+02  0.00000000000E+00 0. -1.
</event>
<event>
 7    1  0.2530788E-009  0.4778728E+02  0.7816164E-02  0.1312668E+00
        -11   -1    0    0    0    0  0.00000000000E+00  0.00000000000E+00  0.45593999997E+02  0.45594000000E+02  0.51100000000E-03 0. -1.
         11   -1    0    0    0    0 -0.00000000000E+00 -0.00000000000E+00 -0.45593999997E+02  0.45594000000E+02  0.51100000000E-03 0.  1.
    9900012    2    1    2    0    0 -0.24064330438E+02  0.15520458700E+02  0.32613579477E+02  0.47787283370E+02  0.20000056195E+02 0.  0.
        -12    1    1    2    0    0  0.24064330438E+02 -0.15520458700E+02 -0.32613579477E+02  0.43400716630E+02  0.00000000000E+00 0.  1.
         11    1    3    3    0    0 -0.40295130655E+01  0.36611877056E+01  0.17517878295E+02  0.18344408717E+02  0.51100000000E-03 0. -1.
        -11    1    3    3    0    0  0.25071686912E+00  0.32038037280E+01  0.21999195151E+01  0.38944657413E+01  0.51100000000E-03 0.  1.
         12    1    3    3    0    0 -0.20285534242E+02  0.86554672667E+01  0.12895781667E+02  0.25548408911E+02  0.00000000000E+00 0. -1.
</event>
<event>
 7    1  0.2530788E-009  0.4778727E+02  0.7816164E-02  0.1312668E+00
        -11   -1    0    0    0    0  0.00000000000E+00  0.00000000000E+00  0.45593999997E+02  0.45594000000E+02  0.51100000000E-03 0. -1.
         11   -1    0    0    0    0 -0.00000000000E+00 -0.00000000000E+00 -0.45593999997E+02  0.45594000000E+02  0.51100000000E-03 0.  1.
    9900012    2    1    2    0    0 -0.33560764778E+02 -0.26368602988E+02  0.78737164567E+01  0.47787267669E+02  0.19999984611E+02 0.  0.
        -12    1    1    2    0    0  0.33560764778E+02  0.26368602988E+02 -0.78737164567E+01  0.43400732331E+02  0.00000000000E+00 0.  1.
         11    1    3    3    0    0 -0.17675377895E+02 -0.13592223795E+02  0.41541936988E+01  0.22680935981E+02  0.51100000000E-03 0. -1.
        -11    1    3    3    0    0  0.47924905613E-01 -0.23403171213E+01  0.54990683421E+01  0.59765486627E+01  0.51100000000E-03 0.  1.
        -12    1    3    3    0    0 -0.15933311789E+02 -0.10436062071E+02 -0.17795455843E+01  0.19129783026E+02  0.00000000000E+00 0.  1.
</event>
<event>
 7    1  0.2530788E-009  0.4778724E+02  0.7816164E-02  0.1312668E+00
        -11   -1    0    0    0    0  0.00000000000E+00  0.00000000000E+00  0.45593999997E+02  0.45594000000E+02  0.51100000000E-03 0. -1.
         11   -1    0    0    0    0 -0.00000000000E+00 -0.00000000000E+00 -0.45593999997E+02  0.45594000000E+02  0.51100000000E-03 0.  1.
    9900012    2    1    2    0    0 -0.32865363235E+02  0.20204249366E+02  0.19881710556E+02  0.47787237245E+02  0.19999845896E+02 0.  0.
        -12    1    1    2    0    0  0.32865363235E+02 -0.20204249366E+02 -0.19881710556E+02  0.43400762755E+02  0.00000000000E+00 0.  1.
         11    1    3    3    0    0 -0.83743217474E+01 -0.27304114295E+01  0.62707048627E+01  0.10812314786E+02  0.51100000000E-03 0. -1.
        -11    1    3    3    0    0 -0.15806924315E+02  0.19327883332E+02  0.95601067006E+01  0.26736147269E+02  0.51100000000E-03 0.  1.
         12    1    3    3    0    0 -0.86841171725E+01  0.36067774631E+01  0.40508989929E+01  0.10238775190E+02  0.00000000000E+00 0. -1.
</event>
<event>
 7    1  0.2530788E-009  0.4778727E+02  0.7816164E-02  0.1312668E+00
        -11   -1    0    0    0    0  0.00000000000E+00  0.00000000000E+00  0.45593999997E+02  0.45594000000E+02  0.51100000000E-03 0.  1.
         11   -1    0    0    0    0 -0.00000000000E+00 -0.00000000000E+00 -0.45593999997E+02  0.45594000000E+02  0.51100000000E-03 0. -1.
    9900012    2    1    2    0    0  0.20832006716E+02 -0.18231096250E+02 -0.33425708267E+02  0.47787270197E+02  0.19999996135E+02 0.  0.
        -12    1    1    2    0    0 -0.20832006716E+02  0.18231096250E+02  0.33425708267E+02  0.43400729803E+02  0.00000000000E+00 0.  1.
         11    1    3    3    0    0  0.10342941951E+02 -0.70665631921E+01 -0.15239540326E+02  0.19727046235E+02  0.51100000000E-03 0. -1.
        -11    1    3    3    0    0  0.70310504601E+01 -0.17350070699E+01 -0.16306425222E+02  0.17842237077E+02  0.51100000000E-03 0.  1.
        -12    1    3    3    0    0  0.34580143045E+01 -0.94295259880E+01 -0.18797427188E+01  0.10217986885E+02  0.00000000000E+00 0.  1.
</event>
<event>
 7    1  0.2530788E-009  0.4778726E+02  0.7816164E-02  0.1312668E+00
        -11   -1    0    0    0    0  0.00000000000E+00  0.00000000000E+00  0.45593999997E+02  0.45594000000E+02  0.51100000000E-03 0.  1.
         11   -1    0    0    0    0 -0.00000000000E+00 -0.00000000000E+00 -0.45593999997E+02  0.45594000000E+02  0.51100000000E-03 0. -1.
    9900012    2    1    2    0    0 -0.31843975403E+02  0.15072150489E+02 -0.25345914728E+02  0.47787264024E+02  0.19999967992E+02 0.  0.
        -12    1    1    2    0    0  0.31843975403E+02 -0.15072150489E+02  0.25345914728E+02  0.43400735976E+02  0.00000000000E+00 0.  1.
         11    1    3    3    0    0 -0.16186255518E+01 -0.13195898780E+01  0.68860582914E+00  0.21989643863E+01  0.51100000000E-03 0.  1.
        -11    1    3    3    0    0 -0.88361317331E+00  0.52008487998E+01 -0.73484539841E+01  0.90459591363E+01  0.51100000000E-03 0. -1.
        -12    1    3    3    0    0 -0.29341736678E+02  0.11190891567E+02 -0.18686066573E+02  0.36542340501E+02  0.00000000000E+00 0.  1.
</event>
<event>
 7    1  0.2530788E-009  0.4778728E+02  0.7816164E-02  0.1312668E+00
        -11   -1    0    0    0    0  0.00000000000E+00  0.00000000000E+00  0.45593999997E+02  0.45594000000E+02  0.51100000000E-03 0.  1.
         11   -1    0    0    0    0 -0.00000000000E+00 -0.00000000000E+00 -0.45593999997E+02  0.45594000000E+02  0.51100000000E-03 0. -1.
    9900012    2    1    2    0    0  0.31540223972E+01  0.50929762373E+01 -0.42985306718E+02  0.47787275837E+02  0.20000021852E+02 0.  0.
        -12    1    1    2    0    0 -0.31540223972E+01 -0.50929762373E+01  0.42985306718E+02  0.43400724163E+02  0.00000000000E+00 0.  1.
         11    1    3    3    0    0 -0.22290175590E+01  0.35650016440E+01 -0.20542906469E+02  0.20968756818E+02  0.51100000000E-03 0. -1.
        -11    1    3    3    0    0  0.47535933304E+00 -0.14002686079E+01  0.15574426719E+01  0.21476374478E+01  0.51100000000E-03 0.  1.
        -12    1    3    3    0    0  0.49076806232E+01  0.29282432013E+01 -0.23999842920E+02  0.24670881572E+02  0.00000000000E+00 0.  1.
</event>
<event>
 7    1  0.2530788E-009  0.4778731E+02  0.7816164E-02  0.1312668E+00
        -11   -1    0    0    0    0  0.00000000000E+00  0.00000000000E+00  0.45593999997E+02  0.45594000000E+02  0.51100000000E-03 0.  1.
         11   -1    0    0    0    0 -0.00000000000E+00 -0.00000000000E+00 -0.45593999997E+02  0.45594000000E+02  0.51100000000E-03 0. -1.
    9900012    2    1    2    0    0  0.32974695341E+02 -0.38593249867E+01 -0.27953444613E+02  0.47787308901E+02  0.20000172602E+02 0.  0.
        -12    1    1    2    0    0 -0.32974695341E+02  0.38593249867E+01  0.27953444613E+02  0.43400691099E+02  0.00000000000E+00 0.  1.
         11    1    3    3    0    0  0.27064288176E+02 -0.36876882714E+01 -0.15631101492E+02  0.31470717713E+02  0.51100000000E-03 0. -1.
        -11    1    3    3    0    0  0.16095314341E+01 -0.32036838201E+01 -0.98892715269E+01  0.10519119405E+02  0.51100000000E-03 0.  1.
        -12    1    3    3    0    0  0.43008757311E+01  0.30320471048E+01 -0.24330715938E+01  0.57974717835E+01  0.00000000000E+00 0.  1.
</event>
<event>
 7    1  0.2530788E-009  0.4778726E+02  0.7816164E-02  0.1312668E+00
        -11   -1    0    0    0    0  0.00000000000E+00  0.00000000000E+00  0.45593999997E+02  0.45594000000E+02  0.51100000000E-03 0.  1.
         11   -1    0    0    0    0 -0.00000000000E+00 -0.00000000000E+00 -0.45593999997E+02  0.45594000000E+02  0.51100000000E-03 0. -1.
    9900012    2    1    2    0    0 -0.22900014316E+02 -0.31200342335E+02 -0.19640566666E+02  0.47787264102E+02  0.19999968347E+02 0.  0.
        -12    1    1    2    0    0  0.22900014316E+02  0.31200342335E+02  0.19640566666E+02  0.43400735898E+02  0.00000000000E+00 0.  1.
         11    1    3    3    0    0 -0.82847585125E+01 -0.81650253597E+01 -0.31055803869E+01  0.12039497188E+02  0.51100000000E-03 0. -1.
        -11    1    3    3    0    0 -0.16658290702E+02 -0.19705685201E+02 -0.91217026922E+01  0.27368195750E+02  0.51100000000E-03 0.  1.
        -12    1    3    3    0    0  0.20430348983E+01 -0.33296317741E+01 -0.74132835872E+01  0.83795711639E+01  0.00000000000E+00 0.  1.
</event>
<event>
 7    1  0.2530788E-009  0.4778727E+02  0.7816164E-02  0.1312668E+00
        -11   -1    0    0    0    0  0.00000000000E+00  0.00000000000E+00  0.45593999997E+02  0.45594000000E+02  0.51100000000E-03 0.  1.
         11   -1    0    0    0    0 -0.00000000000E+00 -0.00000000000E+00 -0.45593999997E+02  0.45594000000E+02  0.51100000000E-03 0. -1.
    9900012    2    1    2    0    0 -0.21702252890E+02 -0.22627393140E+02 -0.30010607524E+02  0.47787271149E+02  0.20000000478E+02 0.  0.
        -12    1    1    2    0    0  0.21702252890E+02  0.22627393140E+02  0.30010607524E+02  0.43400728851E+02  0.00000000000E+00 0.  1.
         11    1    3    3    0    0 -0.70246633440E+01 -0.13629443007E+01 -0.14876913064E+02  0.16508363179E+02  0.51100000000E-03 0.  1.
        -11    1    3    3    0    0 -0.94368956185E+01 -0.15505342141E+02 -0.56547097891E+01  0.19011743131E+02  0.51100000000E-03 0. -1.
        -12    1    3    3    0    0 -0.52406939278E+01 -0.57591066982E+01 -0.94789846706E+01  0.12267164839E+02  0.00000000000E+00 0.  1.
</event>
<event>
 7    1  0.2530788E-009  0.4778727E+02  0.7816164E-02  0.1312668E+00
        -11   -1    0    0    0    0  0.00000000000E+00  0.00000000000E+00  0.45593999997E+02  0.45594000000E+02  0.51100000000E-03 0.  1.
         11   -1    0    0    0    0 -0.00000000000E+00 -0.00000000000E+00 -0.45593999997E+02  0.45594000000E+02  0.51100000000E-03 0. -1.
    9900012    2    1    2    0    0 -0.14025466655E+02  0.20272547536E+02 -0.35720209912E+02  0.47787270805E+02  0.19999998910E+02 0.  0.
        -12    1    1    2    0    0  0.14025466655E+02 -0.20272547536E+02  0.35720209912E+02  0.43400729195E+02  0.00000000000E+00 0.  1.
         11    1    3    3    0    0 -0.39886706997E+01  0.14758139432E+02 -0.13533758656E+02  0.20417512019E+02  0.51100000000E-03 0. -1.
        -11    1    3    3    0    0  0.27991231453E+00 -0.20299166716E+01 -0.80741147599E+01  0.83300805527E+01  0.51100000000E-03 0.  1.
        -12    1    3    3    0    0 -0.10316708270E+02  0.75443247756E+01 -0.14112336496E+02  0.19039678233E+02  0.00000000000E+00 0.  1.
</event>
<event>
 7    1  0.2530788E-009  0.4778726E+02  0.7816164E-02  0.1312668E+00
        -11   -1    0    0    0    0  0.00000000000E+00  0.00000000000E+00  0.45593999997E+02  0.45594000000E+02  0.51100000000E-03 0.  1.
         11   -1    0    0    0    0 -0.00000000000E+00 -0.00000000000E+00 -0.45593999997E+02  0.45594000000E+02  0.51100000000E-03 0. -1.
    9900012    2    1    2    0    0  0.22569082365E+02 -0.36893201680E+02 -0.36266804284E+01  0.47787255537E+02  0.19999929296E+02 0.  0.
        -12    1    1    2    0    0 -0.22569082365E+02  0.36893201680E+02  0.36266804284E+01  0.43400744463E+02  0.00000000000E+00 0.  1.
         11    1    3    3    0    0  0.75634425479E+01 -0.28240522574E+01 -0.48500382064E+01  0.94182697557E+01  0.51100000000E-03 0. -1.
        -11    1    3    3    0    0  0.11151452973E+02 -0.16659961111E+02  0.36393529117E+01  0.20375330611E+02  0.51100000000E-03 0.  1.
         12    1    3    3    0    0  0.38541868440E+01 -0.17409188312E+02 -0.24159951338E+01  0.17993655171E+02  0.00000000000E+00 0. -1.
</event>
<event>
 7    1  0.2530788E-009  0.4778727E+02  0.7816164E-02  0.1312668E+00
        -11   -1    0    0    0    0  0.00000000000E+00  0.00000000000E+00  0.45593999997E+02  0.45594000000E+02  0.51100000000E-03 0.  1.
         11   -1    0    0    0    0 -0.00000000000E+00 -0.00000000000E+00 -0.45593999997E+02  0.45594000000E+02  0.51100000000E-03 0. -1.
    9900012    2    1    2    0    0 -0.11956508176E+01  0.42576746283E+02 -0.83315545708E+01  0.47787266060E+02  0.19999977274E+02 0.  0.
        -12    1    1    2    0    0  0.11956508176E+01 -0.42576746283E+02  0.83315545708E+01  0.43400733940E+02  0.00000000000E+00 0.  1.
         11    1    3    3    0    0 -0.31399603864E+01  0.26487409396E+02 -0.64214162854E+01  0.27434955715E+02  0.51100000000E-03 0. -1.
        -11    1    3    3    0    0  0.14817502181E+01  0.13367010726E+01  0.39865442897E+01  0.44581261872E+01  0.51100000000E-03 0.  1.
        -12    1    3    3    0    0  0.46255935066E+00  0.14752635815E+02 -0.58966825750E+01  0.15894184158E+02  0.00000000000E+00 0.  1.
</event>
<event>
 7    1  0.2530788E-009  0.4778727E+02  0.7816164E-02  0.1312668E+00
        -11   -1    0    0    0    0  0.00000000000E+00  0.00000000000E+00  0.45593999997E+02  0.45594000000E+02  0.51100000000E-03 0.  1.
         11   -1    0    0    0    0 -0.00000000000E+00 -0.00000000000E+00 -0.45593999997E+02  0.45594000000E+02  0.51100000000E-03 0. -1.
    9900012    2    1    2    0    0  0.39546111252E+02  0.17857509179E+02 -0.91536433352E+00  0.47787269118E+02  0.19999991215E+02 0.  0.
        -12    1    1    2    0    0 -0.39546111252E+02 -0.17857509179E+02  0.91536433352E+00  0.43400730882E+02  0.00000000000E+00 0.  1.
         11    1    3    3    0    0  0.34105442111E+02  0.14201828294E+02  0.54384619175E+01  0.37342334913E+02  0.51100000000E-03 0. -1.
        -11    1    3    3    0    0  0.44605941822E+01 -0.40149279156E-02 -0.39491520794E+01  0.59575766033E+01  0.51100000000E-03 0.  1.
         12    1    3    3    0    0  0.98007495939E+00  0.36596958128E+01 -0.24046741717E+01  0.44873576011E+01  0.00000000000E+00 0. -1.
</event>
<event>
 7    1  0.2530788E-009  0.4778727E+02  0.7816164E-02  0.1312668E+00
        -11   -1    0    0    0    0  0.00000000000E+00  0.00000000000E+00  0.45593999997E+02  0.45594000000E+02  0.51100000000E-03 0. -1.
         11   -1    0    0    0    0 -0.00000000000E+00 -0.00000000000E+00 -0.45593999997E+02  0.45594000000E+02  0.51100000000E-03 0.  1.
    9900012    2    1    2    0    0  0.13706383361E+02  0.40528654417E+02  0.72929087664E+01  0.47787270836E+02  0.19999999050E+02 0.  0.
        -12    1    1    2    0    0 -0.13706383361E+02 -0.40528654417E+02 -0.72929087664E+01  0.43400729164E+02  0.00000000000E+00 0.  1.
         11    1    3    3    0    0  0.10126009544E+02  0.81719895981E+01  0.42862782293E+01  0.13699987759E+02  0.51100000000E-03 0. -1.
        -11    1    3    3    0    0 -0.22199348624E+01  0.11299192982E+02 -0.19783736125E+01  0.11683913525E+02  0.51100000000E-03 0.  1.
        -12    1    3    3    0    0  0.58003086797E+01  0.21057471836E+02  0.49850041496E+01  0.22403369552E+02  0.00000000000E+00 0.  1.
</event>
<event>
 7    1  0.2530788E-009  0.4778727E+02  0.7816164E-02  0.1312668E+00
        -11   -1    0    0    0    0  0.00000000000E+00  0.00000000000E+00  0.45593999997E+02  0.45594000000E+02  0.51100000000E-03 0.  1.
         11   -1    0    0    0    0 -0.00000000000E+00 -0.00000000000E+00 -0.45593999997E+02  0.45594000000E+02  0.51100000000E-03 0. -1.
    9900012    2    1    2    0    0  0.29419100263E+01  0.24948685538E+02 -0.35391127840E+02  0.47787266429E+02  0.19999978957E+02 0.  0.
        -12    1    1    2    0    0 -0.29419100263E+01 -0.24948685538E+02  0.35391127840E+02  0.43400733571E+02  0.00000000000E+00 0.  1.
         11    1    3    3    0    0  0.28349614705E+01  0.23202745958E+02 -0.22040092122E+02  0.32127403996E+02  0.51100000000E-03 0. -1.
        -11    1    3    3    0    0  0.37341181352E+01  0.14114183455E+00 -0.38553698023E+01  0.53691187208E+01  0.51100000000E-03 0.  1.
         12    1    3    3    0    0 -0.36271695794E+01  0.16047977459E+01 -0.94956659161E+01  0.10290743712E+02  0.00000000000E+00 0. -1.
</event>
<event>
 7    1  0.2530788E-009  0.4778727E+02  0.7816164E-02  0.1312668E+00
        -11   -1    0    0    0    0  0.00000000000E+00  0.00000000000E+00  0.45593999997E+02  0.45594000000E+02  0.51100000000E-03 0.  1.
         11   -1    0    0    0    0 -0.00000000000E+00 -0.00000000000E+00 -0.45593999997E+02  0.45594000000E+02  0.51100000000E-03 0. -1.
    9900012    2    1    2    0    0  0.10017828896E+02  0.37835310450E+02 -0.18755150746E+02  0.47787270834E+02  0.19999999039E+02 0.  0.
        -12    1    1    2    0    0 -0.10017828896E+02 -0.37835310450E+02  0.18755150746E+02  0.43400729166E+02  0.00000000000E+00 0.  1.
         11    1    3    3    0    0  0.51669059394E+00  0.48129761486E+01 -0.60412281254E+01  0.77413271537E+01  0.51100000000E-03 0. -1.
        -11    1    3    3    0    0  0.21170640673E+01  0.29728821739E+02 -0.11081238430E+02  0.31797462912E+02  0.51100000000E-03 0.  1.
        -12    1    3    3    0    0  0.73840742349E+01  0.32935125627E+01 -0.16326841907E+01  0.82484807676E+01  0.00000000000E+00 0.  1.
</event>
<event>
 7    1  0.2530788E-009  0.4778727E+02  0.7816164E-02  0.1312668E+00
        -11   -1    0    0    0    0  0.00000000000E+00  0.00000000000E+00  0.45593999997E+02  0.45594000000E+02  0.51100000000E-03 0.  1.
         11   -1    0    0    0    0 -0.00000000000E+00 -0.00000000000E+00 -0.45593999997E+02  0.45594000000E+02  0.51100000000E-03 0. -1.
    9900012    2    1    2    0    0  0.42028980797E+02 -0.31283719823E+01 -0.10363459692E+02  0.47787271493E+02  0.20000002046E+02 0.  0.
        -12    1    1    2    0    0 -0.42028980797E+02  0.31283719823E+01  0.10363459692E+02  0.43400728507E+02  0.00000000000E+00 0.  1.
         11    1    3    3    0    0  0.26105290172E+02 -0.34394683401E+01  0.29004918488E+00  0.26332494114E+02  0.51100000000E-03 0. -1.
        -11    1    3    3    0    0  0.16973121052E+02  0.14452924923E+01 -0.93421326938E+01  0.19428102125E+02  0.51100000000E-03 0.  1.
         12    1    3    3    0    0 -0.10494304274E+01 -0.11341961345E+01 -0.13113761835E+01  0.20266752547E+01  0.00000000000E+00 0. -1.
</event>
<event>
 7    1  0.2530788E-009  0.4778727E+02  0.7816164E-02  0.1312668E+00
        -11   -1    0    0    0    0  0.00000000000E+00  0.00000000000E+00  0.45593999997E+02  0.45594000000E+02  0.51100000000E-03 0.  1.
         11   -1    0    0    0    0 -0.00000000000E+00 -0.00000000000E+00 -0.45593999997E+02  0.45594000000E+02  0.51100000000E-03 0. -1.
    9900012    2    1    2    0    0  0.18707002194E+02 -0.82227503990E+01 -0.38289136753E+02  0.47787267880E+02  0.19999985574E+02 0.  0.
        -12    1    1    2    0    0 -0.18707002194E+02  0.82227503990E+01  0.38289136753E+02  0.43400732120E+02  0.00000000000E+00 0.  1.
         11    1    3    3    0    0  0.13647734458E+02 -0.62517919604E+01 -0.24683398929E+02  0.28889716882E+02  0.51100000000E-03 0. -1.
        -11    1    3    3    0    0  0.44430186354E+01  0.94450135595E+00  0.41727155841E+00  0.45614266650E+01  0.51100000000E-03 0.  1.
        -12    1    3    3    0    0  0.61624910060E+00 -0.29154597945E+01 -0.14023009382E+02  0.14336124333E+02  0.00000000000E+00 0.  1.
</event>
<event>
 7    1  0.2530788E-009  0.4778726E+02  0.7816164E-02  0.1312668E+00
        -11   -1    0    0    0    0  0.00000000000E+00  0.00000000000E+00  0.45593999997E+02  0.45594000000E+02  0.51100000000E-03 0.  1.
         11   -1    0    0    0    0 -0.00000000000E+00 -0.00000000000E+00 -0.45593999997E+02  0.45594000000E+02  0.51100000000E-03 0. -1.
    9900012    2    1    2    0    0 -0.13563777523E+02 -0.97743766397E+01 -0.40051336685E+02  0.47787261877E+02  0.19999958202E+02 0.  0.
        -12    1    1    2    0    0  0.13563777523E+02  0.97743766397E+01  0.40051336685E+02  0.43400738123E+02  0.00000000000E+00 0.  1.
         11    1    3    3    0    0 -0.31091272580E+00 -0.49696226945E+01 -0.81472115626E+01  0.95483439902E+01  0.51100000000E-03 0. -1.
        -11    1    3    3    0    0  0.15763030913E+01  0.21905023213E+01 -0.40640068348E+00  0.27291378917E+01  0.51100000000E-03 0.  1.
        -12    1    3    3    0    0 -0.14829167889E+02 -0.69952562665E+01 -0.31497724439E+02  0.35509779995E+02  0.00000000000E+00 0.  1.
</event>
<event>
 7    1  0.2530788E-009  0.4778730E+02  0.7816164E-02  0.1312668E+00
        -11   -1    0    0    0    0  0.00000000000E+00  0.00000000000E+00  0.45593999997E+02  0.45594000000E+02  0.51100000000E-03 0. -1.
         11   -1    0    0    0    0 -0.00000000000E+00 -0.00000000000E+00 -0.45593999997E+02  0.45594000000E+02  0.51100000000E-03 0.  1.
    9900012    2    1    2    0    0 -0.43206270309E+02  0.25378701939E+01  0.32246264205E+01  0.47787299606E+02  0.20000130223E+02 0.  0.
        -12    1    1    2    0    0  0.43206270309E+02 -0.25378701939E+01 -0.32246264205E+01  0.43400700394E+02  0.00000000000E+00 0.  1.
         11    1    3    3    0    0 -0.29552828771E+02  0.58432127123E+01  0.23093802776E+01  0.30213342428E+02  0.51100000000E-03 0. -1.
        -11    1    3    3    0    0 -0.91766382336E+01 -0.62150248312E+01  0.35259919525E+01  0.11630556411E+02  0.51100000000E-03 0.  1.
        -12    1    3    3    0    0 -0.44768033045E+01  0.29096823128E+01 -0.26107458095E+01  0.59434007664E+01  0.00000000000E+00 0.  1.
</event>
<event>
 7    1  0.2530788E-009  0.4778728E+02  0.7816164E-02  0.1312668E+00
        -11   -1    0    0    0    0  0.00000000000E+00  0.00000000000E+00  0.45593999997E+02  0.45594000000E+02  0.51100000000E-03 0. -1.
         11   -1    0    0    0    0 -0.00000000000E+00 -0.00000000000E+00 -0.45593999997E+02  0.45594000000E+02  0.51100000000E-03 0.  1.
    9900012    2    1    2    0    0  0.75954451553E+01 -0.30268250121E+02  0.30162300932E+02  0.47787283992E+02  0.20000059034E+02 0.  0.
        -12    1    1    2    0    0 -0.75954451553E+01  0.30268250121E+02 -0.30162300932E+02  0.43400716008E+02  0.00000000000E+00 0.  1.
         11    1    3    3    0    0 -0.69669591757E+00 -0.24334734833E+02  0.26737928266E+02  0.36160496579E+02  0.51100000000E-03 0. -1.
        -11    1    3    3    0    0  0.62455429793E+01 -0.43692880603E+01  0.44819126746E+01  0.88422297383E+01  0.51100000000E-03 0.  1.
        -12    1    3    3    0    0  0.20465980935E+01 -0.15642272273E+01 -0.10575400088E+01  0.27845576750E+01  0.00000000000E+00 0.  1.
</event>
<event>
 7    1  0.2530788E-009  0.4778727E+02  0.7816164E-02  0.1312668E+00
        -11   -1    0    0    0    0  0.00000000000E+00  0.00000000000E+00  0.45593999997E+02  0.45594000000E+02  0.51100000000E-03 0. -1.
         11   -1    0    0    0    0 -0.00000000000E+00 -0.00000000000E+00 -0.45593999997E+02  0.45594000000E+02  0.51100000000E-03 0.  1.
    9900012    2    1    2    0    0 -0.14927807852E+02 -0.33140015467E+02  0.23717568008E+02  0.47787272994E+02  0.20000008889E+02 0.  0.
        -12    1    1    2    0    0  0.14927807852E+02  0.33140015467E+02 -0.23717568008E+02  0.43400727006E+02  0.00000000000E+00 0.  1.
         11    1    3    3    0    0 -0.73215631692E+01 -0.85296423233E+01  0.82179356065E+00  0.11270999526E+02  0.51100000000E-03 0. -1.
        -11    1    3    3    0    0  0.20409532705E+00 -0.18537275633E+02  0.15485909140E+02  0.24155447107E+02  0.51100000000E-03 0.  1.
         12    1    3    3    0    0 -0.78103400103E+01 -0.60730975113E+01  0.74098653064E+01  0.12360826361E+02  0.00000000000E+00 0. -1.
</event>
<event>
 7    1  0.2530788E-009  0.4778728E+02  0.7816164E-02  0.1312668E+00
        -11   -1    0    0    0    0  0.00000000000E+00  0.00000000000E+00  0.45593999997E+02  0.45594000000E+02  0.51100000000E-03 0.  1.
         11   -1    0    0    0    0 -0.00000000000E+00 -0.00000000000E+00 -0.45593999997E+02  0.45594000000E+02  0.51100000000E-03 0. -1.
    9900012    2    1    2    0    0 -0.27087269420E+02  0.21592586599E+02 -0.26146946051E+02  0.47787277097E+02  0.20000027596E+02 0.  0.
        -12    1    1    2    0    0  0.27087269420E+02 -0.21592586599E+02  0.26146946051E+02  0.43400722903E+02  0.00000000000E+00 0.  1.
         11    1    3    3    0    0 -0.25126496595E+02  0.11039896844E+02 -0.20299821975E+02  0.34136533595E+02  0.51100000000E-03 0. -1.
        -11    1    3    3    0    0 -0.20401358852E+01  0.10206326006E+02 -0.69345267700E+01  0.12506754445E+02  0.51100000000E-03 0.  1.
         12    1    3    3    0    0  0.79363059679E-01  0.34636374955E+00  0.10874026936E+01  0.11439890560E+01  0.00000000000E+00 0. -1.
</event>
<event>
 7    1  0.2530788E-009  0.4778727E+02  0.7816164E-02  0.1312668E+00
        -11   -1    0    0    0    0  0.00000000000E+00  0.00000000000E+00  0.45593999997E+02  0.45594000000E+02  0.51100000000E-03 0.  1.
         11   -1    0    0    0    0 -0.00000000000E+00 -0.00000000000E+00 -0.45593999997E+02  0.45594000000E+02  0.51100000000E-03 0. -1.
    9900012    2    1    2    0    0 -0.19404909925E+02  0.76800904160E+01 -0.38053770744E+02  0.47787265147E+02  0.19999973111E+02 0.  0.
        -12    1    1    2    0    0  0.19404909925E+02 -0.76800904160E+01  0.38053770744E+02  0.43400734853E+02  0.00000000000E+00 0.  1.
         11    1    3    3    0    0 -0.14690083393E+02 -0.25418597091E+01 -0.15699274410E+02  0.21650099725E+02  0.51100000000E-03 0. -1.
        -11    1    3    3    0    0  0.17463558216E+01  0.41506897893E+01 -0.56439843564E+01  0.72202869790E+01  0.51100000000E-03 0.  1.
         12    1    3    3    0    0 -0.64611823535E+01  0.60712603359E+01 -0.16710511978E+02  0.18916878443E+02  0.00000000000E+00 0. -1.
</event>
<event>
 7    1  0.2530788E-009  0.4778727E+02  0.7816164E-02  0.1312668E+00
        -11   -1    0    0    0    0  0.00000000000E+00  0.00000000000E+00  0.45593999997E+02  0.45594000000E+02  0.51100000000E-03 0.  1.
         11   -1    0    0    0    0 -0.00000000000E+00 -0.00000000000E+00 -0.45593999997E+02  0.45594000000E+02  0.51100000000E-03 0. -1.
    9900012    2    1    2    0    0 -0.87322523353E+00 -0.30435404684E+02 -0.30928092429E+02  0.47787270952E+02  0.19999999578E+02 0.  0.
        -12    1    1    2    0    0  0.87322523353E+00  0.30435404684E+02  0.30928092429E+02  0.43400729048E+02  0.00000000000E+00 0.  1.
         11    1    3    3    0    0 -0.25689718226E+01 -0.16773322587E+02 -0.22569904521E+02  0.28237290188E+02  0.51100000000E-03 0. -1.
        -11    1    3    3    0    0  0.55391059028E+01 -0.73576095887E+01 -0.12377360825E+01  0.92923680477E+01  0.51100000000E-03 0.  1.
        -12    1    3    3    0    0 -0.38433593138E+01 -0.63044725083E+01 -0.71204518258E+01  0.10257612716E+02  0.00000000000E+00 0.  1.
</event>
<event>
 7    1  0.2530788E-009  0.4778727E+02  0.7816164E-02  0.1312668E+00
        -11   -1    0    0    0    0  0.00000000000E+00  0.00000000000E+00  0.45593999997E+02  0.45594000000E+02  0.51100000000E-03 0. -1.
         11   -1    0    0    0    0 -0.00000000000E+00 -0.00000000000E+00 -0.45593999997E+02  0.45594000000E+02  0.51100000000E-03 0.  1.
    9900012    2    1    2    0    0  0.22229127690E+02  0.34106956319E+02  0.15040106935E+02  0.47787269547E+02  0.19999993174E+02 0.  0.
        -12    1    1    2    0    0 -0.22229127690E+02 -0.34106956319E+02 -0.15040106935E+02  0.43400730453E+02  0.00000000000E+00 0.  1.
         11    1    3    3    0    0  0.50175288501E+01  0.95428694030E+01  0.74404375555E+01  0.13099697076E+02  0.51100000000E-03 0. -1.
        -11    1    3    3    0    0  0.14669907491E+02  0.26673547757E+02  0.76349977130E+01  0.31384351612E+02  0.51100000000E-03 0.  1.
        -12    1    3    3    0    0  0.25416913493E+01 -0.21094608412E+01 -0.35328333801E-01  0.33032208595E+01  0.00000000000E+00 0.  1.
</event>
<event>
 7    1  0.2530788E-009  0.4778727E+02  0.7816164E-02  0.1312668E+00
        -11   -1    0    0    0    0  0.00000000000E+00  0.00000000000E+00  0.45593999997E+02  0.45594000000E+02  0.51100000000E-03 0. -1.
         11   -1    0    0    0    0 -0.00000000000E+00 -0.00000000000E+00 -0.45593999997E+02  0.45594000000E+02  0.51100000000E-03 0.  1.
    9900012    2    1    2    0    0  0.42159304973E+02 -0.87253289941E+01  0.54850093354E+01  0.47787266259E+02  0.19999978180E+02 0.  0.
        -12    1    1    2    0    0 -0.42159304973E+02  0.87253289941E+01 -0.54850093354E+01  0.43400733741E+02  0.00000000000E+00 0.  1.
         11    1    3    3    0    0  0.22693903016E+02 -0.73979807467E+00 -0.39333386059E+01  0.23044124807E+02  0.51100000000E-03 0. -1.
        -11    1    3    3    0    0  0.17502418277E+02 -0.99204326604E+01  0.84635090422E+01  0.21826145223E+02  0.51100000000E-03 0.  1.
        -12    1    3    3    0    0  0.19629836799E+01  0.19349017409E+01  0.95483889919E+00  0.29169962287E+01  0.00000000000E+00 0.  1.
</event>
<event>
 7    1  0.2530788E-009  0.4778728E+02  0.7816164E-02  0.1312668E+00
        -11   -1    0    0    0    0  0.00000000000E+00  0.00000000000E+00  0.45593999997E+02  0.45594000000E+02  0.51100000000E-03 0.  1.
         11   -1    0    0    0    0 -0.00000000000E+00 -0.00000000000E+00 -0.45593999997E+02  0.45594000000E+02  0.51100000000E-03 0. -1.
    9900012    2    1    2    0    0 -0.18383648607E+02  0.17233596368E+02 -0.35336487650E+02  0.47787277202E+02  0.20000028076E+02 0.  0.
        -12    1    1    2    0    0  0.18383648607E+02 -0.17233596368E+02  0.35336487650E+02  0.43400722798E+02  0.00000000000E+00 0.  1.
         11    1    3    3    0    0 -0.17658634864E+02  0.56199745282E+01 -0.24823757403E+02  0.30977902298E+02  0.51100000000E-03 0. -1.
        -11    1    3    3    0    0 -0.97581741734E+00  0.70212422288E+01 -0.98901548909E+01  0.12168205541E+02  0.51100000000E-03 0.  1.
         12    1    3    3    0    0  0.25080367410E+00  0.45923796115E+01 -0.62257535674E+00  0.46411693627E+01  0.00000000000E+00 0. -1.
</event>
<event>
 7    1  0.2530788E-009  0.4778727E+02  0.7816164E-02  0.1312668E+00
        -11   -1    0    0    0    0  0.00000000000E+00  0.00000000000E+00  0.45593999997E+02  0.45594000000E+02  0.51100000000E-03 0. -1.
         11   -1    0    0    0    0 -0.00000000000E+00 -0.00000000000E+00 -0.45593999997E+02  0.45594000000E+02  0.51100000000E-03 0.  1.
    9900012    2    1    2    0    0  0.44896564864E+01 -0.25763048953E+02  0.34637141858E+02  0.47787270712E+02  0.19999998482E+02 0.  0.
        -12    1    1    2    0    0 -0.44896564864E+01  0.25763048953E+02 -0.34637141858E+02  0.43400729288E+02  0.00000000000E+00 0.  1.
         11    1    3    3    0    0  0.79733106888E+01 -0.19714084664E+02  0.28771049277E+02  0.35776977153E+02  0.51100000000E-03 0. -1.
        -11    1    3    3    0    0 -0.27016162889E+01  0.57225086559E+00  0.43824589231E+01  0.51799756853E+01  0.51100000000E-03 0.  1.
        -12    1    3    3    0    0 -0.78203791341E+00 -0.66212151543E+01  0.14836336578E+01  0.68303178731E+01  0.00000000000E+00 0.  1.
</event>
<event>
 7    1  0.2530788E-009  0.4778726E+02  0.7816164E-02  0.1312668E+00
        -11   -1    0    0    0    0  0.00000000000E+00  0.00000000000E+00  0.45593999997E+02  0.45594000000E+02  0.51100000000E-03 0. -1.
         11   -1    0    0    0    0 -0.00000000000E+00 -0.00000000000E+00 -0.45593999997E+02  0.45594000000E+02  0.51100000000E-03 0.  1.
    9900012    2    1    2    0    0 -0.28908234743E+02 -0.11454252684E+02  0.30277686979E+02  0.47787259576E+02  0.19999947711E+02 0.  0.
        -12    1    1    2    0    0  0.28908234743E+02  0.11454252684E+02 -0.30277686979E+02  0.43400740424E+02  0.00000000000E+00 0.  1.
         11    1    3    3    0    0 -0.61894275665E+01 -0.14761946242E+00  0.73558989401E+00  0.62347331827E+01  0.51100000000E-03 0. -1.
        -11    1    3    3    0    0 -0.17781886461E+02 -0.55770835655E+01  0.28304659287E+02  0.33888834220E+02  0.51100000000E-03 0.  1.
        -12    1    3    3    0    0 -0.49369207155E+01 -0.57295496563E+01  0.12374377985E+01  0.76636921729E+01  0.00000000000E+00 0.  1.
</event>
<event>
 7    1  0.2530788E-009  0.4778728E+02  0.7816164E-02  0.1312668E+00
        -11   -1    0    0    0    0  0.00000000000E+00  0.00000000000E+00  0.45593999997E+02  0.45594000000E+02  0.51100000000E-03 0.  1.
         11   -1    0    0    0    0 -0.00000000000E+00 -0.00000000000E+00 -0.45593999997E+02  0.45594000000E+02  0.51100000000E-03 0. -1.
    9900012    2    1    2    0    0  0.21599857901E+02  0.23511605360E+01 -0.37570480177E+02  0.47787276528E+02  0.20000025001E+02 0.  0.
        -12    1    1    2    0    0 -0.21599857901E+02 -0.23511605360E+01  0.37570480177E+02  0.43400723472E+02  0.00000000000E+00 0.  1.
         11    1    3    3    0    0  0.24959276783E+01  0.16146570504E+01 -0.15708816653E+01  0.33622078807E+01  0.51100000000E-03 0. -1.
        -11    1    3    3    0    0  0.10727462888E+01  0.67598101694E+01 -0.73642244756E+01  0.10053736644E+02  0.51100000000E-03 0.  1.
        -12    1    3    3    0    0  0.18031183934E+02 -0.60233066838E+01 -0.28635374036E+02  0.34371332003E+02  0.00000000000E+00 0.  1.
</event>
<event>
 7    1  0.2530788E-009  0.4778726E+02  0.7816164E-02  0.1312668E+00
        -11   -1    0    0    0    0  0.00000000000E+00  0.00000000000E+00  0.45593999997E+02  0.45594000000E+02  0.51100000000E-03 0.  1.
         11   -1    0    0    0    0 -0.00000000000E+00 -0.00000000000E+00 -0.45593999997E+02  0.45594000000E+02  0.51100000000E-03 0. -1.
    9900012    2    1    2    0    0 -0.37174562389E+02  0.20612522485E+02 -0.87635523963E+01  0.47787262418E+02  0.19999960669E+02 0.  0.
        -12    1    1    2    0    0  0.37174562389E+02 -0.20612522485E+02  0.87635523963E+01  0.43400737582E+02  0.00000000000E+00 0.  1.
         11    1    3    3    0    0 -0.12908668114E+02  0.13263282992E+01  0.33086612464E+01  0.13391792216E+02  0.51100000000E-03 0.  1.
        -11    1    3    3    0    0 -0.16333142461E+02  0.12809258167E+02 -0.35203623558E+01  0.21053303513E+02  0.51100000000E-03 0. -1.
         12    1    3    3    0    0 -0.79327518147E+01  0.64769360191E+01 -0.85518512869E+01  0.13342166690E+02  0.00000000000E+00 0. -1.
</event>
<event>
 7    1  0.2530788E-009  0.4778727E+02  0.7816164E-02  0.1312668E+00
        -11   -1    0    0    0    0  0.00000000000E+00  0.00000000000E+00  0.45593999997E+02  0.45594000000E+02  0.51100000000E-03 0.  1.
         11   -1    0    0    0    0 -0.00000000000E+00 -0.00000000000E+00 -0.45593999997E+02  0.45594000000E+02  0.51100000000E-03 0. -1.
    9900012    2    1    2    0    0 -0.38020956760E+02 -0.18687859024E+02 -0.94230620856E+01  0.47787270434E+02  0.19999997216E+02 0.  0.
        -12    1    1    2    0    0  0.38020956760E+02  0.18687859024E+02  0.94230620856E+01  0.43400729566E+02  0.00000000000E+00 0.  1.
         11    1    3    3    0    0 -0.20351838827E+02 -0.78865495133E+01  0.41340864625E+01  0.22214537537E+02  0.51100000000E-03 0. -1.
        -11    1    3    3    0    0 -0.40490247773E+01 -0.53868220727E+01 -0.62684975125E+01  0.92036142366E+01  0.51100000000E-03 0.  1.
         12    1    3    3    0    0 -0.13620093155E+02 -0.54144874381E+01 -0.72886510355E+01  0.16369118660E+02  0.00000000000E+00 0. -1.
</event>
<event>
 7    1  0.2530788E-009  0.4778727E+02  0.7816164E-02  0.1312668E+00
        -11   -1    0    0    0    0  0.00000000000E+00  0.00000000000E+00  0.45593999997E+02  0.45594000000E+02  0.51100000000E-03 0.  1.
         11   -1    0    0    0    0 -0.00000000000E+00 -0.00000000000E+00 -0.45593999997E+02  0.45594000000E+02  0.51100000000E-03 0. -1.
    9900012    2    1    2    0    0  0.73065688608E+01 -0.33131641519E+02 -0.27065325534E+02  0.47787268848E+02  0.19999989988E+02 0.  0.
        -12    1    1    2    0    0 -0.73065688608E+01  0.33131641519E+02  0.27065325534E+02  0.43400731152E+02  0.00000000000E+00 0.  1.
         11    1    3    3    0    0  0.52799109226E+01 -0.17476684466E+02 -0.10527362476E+02  0.21074565719E+02  0.51100000000E-03 0. -1.
        -11    1    3    3    0    0 -0.56917058256E+01 -0.52513399284E+01 -0.41379211222E+01  0.87803461050E+01  0.51100000000E-03 0.  1.
        -12    1    3    3    0    0  0.77183637638E+01 -0.10403617125E+02 -0.12400041935E+02  0.17932357025E+02  0.00000000000E+00 0.  1.
</event>
<event>
 7    1  0.2530788E-009  0.4778727E+02  0.7816164E-02  0.1312668E+00
        -11   -1    0    0    0    0  0.00000000000E+00  0.00000000000E+00  0.45593999997E+02  0.45594000000E+02  0.51100000000E-03 0. -1.
         11   -1    0    0    0    0 -0.00000000000E+00 -0.00000000000E+00 -0.45593999997E+02  0.45594000000E+02  0.51100000000E-03 0.  1.
    9900012    2    1    2    0    0  0.32709173140E+02 -0.27438949479E+02  0.77998227280E+01  0.47787272003E+02  0.20000004372E+02 0.  0.
        -12    1    1    2    0    0 -0.32709173140E+02  0.27438949479E+02 -0.77998227280E+01  0.43400727997E+02  0.00000000000E+00 0.  1.
         11    1    3    3    0    0  0.10975941968E+02 -0.10685236394E+02  0.79801929613E-01  0.15318353289E+02  0.51100000000E-03 0. -1.
        -11    1    3    3    0    0 -0.23586975995E+01 -0.33473908756E+00  0.63757740493E+00  0.24661731146E+01  0.51100000000E-03 0.  1.
        -12    1    3    3    0    0  0.24091928772E+02 -0.16418973998E+02  0.70824433935E+01  0.30002745600E+02  0.00000000000E+00 0.  1.
</event>
<event>
 7    1  0.2530788E-009  0.4778727E+02  0.7816164E-02  0.1312668E+00
        -11   -1    0    0    0    0  0.00000000000E+00  0.00000000000E+00  0.45593999997E+02  0.45594000000E+02  0.51100000000E-03 0.  1.
         11   -1    0    0    0    0 -0.00000000000E+00 -0.00000000000E+00 -0.45593999997E+02  0.45594000000E+02  0.51100000000E-03 0. -1.
    9900012    2    1    2    0    0  0.13902480483E+02  0.40744676908E+02 -0.54968540939E+01  0.47787273452E+02  0.20000010978E+02 0.  0.
        -12    1    1    2    0    0 -0.13902480483E+02 -0.40744676908E+02  0.54968540939E+01  0.43400726548E+02  0.00000000000E+00 0.  1.
         11    1    3    3    0    0  0.14181994217E+02  0.22245850729E+02 -0.10631990135E+02  0.28443734795E+02  0.51100000000E-03 0. -1.
        -11    1    3    3    0    0  0.91216723154E+00  0.11220232916E+02  0.27009943860E+01  0.11576745945E+02  0.51100000000E-03 0.  1.
         12    1    3    3    0    0 -0.11916809661E+01  0.72785932641E+01  0.24341416552E+01  0.77667927117E+01  0.00000000000E+00 0. -1.
</event>
<event>
 7    1  0.2530788E-009  0.4778727E+02  0.7816164E-02  0.1312668E+00
        -11   -1    0    0    0    0  0.00000000000E+00  0.00000000000E+00  0.45593999997E+02  0.45594000000E+02  0.51100000000E-03 0.  1.
         11   -1    0    0    0    0 -0.00000000000E+00 -0.00000000000E+00 -0.45593999997E+02  0.45594000000E+02  0.51100000000E-03 0. -1.
    9900012    2    1    2    0    0 -0.14653433960E+02 -0.65646821385E+01 -0.40321272333E+02  0.47787272115E+02  0.20000004880E+02 0.  0.
        -12    1    1    2    0    0  0.14653433960E+02  0.65646821385E+01  0.40321272333E+02  0.43400727885E+02  0.00000000000E+00 0.  1.
         11    1    3    3    0    0 -0.35195236976E+01  0.29228801693E+01 -0.15707793409E+02  0.16360472169E+02  0.51100000000E-03 0. -1.
        -11    1    3    3    0    0 -0.99557106446E+01 -0.89865004781E+01 -0.99301490052E+01  0.16687756734E+02  0.51100000000E-03 0.  1.
        -12    1    3    3    0    0 -0.11781996181E+01 -0.50106182970E+00 -0.14683329919E+02  0.14739043212E+02  0.00000000000E+00 0.  1.
</event>
<event>
 7    1  0.2530788E-009  0.4778727E+02  0.7816164E-02  0.1312668E+00
        -11   -1    0    0    0    0  0.00000000000E+00  0.00000000000E+00  0.45593999997E+02  0.45594000000E+02  0.51100000000E-03 0. -1.
         11   -1    0    0    0    0 -0.00000000000E+00 -0.00000000000E+00 -0.45593999997E+02  0.45594000000E+02  0.51100000000E-03 0.  1.
    9900012    2    1    2    0    0  0.24878200193E+02 -0.26776811330E+02  0.23403008007E+02  0.47787271278E+02  0.20000001064E+02 0.  0.
        -12    1    1    2    0    0 -0.24878200193E+02  0.26776811330E+02 -0.23403008007E+02  0.43400728722E+02  0.00000000000E+00 0.  1.
         11    1    3    3    0    0  0.56324641834E+01 -0.17003416238E+02  0.13861742325E+02  0.22649254228E+02  0.51100000000E-03 0. -1.
        -11    1    3    3    0    0  0.92525000388E+00 -0.37202145430E+01  0.62998230467E+00  0.38849661235E+01  0.51100000000E-03 0.  1.
         12    1    3    3    0    0  0.18320486006E+02 -0.60531805495E+01  0.89112833768E+01  0.21253050926E+02  0.00000000000E+00 0. -1.
</event>
<event>
 7    1  0.2530788E-009  0.4778727E+02  0.7816164E-02  0.1312668E+00
        -11   -1    0    0    0    0  0.00000000000E+00  0.00000000000E+00  0.45593999997E+02  0.45594000000E+02  0.51100000000E-03 0. -1.
         11   -1    0    0    0    0 -0.00000000000E+00 -0.00000000000E+00 -0.45593999997E+02  0.45594000000E+02  0.51100000000E-03 0.  1.
    9900012    2    1    2    0    0 -0.29939198639E+02 -0.29052024994E+02  0.11968606117E+02  0.47787270700E+02  0.19999998430E+02 0.  0.
        -12    1    1    2    0    0  0.29939198639E+02  0.29052024994E+02 -0.11968606117E+02  0.43400729300E+02  0.00000000000E+00 0.  1.
         11    1    3    3    0    0 -0.12898058292E+02 -0.76794421698E+01 -0.17180259594E+01  0.15109114905E+02  0.51100000000E-03 0. -1.
        -11    1    3    3    0    0 -0.10267479568E+02 -0.11967513675E+02  0.14677371237E+01  0.15836564425E+02  0.51100000000E-03 0.  1.
         12    1    3    3    0    0 -0.67736607783E+01 -0.94050691498E+01  0.12218894952E+02  0.16841591371E+02  0.00000000000E+00 0. -1.
</event>
<event>
 7    1  0.2616997E-009  0.4778727E+02  0.7816164E-02  0.1312668E+00
        -11   -1    0    0    0    0  0.00000000000E+00  0.00000000000E+00  0.45593999997E+02  0.45594000000E+02  0.51100000000E-03 0.  1.
         11   -1    0    0    0    0 -0.00000000000E+00 -0.00000000000E+00 -0.45593999997E+02  0.45594000000E+02  0.51100000000E-03 0. -1.
    9900012    2    1    2    0    0 -0.35048527844E+02 -0.25401385709E+02 -0.31612656055E+01  0.47787270741E+02  0.19999998618E+02 0.  0.
        -12    1    1    2    0    0  0.35048527844E+02  0.25401385709E+02  0.31612656055E+01  0.43400729259E+02  0.00000000000E+00 0.  1.
         11    1    3    3    0    0 -0.18450858760E+02 -0.17257046256E+02 -0.22528581409E+01  0.25363659132E+02  0.51100000000E-03 0. -1.
        -11    1    3    3    0    0 -0.59058716489E+01  0.60238833678E+00 -0.52694186467E+01  0.79378186409E+01  0.51100000000E-03 0.  1.
        -12    1    3    3    0    0 -0.10691797435E+02 -0.87467277891E+01  0.43610111820E+01  0.14485792969E+02  0.00000000000E+00 0.  1.
</event>
<event>
 7    1  0.2530788E-009  0.4778727E+02  0.7816164E-02  0.1312668E+00
        -11   -1    0    0    0    0  0.00000000000E+00  0.00000000000E+00  0.45593999997E+02  0.45594000000E+02  0.51100000000E-03 0.  1.
         11   -1    0    0    0    0 -0.00000000000E+00 -0.00000000000E+00 -0.45593999997E+02  0.45594000000E+02  0.51100000000E-03 0. -1.
    9900012    2    1    2    0    0 -0.17170298281E+02  0.22750366780E+02 -0.32729579003E+02  0.47787266442E+02  0.19999979015E+02 0.  0.
        -12    1    1    2    0    0  0.17170298281E+02 -0.22750366780E+02  0.32729579003E+02  0.43400733558E+02  0.00000000000E+00 0.  1.
         11    1    3    3    0    0 -0.67501886260E+01 -0.17784148817E+01 -0.10780051327E+02  0.12842792253E+02  0.51100000000E-03 0. -1.
        -11    1    3    3    0    0  0.59749711481E+00  0.23631991104E+01 -0.20187237050E+01  0.31649578980E+01  0.51100000000E-03 0.  1.
         12    1    3    3    0    0 -0.11017606770E+02  0.22165582551E+02 -0.19930803970E+02  0.31779516291E+02  0.00000000000E+00 0. -1.
</event>
<event>
 7    1  0.2530788E-009  0.4778729E+02  0.7816164E-02  0.1312668E+00
        -11   -1    0    0    0    0  0.00000000000E+00  0.00000000000E+00  0.45593999997E+02  0.45594000000E+02  0.51100000000E-03 0. -1.
         11   -1    0    0    0    0 -0.00000000000E+00 -0.00000000000E+00 -0.45593999997E+02  0.45594000000E+02  0.51100000000E-03 0.  1.
    9900012    2    1    2    0    0 -0.26360941258E+02 -0.29609882015E+02  0.17662879654E+02  0.47787289699E+02  0.20000085054E+02 0.  0.
        -12    1    1    2    0    0  0.26360941258E+02  0.29609882015E+02 -0.17662879654E+02  0.43400710301E+02  0.00000000000E+00 0.  1.
         11    1    3    3    0    0 -0.24985567792E+02 -0.20710189880E+02  0.14514051476E+02  0.35550643500E+02  0.51100000000E-03 0. -1.
        -11    1    3    3    0    0 -0.13675664637E+00 -0.76786581967E+01 -0.99361142652E+00  0.77438852012E+01  0.51100000000E-03 0.  1.
        -12    1    3    3    0    0 -0.12386168195E+01 -0.12210339382E+01  0.41424396049E+01  0.44927609979E+01  0.00000000000E+00 0.  1.
</event>
<event>
 7    1  0.2530788E-009  0.4778727E+02  0.7816164E-02  0.1312668E+00
        -11   -1    0    0    0    0  0.00000000000E+00  0.00000000000E+00  0.45593999997E+02  0.45594000000E+02  0.51100000000E-03 0.  1.
         11   -1    0    0    0    0 -0.00000000000E+00 -0.00000000000E+00 -0.45593999997E+02  0.45594000000E+02  0.51100000000E-03 0. -1.
    9900012    2    1    2    0    0 -0.34493789921E+02  0.20191774044E+02 -0.16914315211E+02  0.47787270269E+02  0.19999996463E+02 0.  0.
        -12    1    1    2    0    0  0.34493789921E+02 -0.20191774044E+02  0.16914315211E+02  0.43400729731E+02  0.00000000000E+00 0.  1.
         11    1    3    3    0    0 -0.58821434727E+01  0.51577468806E+01 -0.28632741304E+01  0.83306844692E+01  0.51100000000E-03 0. -1.
        -11    1    3    3    0    0 -0.10525321719E+02  0.99075290049E+01 -0.14740398516E+02  0.20645117508E+02  0.51100000000E-03 0.  1.
        -12    1    3    3    0    0 -0.18086324730E+02  0.51264981580E+01  0.68935743541E+00  0.18811468291E+02  0.00000000000E+00 0.  1.
</event>
<event>
 7    1  0.2530788E-009  0.4778727E+02  0.7816164E-02  0.1312668E+00
        -11   -1    0    0    0    0  0.00000000000E+00  0.00000000000E+00  0.45593999997E+02  0.45594000000E+02  0.51100000000E-03 0. -1.
         11   -1    0    0    0    0 -0.00000000000E+00 -0.00000000000E+00 -0.45593999997E+02  0.45594000000E+02  0.51100000000E-03 0.  1.
    9900012    2    1    2    0    0  0.19125178780E+02 -0.38650750975E+02  0.48959540048E+01  0.47787269823E+02  0.19999994429E+02 0.  0.
        -12    1    1    2    0    0 -0.19125178780E+02  0.38650750975E+02 -0.48959540048E+01  0.43400730177E+02  0.00000000000E+00 0.  1.
         11    1    3    3    0    0  0.41727824308E+01 -0.25139937119E+02  0.90259668050E+01  0.27035099937E+02  0.51100000000E-03 0. -1.
        -11    1    3    3    0    0  0.75387886170E+01 -0.56989728415E+01 -0.30402527741E+01  0.99274751297E+01  0.51100000000E-03 0.  1.
         12    1    3    3    0    0  0.74136077322E+01 -0.78118410146E+01 -0.10897600260E+01  0.10824694756E+02  0.00000000000E+00 0. -1.
</event>
<event>
 7    1  0.3256517E-009  0.4778727E+02  0.7816164E-02  0.1312668E+00
        -11   -1    0    0    0    0  0.00000000000E+00  0.00000000000E+00  0.45593999997E+02  0.45594000000E+02  0.51100000000E-03 0. -1.
         11   -1    0    0    0    0 -0.00000000000E+00 -0.00000000000E+00 -0.45593999997E+02  0.45594000000E+02  0.51100000000E-03 0.  1.
    9900012    2    1    2    0    0 -0.39183709009E+02 -0.19965060360E+01  0.18554624636E+02  0.47787272086E+02  0.20000004749E+02 0.  0.
        -12    1    1    2    0    0  0.39183709009E+02  0.19965060360E+01 -0.18554624636E+02  0.43400727914E+02  0.00000000000E+00 0.  1.
         11    1    3    3    0    0 -0.18743104294E+02  0.39296190707E+00  0.13413727326E+02  0.23051821158E+02  0.51100000000E-03 0. -1.
        -11    1    3    3    0    0 -0.88755389982E+01 -0.73512865901E+01  0.14162838743E+01  0.11611307735E+02  0.51100000000E-03 0.  1.
        -12    1    3    3    0    0 -0.11565065717E+02  0.49618186470E+01  0.37246134353E+01  0.13124143194E+02  0.00000000000E+00 0.  1.
</event>
<event>
 7    1  0.2530788E-009  0.4778727E+02  0.7816164E-02  0.1312668E+00
        -11   -1    0    0    0    0  0.00000000000E+00  0.00000000000E+00  0.45593999997E+02  0.45594000000E+02  0.51100000000E-03 0.  1.
         11   -1    0    0    0    0 -0.00000000000E+00 -0.00000000000E+00 -0.45593999997E+02  0.45594000000E+02  0.51100000000E-03 0. -1.
    9900012    2    1    2    0    0 -0.39137925900E+01 -0.38506123336E+02 -0.19636289621E+02  0.47787272162E+02  0.20000005094E+02 0.  0.
        -12    1    1    2    0    0  0.39137925900E+01  0.38506123336E+02  0.19636289621E+02  0.43400727838E+02  0.00000000000E+00 0.  1.
         11    1    3    3    0    0  0.11443807028E+01 -0.16021907093E+02 -0.17242452455E+02  0.23565086060E+02  0.51100000000E-03 0. -1.
        -11    1    3    3    0    0 -0.62087816534E+00 -0.17166493211E+02 -0.16949028066E+01  0.17261131905E+02  0.51100000000E-03 0.  1.
         12    1    3    3    0    0 -0.44372951274E+01 -0.53177230316E+01 -0.69893435953E+00  0.69610541966E+01  0.00000000000E+00 0. -1.
</event>
<event>
 7    1  0.2530788E-009  0.4778727E+02  0.7816164E-02  0.1312668E+00
        -11   -1    0    0    0    0  0.00000000000E+00  0.00000000000E+00  0.45593999997E+02  0.45594000000E+02  0.51100000000E-03 0.  1.
         11   -1    0    0    0    0 -0.00000000000E+00 -0.00000000000E+00 -0.45593999997E+02  0.45594000000E+02  0.51100000000E-03 0. -1.
    9900012    2    1    2    0    0 -0.36806155690E+02  0.21581265352E+02  0.79485531308E+01  0.47787267198E+02  0.19999982464E+02 0.  0.
        -12    1    1    2    0    0  0.36806155690E+02 -0.21581265352E+02 -0.79485531308E+01  0.43400732802E+02  0.00000000000E+00 0.  1.
         11    1    3    3    0    0 -0.14446550897E+02  0.43878060581E+01  0.13190963218E+01  0.15155714770E+02  0.51100000000E-03 0. -1.
        -11    1    3    3    0    0 -0.40572464465E+01 -0.66876653191E+00 -0.32236698194E+01  0.52249923223E+01  0.51100000000E-03 0.  1.
        -12    1    3    3    0    0 -0.18302358347E+02  0.17862225826E+02  0.98531266284E+01  0.27406560106E+02  0.00000000000E+00 0.  1.
</event>
<event>
 7    1  0.2530788E-009  0.4778727E+02  0.7816164E-02  0.1312668E+00
        -11   -1    0    0    0    0  0.00000000000E+00  0.00000000000E+00  0.45593999997E+02  0.45594000000E+02  0.51100000000E-03 0.  1.
         11   -1    0    0    0    0 -0.00000000000E+00 -0.00000000000E+00 -0.45593999997E+02  0.45594000000E+02  0.51100000000E-03 0. -1.
    9900012    2    1    2    0    0 -0.41473081192E+02  0.49626599203E+01 -0.11788915578E+02  0.47787274344E+02  0.20000015042E+02 0.  0.
        -12    1    1    2    0    0  0.41473081192E+02 -0.49626599203E+01  0.11788915578E+02  0.43400725656E+02  0.00000000000E+00 0.  1.
         11    1    3    3    0    0 -0.39829717094E+01 -0.54665060111E+01 -0.40526149574E+01  0.78848233881E+01  0.51100000000E-03 0. -1.
        -11    1    3    3    0    0 -0.30446496489E+02  0.67538300497E+01 -0.57365887300E+01  0.31709806359E+02  0.51100000000E-03 0.  1.
         12    1    3    3    0    0 -0.70436129928E+01  0.36753358817E+01 -0.19997118905E+01  0.81926445962E+01  0.00000000000E+00 0. -1.
</event>
<event>
 7    1  0.2530788E-009  0.4778727E+02  0.7816164E-02  0.1312668E+00
        -11   -1    0    0    0    0  0.00000000000E+00  0.00000000000E+00  0.45593999997E+02  0.45594000000E+02  0.51100000000E-03 0.  1.
         11   -1    0    0    0    0 -0.00000000000E+00 -0.00000000000E+00 -0.45593999997E+02  0.45594000000E+02  0.51100000000E-03 0. -1.
    9900012    2    1    2    0    0 -0.34192829746E+02 -0.92903726464E+01 -0.25063172192E+02  0.47787271547E+02  0.20000002291E+02 0.  0.
        -12    1    1    2    0    0  0.34192829746E+02  0.92903726464E+01  0.25063172192E+02  0.43400728453E+02  0.00000000000E+00 0.  1.
         11    1    3    3    0    0 -0.37857474562E+01  0.78860204649E+00 -0.57581097628E+01  0.69361088004E+01  0.51100000000E-03 0. -1.
        -11    1    3    3    0    0 -0.94569865084E+01 -0.15089691921E+01 -0.15021057363E+02  0.17814144560E+02  0.51100000000E-03 0.  1.
        -12    1    3    3    0    0 -0.20950095781E+02 -0.85700055007E+01 -0.42840050668E+01  0.23037018187E+02  0.00000000000E+00 0.  1.
</event>
<event>
 7    1  0.2530788E-009  0.4778727E+02  0.7816164E-02  0.1312668E+00
        -11   -1    0    0    0    0  0.00000000000E+00  0.00000000000E+00  0.45593999997E+02  0.45594000000E+02  0.51100000000E-03 0. -1.
         11   -1    0    0    0    0 -0.00000000000E+00 -0.00000000000E+00 -0.45593999997E+02  0.45594000000E+02  0.51100000000E-03 0.  1.
    9900012    2    1    2    0    0 -0.80538746738E+01  0.42488890045E+02  0.36677775446E+01  0.47787271128E+02  0.20000000380E+02 0.  0.
        -12    1    1    2    0    0  0.80538746738E+01 -0.42488890045E+02 -0.36677775446E+01  0.43400728872E+02  0.00000000000E+00 0.  1.
         11    1    3    3    0    0 -0.11132429632E+02  0.15805315068E+02  0.24002891009E+01  0.19480769029E+02  0.51100000000E-03 0.  1.
        -11    1    3    3    0    0 -0.11546889078E+01  0.82316620650E+01 -0.31112214782E+01  0.88754304782E+01  0.51100000000E-03 0. -1.
         12    1    3    3    0    0  0.42332438665E+01  0.18451912912E+02  0.43787099219E+01  0.19431071621E+02  0.00000000000E+00 0. -1.
</event>
<event>
 7    1  0.2530788E-009  0.4778727E+02  0.7816164E-02  0.1312668E+00
        -11   -1    0    0    0    0  0.00000000000E+00  0.00000000000E+00  0.45593999997E+02  0.45594000000E+02  0.51100000000E-03 0. -1.
         11   -1    0    0    0    0 -0.00000000000E+00 -0.00000000000E+00 -0.45593999997E+02  0.45594000000E+02  0.51100000000E-03 0.  1.
    9900012    2    1    2    0    0  0.85518969274E+01  0.15079730839E+02  0.39788065192E+02  0.47787270110E+02  0.19999995740E+02 0.  0.
        -12    1    1    2    0    0 -0.85518969274E+01 -0.15079730839E+02 -0.39788065192E+02  0.43400729890E+02  0.00000000000E+00 0.  1.
         11    1    3    3    0    0 -0.98168882827E+00  0.69773577221E+01  0.35965408848E+01  0.79109000964E+01  0.51100000000E-03 0.  1.
        -11    1    3    3    0    0  0.10960940789E+02  0.96726732457E+01  0.31777108752E+02  0.34978385777E+02  0.51100000000E-03 0. -1.
         12    1    3    3    0    0 -0.14273550333E+01 -0.15703001286E+01  0.44144155553E+01  0.48979842364E+01  0.00000000000E+00 0. -1.
</event>
<event>
 7    1  0.2530788E-009  0.4778727E+02  0.7816164E-02  0.1312668E+00
        -11   -1    0    0    0    0  0.00000000000E+00  0.00000000000E+00  0.45593999997E+02  0.45594000000E+02  0.51100000000E-03 0.  1.
         11   -1    0    0    0    0 -0.00000000000E+00 -0.00000000000E+00 -0.45593999997E+02  0.45594000000E+02  0.51100000000E-03 0. -1.
    9900012    2    1    2    0    0 -0.18681151990E+02 -0.29086323482E+02 -0.26241636212E+02  0.47787272765E+02  0.20000007847E+02 0.  0.
        -12    1    1    2    0    0  0.18681151990E+02  0.29086323482E+02  0.26241636212E+02  0.43400727235E+02  0.00000000000E+00 0.  1.
         11    1    3    3    0    0 -0.15556072721E+02 -0.12459567980E+02 -0.18248886964E+02  0.27023214251E+02  0.51100000000E-03 0. -1.
        -11    1    3    3    0    0 -0.25489066733E+01 -0.64986959888E+00 -0.30554675920E+01  0.40317661380E+01  0.51100000000E-03 0.  1.
         12    1    3    3    0    0 -0.57617259630E+00 -0.15976885903E+02 -0.49372816554E+01  0.16732292377E+02  0.00000000000E+00 0. -1.
</event>
<event>
 7    1  0.2530788E-009  0.4778728E+02  0.7816164E-02  0.1312668E+00
        -11   -1    0    0    0    0  0.00000000000E+00  0.00000000000E+00  0.45593999997E+02  0.45594000000E+02  0.51100000000E-03 0.  1.
         11   -1    0    0    0    0 -0.00000000000E+00 -0.00000000000E+00 -0.45593999997E+02  0.45594000000E+02  0.51100000000E-03 0. -1.
    9900012    2    1    2    0    0  0.90335870662E+01  0.26021076649E+02 -0.33539838140E+02  0.47787275723E+02  0.20000021333E+02 0.  0.
        -12    1    1    2    0    0 -0.90335870662E+01 -0.26021076649E+02  0.33539838140E+02  0.43400724277E+02  0.00000000000E+00 0.  1.
         11    1    3    3    0    0  0.15791490285E+01  0.45524687319E-01 -0.12564984822E+02  0.12663910454E+02  0.51100000000E-03 0.  1.
        -11    1    3    3    0    0 -0.67572120383E+00  0.70324714792E+01 -0.84024744835E+01  0.10977879210E+02  0.51100000000E-03 0. -1.
         12    1    3    3    0    0  0.81301592416E+01  0.18943080483E+02 -0.12572378835E+02  0.24145486059E+02  0.00000000000E+00 0. -1.
</event>
<event>
 7    1  0.2530788E-009  0.4778727E+02  0.7816164E-02  0.1312668E+00
        -11   -1    0    0    0    0  0.00000000000E+00  0.00000000000E+00  0.45593999997E+02  0.45594000000E+02  0.51100000000E-03 0. -1.
         11   -1    0    0    0    0 -0.00000000000E+00 -0.00000000000E+00 -0.45593999997E+02  0.45594000000E+02  0.51100000000E-03 0.  1.
    9900012    2    1    2    0    0  0.23285753282E+02 -0.18762059199E+02  0.31454444953E+02  0.47787270990E+02  0.19999999750E+02 0.  0.
        -12    1    1    2    0    0 -0.23285753282E+02  0.18762059199E+02 -0.31454444953E+02  0.43400729010E+02  0.00000000000E+00 0.  1.
         11    1    3    3    0    0  0.71750934661E+01 -0.11432016828E+02  0.25680396435E+02  0.29011303596E+02  0.51100000000E-03 0. -1.
        -11    1    3    3    0    0  0.11783605440E+02 -0.63944375149E+01  0.48228888547E+01  0.14247892667E+02  0.51100000000E-03 0.  1.
         12    1    3    3    0    0  0.43270543766E+01 -0.93560485650E+00  0.95115966341E+00  0.45280747267E+01  0.00000000000E+00 0. -1.
</event>
<event>
 7    1  0.2832929E-009  0.4778727E+02  0.7816164E-02  0.1312668E+00
        -11   -1    0    0    0    0  0.00000000000E+00  0.00000000000E+00  0.45593999997E+02  0.45594000000E+02  0.51100000000E-03 0.  1.
         11   -1    0    0    0    0 -0.00000000000E+00 -0.00000000000E+00 -0.45593999997E+02  0.45594000000E+02  0.51100000000E-03 0. -1.
    9900012    2    1    2    0    0  0.17644441328E+02  0.35957708319E+02 -0.16713474815E+02  0.47787270309E+02  0.19999996648E+02 0.  0.
        -12    1    1    2    0    0 -0.17644441328E+02 -0.35957708319E+02  0.16713474815E+02  0.43400729691E+02  0.00000000000E+00 0.  1.
         11    1    3    3    0    0  0.80243028074E+01  0.20196662700E+02 -0.88457997821E+01  0.23463648348E+02  0.51100000000E-03 0. -1.
        -11    1    3    3    0    0  0.94937517272E+01  0.64192479906E+01  0.92050863982E+00  0.11497191093E+02  0.51100000000E-03 0.  1.
        -12    1    3    3    0    0  0.12638679344E+00  0.93417976280E+01 -0.87881836722E+01  0.12826430868E+02  0.00000000000E+00 0.  1.
</event>
<event>
 7    1  0.2530788E-009  0.4778727E+02  0.7816164E-02  0.1312668E+00
        -11   -1    0    0    0    0  0.00000000000E+00  0.00000000000E+00  0.45593999997E+02  0.45594000000E+02  0.51100000000E-03 0. -1.
         11   -1    0    0    0    0 -0.00000000000E+00 -0.00000000000E+00 -0.45593999997E+02  0.45594000000E+02  0.51100000000E-03 0.  1.
    9900012    2    1    2    0    0  0.46235513540E+01  0.25470040094E+02  0.34835656811E+02  0.47787272414E+02  0.20000006244E+02 0.  0.
        -12    1    1    2    0    0 -0.46235513540E+01 -0.25470040094E+02 -0.34835656811E+02  0.43400727586E+02  0.00000000000E+00 0.  1.
         11    1    3    3    0    0 -0.15960608477E+01  0.42319516648E+01  0.70285786389E+01  0.83580944639E+01  0.51100000000E-03 0. -1.
        -11    1    3    3    0    0  0.78784576718E+01  0.22839107502E+02  0.28152561240E+02  0.37098000369E+02  0.51100000000E-03 0.  1.
        -12    1    3    3    0    0 -0.16588454700E+01 -0.16010190721E+01 -0.34548306791E+00  0.23311775807E+01  0.00000000000E+00 0.  1.
</event>
<event>
 7    1  0.2530788E-009  0.4778726E+02  0.7816164E-02  0.1312668E+00
        -11   -1    0    0    0    0  0.00000000000E+00  0.00000000000E+00  0.45593999997E+02  0.45594000000E+02  0.51100000000E-03 0.  1.
         11   -1    0    0    0    0 -0.00000000000E+00 -0.00000000000E+00 -0.45593999997E+02  0.45594000000E+02  0.51100000000E-03 0. -1.
    9900012    2    1    2    0    0 -0.42415255763E+02  0.69775063621E+01 -0.59903811339E+01  0.47787260576E+02  0.19999952269E+02 0.  0.
        -12    1    1    2    0    0  0.42415255763E+02 -0.69775063621E+01  0.59903811339E+01  0.43400739424E+02  0.00000000000E+00 0.  1.
         11    1    3    3    0    0 -0.55643998305E+01  0.52034368572E+01 -0.51470561679E+01  0.91940463375E+01  0.51100000000E-03 0. -1.
        -11    1    3    3    0    0 -0.24658237235E+02 -0.41469478921E+01  0.11926582259E+00  0.25004800838E+02  0.51100000000E-03 0.  1.
         12    1    3    3    0    0 -0.12192618697E+02  0.59210173970E+01 -0.96259078853E+00  0.13588413400E+02  0.00000000000E+00 0. -1.
</event>
<event>
 7    1  0.2530788E-009  0.4778727E+02  0.7816164E-02  0.1312668E+00
        -11   -1    0    0    0    0  0.00000000000E+00  0.00000000000E+00  0.45593999997E+02  0.45594000000E+02  0.51100000000E-03 0.  1.
         11   -1    0    0    0    0 -0.00000000000E+00 -0.00000000000E+00 -0.45593999997E+02  0.45594000000E+02  0.51100000000E-03 0. -1.
    9900012    2    1    2    0    0  0.16970698723E+02 -0.18183882988E+02 -0.35566347003E+02  0.47787271264E+02  0.20000001002E+02 0.  0.
        -12    1    1    2    0    0 -0.16970698723E+02  0.18183882988E+02  0.35566347003E+02  0.43400728736E+02  0.00000000000E+00 0.  1.
         11    1    3    3    0    0  0.11246496312E+02 -0.12638404026E+02 -0.33570180035E+02  0.37592152418E+02  0.51100000000E-03 0. -1.
        -11    1    3    3    0    0  0.82314744354E+00 -0.40075901820E+01  0.10490681570E+01  0.42236116109E+01  0.51100000000E-03 0.  1.
         12    1    3    3    0    0  0.49010549669E+01 -0.15378887798E+01 -0.30452351254E+01  0.59715072349E+01  0.00000000000E+00 0. -1.
</event>
<event>
 7    1  0.2530788E-009  0.4778729E+02  0.7816164E-02  0.1312668E+00
        -11   -1    0    0    0    0  0.00000000000E+00  0.00000000000E+00  0.45593999997E+02  0.45594000000E+02  0.51100000000E-03 0.  1.
         11   -1    0    0    0    0 -0.00000000000E+00 -0.00000000000E+00 -0.45593999997E+02  0.45594000000E+02  0.51100000000E-03 0. -1.
    9900012    2    1    2    0    0 -0.10073929969E+02  0.42941296149E+01 -0.41996403576E+02  0.47787291164E+02  0.20000091732E+02 0.  0.
        -12    1    1    2    0    0  0.10073929969E+02 -0.42941296149E+01  0.41996403576E+02  0.43400708836E+02  0.00000000000E+00 0.  1.
         11    1    3    3    0    0 -0.90366176002E+01  0.10114005960E+02 -0.20377599376E+02  0.24478564721E+02  0.51100000000E-03 0. -1.
        -11    1    3    3    0    0  0.25319052266E+01 -0.10368950515E+01 -0.62989831463E+01  0.68675238888E+01  0.51100000000E-03 0.  1.
         12    1    3    3    0    0 -0.35692175955E+01 -0.47829812939E+01 -0.15319821054E+02  0.16441202554E+02  0.00000000000E+00 0. -1.
</event>
<event>
 7    1  0.2530788E-009  0.4778727E+02  0.7816164E-02  0.1312668E+00
        -11   -1    0    0    0    0  0.00000000000E+00  0.00000000000E+00  0.45593999997E+02  0.45594000000E+02  0.51100000000E-03 0.  1.
         11   -1    0    0    0    0 -0.00000000000E+00 -0.00000000000E+00 -0.45593999997E+02  0.45594000000E+02  0.51100000000E-03 0. -1.
    9900012    2    1    2    0    0 -0.28210303281E+02  0.23031802163E+02 -0.23608015161E+02  0.47787268417E+02  0.19999988020E+02 0.  0.
        -12    1    1    2    0    0  0.28210303281E+02 -0.23031802163E+02  0.23608015161E+02  0.43400731583E+02  0.00000000000E+00 0.  1.
         11    1    3    3    0    0 -0.26647353300E+02  0.15700924813E+02 -0.25003629734E+02  0.39771622774E+02  0.51100000000E-03 0. -1.
        -11    1    3    3    0    0  0.63566968725E+00  0.25386171744E+01  0.57839432628E+00  0.26801480122E+01  0.51100000000E-03 0.  1.
         12    1    3    3    0    0 -0.21986196677E+01  0.47922601761E+01  0.81722024678E+00  0.53354976310E+01  0.00000000000E+00 0. -1.
</event>
<event>
 7    1  0.2530788E-009  0.4778727E+02  0.7816164E-02  0.1312668E+00
        -11   -1    0    0    0    0  0.00000000000E+00  0.00000000000E+00  0.45593999997E+02  0.45594000000E+02  0.51100000000E-03 0.  1.
         11   -1    0    0    0    0 -0.00000000000E+00 -0.00000000000E+00 -0.45593999997E+02  0.45594000000E+02  0.51100000000E-03 0. -1.
    9900012    2    1    2    0    0 -0.38397742269E+02 -0.16908748000E+02 -0.11105455967E+02  0.47787268181E+02  0.19999986943E+02 0.  0.
        -12    1    1    2    0    0  0.38397742269E+02  0.16908748000E+02  0.11105455967E+02  0.43400731819E+02  0.00000000000E+00 0.  1.
         11    1    3    3    0    0 -0.20801759943E+02 -0.19360597465E+02 -0.92513564478E+01  0.29885340007E+02  0.51100000000E-03 0. -1.
        -11    1    3    3    0    0 -0.14399802275E+02  0.15409597854E+01 -0.15403453759E+01  0.14563705804E+02  0.51100000000E-03 0.  1.
         12    1    3    3    0    0 -0.31961800512E+01  0.91088968035E+00 -0.31375414281E+00  0.33382223700E+01  0.00000000000E+00 0. -1.
</event>
<event>
 7    1  0.2530788E-009  0.4778727E+02  0.7816164E-02  0.1312668E+00
        -11   -1    0    0    0    0  0.00000000000E+00  0.00000000000E+00  0.45593999997E+02  0.45594000000E+02  0.51100000000E-03 0.  1.
         11   -1    0    0    0    0 -0.00000000000E+00 -0.00000000000E+00 -0.45593999997E+02  0.45594000000E+02  0.51100000000E-03 0. -1.
    9900012    2    1    2    0    0 -0.22354108596E+02  0.30342345377E+02 -0.21523459804E+02  0.47787269407E+02  0.19999992535E+02 0.  0.
        -12    1    1    2    0    0  0.22354108596E+02 -0.30342345377E+02  0.21523459804E+02  0.43400730593E+02  0.00000000000E+00 0.  1.
         11    1    3    3    0    0 -0.56862388770E+01  0.13245134570E+02 -0.86098790217E+01  0.16789786162E+02  0.51100000000E-03 0. -1.
        -11    1    3    3    0    0 -0.10936227506E+02  0.69986717102E+01 -0.14286245737E+02  0.19304903400E+02  0.51100000000E-03 0.  1.
        -12    1    3    3    0    0 -0.57316422128E+01  0.10098539097E+02  0.13726649556E+01  0.11692579845E+02  0.00000000000E+00 0.  1.
</event>
<event>
 7    1  0.2530788E-009  0.4778727E+02  0.7816164E-02  0.1312668E+00
        -11   -1    0    0    0    0  0.00000000000E+00  0.00000000000E+00  0.45593999997E+02  0.45594000000E+02  0.51100000000E-03 0. -1.
         11   -1    0    0    0    0 -0.00000000000E+00 -0.00000000000E+00 -0.45593999997E+02  0.45594000000E+02  0.51100000000E-03 0.  1.
    9900012    2    1    2    0    0 -0.12488514998E+02  0.41359820651E+02  0.41261890234E+01  0.47787271815E+02  0.20000003512E+02 0.  0.
        -12    1    1    2    0    0  0.12488514998E+02 -0.41359820651E+02 -0.41261890234E+01  0.43400728185E+02  0.00000000000E+00 0.  1.
         11    1    3    3    0    0 -0.16467687988E+02  0.24188474795E+02  0.26280960825E+01  0.29379822155E+02  0.51100000000E-03 0. -1.
        -11    1    3    3    0    0  0.26689284006E+01  0.84916292959E+01 -0.17054747892E+01  0.90630895077E+01  0.51100000000E-03 0.  1.
         12    1    3    3    0    0  0.13102445891E+01  0.86797165605E+01  0.32035677302E+01  0.93443601523E+01  0.00000000000E+00 0. -1.
</event>
<event>
 7    1  0.2605446E-009  0.4778726E+02  0.7816164E-02  0.1312668E+00
        -11   -1    0    0    0    0  0.00000000000E+00  0.00000000000E+00  0.45593999997E+02  0.45594000000E+02  0.51100000000E-03 0. -1.
         11   -1    0    0    0    0 -0.00000000000E+00 -0.00000000000E+00 -0.45593999997E+02  0.45594000000E+02  0.51100000000E-03 0.  1.
    9900012    2    1    2    0    0  0.23917418275E+02 -0.20222729498E+02  0.30043671699E+02  0.47787263895E+02  0.19999967402E+02 0.  0.
        -12    1    1    2    0    0 -0.23917418275E+02  0.20222729498E+02 -0.30043671699E+02  0.43400736105E+02  0.00000000000E+00 0.  1.
         11    1    3    3    0    0  0.78466048079E+01 -0.90698870567E+01  0.21648185792E+02  0.24748252597E+02  0.51100000000E-03 0. -1.
        -11    1    3    3    0    0  0.15021597726E+01 -0.34478743551E+01 -0.12256256797E+01  0.39555631861E+01  0.51100000000E-03 0.  1.
         12    1    3    3    0    0  0.14568653695E+02 -0.77049680861E+01  0.96211115865E+01  0.19083448112E+02  0.00000000000E+00 0. -1.
</event>
<event>
 7    1  0.2530788E-009  0.4778727E+02  0.7816164E-02  0.1312668E+00
        -11   -1    0    0    0    0  0.00000000000E+00  0.00000000000E+00  0.45593999997E+02  0.45594000000E+02  0.51100000000E-03 0. -1.
         11   -1    0    0    0    0 -0.00000000000E+00 -0.00000000000E+00 -0.45593999997E+02  0.45594000000E+02  0.51100000000E-03 0.  1.
    9900012    2    1    2    0    0 -0.12979907576E+02 -0.41359779513E+02 -0.21245532327E+01  0.47787273180E+02  0.20000009736E+02 0.  0.
        -12    1    1    2    0    0  0.12979907576E+02  0.41359779513E+02  0.21245532327E+01  0.43400726820E+02  0.00000000000E+00 0.  1.
         11    1    3    3    0    0 -0.13558469932E+01 -0.13109030739E+02  0.68072625775E+01  0.14833200331E+02  0.51100000000E-03 0. -1.
        -11    1    3    3    0    0 -0.23485713954E+01 -0.57678380032E+01 -0.56571496670E+01  0.84135061327E+01  0.51100000000E-03 0.  1.
         12    1    3    3    0    0 -0.92754891876E+01 -0.22482910771E+02 -0.32746661432E+01  0.24540566717E+02  0.00000000000E+00 0. -1.
</event>
<event>
 7    1  0.2530788E-009  0.4778727E+02  0.7816164E-02  0.1312668E+00
        -11   -1    0    0    0    0  0.00000000000E+00  0.00000000000E+00  0.45593999997E+02  0.45594000000E+02  0.51100000000E-03 0.  1.
         11   -1    0    0    0    0 -0.00000000000E+00 -0.00000000000E+00 -0.45593999997E+02  0.45594000000E+02  0.51100000000E-03 0. -1.
    9900012    2    1    2    0    0  0.33287541192E+02 -0.60218567415E+01 -0.27190071411E+02  0.47787272580E+02  0.20000007003E+02 0.  0.
        -12    1    1    2    0    0 -0.33287541192E+02  0.60218567415E+01  0.27190071411E+02  0.43400727420E+02  0.00000000000E+00 0.  1.
         11    1    3    3    0    0  0.11350065430E+01  0.22032297639E+01 -0.88374423722E+01  0.91783903375E+01  0.51100000000E-03 0.  1.
        -11    1    3    3    0    0  0.27814313320E+02 -0.43525493090E+01 -0.15205118029E+02  0.31996504894E+02  0.51100000000E-03 0. -1.
        -12    1    3    3    0    0  0.43382213295E+01 -0.38725371964E+01 -0.31475110099E+01  0.66123773485E+01  0.00000000000E+00 0.  1.
</event>
<event>
 7    1  0.2530788E-009  0.4778727E+02  0.7816164E-02  0.1312668E+00
        -11   -1    0    0    0    0  0.00000000000E+00  0.00000000000E+00  0.45593999997E+02  0.45594000000E+02  0.51100000000E-03 0.  1.
         11   -1    0    0    0    0 -0.00000000000E+00 -0.00000000000E+00 -0.45593999997E+02  0.45594000000E+02  0.51100000000E-03 0. -1.
    9900012    2    1    2    0    0 -0.25440183863E+02  0.29258429408E+02 -0.19502935959E+02  0.47787272386E+02  0.20000006118E+02 0.  0.
        -12    1    1    2    0    0  0.25440183863E+02 -0.29258429408E+02  0.19502935959E+02  0.43400727614E+02  0.00000000000E+00 0.  1.
         11    1    3    3    0    0 -0.14967120982E+02  0.19185777276E+02 -0.17731057863E+02  0.30108124707E+02  0.51100000000E-03 0. -1.
        -11    1    3    3    0    0 -0.67468692028E+01  0.26778567504E+00  0.10104309639E+01  0.68273658318E+01  0.51100000000E-03 0.  1.
         12    1    3    3    0    0 -0.37261936781E+01  0.98048664569E+01 -0.27823090605E+01  0.10851781848E+02  0.00000000000E+00 0. -1.
</event>
<event>
 7    1  0.2530788E-009  0.4778727E+02  0.7816164E-02  0.1312668E+00
        -11   -1    0    0    0    0  0.00000000000E+00  0.00000000000E+00  0.45593999997E+02  0.45594000000E+02  0.51100000000E-03 0. -1.
         11   -1    0    0    0    0 -0.00000000000E+00 -0.00000000000E+00 -0.45593999997E+02  0.45594000000E+02  0.51100000000E-03 0.  1.
    9900012    2    1    2    0    0 -0.34189499141E+02 -0.26729853074E+02  0.46507320530E+00  0.47787272011E+02  0.20000004408E+02 0.  0.
        -12    1    1    2    0    0  0.34189499141E+02  0.26729853074E+02 -0.46507320530E+00  0.43400727989E+02  0.00000000000E+00 0.  1.
         11    1    3    3    0    0 -0.53257268734E+01 -0.15169065433E+01  0.10506000804E+01  0.56363226470E+01  0.51100000000E-03 0. -1.
        -11    1    3    3    0    0 -0.10101220257E+02 -0.12942457364E+02 -0.83584708707E+01  0.18422971770E+02  0.51100000000E-03 0.  1.
        -12    1    3    3    0    0 -0.18762552011E+02 -0.12270489167E+02  0.77729439956E+01  0.23727977594E+02  0.00000000000E+00 0.  1.
</event>
<event>
 7    1  0.2530788E-009  0.4778729E+02  0.7816164E-02  0.1312668E+00
        -11   -1    0    0    0    0  0.00000000000E+00  0.00000000000E+00  0.45593999997E+02  0.45594000000E+02  0.51100000000E-03 0.  1.
         11   -1    0    0    0    0 -0.00000000000E+00 -0.00000000000E+00 -0.45593999997E+02  0.45594000000E+02  0.51100000000E-03 0. -1.
    9900012    2    1    2    0    0  0.24213537155E+02 -0.35848081950E+02 -0.34987806760E+01  0.47787287710E+02  0.20000075984E+02 0.  0.
        -12    1    1    2    0    0 -0.24213537155E+02  0.35848081950E+02  0.34987806760E+01  0.43400712290E+02  0.00000000000E+00 0.  1.
         11    1    3    3    0    0  0.40440894487E+01 -0.20244000096E+02 -0.32199866442E+01  0.20893599824E+02  0.51100000000E-03 0. -1.
        -11    1    3    3    0    0  0.57949157981E+01 -0.44334718295E+01  0.38162872848E+01  0.82341223255E+01  0.51100000000E-03 0.  1.
         12    1    3    3    0    0  0.14374531909E+02 -0.11170610025E+02 -0.40950813166E+01  0.18659565561E+02  0.00000000000E+00 0. -1.
</event>
<event>
 7    1  0.2530788E-009  0.4778727E+02  0.7816164E-02  0.1312668E+00
        -11   -1    0    0    0    0  0.00000000000E+00  0.00000000000E+00  0.45593999997E+02  0.45594000000E+02  0.51100000000E-03 0. -1.
         11   -1    0    0    0    0 -0.00000000000E+00 -0.00000000000E+00 -0.45593999997E+02  0.45594000000E+02  0.51100000000E-03 0.  1.
    9900012    2    1    2    0    0  0.19217763781E+02  0.33961830684E+02  0.18997231477E+02  0.47787271988E+02  0.20000004303E+02 0.  0.
        -12    1    1    2    0    0 -0.19217763781E+02 -0.33961830684E+02 -0.18997231477E+02  0.43400728012E+02  0.00000000000E+00 0.  1.
         11    1    3    3    0    0  0.83694524759E+01  0.11303163608E+02  0.16423636292E+02  0.21622790560E+02  0.51100000000E-03 0. -1.
        -11    1    3    3    0    0  0.78357040801E+01  0.20946970130E+02  0.33488030478E+01  0.22613896130E+02  0.51100000000E-03 0.  1.
         12    1    3    3    0    0  0.30126072250E+01  0.17116969459E+01 -0.77520786243E+00  0.35505852978E+01  0.00000000000E+00 0. -1.
</event>
<event>
 7    1  0.2530788E-009  0.4778729E+02  0.7816164E-02  0.1312668E+00
        -11   -1    0    0    0    0  0.00000000000E+00  0.00000000000E+00  0.45593999997E+02  0.45594000000E+02  0.51100000000E-03 0. -1.
         11   -1    0    0    0    0 -0.00000000000E+00 -0.00000000000E+00 -0.45593999997E+02  0.45594000000E+02  0.51100000000E-03 0.  1.
    9900012    2    1    2    0    0 -0.79740097858E+01 -0.18261634424E+02  0.38555796035E+02  0.47787291114E+02  0.20000091505E+02 0.  0.
        -12    1    1    2    0    0  0.79740097858E+01  0.18261634424E+02 -0.38555796035E+02  0.43400708886E+02  0.00000000000E+00 0.  1.
         11    1    3    3    0    0 -0.11570740871E+00 -0.80475232221E+01  0.12216163794E+02  0.14629103743E+02  0.51100000000E-03 0. -1.
        -11    1    3    3    0    0 -0.41617301747E+01  0.33181261439E+01  0.11850135270E+02  0.12990599114E+02  0.51100000000E-03 0.  1.
        -12    1    3    3    0    0 -0.36965722024E+01 -0.13532237346E+02  0.14489496971E+02  0.20167588257E+02  0.00000000000E+00 0.  1.
</event>
<event>
 7    1  0.2530788E-009  0.4778727E+02  0.7816164E-02  0.1312668E+00
        -11   -1    0    0    0    0  0.00000000000E+00  0.00000000000E+00  0.45593999997E+02  0.45594000000E+02  0.51100000000E-03 0. -1.
         11   -1    0    0    0    0 -0.00000000000E+00 -0.00000000000E+00 -0.45593999997E+02  0.45594000000E+02  0.51100000000E-03 0.  1.
    9900012    2    1    2    0    0  0.20778801275E+02 -0.20551443457E+02  0.32085865121E+02  0.47787272458E+02  0.20000006446E+02 0.  0.
        -12    1    1    2    0    0 -0.20778801275E+02  0.20551443457E+02 -0.32085865121E+02  0.43400727542E+02  0.00000000000E+00 0.  1.
         11    1    3    3    0    0  0.12884142685E+02 -0.14538308734E+02  0.26689380148E+02  0.33010400884E+02  0.51100000000E-03 0. -1.
        -11    1    3    3    0    0  0.14875702654E+01  0.14998174423E+01 -0.16214475339E+01  0.26629701502E+01  0.51100000000E-03 0.  1.
         12    1    3    3    0    0  0.64070883249E+01 -0.75129521656E+01  0.70179325065E+01  0.12113901424E+02  0.00000000000E+00 0. -1.
</event>
<event>
 7    1  0.2530788E-009  0.4778726E+02  0.7816164E-02  0.1312668E+00
        -11   -1    0    0    0    0  0.00000000000E+00  0.00000000000E+00  0.45593999997E+02  0.45594000000E+02  0.51100000000E-03 0. -1.
         11   -1    0    0    0    0 -0.00000000000E+00 -0.00000000000E+00 -0.45593999997E+02  0.45594000000E+02  0.51100000000E-03 0.  1.
    9900012    2    1    2    0    0 -0.15861145408E+02 -0.37934080364E+02  0.13894369173E+02  0.47787264045E+02  0.19999968085E+02 0.  0.
        -12    1    1    2    0    0  0.15861145408E+02  0.37934080364E+02 -0.13894369173E+02  0.43400735955E+02  0.00000000000E+00 0.  1.
         11    1    3    3    0    0 -0.69711453425E+01 -0.10942084794E+02  0.13340379040E+02  0.18608917223E+02  0.51100000000E-03 0. -1.
        -11    1    3    3    0    0 -0.94443706767E+01 -0.25952943298E+02  0.15133089151E+01  0.27659383714E+02  0.51100000000E-03 0.  1.
        -12    1    3    3    0    0  0.55437061094E+00 -0.10390522717E+01 -0.95931878139E+00  0.15189631075E+01  0.00000000000E+00 0.  1.
</event>
<event>
 7    1  0.2530788E-009  0.4778727E+02  0.7816164E-02  0.1312668E+00
        -11   -1    0    0    0    0  0.00000000000E+00  0.00000000000E+00  0.45593999997E+02  0.45594000000E+02  0.51100000000E-03 0.  1.
         11   -1    0    0    0    0 -0.00000000000E+00 -0.00000000000E+00 -0.45593999997E+02  0.45594000000E+02  0.51100000000E-03 0. -1.
    9900012    2    1    2    0    0 -0.24750936724E+02 -0.17446421207E+01 -0.35608572041E+02  0.47787273651E+02  0.20000011883E+02 0.  0.
        -12    1    1    2    0    0  0.24750936724E+02  0.17446421207E+01  0.35608572041E+02  0.43400726349E+02  0.00000000000E+00 0.  1.
         11    1    3    3    0    0 -0.89740484163E+01 -0.25125283382E+01 -0.19024936069E+02  0.21184771331E+02  0.51100000000E-03 0. -1.
        -11    1    3    3    0    0 -0.25422473850E+01  0.43833296342E+01  0.15781950071E-01  0.50672329510E+01  0.51100000000E-03 0.  1.
        -12    1    3    3    0    0 -0.13234640923E+02 -0.36154434167E+01 -0.16599417922E+02  0.21535269369E+02  0.00000000000E+00 0.  1.
</event>
<event>
 7    1  0.2530788E-009  0.4778727E+02  0.7816164E-02  0.1312668E+00
        -11   -1    0    0    0    0  0.00000000000E+00  0.00000000000E+00  0.45593999997E+02  0.45594000000E+02  0.51100000000E-03 0. -1.
         11   -1    0    0    0    0 -0.00000000000E+00 -0.00000000000E+00 -0.45593999997E+02  0.45594000000E+02  0.51100000000E-03 0.  1.
    9900012    2    1    2    0    0  0.42811851358E+02 -0.52168019854E+01 -0.48532249107E+01  0.47787269226E+02  0.19999991711E+02 0.  0.
        -12    1    1    2    0    0 -0.42811851358E+02  0.52168019854E+01  0.48532249107E+01  0.43400730774E+02  0.00000000000E+00 0.  1.
         11    1    3    3    0    0  0.17017348075E+02 -0.91184823244E+01  0.22159684778E+01  0.19433151365E+02  0.51100000000E-03 0. -1.
        -11    1    3    3    0    0  0.14538684308E+02  0.62377083002E+01 -0.26626584899E+01  0.16042820723E+02  0.51100000000E-03 0.  1.
         12    1    3    3    0    0  0.11255818974E+02 -0.23360279612E+01 -0.44065348986E+01  0.12311297138E+02  0.00000000000E+00 0. -1.
</event>
<event>
 7    1  0.2530788E-009  0.4778728E+02  0.7816164E-02  0.1312668E+00
        -11   -1    0    0    0    0  0.00000000000E+00  0.00000000000E+00  0.45593999997E+02  0.45594000000E+02  0.51100000000E-03 0. -1.
         11   -1    0    0    0    0 -0.00000000000E+00 -0.00000000000E+00 -0.45593999997E+02  0.45594000000E+02  0.51100000000E-03 0.  1.
    9900012    2    1    2    0    0  0.25498111053E+01  0.14428677741E+02  0.40852596034E+02  0.47787275574E+02  0.20000020650E+02 0.  0.
        -12    1    1    2    0    0 -0.25498111053E+01 -0.14428677741E+02 -0.40852596034E+02  0.43400724426E+02  0.00000000000E+00 0.  1.
         11    1    3    3    0    0 -0.61584534856E+01  0.20561720829E+01  0.21571333959E+02  0.22527246659E+02  0.51100000000E-03 0. -1.
        -11    1    3    3    0    0  0.41456677690E+01  0.53095981317E+01  0.40448304481E+01  0.78574198810E+01  0.51100000000E-03 0.  1.
         12    1    3    3    0    0  0.45625968219E+01  0.70629075266E+01  0.15236431626E+02  0.17402609034E+02  0.00000000000E+00 0. -1.
</event>
<event>
 7    1  0.2530788E-009  0.4778728E+02  0.7816164E-02  0.1312668E+00
        -11   -1    0    0    0    0  0.00000000000E+00  0.00000000000E+00  0.45593999997E+02  0.45594000000E+02  0.51100000000E-03 0. -1.
         11   -1    0    0    0    0 -0.00000000000E+00 -0.00000000000E+00 -0.45593999997E+02  0.45594000000E+02  0.51100000000E-03 0.  1.
    9900012    2    1    2    0    0  0.89702337159E+01 -0.32088757876E+02  0.27811310904E+02  0.47787280085E+02  0.20000041219E+02 0.  0.
        -12    1    1    2    0    0 -0.89702337159E+01  0.32088757876E+02 -0.27811310904E+02  0.43400719915E+02  0.00000000000E+00 0.  1.
         11    1    3    3    0    0  0.19405493308E+01  0.36177742799E+00  0.78328512179E+01  0.80777579238E+01  0.51100000000E-03 0. -1.
        -11    1    3    3    0    0  0.54721457279E+01 -0.21914826098E+02  0.87218092220E+01  0.24213094353E+02  0.51100000000E-03 0.  1.
         12    1    3    3    0    0  0.15575386572E+01 -0.10535709206E+02  0.11256650464E+02  0.15496427808E+02  0.00000000000E+00 0. -1.
</event>
<event>
 7    1  0.2530788E-009  0.4778727E+02  0.7816164E-02  0.1312668E+00
        -11   -1    0    0    0    0  0.00000000000E+00  0.00000000000E+00  0.45593999997E+02  0.45594000000E+02  0.51100000000E-03 0.  1.
         11   -1    0    0    0    0 -0.00000000000E+00 -0.00000000000E+00 -0.45593999997E+02  0.45594000000E+02  0.51100000000E-03 0. -1.
    9900012    2    1    2    0    0 -0.19178835442E+02 -0.26726672343E+02 -0.28310430168E+02  0.47787271899E+02  0.20000003896E+02 0.  0.
        -12    1    1    2    0    0  0.19178835442E+02  0.26726672343E+02  0.28310430168E+02  0.43400728101E+02  0.00000000000E+00 0.  1.
         11    1    3    3    0    0 -0.11403332045E+02 -0.12361172610E+02 -0.20810271889E+02  0.26756344787E+02  0.51100000000E-03 0. -1.
        -11    1    3    3    0    0 -0.43067358281E+01 -0.12288781359E+02 -0.60222998393E+00  0.13035520780E+02  0.51100000000E-03 0.  1.
        -12    1    3    3    0    0 -0.34687675688E+01 -0.20767183735E+01 -0.68979282951E+01  0.79954063320E+01  0.00000000000E+00 0.  1.
</event>
<event>
 7    1  0.2530788E-009  0.4778727E+02  0.7816164E-02  0.1312668E+00
        -11   -1    0    0    0    0  0.00000000000E+00  0.00000000000E+00  0.45593999997E+02  0.45594000000E+02  0.51100000000E-03 0. -1.
         11   -1    0    0    0    0 -0.00000000000E+00 -0.00000000000E+00 -0.45593999997E+02  0.45594000000E+02  0.51100000000E-03 0.  1.
    9900012    2    1    2    0    0 -0.40672327395E+02  0.13185240047E+02  0.74521717522E+01  0.47787266888E+02  0.19999981048E+02 0.  0.
        -12    1    1    2    0    0  0.40672327395E+02 -0.13185240047E+02 -0.74521717522E+01  0.43400733112E+02  0.00000000000E+00 0.  1.
         11    1    3    3    0    0 -0.24568212866E+02 -0.16261233335E+00 -0.16189450534E+00  0.24569284408E+02  0.51100000000E-03 0. -1.
        -11    1    3    3    0    0 -0.36091505144E+01  0.70222490939E+01  0.33657429834E+01  0.85829002012E+01  0.51100000000E-03 0.  1.
         12    1    3    3    0    0 -0.12494964015E+02  0.63256032865E+01  0.42483232742E+01  0.14635082279E+02  0.00000000000E+00 0. -1.
</event>
<event>
 7    1  0.2530788E-009  0.4778727E+02  0.7816164E-02  0.1312668E+00
        -11   -1    0    0    0    0  0.00000000000E+00  0.00000000000E+00  0.45593999997E+02  0.45594000000E+02  0.51100000000E-03 0.  1.
         11   -1    0    0    0    0 -0.00000000000E+00 -0.00000000000E+00 -0.45593999997E+02  0.45594000000E+02  0.51100000000E-03 0. -1.
    9900012    2    1    2    0    0 -0.23187725446E+02 -0.19342483151E+02 -0.31174044996E+02  0.47787270200E+02  0.19999996148E+02 0.  0.
        -12    1    1    2    0    0  0.23187725446E+02  0.19342483151E+02  0.31174044996E+02  0.43400729800E+02  0.00000000000E+00 0.  1.
         11    1    3    3    0    0 -0.19497478191E+02 -0.21070272910E+02 -0.32089501691E+02  0.43056290776E+02  0.51100000000E-03 0. -1.
        -11    1    3    3    0    0 -0.11918043091E+01  0.46086577819E+00  0.13918490357E+01  0.18894546239E+01  0.51100000000E-03 0.  1.
         12    1    3    3    0    0 -0.24984429459E+01  0.12669239805E+01 -0.47639234012E+00  0.28415247998E+01  0.00000000000E+00 0. -1.
</event>
<event>
 7    1  0.2530788E-009  0.4778727E+02  0.7816164E-02  0.1312668E+00
        -11   -1    0    0    0    0  0.00000000000E+00  0.00000000000E+00  0.45593999997E+02  0.45594000000E+02  0.51100000000E-03 0.  1.
         11   -1    0    0    0    0 -0.00000000000E+00 -0.00000000000E+00 -0.45593999997E+02  0.45594000000E+02  0.51100000000E-03 0. -1.
    9900012    2    1    2    0    0 -0.30008017766E+02 -0.85740786740E+01 -0.30160029201E+02  0.47787270551E+02  0.19999997748E+02 0.  0.
        -12    1    1    2    0    0  0.30008017766E+02  0.85740786740E+01  0.30160029201E+02  0.43400729449E+02  0.00000000000E+00 0.  1.
         11    1    3    3    0    0 -0.15342687971E+02 -0.46090128520E+01 -0.16278959728E+02  0.22839562249E+02  0.51100000000E-03 0. -1.
        -11    1    3    3    0    0 -0.79777003587E+01 -0.63366375712E+01 -0.14613470233E+02  0.17814325450E+02  0.51100000000E-03 0.  1.
        -12    1    3    3    0    0 -0.66876294364E+01  0.23715717491E+01  0.73240075977E+00  0.71333828520E+01  0.00000000000E+00 0.  1.
</event>
<event>
 7    1  0.2530788E-009  0.4778727E+02  0.7816164E-02  0.1312668E+00
        -11   -1    0    0    0    0  0.00000000000E+00  0.00000000000E+00  0.45593999997E+02  0.45594000000E+02  0.51100000000E-03 0. -1.
         11   -1    0    0    0    0 -0.00000000000E+00 -0.00000000000E+00 -0.45593999997E+02  0.45594000000E+02  0.51100000000E-03 0.  1.
    9900012    2    1    2    0    0 -0.35234978350E+02 -0.19425589590E+02  0.16271633487E+02  0.47787270898E+02  0.19999999330E+02 0.  0.
        -12    1    1    2    0    0  0.35234978350E+02  0.19425589590E+02 -0.16271633487E+02  0.43400729102E+02  0.00000000000E+00 0.  1.
         11    1    3    3    0    0 -0.81795921522E+01 -0.92612977652E+01  0.47240848288E+01  0.13228542694E+02  0.51100000000E-03 0. -1.
        -11    1    3    3    0    0 -0.22576019146E+02 -0.20065736695E+01  0.50852625783E+01  0.23228492722E+02  0.51100000000E-03 0.  1.
        -12    1    3    3    0    0 -0.44793670521E+01 -0.81577181556E+01  0.64622860803E+01  0.11330235482E+02  0.00000000000E+00 0.  1.
</event>
<event>
 7    1  0.2530788E-009  0.4778727E+02  0.7816164E-02  0.1312668E+00
        -11   -1    0    0    0    0  0.00000000000E+00  0.00000000000E+00  0.45593999997E+02  0.45594000000E+02  0.51100000000E-03 0.  1.
         11   -1    0    0    0    0 -0.00000000000E+00 -0.00000000000E+00 -0.45593999997E+02  0.45594000000E+02  0.51100000000E-03 0. -1.
    9900012    2    1    2    0    0  0.34557995952E+02 -0.10320202317E+00 -0.26255621034E+02  0.47787269928E+02  0.19999994911E+02 0.  0.
        -12    1    1    2    0    0 -0.34557995952E+02  0.10320202317E+00  0.26255621034E+02  0.43400730072E+02  0.00000000000E+00 0.  1.
         11    1    3    3    0    0  0.75461742495E+01  0.20498417456E+01  0.58843956343E+00  0.78417382235E+01  0.51100000000E-03 0. -1.
        -11    1    3    3    0    0  0.11132224724E+02 -0.48597705107E+01 -0.17563895872E+02  0.21354958093E+02  0.51100000000E-03 0.  1.
        -12    1    3    3    0    0  0.15879596979E+02  0.27067267419E+01 -0.92801647262E+01  0.18590573612E+02  0.00000000000E+00 0.  1.
</event>
<event>
 7    1  0.2530788E-009  0.4778727E+02  0.7816164E-02  0.1312668E+00
        -11   -1    0    0    0    0  0.00000000000E+00  0.00000000000E+00  0.45593999997E+02  0.45594000000E+02  0.51100000000E-03 0.  1.
         11   -1    0    0    0    0 -0.00000000000E+00 -0.00000000000E+00 -0.45593999997E+02  0.45594000000E+02  0.51100000000E-03 0. -1.
    9900012    2    1    2    0    0 -0.42919534523E+02  0.19574333216E+00  0.64419367274E+01  0.47787270652E+02  0.19999998211E+02 0.  0.
        -12    1    1    2    0    0  0.42919534523E+02 -0.19574333216E+00 -0.64419367274E+01  0.43400729348E+02  0.00000000000E+00 0.  1.
         11    1    3    3    0    0 -0.86827033865E+00  0.74737503756E+00 -0.33609142274E+01  0.35508037868E+01  0.51100000000E-03 0. -1.
        -11    1    3    3    0    0 -0.84543883437E+01  0.37574785975E+01  0.25466194195E+01  0.95958636091E+01  0.51100000000E-03 0.  1.
         12    1    3    3    0    0 -0.33596875841E+02 -0.43091103029E+01  0.72562315353E+01  0.34640603256E+02  0.00000000000E+00 0. -1.
</event>
<event>
 7    1  0.2530788E-009  0.4778728E+02  0.7816164E-02  0.1312668E+00
        -11   -1    0    0    0    0  0.00000000000E+00  0.00000000000E+00  0.45593999997E+02  0.45594000000E+02  0.51100000000E-03 0.  1.
         11   -1    0    0    0    0 -0.00000000000E+00 -0.00000000000E+00 -0.45593999997E+02  0.45594000000E+02  0.51100000000E-03 0. -1.
    9900012    2    1    2    0    0 -0.22249728705E+02 -0.36305998712E+02 -0.83932474708E+01  0.47787279119E+02  0.20000036814E+02 0.  0.
        -12    1    1    2    0    0  0.22249728705E+02  0.36305998712E+02  0.83932474708E+01  0.43400720881E+02  0.00000000000E+00 0.  1.
         11    1    3    3    0    0 -0.92279528018E+01 -0.15385902344E+02 -0.11262862161E+02  0.21183322878E+02  0.51100000000E-03 0. -1.
        -11    1    3    3    0    0 -0.95742911001E+01 -0.12657199958E+02  0.62179651372E+01  0.17045082914E+02  0.51100000000E-03 0.  1.
         12    1    3    3    0    0 -0.34474848031E+01 -0.82628964099E+01 -0.33483504471E+01  0.95588733261E+01  0.00000000000E+00 0. -1.
</event>
<event>
 7    1  0.2530788E-009  0.4778727E+02  0.7816164E-02  0.1312668E+00
        -11   -1    0    0    0    0  0.00000000000E+00  0.00000000000E+00  0.45593999997E+02  0.45594000000E+02  0.51100000000E-03 0.  1.
         11   -1    0    0    0    0 -0.00000000000E+00 -0.00000000000E+00 -0.45593999997E+02  0.45594000000E+02  0.51100000000E-03 0. -1.
    9900012    2    1    2    0    0  0.43363905109E+02 -0.14882595321E+01 -0.99020873863E+00  0.47787266180E+02  0.19999977822E+02 0.  0.
        -12    1    1    2    0    0 -0.43363905109E+02  0.14882595321E+01  0.99020873863E+00  0.43400733820E+02  0.00000000000E+00 0.  1.
         11    1    3    3    0    0  0.14891984030E+02 -0.89363775347E+00 -0.59497226173E+01  0.16061412649E+02  0.51100000000E-03 0. -1.
        -11    1    3    3    0    0  0.98195400818E+00 -0.30967733916E+00  0.40932534717E+01  0.42207650934E+01  0.51100000000E-03 0.  1.
         12    1    3    3    0    0  0.27489967071E+02 -0.28494443952E+00  0.86626040691E+00  0.27505088438E+02  0.00000000000E+00 0. -1.
</event>
<event>
 7    1  0.2530788E-009  0.4778727E+02  0.7816164E-02  0.1312668E+00
        -11   -1    0    0    0    0  0.00000000000E+00  0.00000000000E+00  0.45593999997E+02  0.45594000000E+02  0.51100000000E-03 0. -1.
         11   -1    0    0    0    0 -0.00000000000E+00 -0.00000000000E+00 -0.45593999997E+02  0.45594000000E+02  0.51100000000E-03 0.  1.
    9900012    2    1    2    0    0 -0.38145172400E+02 -0.14247862744E+02  0.15018908011E+02  0.47787269959E+02  0.19999995051E+02 0.  0.
        -12    1    1    2    0    0  0.38145172400E+02  0.14247862744E+02 -0.15018908011E+02  0.43400730041E+02  0.00000000000E+00 0.  1.
         11    1    3    3    0    0 -0.31122158808E+02 -0.88753120774E+01  0.72637016179E+01  0.33168076441E+02  0.51100000000E-03 0. -1.
        -11    1    3    3    0    0 -0.58555775175E+01  0.63796850878E+00  0.20121342734E+01  0.62244257950E+01  0.51100000000E-03 0.  1.
         12    1    3    3    0    0 -0.11674360748E+01 -0.60105191754E+01  0.57430721199E+01  0.83947677229E+01  0.00000000000E+00 0. -1.
</event>
<event>
 7    1  0.2530788E-009  0.4778727E+02  0.7816164E-02  0.1312668E+00
        -11   -1    0    0    0    0  0.00000000000E+00  0.00000000000E+00  0.45593999997E+02  0.45594000000E+02  0.51100000000E-03 0.  1.
         11   -1    0    0    0    0 -0.00000000000E+00 -0.00000000000E+00 -0.45593999997E+02  0.45594000000E+02  0.51100000000E-03 0. -1.
    9900012    2    1    2    0    0  0.11443404783E+02  0.39586671278E+02 -0.13622304780E+02  0.47787271395E+02  0.20000001600E+02 0.  0.
        -12    1    1    2    0    0 -0.11443404783E+02 -0.39586671278E+02  0.13622304780E+02  0.43400728605E+02  0.00000000000E+00 0.  1.
         11    1    3    3    0    0  0.72329599598E+01  0.13998962932E+02 -0.13181454724E+02  0.20543549397E+02  0.51100000000E-03 0. -1.
        -11    1    3    3    0    0  0.39118581153E+01  0.14892464210E+02  0.35892674764E+01  0.15810470120E+02  0.51100000000E-03 0.  1.
        -12    1    3    3    0    0  0.29858670775E+00  0.10695244137E+02 -0.40301175326E+01  0.11433251877E+02  0.00000000000E+00 0.  1.
</event>
<event>
 7    1  0.2530788E-009  0.4778727E+02  0.7816164E-02  0.1312668E+00
        -11   -1    0    0    0    0  0.00000000000E+00  0.00000000000E+00  0.45593999997E+02  0.45594000000E+02  0.51100000000E-03 0.  1.
         11   -1    0    0    0    0 -0.00000000000E+00 -0.00000000000E+00 -0.45593999997E+02  0.45594000000E+02  0.51100000000E-03 0. -1.
    9900012    2    1    2    0    0 -0.41879387446E+02 -0.83012794748E+01 -0.77992926912E+01  0.47787270740E+02  0.19999998614E+02 0.  0.
        -12    1    1    2    0    0  0.41879387446E+02  0.83012794748E+01  0.77992926912E+01  0.43400729260E+02  0.00000000000E+00 0.  1.
         11    1    3    3    0    0 -0.34087611633E+02  0.17789950850E+01 -0.55605126425E+01  0.34583947020E+02  0.51100000000E-03 0. -1.
        -11    1    3    3    0    0 -0.65858139180E+01 -0.71260205135E+01 -0.90670617134E+00  0.97455235705E+01  0.51100000000E-03 0.  1.
        -12    1    3    3    0    0 -0.12059618948E+01 -0.29542540463E+01 -0.13320738774E+01  0.34578001499E+01  0.00000000000E+00 0.  1.
</event>
<event>
 7    1  0.2530788E-009  0.4778727E+02  0.7816164E-02  0.1312668E+00
        -11   -1    0    0    0    0  0.00000000000E+00  0.00000000000E+00  0.45593999997E+02  0.45594000000E+02  0.51100000000E-03 0. -1.
         11   -1    0    0    0    0 -0.00000000000E+00 -0.00000000000E+00 -0.45593999997E+02  0.45594000000E+02  0.51100000000E-03 0.  1.
    9900012    2    1    2    0    0  0.13157277447E+02 -0.40805075445E+02  0.67420337649E+01  0.47787272458E+02  0.20000006446E+02 0.  0.
        -12    1    1    2    0    0 -0.13157277447E+02  0.40805075445E+02 -0.67420337649E+01  0.43400727542E+02  0.00000000000E+00 0.  1.
         11    1    3    3    0    0 -0.54741577119E-01 -0.17429184196E+02  0.58948018612E+01  0.18399134426E+02  0.51100000000E-03 0. -1.
        -11    1    3    3    0    0  0.12692889111E+02 -0.10508265306E+02 -0.56715411741E-01  0.16478358250E+02  0.51100000000E-03 0.  1.
        -12    1    3    3    0    0  0.51912991280E+00 -0.12867625943E+02  0.90394731544E+00  0.12909779783E+02  0.00000000000E+00 0.  1.
</event>
<event>
 7    1  0.2530788E-009  0.4778727E+02  0.7816164E-02  0.1312668E+00
        -11   -1    0    0    0    0  0.00000000000E+00  0.00000000000E+00  0.45593999997E+02  0.45594000000E+02  0.51100000000E-03 0.  1.
         11   -1    0    0    0    0 -0.00000000000E+00 -0.00000000000E+00 -0.45593999997E+02  0.45594000000E+02  0.51100000000E-03 0. -1.
    9900012    2    1    2    0    0 -0.25131140818E+02  0.34457588663E+02 -0.80451287860E+01  0.47787265530E+02  0.19999974859E+02 0.  0.
        -12    1    1    2    0    0  0.25131140818E+02 -0.34457588663E+02  0.80451287860E+01  0.43400734470E+02  0.00000000000E+00 0.  1.
         11    1    3    3    0    0 -0.60691464689E+00  0.76587143824E+01 -0.39517034740E+01  0.86394566951E+01  0.51100000000E-03 0. -1.
        -11    1    3    3    0    0 -0.20670720951E+02  0.27178320643E+02 -0.94785867383E+00  0.34159014241E+02  0.51100000000E-03 0.  1.
        -12    1    3    3    0    0 -0.38535052205E+01 -0.37944636214E+00 -0.31455666382E+01  0.49887945941E+01  0.00000000000E+00 0.  1.
</event>
<event>
 7    1  0.2530788E-009  0.4778727E+02  0.7816164E-02  0.1312668E+00
        -11   -1    0    0    0    0  0.00000000000E+00  0.00000000000E+00  0.45593999997E+02  0.45594000000E+02  0.51100000000E-03 0.  1.
         11   -1    0    0    0    0 -0.00000000000E+00 -0.00000000000E+00 -0.45593999997E+02  0.45594000000E+02  0.51100000000E-03 0. -1.
    9900012    2    1    2    0    0  0.19403376283E+01 -0.42918381026E+02 -0.61539300139E+01  0.47787271958E+02  0.20000004163E+02 0.  0.
        -12    1    1    2    0    0 -0.19403376283E+01  0.42918381026E+02  0.61539300139E+01  0.43400728042E+02  0.00000000000E+00 0.  1.
         11    1    3    3    0    0 -0.15836975839E+01 -0.28233360813E+02 -0.14453756667E+00  0.28278112600E+02  0.51100000000E-03 0. -1.
        -11    1    3    3    0    0  0.60946780621E+01 -0.35113155961E+01 -0.15212653162E+01  0.71964356677E+01  0.51100000000E-03 0.  1.
        -12    1    3    3    0    0 -0.25706428499E+01 -0.11173704617E+02 -0.44881271310E+01  0.12312723690E+02  0.00000000000E+00 0.  1.
</event>
<event>
 7    1  0.2530788E-009  0.4778727E+02  0.7816164E-02  0.1312668E+00
        -11   -1    0    0    0    0  0.00000000000E+00  0.00000000000E+00  0.45593999997E+02  0.45594000000E+02  0.51100000000E-03 0. -1.
         11   -1    0    0    0    0 -0.00000000000E+00 -0.00000000000E+00 -0.45593999997E+02  0.45594000000E+02  0.51100000000E-03 0.  1.
    9900012    2    1    2    0    0  0.19369100282E+02  0.21108797001E+02  0.32601840489E+02  0.47787270055E+02  0.19999995487E+02 0.  0.
        -12    1    1    2    0    0 -0.19369100282E+02 -0.21108797001E+02 -0.32601840489E+02  0.43400729945E+02  0.00000000000E+00 0.  1.
         11    1    3    3    0    0  0.81449096204E+01  0.81475690862E+01  0.10440890240E+02  0.15547817339E+02  0.51100000000E-03 0. -1.
        -11    1    3    3    0    0  0.59620056033E+01  0.50217500233E+01  0.21292977836E+02  0.22674972757E+02  0.51100000000E-03 0.  1.
        -12    1    3    3    0    0  0.52621850582E+01  0.79394778913E+01  0.86797241158E+00  0.95644799587E+01  0.00000000000E+00 0.  1.
</event>
<event>
 7    1  0.2530788E-009  0.4778729E+02  0.7816164E-02  0.1312668E+00
        -11   -1    0    0    0    0  0.00000000000E+00  0.00000000000E+00  0.45593999997E+02  0.45594000000E+02  0.51100000000E-03 0. -1.
         11   -1    0    0    0    0 -0.00000000000E+00 -0.00000000000E+00 -0.45593999997E+02  0.45594000000E+02  0.51100000000E-03 0.  1.
    9900012    2    1    2    0    0 -0.16542093832E+02  0.16894783631E+02  0.36394329419E+02  0.47787288069E+02  0.20000077620E+02 0.  0.
        -12    1    1    2    0    0  0.16542093832E+02 -0.16894783631E+02 -0.36394329419E+02  0.43400711931E+02  0.00000000000E+00 0.  1.
         11    1    3    3    0    0 -0.94301205747E+01  0.15828063273E+01  0.21006100881E+02  0.23080050355E+02  0.51100000000E-03 0. -1.
        -11    1    3    3    0    0 -0.73406349807E+01  0.15820102704E+02  0.16146000262E+02  0.23766655133E+02  0.51100000000E-03 0.  1.
         12    1    3    3    0    0  0.22866172327E+00 -0.50812540036E+00 -0.75777172365E+00  0.94058258082E+00  0.00000000000E+00 0. -1.
</event>
<event>
 7    1 -0.2530788E-009  0.4778727E+02  0.7816164E-02  0.1312668E+00
        -11   -1    0    0    0    0  0.00000000000E+00  0.00000000000E+00  0.45593999997E+02  0.45594000000E+02  0.51100000000E-03 0.  1.
         11   -1    0    0    0    0 -0.00000000000E+00 -0.00000000000E+00 -0.45593999997E+02  0.45594000000E+02  0.51100000000E-03 0. -1.
    9900012    2    1    2    0    0 -0.42337328164E+02 -0.71576870217E+01  0.63199019274E+01  0.47787274200E+02  0.20000014388E+02 0.  0.
        -12    1    1    2    0    0  0.42337328164E+02  0.71576870217E+01 -0.63199019274E+01  0.43400725800E+02  0.00000000000E+00 0.  1.
         11    1    3    3    0    0 -0.24965067352E+01  0.25572689232E+01  0.77563879310E+00  0.36570187343E+01  0.51100000000E-03 0. -1.
        -11    1    3    3    0    0 -0.28429643856E+02 -0.37468893831E+01 -0.27588554916E+01  0.28807900197E+02  0.51100000000E-03 0.  1.
        -12    1    3    3    0    0 -0.11411177573E+02 -0.59680665618E+01  0.83031186259E+01  0.15322355269E+02  0.00000000000E+00 0.  1.
</event>
<event>
 7    1  0.2530788E-009  0.4778727E+02  0.7816164E-02  0.1312668E+00
        -11   -1    0    0    0    0  0.00000000000E+00  0.00000000000E+00  0.45593999997E+02  0.45594000000E+02  0.51100000000E-03 0.  1.
         11   -1    0    0    0    0 -0.00000000000E+00 -0.00000000000E+00 -0.45593999997E+02  0.45594000000E+02  0.51100000000E-03 0. -1.
    9900012    2    1    2    0    0 -0.27276689885E+01 -0.92837896237E+01 -0.42308327394E+02  0.47787268500E+02  0.19999988397E+02 0.  0.
        -12    1    1    2    0    0  0.27276689885E+01  0.92837896237E+01  0.42308327394E+02  0.43400731500E+02  0.00000000000E+00 0.  1.
         11    1    3    3    0    0  0.24321342276E+01 -0.79354520642E+01 -0.35857564865E+02  0.36805592437E+02  0.51100000000E-03 0. -1.
        -11    1    3    3    0    0 -0.61094035517E+01 -0.30941845383E+01 -0.44842035160E+01  0.81857724833E+01  0.51100000000E-03 0.  1.
        -12    1    3    3    0    0  0.94960033558E+00  0.17458469788E+01 -0.19665590135E+01  0.27959035792E+01  0.00000000000E+00 0.  1.
</event>
<event>
 7    1  0.2530788E-009  0.4778727E+02  0.7816164E-02  0.1312668E+00
        -11   -1    0    0    0    0  0.00000000000E+00  0.00000000000E+00  0.45593999997E+02  0.45594000000E+02  0.51100000000E-03 0.  1.
         11   -1    0    0    0    0 -0.00000000000E+00 -0.00000000000E+00 -0.45593999997E+02  0.45594000000E+02  0.51100000000E-03 0. -1.
    9900012    2    1    2    0    0 -0.22585928281E+02  0.17773207837E+01 -0.37018113174E+02  0.47787265808E+02  0.19999976124E+02 0.  0.
        -12    1    1    2    0    0  0.22585928281E+02 -0.17773207837E+01  0.37018113174E+02  0.43400734192E+02  0.00000000000E+00 0.  1.
         11    1    3    3    0    0 -0.16019625614E+02  0.64304401840E+01 -0.29368528752E+02  0.34065957305E+02  0.51100000000E-03 0. -1.
        -11    1    3    3    0    0  0.98630995280E+00 -0.21214836744E+01  0.42619813985E+00  0.23780549656E+01  0.51100000000E-03 0.  1.
         12    1    3    3    0    0 -0.75526126196E+01 -0.25316357259E+01 -0.80757825619E+01  0.11343253538E+02  0.00000000000E+00 0. -1.
</event>
<event>
 7    1  0.2530788E-009  0.4778728E+02  0.7816164E-02  0.1312668E+00
        -11   -1    0    0    0    0  0.00000000000E+00  0.00000000000E+00  0.45593999997E+02  0.45594000000E+02  0.51100000000E-03 0. -1.
         11   -1    0    0    0    0 -0.00000000000E+00 -0.00000000000E+00 -0.45593999997E+02  0.45594000000E+02  0.51100000000E-03 0.  1.
    9900012    2    1    2    0    0  0.19081634609E+02  0.16045236879E+02  0.35525547337E+02  0.47787275127E+02  0.20000018615E+02 0.  0.
        -12    1    1    2    0    0 -0.19081634609E+02 -0.16045236879E+02 -0.35525547337E+02  0.43400724873E+02  0.00000000000E+00 0.  1.
         11    1    3    3    0    0  0.13825670804E+02  0.11230098679E+02  0.16226670317E+02  0.24095001958E+02  0.51100000000E-03 0. -1.
        -11    1    3    3    0    0 -0.32817415550E+01  0.12649200259E+01  0.19208080165E+01  0.40074123825E+01  0.51100000000E-03 0.  1.
         12    1    3    3    0    0  0.85377053599E+01  0.35502181744E+01  0.17378069003E+02  0.19684860786E+02  0.00000000000E+00 0. -1.
</event>
<event>
 7    1  0.2530788E-009  0.4778727E+02  0.7816164E-02  0.1312668E+00
        -11   -1    0    0    0    0  0.00000000000E+00  0.00000000000E+00  0.45593999997E+02  0.45594000000E+02  0.51100000000E-03 0.  1.
         11   -1    0    0    0    0 -0.00000000000E+00 -0.00000000000E+00 -0.45593999997E+02  0.45594000000E+02  0.51100000000E-03 0. -1.
    9900012    2    1    2    0    0 -0.33526365972E+01  0.33216815018E+02 -0.27731319308E+02  0.47787273709E+02  0.20000012147E+02 0.  0.
        -12    1    1    2    0    0  0.33526365972E+01 -0.33216815018E+02  0.27731319308E+02  0.43400726291E+02  0.00000000000E+00 0.  1.
         11    1    3    3    0    0 -0.69723727906E+01  0.16056810402E+02 -0.23258048565E+02  0.29109654171E+02  0.51100000000E-03 0. -1.
        -11    1    3    3    0    0  0.30020401828E+01  0.12542298934E+02 -0.11353759347E+01  0.12946450733E+02  0.51100000000E-03 0.  1.
         12    1    3    3    0    0  0.61769601056E+00  0.46177056819E+01 -0.33378948078E+01  0.57311688052E+01  0.00000000000E+00 0. -1.
</event>
<event>
 7    1  0.2530788E-009  0.4778726E+02  0.7816164E-02  0.1312668E+00
        -11   -1    0    0    0    0  0.00000000000E+00  0.00000000000E+00  0.45593999997E+02  0.45594000000E+02  0.51100000000E-03 0. -1.
         11   -1    0    0    0    0 -0.00000000000E+00 -0.00000000000E+00 -0.45593999997E+02  0.45594000000E+02  0.51100000000E-03 0.  1.
    9900012    2    1    2    0    0 -0.29362008770E+02 -0.20738074874E+02  0.24319305564E+02  0.47787263467E+02  0.19999965451E+02 0.  0.
        -12    1    1    2    0    0  0.29362008770E+02  0.20738074874E+02 -0.24319305564E+02  0.43400736533E+02  0.00000000000E+00 0.  1.
         11    1    3    3    0    0 -0.54615111220E+01 -0.41308386976E+01  0.65267429126E+01  0.94599315743E+01  0.51100000000E-03 0.  1.
        -11    1    3    3    0    0 -0.18003823925E+02 -0.64268998520E+01  0.18418542689E+02  0.26545911788E+02  0.51100000000E-03 0. -1.
        -12    1    3    3    0    0 -0.58966737227E+01 -0.10180336325E+02 -0.62598003684E+00  0.11781420105E+02  0.00000000000E+00 0.  1.
</event>
<event>
 7    1  0.2530788E-009  0.4778728E+02  0.7816164E-02  0.1312668E+00
        -11   -1    0    0    0    0  0.00000000000E+00  0.00000000000E+00  0.45593999997E+02  0.45594000000E+02  0.51100000000E-03 0. -1.
         11   -1    0    0    0    0 -0.00000000000E+00 -0.00000000000E+00 -0.45593999997E+02  0.45594000000E+02  0.51100000000E-03 0.  1.
    9900012    2    1    2    0    0 -0.71277579594E+01 -0.28430426568E+02  0.32008260444E+02  0.47787276215E+02  0.20000023574E+02 0.  0.
        -12    1    1    2    0    0  0.71277579594E+01  0.28430426568E+02 -0.32008260444E+02  0.43400723785E+02  0.00000000000E+00 0.  1.
         11    1    3    3    0    0 -0.74391963708E+01 -0.13043536997E+02  0.59744344521E+01  0.16160735358E+02  0.51100000000E-03 0. -1.
        -11    1    3    3    0    0 -0.31486827579E+01 -0.30977341790E+01  0.31600871798E+01  0.54310506717E+01  0.51100000000E-03 0.  1.
         12    1    3    3    0    0  0.34601211693E+01 -0.12289155392E+02  0.22873738813E+02  0.26195490185E+02  0.00000000000E+00 0. -1.
</event>
<event>
 7    1  0.2530788E-009  0.4778727E+02  0.7816164E-02  0.1312668E+00
        -11   -1    0    0    0    0  0.00000000000E+00  0.00000000000E+00  0.45593999997E+02  0.45594000000E+02  0.51100000000E-03 0. -1.
         11   -1    0    0    0    0 -0.00000000000E+00 -0.00000000000E+00 -0.45593999997E+02  0.45594000000E+02  0.51100000000E-03 0.  1.
    9900012    2    1    2    0    0  0.13508019070E+02 -0.35689227676E+01  0.41090384911E+02  0.47787268196E+02  0.19999987014E+02 0.  0.
        -12    1    1    2    0    0 -0.13508019070E+02  0.35689227676E+01 -0.41090384911E+02  0.43400731804E+02  0.00000000000E+00 0.  1.
         11    1    3    3    0    0  0.35697822472E+01 -0.54148790325E+01  0.75742438083E+01  0.99716312486E+01  0.51100000000E-03 0.  1.
        -11    1    3    3    0    0 -0.35907378405E+01 -0.75413332011E+00  0.84719028947E+01  0.92322940932E+01  0.51100000000E-03 0. -1.
        -12    1    3    3    0    0  0.13528974664E+02  0.26000895850E+01  0.25044238208E+02  0.28583342855E+02  0.00000000000E+00 0.  1.
</event>
<event>
 7    1  0.2530788E-009  0.4778727E+02  0.7816164E-02  0.1312668E+00
        -11   -1    0    0    0    0  0.00000000000E+00  0.00000000000E+00  0.45593999997E+02  0.45594000000E+02  0.51100000000E-03 0.  1.
         11   -1    0    0    0    0 -0.00000000000E+00 -0.00000000000E+00 -0.45593999997E+02  0.45594000000E+02  0.51100000000E-03 0. -1.
    9900012    2    1    2    0    0  0.19644811958E+02  0.19663004963E+02 -0.33332725691E+02  0.47787274164E+02  0.20000014225E+02 0.  0.
        -12    1    1    2    0    0 -0.19644811958E+02 -0.19663004963E+02  0.33332725691E+02  0.43400725836E+02  0.00000000000E+00 0.  1.
         11    1    3    3    0    0  0.37318026403E+01  0.12740466687E+02 -0.18097634239E+02  0.22444825855E+02  0.51100000000E-03 0. -1.
        -11    1    3    3    0    0  0.11441080517E+02 -0.64573514380E+00 -0.84589250891E+01  0.14243198770E+02  0.51100000000E-03 0.  1.
         12    1    3    3    0    0  0.44719288002E+01  0.75682734197E+01 -0.67761663631E+01  0.11099249539E+02  0.00000000000E+00 0. -1.
</event>
<event>
 7    1  0.2530788E-009  0.4778727E+02  0.7816164E-02  0.1312668E+00
        -11   -1    0    0    0    0  0.00000000000E+00  0.00000000000E+00  0.45593999997E+02  0.45594000000E+02  0.51100000000E-03 0.  1.
         11   -1    0    0    0    0 -0.00000000000E+00 -0.00000000000E+00 -0.45593999997E+02  0.45594000000E+02  0.51100000000E-03 0. -1.
    9900012    2    1    2    0    0  0.92185567823E+01 -0.38660525615E+02  0.17435742396E+02  0.47787272554E+02  0.20000006882E+02 0.  0.
        -12    1    1    2    0    0 -0.92185567823E+01  0.38660525615E+02 -0.17435742396E+02  0.43400727446E+02  0.00000000000E+00 0.  1.
         11    1    3    3    0    0  0.32696506355E+00 -0.34829207749E+01  0.25955938785E+01  0.43560017356E+01  0.51100000000E-03 0. -1.
        -11    1    3    3    0    0  0.72135760796E+01 -0.13630734839E+02  0.15423978830E+02  0.21811275417E+02  0.51100000000E-03 0.  1.
        -12    1    3    3    0    0  0.16780156391E+01 -0.21546870000E+02 -0.58383031239E+00  0.21619995401E+02  0.00000000000E+00 0.  1.
</event>
<event>
 7    1  0.2530788E-009  0.4778727E+02  0.7816164E-02  0.1312668E+00
        -11   -1    0    0    0    0  0.00000000000E+00  0.00000000000E+00  0.45593999997E+02  0.45594000000E+02  0.51100000000E-03 0.  1.
         11   -1    0    0    0    0 -0.00000000000E+00 -0.00000000000E+00 -0.45593999997E+02  0.45594000000E+02  0.51100000000E-03 0. -1.
    9900012    2    1    2    0    0 -0.18356582833E+02 -0.31119442183E+02 -0.24046610282E+02  0.47787270961E+02  0.19999999619E+02 0.  0.
        -12    1    1    2    0    0  0.18356582833E+02  0.31119442183E+02  0.24046610282E+02  0.43400729039E+02  0.00000000000E+00 0.  1.
         11    1    3    3    0    0  0.31833769779E+01 -0.15601839481E+01 -0.46600152930E+01  0.58552374612E+01  0.51100000000E-03 0. -1.
        -11    1    3    3    0    0 -0.14220154801E+02 -0.15060245569E+02 -0.85576378479E+01  0.22411090222E+02  0.51100000000E-03 0.  1.
         12    1    3    3    0    0 -0.73198050099E+01 -0.14499012666E+02 -0.10828957141E+02  0.19520943277E+02  0.00000000000E+00 0. -1.
</event>
<event>
 7    1  0.2530788E-009  0.4778728E+02  0.7816164E-02  0.1312668E+00
        -11   -1    0    0    0    0  0.00000000000E+00  0.00000000000E+00  0.45593999997E+02  0.45594000000E+02  0.51100000000E-03 0.  1.
         11   -1    0    0    0    0 -0.00000000000E+00 -0.00000000000E+00 -0.45593999997E+02  0.45594000000E+02  0.51100000000E-03 0. -1.
    9900012    2    1    2    0    0  0.23871400480E+02  0.29000395021E+02 -0.21742953356E+02  0.47787277737E+02  0.20000030514E+02 0.  0.
        -12    1    1    2    0    0 -0.23871400480E+02 -0.29000395021E+02  0.21742953356E+02  0.43400722263E+02  0.00000000000E+00 0.  1.
         11    1    3    3    0    0 -0.14234471895E+00  0.48914208875E+00 -0.19195391741E+01  0.19859891500E+01  0.51100000000E-03 0. -1.
        -11    1    3    3    0    0  0.64294960018E+01  0.63810494693E+00  0.13885631747E+01  0.66086083794E+01  0.51100000000E-03 0.  1.
        -12    1    3    3    0    0  0.17584249198E+02  0.27873147986E+02 -0.21211977357E+02  0.39192680208E+02  0.00000000000E+00 0.  1.
</event>
<event>
 7    1  0.2530788E-009  0.4778727E+02  0.7816164E-02  0.1312668E+00
        -11   -1    0    0    0    0  0.00000000000E+00  0.00000000000E+00  0.45593999997E+02  0.45594000000E+02  0.51100000000E-03 0. -1.
         11   -1    0    0    0    0 -0.00000000000E+00 -0.00000000000E+00 -0.45593999997E+02  0.45594000000E+02  0.51100000000E-03 0.  1.
    9900012    2    1    2    0    0  0.10816487486E+02 -0.40495667895E+01  0.41835724580E+02  0.47787271390E+02  0.20000001577E+02 0.  0.
        -12    1    1    2    0    0 -0.10816487486E+02  0.40495667895E+01 -0.41835724580E+02  0.43400728610E+02  0.00000000000E+00 0.  1.
         11    1    3    3    0    0  0.79969279475E+01 -0.28181046924E+01  0.35575999469E+02  0.36572452872E+02  0.51100000000E-03 0. -1.
        -11    1    3    3    0    0 -0.15736292955E+01  0.26007171842E+01  0.38533037796E+01  0.49079516411E+01  0.51100000000E-03 0.  1.
         12    1    3    3    0    0  0.43931888341E+01 -0.38321792813E+01  0.24064213318E+01  0.63068668768E+01  0.00000000000E+00 0. -1.
</event>
<event>
 7    1  0.2530788E-009  0.4778727E+02  0.7816164E-02  0.1312668E+00
        -11   -1    0    0    0    0  0.00000000000E+00  0.00000000000E+00  0.45593999997E+02  0.45594000000E+02  0.51100000000E-03 0.  1.
         11   -1    0    0    0    0 -0.00000000000E+00 -0.00000000000E+00 -0.45593999997E+02  0.45594000000E+02  0.51100000000E-03 0. -1.
    9900012    2    1    2    0    0 -0.18747212127E+02  0.38480289240E+02 -0.71716431135E+01  0.47787273192E+02  0.20000009790E+02 0.  0.
        -12    1    1    2    0    0  0.18747212127E+02 -0.38480289240E+02  0.71716431135E+01  0.43400726808E+02  0.00000000000E+00 0.  1.
         11    1    3    3    0    0 -0.10410088234E+02  0.24888329637E+02 -0.37867410458E+01  0.27242215350E+02  0.51100000000E-03 0. -1.
        -11    1    3    3    0    0 -0.61092749614E+01  0.12442775898E+01  0.24611838234E+01  0.67029018602E+01  0.51100000000E-03 0.  1.
         12    1    3    3    0    0 -0.22278489310E+01  0.12347682013E+02 -0.58460858911E+01  0.13842155981E+02  0.00000000000E+00 0. -1.
</event>
<event>
 7    1  0.2530788E-009  0.4778727E+02  0.7816164E-02  0.1312668E+00
        -11   -1    0    0    0    0  0.00000000000E+00  0.00000000000E+00  0.45593999997E+02  0.45594000000E+02  0.51100000000E-03 0.  1.
         11   -1    0    0    0    0 -0.00000000000E+00 -0.00000000000E+00 -0.45593999997E+02  0.45594000000E+02  0.51100000000E-03 0. -1.
    9900012    2    1    2    0    0  0.74051866976E+01  0.12020141208E+02 -0.41040254434E+02  0.47787273408E+02  0.20000010776E+02 0.  0.
        -12    1    1    2    0    0 -0.74051866976E+01 -0.12020141208E+02  0.41040254434E+02  0.43400726592E+02  0.00000000000E+00 0.  1.
         11    1    3    3    0    0  0.40330184351E+01  0.10054183031E+02 -0.19138578698E+02  0.21991749111E+02  0.51100000000E-03 0. -1.
        -11    1    3    3    0    0  0.31544335730E+00 -0.52480383027E+01 -0.54450773750E+01  0.75690341801E+01  0.51100000000E-03 0.  1.
        -12    1    3    3    0    0  0.30567249052E+01  0.72139964790E+01 -0.16456598361E+02  0.18226490117E+02  0.00000000000E+00 0.  1.
</event>
<event>
 7    1  0.2530788E-009  0.4778728E+02  0.7816164E-02  0.1312668E+00
        -11   -1    0    0    0    0  0.00000000000E+00  0.00000000000E+00  0.45593999997E+02  0.45594000000E+02  0.51100000000E-03 0.  1.
         11   -1    0    0    0    0 -0.00000000000E+00 -0.00000000000E+00 -0.45593999997E+02  0.45594000000E+02  0.51100000000E-03 0. -1.
    9900012    2    1    2    0    0  0.33810844479E+02  0.57207066255E+01 -0.26603063825E+02  0.47787277731E+02  0.20000030485E+02 0.  0.
        -12    1    1    2    0    0 -0.33810844479E+02 -0.57207066255E+01  0.26603063825E+02  0.43400722269E+02  0.00000000000E+00 0.  1.
         11    1    3    3    0    0  0.13095202214E+02  0.16606954906E+01 -0.55056031247E+01  0.14302233971E+02  0.51100000000E-03 0. -1.
        -11    1    3    3    0    0  0.16533668769E+01 -0.40706031818E+01 -0.77852154815E+00  0.44620094526E+01  0.51100000000E-03 0.  1.
        -12    1    3    3    0    0  0.19062275387E+02  0.81306143168E+01 -0.20318939152E+02  0.29023034307E+02  0.00000000000E+00 0.  1.
</event>
<event>
 7    1  0.2530788E-009  0.4778727E+02  0.7816164E-02  0.1312668E+00
        -11   -1    0    0    0    0  0.00000000000E+00  0.00000000000E+00  0.45593999997E+02  0.45594000000E+02  0.51100000000E-03 0.  1.
         11   -1    0    0    0    0 -0.00000000000E+00 -0.00000000000E+00 -0.45593999997E+02  0.45594000000E+02  0.51100000000E-03 0. -1.
    9900012    2    1    2    0    0  0.25194646774E+02 -0.24152960591E+01 -0.35256480859E+02  0.47787270470E+02  0.19999997382E+02 0.  0.
        -12    1    1    2    0    0 -0.25194646774E+02  0.24152960591E+01  0.35256480859E+02  0.43400729530E+02  0.00000000000E+00 0.  1.
         11    1    3    3    0    0  0.13584534748E+02  0.30485266274E+01 -0.18401601715E+02  0.23074922424E+02  0.51100000000E-03 0. -1.
        -11    1    3    3    0    0  0.74859021686E+01 -0.39517140366E+01 -0.13185720776E+01  0.85669952544E+01  0.51100000000E-03 0.  1.
        -12    1    3    3    0    0  0.41242098580E+01 -0.15121086499E+01 -0.15536307066E+02  0.16145352792E+02  0.00000000000E+00 0.  1.
</event>
<event>
 7    1  0.2530788E-009  0.4778728E+02  0.7816164E-02  0.1312668E+00
        -11   -1    0    0    0    0  0.00000000000E+00  0.00000000000E+00  0.45593999997E+02  0.45594000000E+02  0.51100000000E-03 0.  1.
         11   -1    0    0    0    0 -0.00000000000E+00 -0.00000000000E+00 -0.45593999997E+02  0.45594000000E+02  0.51100000000E-03 0. -1.
    9900012    2    1    2    0    0  0.18734381725E+02 -0.29574444417E+02 -0.25651467277E+02  0.47787278869E+02  0.20000035678E+02 0.  0.
        -12    1    1    2    0    0 -0.18734381725E+02  0.29574444417E+02  0.25651467277E+02  0.43400721131E+02  0.00000000000E+00 0.  1.
         11    1    3    3    0    0  0.75693926462E+01 -0.14217515158E+02 -0.17117698534E+02  0.23504234633E+02  0.51100000000E-03 0. -1.
        -11    1    3    3    0    0  0.30086077890E+01 -0.47346320779E+01  0.32166025727E+01  0.64664514313E+01  0.51100000000E-03 0.  1.
        -12    1    3    3    0    0  0.81563812897E+01 -0.10622297180E+02 -0.11750371316E+02  0.17816592805E+02  0.00000000000E+00 0.  1.
</event>
<event>
 7    1  0.2530788E-009  0.4778727E+02  0.7816164E-02  0.1312668E+00
        -11   -1    0    0    0    0  0.00000000000E+00  0.00000000000E+00  0.45593999997E+02  0.45594000000E+02  0.51100000000E-03 0. -1.
         11   -1    0    0    0    0 -0.00000000000E+00 -0.00000000000E+00 -0.45593999997E+02  0.45594000000E+02  0.51100000000E-03 0.  1.
    9900012    2    1    2    0    0 -0.18491126101E+01  0.43170273236E+02 -0.40659459618E+01  0.47787266996E+02  0.19999981541E+02 0.  0.
        -12    1    1    2    0    0  0.18491126101E+01 -0.43170273236E+02  0.40659459618E+01  0.43400733004E+02  0.00000000000E+00 0.  1.
         11    1    3    3    0    0  0.38810488523E+01  0.29651391488E+02 -0.18847845945E+01  0.29963644147E+02  0.51100000000E-03 0. -1.
        -11    1    3    3    0    0 -0.78768568719E+01  0.75567345822E+01 -0.32680196787E+01  0.11394255772E+02  0.51100000000E-03 0.  1.
         12    1    3    3    0    0  0.21466954095E+01  0.59621471661E+01  0.10868583113E+01  0.64293670761E+01  0.00000000000E+00 0. -1.
</event>
<event>
 7    1  0.2530788E-009  0.4778727E+02  0.7816164E-02  0.1312668E+00
        -11   -1    0    0    0    0  0.00000000000E+00  0.00000000000E+00  0.45593999997E+02  0.45594000000E+02  0.51100000000E-03 0. -1.
         11   -1    0    0    0    0 -0.00000000000E+00 -0.00000000000E+00 -0.45593999997E+02  0.45594000000E+02  0.51100000000E-03 0.  1.
    9900012    2    1    2    0    0 -0.36926597677E+02 -0.21116119835E+02 -0.86115731635E+01  0.47787270453E+02  0.19999997303E+02 0.  0.
        -12    1    1    2    0    0  0.36926597677E+02  0.21116119835E+02  0.86115731635E+01  0.43400729547E+02  0.00000000000E+00 0.  1.
         11    1    3    3    0    0 -0.25342403449E+02 -0.52742816089E+01 -0.64544559666E+01  0.26677995824E+02  0.51100000000E-03 0. -1.
        -11    1    3    3    0    0 -0.18986485374E+01 -0.83588908856E+01  0.49383198987E+00  0.85860231423E+01  0.51100000000E-03 0.  1.
         12    1    3    3    0    0 -0.96855456898E+01 -0.74829473408E+01 -0.26509491868E+01  0.12523251487E+02  0.00000000000E+00 0. -1.
</event>
<event>
 7    1  0.2530788E-009  0.4778727E+02  0.7816164E-02  0.1312668E+00
        -11   -1    0    0    0    0  0.00000000000E+00  0.00000000000E+00  0.45593999997E+02  0.45594000000E+02  0.51100000000E-03 0.  1.
         11   -1    0    0    0    0 -0.00000000000E+00 -0.00000000000E+00 -0.45593999997E+02  0.45594000000E+02  0.51100000000E-03 0. -1.
    9900012    2    1    2    0    0  0.94470983749E+01 -0.18966577734E+02 -0.37876700607E+02  0.47787272039E+02  0.20000004536E+02 0.  0.
        -12    1    1    2    0    0 -0.94470983749E+01  0.18966577734E+02  0.37876700607E+02  0.43400727961E+02  0.00000000000E+00 0.  1.
         11    1    3    3    0    0  0.81067363349E+01 -0.34950599475E+01 -0.20618448710E+02  0.22428888638E+02  0.51100000000E-03 0. -1.
        -11    1    3    3    0    0  0.38224540344E+01 -0.13577558161E+02 -0.95291729212E+01  0.17022525585E+02  0.51100000000E-03 0.  1.
         12    1    3    3    0    0 -0.24820919944E+01 -0.18939596259E+01 -0.77290789754E+01  0.83358578168E+01  0.00000000000E+00 0. -1.
</event>
<event>
 7    1  0.2530788E-009  0.4778727E+02  0.7816164E-02  0.1312668E+00
        -11   -1    0    0    0    0  0.00000000000E+00  0.00000000000E+00  0.45593999997E+02  0.45594000000E+02  0.51100000000E-03 0. -1.
         11   -1    0    0    0    0 -0.00000000000E+00 -0.00000000000E+00 -0.45593999997E+02  0.45594000000E+02  0.51100000000E-03 0.  1.
    9900012    2    1    2    0    0 -0.16347693916E+02  0.93345253725E+01  0.39105537789E+02  0.47787267908E+02  0.19999985700E+02 0.  0.
        -12    1    1    2    0    0  0.16347693916E+02 -0.93345253725E+01 -0.39105537789E+02  0.43400732092E+02  0.00000000000E+00 0.  1.
         11    1    3    3    0    0  0.16104952030E+01 -0.12134397109E+01  0.65275737457E+01  0.68319360358E+01  0.51100000000E-03 0. -1.
        -11    1    3    3    0    0 -0.18794800077E+02  0.12432873085E+02  0.31151412414E+02  0.38447774172E+02  0.51100000000E-03 0.  1.
        -12    1    3    3    0    0  0.83661095759E+00 -0.18849080021E+01  0.14265516296E+01  0.25075577007E+01  0.00000000000E+00 0.  1.
</event>
<event>
 7    1  0.2530788E-009  0.4778727E+02  0.7816164E-02  0.1312668E+00
        -11   -1    0    0    0    0  0.00000000000E+00  0.00000000000E+00  0.45593999997E+02  0.45594000000E+02  0.51100000000E-03 0.  1.
         11   -1    0    0    0    0 -0.00000000000E+00 -0.00000000000E+00 -0.45593999997E+02  0.45594000000E+02  0.51100000000E-03 0. -1.
    9900012    2    1    2    0    0  0.42292067100E+02 -0.22024406159E+01 -0.94949155331E+01  0.47787272987E+02  0.20000008859E+02 0.  0.
        -12    1    1    2    0    0 -0.42292067100E+02  0.22024406159E+01  0.94949155331E+01  0.43400727013E+02  0.00000000000E+00 0.  1.
         11    1    3    3    0    0  0.20327903718E+02  0.22583633224E+01 -0.50103584693E+01  0.21057719884E+02  0.51100000000E-03 0. -1.
        -11    1    3    3    0    0  0.51813593366E-01 -0.44379936330E+01 -0.76458034911E+00  0.45036713364E+01  0.51100000000E-03 0.  1.
        -12    1    3    3    0    0  0.21912349788E+02 -0.22810305306E-01 -0.37199767147E+01  0.22225881767E+02  0.00000000000E+00 0.  1.
</event>
<event>
 7    1  0.2530788E-009  0.4778727E+02  0.7816164E-02  0.1312668E+00
        -11   -1    0    0    0    0  0.00000000000E+00  0.00000000000E+00  0.45593999997E+02  0.45594000000E+02  0.51100000000E-03 0.  1.
         11   -1    0    0    0    0 -0.00000000000E+00 -0.00000000000E+00 -0.45593999997E+02  0.45594000000E+02  0.51100000000E-03 0. -1.
    9900012    2    1    2    0    0 -0.11564077090E+02 -0.41757771493E+02 -0.24867745374E+01  0.47787269515E+02  0.19999993028E+02 0.  0.
        -12    1    1    2    0    0  0.11564077090E+02  0.41757771493E+02  0.24867745374E+01  0.43400730485E+02  0.00000000000E+00 0.  1.
         11    1    3    3    0    0 -0.19837732010E+01 -0.20001315480E+02 -0.62724438942E+01  0.21055439433E+02  0.51100000000E-03 0. -1.
        -11    1    3    3    0    0 -0.11686735903E+02 -0.13487804089E+02  0.15663270359E+01  0.17915190087E+02  0.51100000000E-03 0.  1.
         12    1    3    3    0    0  0.21064320139E+01 -0.82686519244E+01  0.22193423208E+01  0.88166399957E+01  0.00000000000E+00 0. -1.
</event>
<event>
 7    1  0.2530788E-009  0.4778727E+02  0.7816164E-02  0.1312668E+00
        -11   -1    0    0    0    0  0.00000000000E+00  0.00000000000E+00  0.45593999997E+02  0.45594000000E+02  0.51100000000E-03 0. -1.
         11   -1    0    0    0    0 -0.00000000000E+00 -0.00000000000E+00 -0.45593999997E+02  0.45594000000E+02  0.51100000000E-03 0.  1.
    9900012    2    1    2    0    0 -0.13224421102E+02 -0.24319804062E+02  0.33425815005E+02  0.47787270837E+02  0.19999999055E+02 0.  0.
        -12    1    1    2    0    0  0.13224421102E+02  0.24319804062E+02 -0.33425815005E+02  0.43400729163E+02  0.00000000000E+00 0.  1.
         11    1    3    3    0    0 -0.11618398541E+02 -0.25800057501E+02  0.22422568091E+02  0.36102655190E+02  0.51100000000E-03 0. -1.
        -11    1    3    3    0    0 -0.59586922619E+00  0.21204770276E+01  0.38794071151E+01  0.44610853820E+01  0.51100000000E-03 0.  1.
         12    1    3    3    0    0 -0.10101533355E+01 -0.64022358810E+00  0.71238397991E+01  0.72235302649E+01  0.00000000000E+00 0. -1.
</event>
<event>
 7    1  0.2530788E-009  0.4778727E+02  0.7816164E-02  0.1312668E+00
        -11   -1    0    0    0    0  0.00000000000E+00  0.00000000000E+00  0.45593999997E+02  0.45594000000E+02  0.51100000000E-03 0.  1.
         11   -1    0    0    0    0 -0.00000000000E+00 -0.00000000000E+00 -0.45593999997E+02  0.45594000000E+02  0.51100000000E-03 0. -1.
    9900012    2    1    2    0    0 -0.39573763120E+02  0.80811182094E+01 -0.15881936417E+02  0.47787273009E+02  0.20000008958E+02 0.  0.
        -12    1    1    2    0    0  0.39573763120E+02 -0.80811182094E+01  0.15881936417E+02  0.43400726991E+02  0.00000000000E+00 0.  1.
         11    1    3    3    0    0 -0.31648070554E+02  0.11078344576E+02 -0.17632530851E+02  0.37884511780E+02  0.51100000000E-03 0. -1.
        -11    1    3    3    0    0 -0.39645455498E+01 -0.43724326265E+00 -0.14041819996E+01  0.42285376238E+01  0.51100000000E-03 0.  1.
         12    1    3    3    0    0 -0.39611470158E+01 -0.25599831041E+01  0.31547764338E+01  0.56742236052E+01  0.00000000000E+00 0. -1.
</event>
<event>
 7    1  0.2530788E-009  0.4778727E+02  0.7816164E-02  0.1312668E+00
        -11   -1    0    0    0    0  0.00000000000E+00  0.00000000000E+00  0.45593999997E+02  0.45594000000E+02  0.51100000000E-03 0.  1.
         11   -1    0    0    0    0 -0.00000000000E+00 -0.00000000000E+00 -0.45593999997E+02  0.45594000000E+02  0.51100000000E-03 0. -1.
    9900012    2    1    2    0    0 -0.18956768317E+00  0.35525761528E+02 -0.24930055181E+02  0.47787270520E+02  0.19999997610E+02 0.  0.
        -12    1    1    2    0    0  0.18956768317E+00 -0.35525761528E+02  0.24930055181E+02  0.43400729480E+02  0.00000000000E+00 0.  1.
         11    1    3    3    0    0 -0.37663153102E+01  0.11610031328E+02 -0.77502046488E+01  0.14458341220E+02  0.51100000000E-03 0. -1.
        -11    1    3    3    0    0  0.10869452270E+01  0.23908350591E+02 -0.18734489924E+02  0.30393614311E+02  0.51100000000E-03 0.  1.
        -12    1    3    3    0    0  0.24898024000E+01  0.73796083857E-02  0.15546393919E+01  0.29353149897E+01  0.00000000000E+00 0.  1.
</event>
<event>
 7    1  0.2530788E-009  0.4778727E+02  0.7816164E-02  0.1312668E+00
        -11   -1    0    0    0    0  0.00000000000E+00  0.00000000000E+00  0.45593999997E+02  0.45594000000E+02  0.51100000000E-03 0.  1.
         11   -1    0    0    0    0 -0.00000000000E+00 -0.00000000000E+00 -0.45593999997E+02  0.45594000000E+02  0.51100000000E-03 0. -1.
    9900012    2    1    2    0    0  0.71093557553E+01  0.30477757060E+02 -0.30069698063E+02  0.47787270095E+02  0.19999995672E+02 0.  0.
        -12    1    1    2    0    0 -0.71093557553E+01 -0.30477757060E+02  0.30069698063E+02  0.43400729905E+02  0.00000000000E+00 0.  1.
         11    1    3    3    0    0 -0.12346472719E+01  0.21267282773E+02 -0.95693864916E+01  0.23353689827E+02  0.51100000000E-03 0. -1.
        -11    1    3    3    0    0  0.53969000764E+01  0.74029440133E+01 -0.17897850003E+02  0.20106296165E+02  0.51100000000E-03 0.  1.
         12    1    3    3    0    0  0.29471029508E+01  0.18075302736E+01 -0.26024615683E+01  0.43272841029E+01  0.00000000000E+00 0. -1.
</event>
<event>
 7    1  0.2530788E-009  0.4778726E+02  0.7816164E-02  0.1312668E+00
        -11   -1    0    0    0    0  0.00000000000E+00  0.00000000000E+00  0.45593999997E+02  0.45594000000E+02  0.51100000000E-03 0. -1.
         11   -1    0    0    0    0 -0.00000000000E+00 -0.00000000000E+00 -0.45593999997E+02  0.45594000000E+02  0.51100000000E-03 0.  1.
    9900012    2    1    2    0    0  0.38439561460E+02  0.74791918261E+00  0.20136156982E+02  0.47787261684E+02  0.19999957322E+02 0.  0.
        -12    1    1    2    0    0 -0.38439561460E+02 -0.74791918261E+00 -0.20136156982E+02  0.43400738316E+02  0.00000000000E+00 0.  1.
         11    1    3    3    0    0  0.20684067639E+02 -0.67615077553E+01  0.88232412581E+01  0.23481870194E+02  0.51100000000E-03 0. -1.
        -11    1    3    3    0    0  0.11681567316E+02  0.23204927412E+01  0.20695392369E+01  0.12088287489E+02  0.51100000000E-03 0.  1.
         12    1    3    3    0    0  0.60739265055E+01  0.51889341967E+01  0.92433764868E+01  0.12217104001E+02  0.00000000000E+00 0. -1.
</event>
<event>
 7    1  0.2530788E-009  0.4778727E+02  0.7816164E-02  0.1312668E+00
        -11   -1    0    0    0    0  0.00000000000E+00  0.00000000000E+00  0.45593999997E+02  0.45594000000E+02  0.51100000000E-03 0. -1.
         11   -1    0    0    0    0 -0.00000000000E+00 -0.00000000000E+00 -0.45593999997E+02  0.45594000000E+02  0.51100000000E-03 0.  1.
    9900012    2    1    2    0    0  0.33553654355E+02 -0.18697661570E+02 -0.20203303792E+02  0.47787265526E+02  0.19999974838E+02 0.  0.
        -12    1    1    2    0    0 -0.33553654355E+02  0.18697661570E+02  0.20203303792E+02  0.43400734474E+02  0.00000000000E+00 0.  1.
         11    1    3    3    0    0  0.22228421310E+02 -0.50422808997E+01 -0.16213461349E+02  0.27971479042E+02  0.51100000000E-03 0. -1.
        -11    1    3    3    0    0 -0.83582308472E+00 -0.17144803644E+01 -0.18173034421E+01  0.26345085330E+01  0.51100000000E-03 0.  1.
         12    1    3    3    0    0  0.12161056129E+02 -0.11940900306E+02 -0.21725390012E+01  0.17181277951E+02  0.00000000000E+00 0. -1.
</event>
<event>
 7    1  0.2530788E-009  0.4778727E+02  0.7816164E-02  0.1312668E+00
        -11   -1    0    0    0    0  0.00000000000E+00  0.00000000000E+00  0.45593999997E+02  0.45594000000E+02  0.51100000000E-03 0.  1.
         11   -1    0    0    0    0 -0.00000000000E+00 -0.00000000000E+00 -0.45593999997E+02  0.45594000000E+02  0.51100000000E-03 0. -1.
    9900012    2    1    2    0    0  0.25744784800E+02 -0.41732793576E+01 -0.34690247298E+02  0.47787268870E+02  0.19999990087E+02 0.  0.
        -12    1    1    2    0    0 -0.25744784800E+02  0.41732793576E+01  0.34690247298E+02  0.43400731130E+02  0.00000000000E+00 0.  1.
         11    1    3    3    0    0  0.17541447852E+02  0.34538236121E+01 -0.28756988585E+02  0.33861418798E+02  0.51100000000E-03 0. -1.
        -11    1    3    3    0    0  0.87832100536E+01 -0.70026621931E+01 -0.64262526473E+01  0.12941359279E+02  0.51100000000E-03 0.  1.
         12    1    3    3    0    0 -0.57987310535E+00 -0.62444077665E+00  0.49299393468E+00  0.98449079300E+00  0.00000000000E+00 0. -1.
</event>
<event>
 7    1  0.2530788E-009  0.4778727E+02  0.7816164E-02  0.1312668E+00
        -11   -1    0    0    0    0  0.00000000000E+00  0.00000000000E+00  0.45593999997E+02  0.45594000000E+02  0.51100000000E-03 0. -1.
         11   -1    0    0    0    0 -0.00000000000E+00 -0.00000000000E+00 -0.45593999997E+02  0.45594000000E+02  0.51100000000E-03 0.  1.
    9900012    2    1    2    0    0  0.39751948607E+02  0.23617034206E+01  0.17257699981E+02  0.47787271092E+02  0.20000000219E+02 0.  0.
        -12    1    1    2    0    0 -0.39751948607E+02 -0.23617034206E+01 -0.17257699981E+02  0.43400728908E+02  0.00000000000E+00 0.  1.
         11    1    3    3    0    0  0.53527326655E+01  0.41169939213E+01  0.36127994713E+01  0.76585707686E+01  0.51100000000E-03 0. -1.
        -11    1    3    3    0    0  0.32700813221E+02 -0.68369995072E-01  0.75225109426E+01  0.33554970287E+02  0.51100000000E-03 0.  1.
        -12    1    3    3    0    0  0.16984027199E+01 -0.16869205057E+01  0.61223895671E+01  0.65737300373E+01  0.00000000000E+00 0.  1.
</event>
<event>
 7    1  0.2530788E-009  0.4778727E+02  0.7816164E-02  0.1312668E+00
        -11   -1    0    0    0    0  0.00000000000E+00  0.00000000000E+00  0.45593999997E+02  0.45594000000E+02  0.51100000000E-03 0.  1.
         11   -1    0    0    0    0 -0.00000000000E+00 -0.00000000000E+00 -0.45593999997E+02  0.45594000000E+02  0.51100000000E-03 0. -1.
    9900012    2    1    2    0    0 -0.39592155580E+02 -0.16565248031E+02 -0.64558080441E+01  0.47787266328E+02  0.19999978496E+02 0.  0.
        -12    1    1    2    0    0  0.39592155580E+02  0.16565248031E+02  0.64558080441E+01  0.43400733672E+02  0.00000000000E+00 0.  1.
         11    1    3    3    0    0 -0.32240527336E+02 -0.98606918040E+01 -0.18722327213E+00  0.33715276932E+02  0.51100000000E-03 0.  1.
        -11    1    3    3    0    0  0.44270606709E+00 -0.23961368429E+01  0.94264763819E+00  0.26126701404E+01  0.51100000000E-03 0. -1.
         12    1    3    3    0    0 -0.77943343107E+01 -0.43084193837E+01 -0.72112324102E+01  0.11459319256E+02  0.00000000000E+00 0. -1.
</event>
<event>
 7    1  0.2530788E-009  0.4778727E+02  0.7816164E-02  0.1312668E+00
        -11   -1    0    0    0    0  0.00000000000E+00  0.00000000000E+00  0.45593999997E+02  0.45594000000E+02  0.51100000000E-03 0.  1.
         11   -1    0    0    0    0 -0.00000000000E+00 -0.00000000000E+00 -0.45593999997E+02  0.45594000000E+02  0.51100000000E-03 0. -1.
    9900012    2    1    2    0    0  0.26780282889E+02 -0.33427511961E+02  0.70029405834E+01  0.47787270924E+02  0.19999999451E+02 0.  0.
        -12    1    1    2    0    0 -0.26780282889E+02  0.33427511961E+02 -0.70029405834E+01  0.43400729076E+02  0.00000000000E+00 0.  1.
         11    1    3    3    0    0  0.12752588519E+02 -0.88411796357E+01 -0.72539009887E+00  0.15534515195E+02  0.51100000000E-03 0. -1.
        -11    1    3    3    0    0  0.15455869783E+02 -0.20873392491E+02  0.98090997186E+01  0.27763300639E+02  0.51100000000E-03 0.  1.
        -12    1    3    3    0    0 -0.14281754128E+01 -0.37129398340E+01 -0.20807690364E+01  0.44894550898E+01  0.00000000000E+00 0.  1.
</event>
<event>
 7    1  0.2530788E-009  0.4778727E+02  0.7816164E-02  0.1312668E+00
        -11   -1    0    0    0    0  0.00000000000E+00  0.00000000000E+00  0.45593999997E+02  0.45594000000E+02  0.51100000000E-03 0. -1.
         11   -1    0    0    0    0 -0.00000000000E+00 -0.00000000000E+00 -0.45593999997E+02  0.45594000000E+02  0.51100000000E-03 0.  1.
    9900012    2    1    2    0    0  0.66637075602E+01 -0.37929975694E+02 -0.20013368546E+02  0.47787274486E+02  0.20000015691E+02 0.  0.
        -12    1    1    2    0    0 -0.66637075602E+01  0.37929975694E+02  0.20013368546E+02  0.43400725514E+02  0.00000000000E+00 0.  1.
         11    1    3    3    0    0  0.31114637441E+01 -0.35156016715E+02 -0.13338261274E+02  0.37729775138E+02  0.51100000000E-03 0. -1.
        -11    1    3    3    0    0  0.10504793344E+01  0.14727848270E+01 -0.41332621275E+01  0.45118131670E+01  0.51100000000E-03 0.  1.
         12    1    3    3    0    0  0.25017644817E+01 -0.42467438061E+01 -0.25418451444E+01  0.55456861807E+01  0.00000000000E+00 0. -1.
</event>
<event>
 7    1  0.2530788E-009  0.4778727E+02  0.7816164E-02  0.1312668E+00
        -11   -1    0    0    0    0  0.00000000000E+00  0.00000000000E+00  0.45593999997E+02  0.45594000000E+02  0.51100000000E-03 0.  1.
         11   -1    0    0    0    0 -0.00000000000E+00 -0.00000000000E+00 -0.45593999997E+02  0.45594000000E+02  0.51100000000E-03 0. -1.
    9900012    2    1    2    0    0  0.33333317099E+02 -0.18962145523E+02 -0.20321181309E+02  0.47787269575E+02  0.19999993299E+02 0.  0.
        -12    1    1    2    0    0 -0.33333317099E+02  0.18962145523E+02  0.20321181309E+02  0.43400730425E+02  0.00000000000E+00 0.  1.
         11    1    3    3    0    0  0.26598358209E+01 -0.10998862528E+01 -0.65800346596E+01  0.71820145325E+01  0.51100000000E-03 0. -1.
        -11    1    3    3    0    0  0.21923748441E+02 -0.66214988451E+01 -0.37521411274E+01  0.23207187593E+02  0.51100000000E-03 0.  1.
        -12    1    3    3    0    0  0.87497328368E+01 -0.11240760425E+02 -0.99890055226E+01  0.17398067450E+02  0.00000000000E+00 0.  1.
</event>
<event>
 7    1  0.2530788E-009  0.4778727E+02  0.7816164E-02  0.1312668E+00
        -11   -1    0    0    0    0  0.00000000000E+00  0.00000000000E+00  0.45593999997E+02  0.45594000000E+02  0.51100000000E-03 0. -1.
         11   -1    0    0    0    0 -0.00000000000E+00 -0.00000000000E+00 -0.45593999997E+02  0.45594000000E+02  0.51100000000E-03 0.  1.
    9900012    2    1    2    0    0 -0.22844422314E+02  0.21336449150E+02  0.30108329157E+02  0.47787272151E+02  0.20000005046E+02 0.  0.
        -12    1    1    2    0    0  0.22844422314E+02 -0.21336449150E+02 -0.30108329157E+02  0.43400727849E+02  0.00000000000E+00 0.  1.
         11    1    3    3    0    0 -0.10138228684E+02  0.16278741309E+02  0.88323291432E+01  0.21113766547E+02  0.51100000000E-03 0. -1.
        -11    1    3    3    0    0  0.43553583436E+00  0.20464008574E+01  0.57057261739E+01  0.60772328707E+01  0.51100000000E-03 0.  1.
         12    1    3    3    0    0 -0.13141729464E+02  0.30113069841E+01  0.15570273840E+02  0.20596272733E+02  0.00000000000E+00 0. -1.
</event>
<event>
 7    1  0.2530788E-009  0.4778727E+02  0.7816164E-02  0.1312668E+00
        -11   -1    0    0    0    0  0.00000000000E+00  0.00000000000E+00  0.45593999997E+02  0.45594000000E+02  0.51100000000E-03 0.  1.
         11   -1    0    0    0    0 -0.00000000000E+00 -0.00000000000E+00 -0.45593999997E+02  0.45594000000E+02  0.51100000000E-03 0. -1.
    9900012    2    1    2    0    0  0.40374057271E+02  0.15916215101E+02 -0.48258191440E+00  0.47787270870E+02  0.19999999205E+02 0.  0.
        -12    1    1    2    0    0 -0.40374057271E+02 -0.15916215101E+02  0.48258191440E+00  0.43400729130E+02  0.00000000000E+00 0.  1.
         11    1    3    3    0    0  0.31820965660E+02  0.11779443218E+02  0.50627349784E+01  0.34306856804E+02  0.51100000000E-03 0. -1.
        -11    1    3    3    0    0  0.25709529990E+01  0.46853269548E+00 -0.59013894288E+01  0.64541242366E+01  0.51100000000E-03 0.  1.
         12    1    3    3    0    0  0.59821386123E+01  0.36682391871E+01  0.35607253593E+00  0.70262898291E+01  0.00000000000E+00 0. -1.
</event>
<event>
 7    1  0.2530788E-009  0.4778726E+02  0.7816164E-02  0.1312668E+00
        -11   -1    0    0    0    0  0.00000000000E+00  0.00000000000E+00  0.45593999997E+02  0.45594000000E+02  0.51100000000E-03 0. -1.
         11   -1    0    0    0    0 -0.00000000000E+00 -0.00000000000E+00 -0.45593999997E+02  0.45594000000E+02  0.51100000000E-03 0.  1.
    9900012    2    1    2    0    0 -0.83975521529E+00  0.22990864383E+01  0.43331662403E+02  0.47787263210E+02  0.19999964281E+02 0.  0.
        -12    1    1    2    0    0  0.83975521529E+00 -0.22990864383E+01 -0.43331662403E+02  0.43400736790E+02  0.00000000000E+00 0.  1.
         11    1    3    3    0    0  0.41146794004E+01 -0.31855910981E+01  0.22788141455E+02  0.23374729270E+02  0.51100000000E-03 0. -1.
        -11    1    3    3    0    0 -0.50852736938E+01 -0.40646199052E+00  0.30281697193E+01  0.59325400968E+01  0.51100000000E-03 0.  1.
        -12    1    3    3    0    0  0.13083907815E+00  0.58911395269E+01  0.17515351228E+02  0.18479993843E+02  0.00000000000E+00 0.  1.
</event>
<event>
 7    1  0.2530788E-009  0.4778727E+02  0.7816164E-02  0.1312668E+00
        -11   -1    0    0    0    0  0.00000000000E+00  0.00000000000E+00  0.45593999997E+02  0.45594000000E+02  0.51100000000E-03 0.  1.
         11   -1    0    0    0    0 -0.00000000000E+00 -0.00000000000E+00 -0.45593999997E+02  0.45594000000E+02  0.51100000000E-03 0. -1.
    9900012    2    1    2    0    0  0.15759644417E+02 -0.36324072037E+02 -0.17771298845E+02  0.47787266549E+02  0.19999979502E+02 0.  0.
        -12    1    1    2    0    0 -0.15759644417E+02  0.36324072037E+02  0.17771298845E+02  0.43400733451E+02  0.00000000000E+00 0.  1.
         11    1    3    3    0    0  0.16590613759E+02 -0.20787410492E+02 -0.14596421797E+02  0.30338431558E+02  0.51100000000E-03 0. -1.
        -11    1    3    3    0    0  0.23748717549E+01 -0.29180885938E+01  0.77922326928E+00  0.38421928710E+01  0.51100000000E-03 0.  1.
         12    1    3    3    0    0 -0.32058410967E+01 -0.12618572951E+02 -0.39541003169E+01  0.13606642120E+02  0.00000000000E+00 0. -1.
</event>
<event>
 7    1  0.2861152E-009  0.4778727E+02  0.7816164E-02  0.1312668E+00
        -11   -1    0    0    0    0  0.00000000000E+00  0.00000000000E+00  0.45593999997E+02  0.45594000000E+02  0.51100000000E-03 0. -1.
         11   -1    0    0    0    0 -0.00000000000E+00 -0.00000000000E+00 -0.45593999997E+02  0.45594000000E+02  0.51100000000E-03 0.  1.
    9900012    2    1    2    0    0  0.18865559170E+02 -0.15318990328E+02  0.35958903692E+02  0.47787267953E+02  0.19999985906E+02 0.  0.
        -12    1    1    2    0    0 -0.18865559170E+02  0.15318990328E+02 -0.35958903692E+02  0.43400732047E+02  0.00000000000E+00 0.  1.
         11    1    3    3    0    0  0.86899119167E+01 -0.13381739651E+02  0.28170671509E+02  0.32375488548E+02  0.51100000000E-03 0. -1.
        -11    1    3    3    0    0  0.91139187948E+01  0.13073454141E+01  0.76904482993E+01  0.11996485449E+02  0.51100000000E-03 0.  1.
        -12    1    3    3    0    0  0.10617284582E+01 -0.32445960913E+01  0.97783883622E-01  0.34152939555E+01  0.00000000000E+00 0.  1.
</event>
<event>
 7    1  0.2530788E-009  0.4778727E+02  0.7816164E-02  0.1312668E+00
        -11   -1    0    0    0    0  0.00000000000E+00  0.00000000000E+00  0.45593999997E+02  0.45594000000E+02  0.51100000000E-03 0.  1.
         11   -1    0    0    0    0 -0.00000000000E+00 -0.00000000000E+00 -0.45593999997E+02  0.45594000000E+02  0.51100000000E-03 0. -1.
    9900012    2    1    2    0    0 -0.11696498153E+00  0.21158002005E+01 -0.43348972149E+02  0.47787266392E+02  0.19999978788E+02 0.  0.
        -12    1    1    2    0    0  0.11696498153E+00 -0.21158002005E+01  0.43348972149E+02  0.43400733608E+02  0.00000000000E+00 0.  1.
         11    1    3    3    0    0  0.20528064994E+01  0.48547855367E+01 -0.93840525693E+01  0.10763057187E+02  0.51100000000E-03 0. -1.
        -11    1    3    3    0    0  0.28532214196E+01 -0.72673336554E+01 -0.20941771035E+02  0.22349782667E+02  0.51100000000E-03 0.  1.
        -12    1    3    3    0    0 -0.50229929006E+01  0.45283483191E+01 -0.13023148546E+02  0.14674426538E+02  0.00000000000E+00 0.  1.
</event>
<event>
 7    1  0.2530788E-009  0.4778728E+02  0.7816164E-02  0.1312668E+00
        -11   -1    0    0    0    0  0.00000000000E+00  0.00000000000E+00  0.45593999997E+02  0.45594000000E+02  0.51100000000E-03 0. -1.
         11   -1    0    0    0    0 -0.00000000000E+00 -0.00000000000E+00 -0.45593999997E+02  0.45594000000E+02  0.51100000000E-03 0.  1.
    9900012    2    1    2    0    0  0.31683901083E+02  0.14908184488E+02  0.25641744042E+02  0.47787278922E+02  0.20000035918E+02 0.  0.
        -12    1    1    2    0    0 -0.31683901083E+02 -0.14908184488E+02 -0.25641744042E+02  0.43400721078E+02  0.00000000000E+00 0.  1.
         11    1    3    3    0    0  0.86577989592E+01  0.54991586590E+01  0.62361876571E+01  0.12003677167E+02  0.51100000000E-03 0. -1.
        -11    1    3    3    0    0  0.94024088782E+01  0.91078430610E+01  0.17752098212E+02  0.22056633676E+02  0.51100000000E-03 0.  1.
        -12    1    3    3    0    0  0.13623693245E+02  0.30118276839E+00  0.16534581726E+01  0.13726968079E+02  0.00000000000E+00 0.  1.
</event>
<event>
 7    1  0.2530788E-009  0.4778727E+02  0.7816164E-02  0.1312668E+00
        -11   -1    0    0    0    0  0.00000000000E+00  0.00000000000E+00  0.45593999997E+02  0.45594000000E+02  0.51100000000E-03 0.  1.
         11   -1    0    0    0    0 -0.00000000000E+00 -0.00000000000E+00 -0.45593999997E+02  0.45594000000E+02  0.51100000000E-03 0. -1.
    9900012    2    1    2    0    0  0.21513702759E+02  0.93700054765E+00 -0.37681638713E+02  0.47787271060E+02  0.20000000072E+02 0.  0.
        -12    1    1    2    0    0 -0.21513702759E+02 -0.93700054765E+00  0.37681638713E+02  0.43400728940E+02  0.00000000000E+00 0.  1.
         11    1    3    3    0    0  0.14884965562E+02 -0.24067438522E+01 -0.31426101681E+02  0.34856197195E+02  0.51100000000E-03 0. -1.
        -11    1    3    3    0    0  0.19945999199E+00  0.50215121544E+00 -0.58662277217E+01  0.58910583154E+01  0.51100000000E-03 0.  1.
         12    1    3    3    0    0  0.64292772053E+01  0.28415931844E+01 -0.38930931007E+00  0.70400155502E+01  0.00000000000E+00 0. -1.
</event>
<event>
 7    1  0.2530788E-009  0.4778727E+02  0.7816164E-02  0.1312668E+00
        -11   -1    0    0    0    0  0.00000000000E+00  0.00000000000E+00  0.45593999997E+02  0.45594000000E+02  0.51100000000E-03 0.  1.
         11   -1    0    0    0    0 -0.00000000000E+00 -0.00000000000E+00 -0.45593999997E+02  0.45594000000E+02  0.51100000000E-03 0. -1.
    9900012    2    1    2    0    0 -0.32610951054E+02  0.28624996976E+02 -0.87088924682E+00  0.47787273870E+02  0.20000012883E+02 0.  0.
        -12    1    1    2    0    0  0.32610951054E+02 -0.28624996976E+02  0.87088924682E+00  0.43400726130E+02  0.00000000000E+00 0.  1.
         11    1    3    3    0    0 -0.39315854581E+01 -0.84486873666E+00  0.38289604829E+01  0.55526665699E+01  0.51100000000E-03 0. -1.
        -11    1    3    3    0    0 -0.26617840530E+01  0.58514126702E+00 -0.17699755168E+01  0.32496612497E+01  0.51100000000E-03 0.  1.
         12    1    3    3    0    0 -0.26017581543E+02  0.28884724445E+02 -0.29298742129E+01  0.38984946050E+02  0.00000000000E+00 0. -1.
</event>
<event>
 7    1  0.2530788E-009  0.4778727E+02  0.7816164E-02  0.1312668E+00
        -11   -1    0    0    0    0  0.00000000000E+00  0.00000000000E+00  0.45593999997E+02  0.45594000000E+02  0.51100000000E-03 0. -1.
         11   -1    0    0    0    0 -0.00000000000E+00 -0.00000000000E+00 -0.45593999997E+02  0.45594000000E+02  0.51100000000E-03 0.  1.
    9900012    2    1    2    0    0  0.76846838558E+01 -0.39234992888E+02  0.16887394462E+02  0.47787272764E+02  0.20000007841E+02 0.  0.
        -12    1    1    2    0    0 -0.76846838558E+01  0.39234992888E+02 -0.16887394462E+02  0.43400727236E+02  0.00000000000E+00 0.  1.
         11    1    3    3    0    0  0.11668159365E+02 -0.30590427860E+02  0.16740178672E+02  0.36771643991E+02  0.51100000000E-03 0. -1.
        -11    1    3    3    0    0 -0.20896996498E+01 -0.77739992581E+01 -0.17035315876E+01  0.82282397402E+01  0.51100000000E-03 0.  1.
         12    1    3    3    0    0 -0.18937758591E+01 -0.87056577038E+00  0.18507473771E+01  0.27873890326E+01  0.00000000000E+00 0. -1.
</event>
<event>
 7    1  0.2530788E-009  0.4778727E+02  0.7816164E-02  0.1312668E+00
        -11   -1    0    0    0    0  0.00000000000E+00  0.00000000000E+00  0.45593999997E+02  0.45594000000E+02  0.51100000000E-03 0.  1.
         11   -1    0    0    0    0 -0.00000000000E+00 -0.00000000000E+00 -0.45593999997E+02  0.45594000000E+02  0.51100000000E-03 0. -1.
    9900012    2    1    2    0    0  0.29215874370E+02  0.26154149994E+02 -0.18601517030E+02  0.47787270594E+02  0.19999997947E+02 0.  0.
        -12    1    1    2    0    0 -0.29215874370E+02 -0.26154149994E+02  0.18601517030E+02  0.43400729406E+02  0.00000000000E+00 0.  1.
         11    1    3    3    0    0  0.10927919164E+02  0.18002387351E+02 -0.11446099250E+02  0.23969116711E+02  0.51100000000E-03 0. -1.
        -11    1    3    3    0    0  0.48189665720E+00  0.44810939335E+01 -0.19201281945E+01  0.48989100597E+01  0.51100000000E-03 0.  1.
         12    1    3    3    0    0  0.17806058549E+02  0.36706687097E+01 -0.52352895858E+01  0.18919243824E+02  0.00000000000E+00 0. -1.
</event>
<event>
 7    1  0.2530788E-009  0.4778727E+02  0.7816164E-02  0.1312668E+00
        -11   -1    0    0    0    0  0.00000000000E+00  0.00000000000E+00  0.45593999997E+02  0.45594000000E+02  0.51100000000E-03 0.  1.
         11   -1    0    0    0    0 -0.00000000000E+00 -0.00000000000E+00 -0.45593999997E+02  0.45594000000E+02  0.51100000000E-03 0. -1.
    9900012    2    1    2    0    0  0.23517475681E+02  0.16394015445E+02 -0.32585085645E+02  0.47787271765E+02  0.20000003285E+02 0.  0.
        -12    1    1    2    0    0 -0.23517475681E+02 -0.16394015445E+02  0.32585085645E+02  0.43400728235E+02  0.00000000000E+00 0.  1.
         11    1    3    3    0    0  0.17461066184E+02  0.72080765518E+01 -0.28028132392E+02  0.33799724933E+02  0.51100000000E-03 0. -1.
        -11    1    3    3    0    0 -0.91074911623E-01  0.22225945679E+01 -0.41277103442E+01  0.46889459583E+01  0.51100000000E-03 0.  1.
         12    1    3    3    0    0  0.61474844089E+01  0.69633443248E+01 -0.42924290897E+00  0.92986008742E+01  0.00000000000E+00 0. -1.
</event>
<event>
 7    1  0.2530788E-009  0.4778727E+02  0.7816164E-02  0.1312668E+00
        -11   -1    0    0    0    0  0.00000000000E+00  0.00000000000E+00  0.45593999997E+02  0.45594000000E+02  0.51100000000E-03 0. -1.
         11   -1    0    0    0    0 -0.00000000000E+00 -0.00000000000E+00 -0.45593999997E+02  0.45594000000E+02  0.51100000000E-03 0.  1.
    9900012    2    1    2    0    0 -0.20457815352E+02  0.64633717150E+01  0.37726993168E+02  0.47787269632E+02  0.19999993562E+02 0.  0.
        -12    1    1    2    0    0  0.20457815352E+02 -0.64633717150E+01 -0.37726993168E+02  0.43400730368E+02  0.00000000000E+00 0.  1.
         11    1    3    3    0    0 -0.12289402913E+02  0.65390911359E+01  0.32325486596E+02  0.35195542626E+02  0.51100000000E-03 0. -1.
        -11    1    3    3    0    0 -0.40168678629E+01  0.29205502365E+01 -0.24150960830E+00  0.49722397633E+01  0.51100000000E-03 0.  1.
        -12    1    3    3    0    0 -0.41515445760E+01 -0.29962696573E+01  0.56430161811E+01  0.76194872430E+01  0.00000000000E+00 0.  1.
</event>
<event>
 7    1  0.2530788E-009  0.4778725E+02  0.7816164E-02  0.1312668E+00
        -11   -1    0    0    0    0  0.00000000000E+00  0.00000000000E+00  0.45593999997E+02  0.45594000000E+02  0.51100000000E-03 0. -1.
         11   -1    0    0    0    0 -0.00000000000E+00 -0.00000000000E+00 -0.45593999997E+02  0.45594000000E+02  0.51100000000E-03 0.  1.
    9900012    2    1    2    0    0  0.20773447407E+02  0.31946181036E+02  0.20773318363E+02  0.47787247060E+02  0.19999890644E+02 0.  0.
        -12    1    1    2    0    0 -0.20773447407E+02 -0.31946181036E+02 -0.20773318363E+02  0.43400752940E+02  0.00000000000E+00 0.  1.
         11    1    3    3    0    0  0.22012761273E+02  0.20331332233E+02  0.13535669530E+02  0.32880679420E+02  0.51100000000E-03 0. -1.
        -11    1    3    3    0    0 -0.21150963764E+01  0.16532308404E+01  0.30553287648E+01  0.40671659685E+01  0.51100000000E-03 0.  1.
         12    1    3    3    0    0  0.87578251016E+00  0.99616179619E+01  0.41823200690E+01  0.10839401671E+02  0.00000000000E+00 0. -1.
</event>
<event>
 7    1  0.2530788E-009  0.4778725E+02  0.7816164E-02  0.1312668E+00
        -11   -1    0    0    0    0  0.00000000000E+00  0.00000000000E+00  0.45593999997E+02  0.45594000000E+02  0.51100000000E-03 0. -1.
         11   -1    0    0    0    0 -0.00000000000E+00 -0.00000000000E+00 -0.45593999997E+02  0.45594000000E+02  0.51100000000E-03 0.  1.
    9900012    2    1    2    0    0  0.31598776981E+02  0.25150884634E+02  0.15892615910E+02  0.47787251792E+02  0.19999912221E+02 0.  0.
        -12    1    1    2    0    0 -0.31598776981E+02 -0.25150884634E+02 -0.15892615910E+02  0.43400748208E+02  0.00000000000E+00 0.  1.
         11    1    3    3    0    0  0.20963406764E+02  0.91237832462E+01  0.12946137652E+02  0.26273757330E+02  0.51100000000E-03 0. -1.
        -11    1    3    3    0    0 -0.32639819694E+00  0.18871285973E+01  0.30739381516E+01  0.36217241953E+01  0.51100000000E-03 0.  1.
         12    1    3    3    0    0  0.10961768414E+02  0.14139972790E+02 -0.12745989357E+00  0.17891770267E+02  0.00000000000E+00 0. -1.
</event>
<event>
 7    1  0.2530788E-009  0.4778727E+02  0.7816164E-02  0.1312668E+00
        -11   -1    0    0    0    0  0.00000000000E+00  0.00000000000E+00  0.45593999997E+02  0.45594000000E+02  0.51100000000E-03 0.  1.
         11   -1    0    0    0    0 -0.00000000000E+00 -0.00000000000E+00 -0.45593999997E+02  0.45594000000E+02  0.51100000000E-03 0. -1.
    9900012    2    1    2    0    0  0.16525803463E+02 -0.26683325486E+02 -0.29975339833E+02  0.47787273771E+02  0.20000012432E+02 0.  0.
        -12    1    1    2    0    0 -0.16525803463E+02  0.26683325486E+02  0.29975339833E+02  0.43400726229E+02  0.00000000000E+00 0.  1.
         11    1    3    3    0    0  0.55647533613E+01 -0.62559185839E+01 -0.62295236975E+01  0.10435993631E+02  0.51100000000E-03 0. -1.
        -11    1    3    3    0    0  0.13508985761E+02 -0.80240170626E+01 -0.16401515308E+02  0.22713151494E+02  0.51100000000E-03 0.  1.
        -12    1    3    3    0    0 -0.25479356590E+01 -0.12403389840E+02 -0.73443008269E+01  0.14638128647E+02  0.00000000000E+00 0.  1.
</event>
<event>
 7    1  0.2530788E-009  0.4778727E+02  0.7816164E-02  0.1312668E+00
        -11   -1    0    0    0    0  0.00000000000E+00  0.00000000000E+00  0.45593999997E+02  0.45594000000E+02  0.51100000000E-03 0.  1.
         11   -1    0    0    0    0 -0.00000000000E+00 -0.00000000000E+00 -0.45593999997E+02  0.45594000000E+02  0.51100000000E-03 0. -1.
    9900012    2    1    2    0    0 -0.19947342772E+02  0.29414442468E+02 -0.24910189013E+02  0.47787269291E+02  0.19999992007E+02 0.  0.
        -12    1    1    2    0    0  0.19947342772E+02 -0.29414442468E+02  0.24910189013E+02  0.43400730709E+02  0.00000000000E+00 0.  1.
         11    1    3    3    0    0 -0.63305986328E+01 -0.64496904829E-01 -0.81576895378E+01  0.10326109517E+02  0.51100000000E-03 0. -1.
        -11    1    3    3    0    0 -0.29890775556E+01  0.23621940227E+01  0.10152339312E+00  0.38111484483E+01  0.51100000000E-03 0.  1.
         12    1    3    3    0    0 -0.10627666584E+02  0.27116745350E+02 -0.16854022868E+02  0.33650011326E+02  0.00000000000E+00 0. -1.
</event>
<event>
 7    1  0.2530788E-009  0.4778727E+02  0.7816164E-02  0.1312668E+00
        -11   -1    0    0    0    0  0.00000000000E+00  0.00000000000E+00  0.45593999997E+02  0.45594000000E+02  0.51100000000E-03 0.  1.
         11   -1    0    0    0    0 -0.00000000000E+00 -0.00000000000E+00 -0.45593999997E+02  0.45594000000E+02  0.51100000000E-03 0. -1.
    9900012    2    1    2    0    0  0.12242870800E+01  0.29618209013E+02 -0.31699940146E+02  0.47787269715E+02  0.19999993940E+02 0.  0.
        -12    1    1    2    0    0 -0.12242870800E+01 -0.29618209013E+02  0.31699940146E+02  0.43400730285E+02  0.00000000000E+00 0.  1.
         11    1    3    3    0    0 -0.18151234126E+00  0.18256098168E+01 -0.30096624416E+01  0.35247505170E+01  0.51100000000E-03 0. -1.
        -11    1    3    3    0    0 -0.42110305910E+01  0.17509659423E+02 -0.64583634919E+01  0.19131947392E+02  0.51100000000E-03 0.  1.
        -12    1    3    3    0    0  0.56168300123E+01  0.10282939773E+02 -0.22231914213E+02  0.25130571806E+02  0.00000000000E+00 0.  1.
</event>
<event>
 7    1  0.2530788E-009  0.4778726E+02  0.7816164E-02  0.1312668E+00
        -11   -1    0    0    0    0  0.00000000000E+00  0.00000000000E+00  0.45593999997E+02  0.45594000000E+02  0.51100000000E-03 0. -1.
         11   -1    0    0    0    0 -0.00000000000E+00 -0.00000000000E+00 -0.45593999997E+02  0.45594000000E+02  0.51100000000E-03 0.  1.
    9900012    2    1    2    0    0  0.19316374635E+02  0.16150672518E+02  0.35350494109E+02  0.47787262845E+02  0.19999962615E+02 0.  0.
        -12    1    1    2    0    0 -0.19316374635E+02 -0.16150672518E+02 -0.35350494109E+02  0.43400737155E+02  0.00000000000E+00 0.  1.
         11    1    3    3    0    0  0.15400585131E+02  0.76657582206E+01  0.28426903388E+02  0.33226957549E+02  0.51100000000E-03 0. -1.
        -11    1    3    3    0    0  0.59188741671E+01  0.27490887812E+01  0.22783574976E+01  0.69124144610E+01  0.51100000000E-03 0.  1.
         12    1    3    3    0    0 -0.20030846631E+01  0.57358255164E+01  0.46452332239E+01  0.76478908352E+01  0.00000000000E+00 0. -1.
</event>
<event>
 7    1  0.2530788E-009  0.4778727E+02  0.7816164E-02  0.1312668E+00
        -11   -1    0    0    0    0  0.00000000000E+00  0.00000000000E+00  0.45593999997E+02  0.45594000000E+02  0.51100000000E-03 0.  1.
         11   -1    0    0    0    0 -0.00000000000E+00 -0.00000000000E+00 -0.45593999997E+02  0.45594000000E+02  0.51100000000E-03 0. -1.
    9900012    2    1    2    0    0 -0.36454281627E+01 -0.42992735722E+02  0.46860048033E+01  0.47787272905E+02  0.20000008482E+02 0.  0.
        -12    1    1    2    0    0  0.36454281627E+01  0.42992735722E+02 -0.46860048033E+01  0.43400727095E+02  0.00000000000E+00 0.  1.
         11    1    3    3    0    0 -0.27544115172E+01 -0.80700595509E+01 -0.56695535108E+01  0.10239945373E+02  0.51100000000E-03 0. -1.
        -11    1    3    3    0    0 -0.42031397758E+01 -0.19165625844E+02  0.83409556133E+01  0.21320392556E+02  0.51100000000E-03 0.  1.
         12    1    3    3    0    0  0.33121231303E+01 -0.15757050328E+02  0.20146027008E+01  0.16226934976E+02  0.00000000000E+00 0. -1.
</event>
<event>
 7    1  0.2530788E-009  0.4778727E+02  0.7816164E-02  0.1312668E+00
        -11   -1    0    0    0    0  0.00000000000E+00  0.00000000000E+00  0.45593999997E+02  0.45594000000E+02  0.51100000000E-03 0.  1.
         11   -1    0    0    0    0 -0.00000000000E+00 -0.00000000000E+00 -0.45593999997E+02  0.45594000000E+02  0.51100000000E-03 0. -1.
    9900012    2    1    2    0    0 -0.50853884778E+01 -0.39520062227E+02 -0.17202516395E+02  0.47787273454E+02  0.20000010987E+02 0.  0.
        -12    1    1    2    0    0  0.50853884778E+01  0.39520062227E+02  0.17202516395E+02  0.43400726546E+02  0.00000000000E+00 0.  1.
         11    1    3    3    0    0 -0.22023278490E+00 -0.34228990048E+02 -0.11903474909E+02  0.36240377721E+02  0.51100000000E-03 0. -1.
        -11    1    3    3    0    0 -0.25447215519E+01 -0.40983212987E+00  0.14049893152E+01  0.29355690059E+01  0.51100000000E-03 0.  1.
        -12    1    3    3    0    0 -0.23204341410E+01 -0.48812400487E+01 -0.67040308017E+01  0.86113267274E+01  0.00000000000E+00 0.  1.
</event>
<event>
 7    1  0.2530788E-009  0.4778727E+02  0.7816164E-02  0.1312668E+00
        -11   -1    0    0    0    0  0.00000000000E+00  0.00000000000E+00  0.45593999997E+02  0.45594000000E+02  0.51100000000E-03 0.  1.
         11   -1    0    0    0    0 -0.00000000000E+00 -0.00000000000E+00 -0.45593999997E+02  0.45594000000E+02  0.51100000000E-03 0. -1.
    9900012    2    1    2    0    0  0.27046154184E+02 -0.32660310386E+02 -0.92429802873E+01  0.47787274023E+02  0.20000013583E+02 0.  0.
        -12    1    1    2    0    0 -0.27046154184E+02  0.32660310386E+02  0.92429802873E+01  0.43400725977E+02  0.00000000000E+00 0.  1.
         11    1    3    3    0    0  0.79627776360E+01 -0.11991381301E+02 -0.68383423886E+01  0.15936184615E+02  0.51100000000E-03 0. -1.
        -11    1    3    3    0    0  0.35542230104E+01  0.17926274296E+01  0.15247967360E+01  0.42627478997E+01  0.51100000000E-03 0.  1.
        -12    1    3    3    0    0  0.15529153538E+02 -0.22461556515E+02 -0.39294346347E+01  0.27588341509E+02  0.00000000000E+00 0.  1.
</event>
<event>
 7    1  0.2530788E-009  0.4778727E+02  0.7816164E-02  0.1312668E+00
        -11   -1    0    0    0    0  0.00000000000E+00  0.00000000000E+00  0.45593999997E+02  0.45594000000E+02  0.51100000000E-03 0.  1.
         11   -1    0    0    0    0 -0.00000000000E+00 -0.00000000000E+00 -0.45593999997E+02  0.45594000000E+02  0.51100000000E-03 0. -1.
    9900012    2    1    2    0    0 -0.41768828178E+02  0.11786224657E+02 -0.27147322738E+00  0.47787265021E+02  0.19999972536E+02 0.  0.
        -12    1    1    2    0    0  0.41768828178E+02 -0.11786224657E+02  0.27147322738E+00  0.43400734979E+02  0.00000000000E+00 0.  1.
         11    1    3    3    0    0 -0.85007299620E+01 -0.47451078718E+01 -0.99872088550E+00  0.97865163501E+01  0.51100000000E-03 0. -1.
        -11    1    3    3    0    0 -0.28771591142E+02  0.15442217297E+02 -0.18476250472E+01  0.32705966588E+02  0.51100000000E-03 0.  1.
        -12    1    3    3    0    0 -0.44965070741E+01  0.10891152317E+01  0.25748727053E+01  0.52947820828E+01  0.00000000000E+00 0.  1.
</event>
<event>
 7    1  0.2530788E-009  0.4778726E+02  0.7816164E-02  0.1312668E+00
        -11   -1    0    0    0    0  0.00000000000E+00  0.00000000000E+00  0.45593999997E+02  0.45594000000E+02  0.51100000000E-03 0. -1.
         11   -1    0    0    0    0 -0.00000000000E+00 -0.00000000000E+00 -0.45593999997E+02  0.45594000000E+02  0.51100000000E-03 0.  1.
    9900012    2    1    2    0    0 -0.29531749354E+02  0.31708965684E+02  0.24578716129E+01  0.47787264321E+02  0.19999969343E+02 0.  0.
        -12    1    1    2    0    0  0.29531749354E+02 -0.31708965684E+02 -0.24578716129E+01  0.43400735679E+02  0.00000000000E+00 0.  1.
         11    1    3    3    0    0 -0.81748637074E+01  0.69687685547E+00  0.38765058506E+01  0.90742124649E+01  0.51100000000E-03 0. -1.
        -11    1    3    3    0    0 -0.17046625724E+02  0.27051300795E+02 -0.41696729978E+01  0.32245100348E+02  0.51100000000E-03 0.  1.
        -12    1    3    3    0    0 -0.43102599228E+01  0.39607880331E+01  0.27510387601E+01  0.64679515076E+01  0.00000000000E+00 0.  1.
</event>
<event>
 7    1  0.2530788E-009  0.4778728E+02  0.7816164E-02  0.1312668E+00
        -11   -1    0    0    0    0  0.00000000000E+00  0.00000000000E+00  0.45593999997E+02  0.45594000000E+02  0.51100000000E-03 0.  1.
         11   -1    0    0    0    0 -0.00000000000E+00 -0.00000000000E+00 -0.45593999997E+02  0.45594000000E+02  0.51100000000E-03 0. -1.
    9900012    2    1    2    0    0  0.39839813934E+02  0.17020581962E+02  0.25907263627E+01  0.47787275954E+02  0.20000022386E+02 0.  0.
        -12    1    1    2    0    0 -0.39839813934E+02 -0.17020581962E+02 -0.25907263627E+01  0.43400724046E+02  0.00000000000E+00 0.  1.
         11    1    3    3    0    0  0.14498048521E+02  0.81767732790E+01 -0.79068247916E+01  0.18427449924E+02  0.51100000000E-03 0. -1.
        -11    1    3    3    0    0  0.81111309040E+01  0.35142724605E+01  0.62624514793E+01  0.10833229170E+02  0.51100000000E-03 0.  1.
        -12    1    3    3    0    0  0.17230634509E+02  0.53295362222E+01  0.42350996750E+01  0.18526596860E+02  0.00000000000E+00 0.  1.
</event>
<event>
 7    1  0.2530788E-009  0.4778727E+02  0.7816164E-02  0.1312668E+00
        -11   -1    0    0    0    0  0.00000000000E+00  0.00000000000E+00  0.45593999997E+02  0.45594000000E+02  0.51100000000E-03 0.  1.
         11   -1    0    0    0    0 -0.00000000000E+00 -0.00000000000E+00 -0.45593999997E+02  0.45594000000E+02  0.51100000000E-03 0. -1.
    9900012    2    1    2    0    0 -0.31602430395E+02 -0.27695639218E+02 -0.10856400593E+02  0.47787268757E+02  0.19999989571E+02 0.  0.
        -12    1    1    2    0    0  0.31602430395E+02  0.27695639218E+02  0.10856400593E+02  0.43400731243E+02  0.00000000000E+00 0.  1.
         11    1    3    3    0    0 -0.22112138678E+02 -0.10846576204E+02 -0.69423189070E+01  0.25588878137E+02  0.51100000000E-03 0. -1.
        -11    1    3    3    0    0  0.62615572041E-01 -0.41810841760E+01  0.27336604904E+01  0.49958268119E+01  0.51100000000E-03 0.  1.
         12    1    3    3    0    0 -0.95529072891E+01 -0.12667978838E+02 -0.66477421763E+01  0.17202563808E+02  0.00000000000E+00 0. -1.
</event>
<event>
 7    1  0.2530788E-009  0.4778727E+02  0.7816164E-02  0.1312668E+00
        -11   -1    0    0    0    0  0.00000000000E+00  0.00000000000E+00  0.45593999997E+02  0.45594000000E+02  0.51100000000E-03 0.  1.
         11   -1    0    0    0    0 -0.00000000000E+00 -0.00000000000E+00 -0.45593999997E+02  0.45594000000E+02  0.51100000000E-03 0. -1.
    9900012    2    1    2    0    0  0.33577738748E+02 -0.25197769204E+01 -0.27382652422E+02  0.47787268799E+02  0.19999989760E+02 0.  0.
        -12    1    1    2    0    0 -0.33577738748E+02  0.25197769204E+01  0.27382652422E+02  0.43400731201E+02  0.00000000000E+00 0.  1.
         11    1    3    3    0    0  0.78344988000E+01 -0.43721762123E+01 -0.58255487827E+01  0.10697304107E+02  0.51100000000E-03 0. -1.
        -11    1    3    3    0    0  0.20227625383E+02  0.13214342547E+01 -0.68877686095E+01  0.21408978813E+02  0.51100000000E-03 0.  1.
        -12    1    3    3    0    0  0.55156145645E+01  0.53096503723E+00 -0.14669335030E+02  0.15680985878E+02  0.00000000000E+00 0.  1.
</event>
<event>
 7    1  0.2530788E-009  0.4778727E+02  0.7816164E-02  0.1312668E+00
        -11   -1    0    0    0    0  0.00000000000E+00  0.00000000000E+00  0.45593999997E+02  0.45594000000E+02  0.51100000000E-03 0.  1.
         11   -1    0    0    0    0 -0.00000000000E+00 -0.00000000000E+00 -0.45593999997E+02  0.45594000000E+02  0.51100000000E-03 0. -1.
    9900012    2    1    2    0    0  0.37523470940E+00  0.17321563594E+01 -0.43364528066E+02  0.47787268887E+02  0.19999990164E+02 0.  0.
        -12    1    1    2    0    0 -0.37523470940E+00 -0.17321563594E+01  0.43364528066E+02  0.43400731113E+02  0.00000000000E+00 0.  1.
         11    1    3    3    0    0  0.14826153260E+01  0.86024245563E+01 -0.21297313167E+02  0.23016850455E+02  0.51100000000E-03 0. -1.
        -11    1    3    3    0    0 -0.38608711896E+01 -0.73636567412E+01 -0.14676102078E+02  0.16867653643E+02  0.51100000000E-03 0.  1.
        -12    1    3    3    0    0  0.27534905731E+01  0.49338854427E+00 -0.73911128207E+01  0.79027647896E+01  0.00000000000E+00 0.  1.
</event>
<event>
 7    1  0.2530788E-009  0.4778727E+02  0.7816164E-02  0.1312668E+00
        -11   -1    0    0    0    0  0.00000000000E+00  0.00000000000E+00  0.45593999997E+02  0.45594000000E+02  0.51100000000E-03 0. -1.
         11   -1    0    0    0    0 -0.00000000000E+00 -0.00000000000E+00 -0.45593999997E+02  0.45594000000E+02  0.51100000000E-03 0.  1.
    9900012    2    1    2    0    0  0.17447422404E+02 -0.39229039199E+02 -0.63477210799E+01  0.47787266966E+02  0.19999981404E+02 0.  0.
        -12    1    1    2    0    0 -0.17447422404E+02  0.39229039199E+02  0.63477210799E+01  0.43400733034E+02  0.00000000000E+00 0.  1.
         11    1    3    3    0    0 -0.70087907167E+00 -0.74382432352E+01  0.12499956369E+01  0.75750368482E+01  0.51100000000E-03 0. -1.
        -11    1    3    3    0    0  0.15028838977E+02 -0.17221384274E+02  0.12366616211E+01  0.22890421786E+02  0.51100000000E-03 0.  1.
        -12    1    3    3    0    0  0.31194624989E+01 -0.14569411689E+02 -0.88343783379E+01  0.17321808331E+02  0.00000000000E+00 0.  1.
</event>
<event>
 7    1  0.2530788E-009  0.4778727E+02  0.7816164E-02  0.1312668E+00
        -11   -1    0    0    0    0  0.00000000000E+00  0.00000000000E+00  0.45593999997E+02  0.45594000000E+02  0.51100000000E-03 0. -1.
         11   -1    0    0    0    0 -0.00000000000E+00 -0.00000000000E+00 -0.45593999997E+02  0.45594000000E+02  0.51100000000E-03 0.  1.
    9900012    2    1    2    0    0  0.18768615557E+02  0.39118609703E+02  0.10472145011E+01  0.47787271743E+02  0.20000003187E+02 0.  0.
        -12    1    1    2    0    0 -0.18768615557E+02 -0.39118609703E+02 -0.10472145011E+01  0.43400728257E+02  0.00000000000E+00 0.  1.
         11    1    3    3    0    0 -0.33082532054E+01  0.39931808870E+01 -0.14244748056E+01  0.53776539122E+01  0.51100000000E-03 0. -1.
        -11    1    3    3    0    0  0.41365086767E+01  0.67780541116E+01 -0.28624630508E+01  0.84407592402E+01  0.51100000000E-03 0.  1.
         12    1    3    3    0    0  0.17940360085E+02  0.28347374704E+02  0.53341523576E+01  0.33968858591E+02  0.00000000000E+00 0. -1.
</event>
<event>
 7    1  0.2530788E-009  0.4778728E+02  0.7816164E-02  0.1312668E+00
        -11   -1    0    0    0    0  0.00000000000E+00  0.00000000000E+00  0.45593999997E+02  0.45594000000E+02  0.51100000000E-03 0. -1.
         11   -1    0    0    0    0 -0.00000000000E+00 -0.00000000000E+00 -0.45593999997E+02  0.45594000000E+02  0.51100000000E-03 0.  1.
    9900012    2    1    2    0    0 -0.12242819708E+02  0.15029381586E+02  0.38831094980E+02  0.47787275552E+02  0.20000020550E+02 0.  0.
        -12    1    1    2    0    0  0.12242819708E+02 -0.15029381586E+02 -0.38831094980E+02  0.43400724448E+02  0.00000000000E+00 0.  1.
         11    1    3    3    0    0  0.69155858599E+00  0.21116991226E+01 -0.15143465444E+01  0.26890095165E+01  0.51100000000E-03 0.  1.
        -11    1    3    3    0    0 -0.94639812294E+01  0.11075516214E+02  0.37547913178E+02  0.40275051637E+02  0.51100000000E-03 0. -1.
        -12    1    3    3    0    0 -0.34703970644E+01  0.18421662493E+01  0.27975283473E+01  0.48232143980E+01  0.00000000000E+00 0.  1.
</event>
<event>
 7    1  0.2530788E-009  0.4778727E+02  0.7816164E-02  0.1312668E+00
        -11   -1    0    0    0    0  0.00000000000E+00  0.00000000000E+00  0.45593999997E+02  0.45594000000E+02  0.51100000000E-03 0.  1.
         11   -1    0    0    0    0 -0.00000000000E+00 -0.00000000000E+00 -0.45593999997E+02  0.45594000000E+02  0.51100000000E-03 0. -1.
    9900012    2    1    2    0    0  0.35615004614E+02  0.24764549997E+02  0.13827353346E+01  0.47787269047E+02  0.19999990895E+02 0.  0.
        -12    1    1    2    0    0 -0.35615004614E+02 -0.24764549997E+02 -0.13827353346E+01  0.43400730953E+02  0.00000000000E+00 0.  1.
         11    1    3    3    0    0  0.14907807891E+02  0.50231868558E+01  0.50769116541E+00  0.15739532804E+02  0.51100000000E-03 0. -1.
        -11    1    3    3    0    0  0.85014546373E+01  0.10434299931E+02  0.74111817950E+01  0.15364731103E+02  0.51100000000E-03 0.  1.
        -12    1    3    3    0    0  0.12205742086E+02  0.93070632099E+01 -0.65361376259E+01  0.16683005141E+02  0.00000000000E+00 0.  1.
</event>
<event>
 7    1  0.2530788E-009  0.4778727E+02  0.7816164E-02  0.1312668E+00
        -11   -1    0    0    0    0  0.00000000000E+00  0.00000000000E+00  0.45593999997E+02  0.45594000000E+02  0.51100000000E-03 0.  1.
         11   -1    0    0    0    0 -0.00000000000E+00 -0.00000000000E+00 -0.45593999997E+02  0.45594000000E+02  0.51100000000E-03 0. -1.
    9900012    2    1    2    0    0  0.30098907140E+02 -0.26835338891E+02 -0.16048166162E+02  0.47787271186E+02  0.20000000646E+02 0.  0.
        -12    1    1    2    0    0 -0.30098907140E+02  0.26835338891E+02  0.16048166162E+02  0.43400728814E+02  0.00000000000E+00 0.  1.
         11    1    3    3    0    0  0.16759406936E+02 -0.15374999130E+02 -0.14064698658E+02  0.26741055845E+02  0.51100000000E-03 0. -1.
        -11    1    3    3    0    0  0.86025444256E-02 -0.60648798367E+00  0.30690669168E+01  0.31284299063E+01  0.51100000000E-03 0.  1.
        -12    1    3    3    0    0  0.13330897660E+02 -0.10853851777E+02 -0.50525344205E+01  0.17917785435E+02  0.00000000000E+00 0.  1.
</event>
<event>
 7    1  0.2530788E-009  0.4778728E+02  0.7816164E-02  0.1312668E+00
        -11   -1    0    0    0    0  0.00000000000E+00  0.00000000000E+00  0.45593999997E+02  0.45594000000E+02  0.51100000000E-03 0.  1.
         11   -1    0    0    0    0 -0.00000000000E+00 -0.00000000000E+00 -0.45593999997E+02  0.45594000000E+02  0.51100000000E-03 0. -1.
    9900012    2    1    2    0    0 -0.22096849109E+02 -0.86227483746E+01 -0.36345568610E+02  0.47787275494E+02  0.20000020285E+02 0.  0.
        -12    1    1    2    0    0  0.22096849109E+02  0.86227483746E+01  0.36345568610E+02  0.43400724506E+02  0.00000000000E+00 0.  1.
         11    1    3    3    0    0 -0.52982244215E+01 -0.54237793423E+01 -0.22939415409E+02  0.24159994701E+02  0.51100000000E-03 0. -1.
        -11    1    3    3    0    0 -0.35814378532E+01 -0.49629475149E+01 -0.41040753012E+01  0.73689198307E+01  0.51100000000E-03 0.  1.
         12    1    3    3    0    0 -0.13217186835E+02  0.17639784826E+01 -0.93020778996E+01  0.16258360962E+02  0.00000000000E+00 0. -1.
</event>
<event>
 7    1  0.2530788E-009  0.4778727E+02  0.7816164E-02  0.1312668E+00
        -11   -1    0    0    0    0  0.00000000000E+00  0.00000000000E+00  0.45593999997E+02  0.45594000000E+02  0.51100000000E-03 0. -1.
         11   -1    0    0    0    0 -0.00000000000E+00 -0.00000000000E+00 -0.45593999997E+02  0.45594000000E+02  0.51100000000E-03 0.  1.
    9900012    2    1    2    0    0 -0.18947852916E+02  0.35040650292E+02  0.17226581888E+02  0.47787269285E+02  0.19999991978E+02 0.  0.
        -12    1    1    2    0    0  0.18947852916E+02 -0.35040650292E+02 -0.17226581888E+02  0.43400730715E+02  0.00000000000E+00 0.  1.
         11    1    3    3    0    0 -0.84868772788E+01  0.16398765006E+02  0.22549710096E+01  0.18601921250E+02  0.51100000000E-03 0. -1.
        -11    1    3    3    0    0 -0.46837752363E+01  0.23252497590E+01  0.98204668384E+01  0.11125920460E+02  0.51100000000E-03 0.  1.
        -12    1    3    3    0    0 -0.57772004012E+01  0.16316635527E+02  0.51511440403E+01  0.18059427575E+02  0.00000000000E+00 0.  1.
</event>
<event>
 7    1  0.2530788E-009  0.4778728E+02  0.7816164E-02  0.1312668E+00
        -11   -1    0    0    0    0  0.00000000000E+00  0.00000000000E+00  0.45593999997E+02  0.45594000000E+02  0.51100000000E-03 0.  1.
         11   -1    0    0    0    0 -0.00000000000E+00 -0.00000000000E+00 -0.45593999997E+02  0.45594000000E+02  0.51100000000E-03 0. -1.
    9900012    2    1    2    0    0 -0.14802469175E+02 -0.85962889686E+01 -0.39882496610E+02  0.47787276348E+02  0.20000024179E+02 0.  0.
        -12    1    1    2    0    0  0.14802469175E+02  0.85962889686E+01  0.39882496610E+02  0.43400723652E+02  0.00000000000E+00 0.  1.
         11    1    3    3    0    0 -0.82261561553E+00 -0.19895985729E+01 -0.12011618274E+02  0.12203039489E+02  0.51100000000E-03 0. -1.
        -11    1    3    3    0    0  0.20688573486E+01 -0.56479799650E+01 -0.84484289624E+01  0.10370911272E+02  0.51100000000E-03 0.  1.
        -12    1    3    3    0    0 -0.16048710909E+02 -0.95871043076E+00 -0.19422449373E+02  0.25213325587E+02  0.00000000000E+00 0.  1.
</event>
<event>
 7    1  0.2530788E-009  0.4778727E+02  0.7816164E-02  0.1312668E+00
        -11   -1    0    0    0    0  0.00000000000E+00  0.00000000000E+00  0.45593999997E+02  0.45594000000E+02  0.51100000000E-03 0. -1.
         11   -1    0    0    0    0 -0.00000000000E+00 -0.00000000000E+00 -0.45593999997E+02  0.45594000000E+02  0.51100000000E-03 0.  1.
    9900012    2    1    2    0    0  0.36269782508E+02 -0.23811023395E+02 -0.10776215838E+01  0.47787271590E+02  0.20000002487E+02 0.  0.
        -12    1    1    2    0    0 -0.36269782508E+02  0.23811023395E+02  0.10776215838E+01  0.43400728410E+02  0.00000000000E+00 0.  1.
         11    1    3    3    0    0  0.51366431502E+01 -0.61148851637E+01 -0.35850567107E+01  0.87538308926E+01  0.51100000000E-03 0. -1.
        -11    1    3    3    0    0  0.19762844219E+02 -0.36760466962E+01 -0.26107386740E+01  0.20270650893E+02  0.51100000000E-03 0.  1.
        -12    1    3    3    0    0  0.11370295138E+02 -0.14020091535E+02  0.51181738009E+01  0.18762789804E+02  0.00000000000E+00 0.  1.
</event>
<event>
 7    1  0.2530788E-009  0.4778727E+02  0.7816164E-02  0.1312668E+00
        -11   -1    0    0    0    0  0.00000000000E+00  0.00000000000E+00  0.45593999997E+02  0.45594000000E+02  0.51100000000E-03 0.  1.
         11   -1    0    0    0    0 -0.00000000000E+00 -0.00000000000E+00 -0.45593999997E+02  0.45594000000E+02  0.51100000000E-03 0. -1.
    9900012    2    1    2    0    0 -0.53011970148E+01  0.21242887495E+02 -0.37473466034E+02  0.47787267108E+02  0.19999982053E+02 0.  0.
        -12    1    1    2    0    0  0.53011970148E+01 -0.21242887495E+02  0.37473466034E+02  0.43400732892E+02  0.00000000000E+00 0.  1.
         11    1    3    3    0    0 -0.19667402514E+01  0.18206107750E+02 -0.16026256005E+02  0.24334570233E+02  0.51100000000E-03 0. -1.
        -11    1    3    3    0    0 -0.43999791056E+01 -0.11736214070E+01 -0.68697632544E+01  0.82420173968E+01  0.51100000000E-03 0.  1.
        -12    1    3    3    0    0  0.10655223422E+01  0.42104011525E+01 -0.14577446775E+02  0.15210679478E+02  0.00000000000E+00 0.  1.
</event>
<event>
 7    1  0.2530788E-009  0.4778728E+02  0.7816164E-02  0.1312668E+00
        -11   -1    0    0    0    0  0.00000000000E+00  0.00000000000E+00  0.45593999997E+02  0.45594000000E+02  0.51100000000E-03 0.  1.
         11   -1    0    0    0    0 -0.00000000000E+00 -0.00000000000E+00 -0.45593999997E+02  0.45594000000E+02  0.51100000000E-03 0. -1.
    9900012    2    1    2    0    0  0.87905712200E+01  0.34098422805E+02 -0.25370180557E+02  0.47787278328E+02  0.20000033209E+02 0.  0.
        -12    1    1    2    0    0 -0.87905712200E+01 -0.34098422805E+02  0.25370180557E+02  0.43400721672E+02  0.00000000000E+00 0.  1.
         11    1    3    3    0    0  0.81276451427E+01  0.24130066625E+02 -0.25361277805E+02  0.35937628512E+02  0.51100000000E-03 0. -1.
        -11    1    3    3    0    0  0.18144347385E+01  0.34251367947E+01  0.26481079794E+01  0.46942743437E+01  0.51100000000E-03 0.  1.
         12    1    3    3    0    0 -0.11515086612E+01  0.65432193859E+01 -0.26570107308E+01  0.71553754725E+01  0.00000000000E+00 0. -1.
</event>
<event>
 7    1  0.2530788E-009  0.4778727E+02  0.7816164E-02  0.1312668E+00
        -11   -1    0    0    0    0  0.00000000000E+00  0.00000000000E+00  0.45593999997E+02  0.45594000000E+02  0.51100000000E-03 0. -1.
         11   -1    0    0    0    0 -0.00000000000E+00 -0.00000000000E+00 -0.45593999997E+02  0.45594000000E+02  0.51100000000E-03 0.  1.
    9900012    2    1    2    0    0 -0.27043617137E+01  0.63524146920E+01  0.42848063841E+02  0.47787270518E+02  0.19999997599E+02 0.  0.
        -12    1    1    2    0    0  0.27043617137E+01 -0.63524146920E+01 -0.42848063841E+02  0.43400729482E+02  0.00000000000E+00 0.  1.
         11    1    3    3    0    0 -0.60689144196E+01  0.11616374162E+02  0.32093786665E+02  0.34666742184E+02  0.51100000000E-03 0. -1.
        -11    1    3    3    0    0  0.43527101701E+01 -0.44510064929E+01  0.91785230979E+01  0.11090664144E+02  0.51100000000E-03 0.  1.
         12    1    3    3    0    0 -0.98815746420E+00 -0.81295297715E+00  0.15757540779E+01  0.20298641903E+01  0.00000000000E+00 0. -1.
</event>
<event>
 7    1  0.2530788E-009  0.4778727E+02  0.7816164E-02  0.1312668E+00
        -11   -1    0    0    0    0  0.00000000000E+00  0.00000000000E+00  0.45593999997E+02  0.45594000000E+02  0.51100000000E-03 0. -1.
         11   -1    0    0    0    0 -0.00000000000E+00 -0.00000000000E+00 -0.45593999997E+02  0.45594000000E+02  0.51100000000E-03 0.  1.
    9900012    2    1    2    0    0  0.16637263383E+02  0.31587450326E+02  0.24679100005E+02  0.47787268116E+02  0.19999986649E+02 0.  0.
        -12    1    1    2    0    0 -0.16637263383E+02 -0.31587450326E+02 -0.24679100005E+02  0.43400731884E+02  0.00000000000E+00 0.  1.
         11    1    3    3    0    0 -0.18821970835E+01  0.14271804131E+02  0.10695107165E+02  0.17933554487E+02  0.51100000000E-03 0. -1.
        -11    1    3    3    0    0  0.83098752736E+01  0.53799021409E+01  0.20049475461E+01  0.10100355886E+02  0.51100000000E-03 0.  1.
         12    1    3    3    0    0  0.10209585193E+02  0.11935744054E+02  0.11979045294E+02  0.19753357743E+02  0.00000000000E+00 0. -1.
</event>
<event>
 7    1  0.2530788E-009  0.4778727E+02  0.7816164E-02  0.1312668E+00
        -11   -1    0    0    0    0  0.00000000000E+00  0.00000000000E+00  0.45593999997E+02  0.45594000000E+02  0.51100000000E-03 0.  1.
         11   -1    0    0    0    0 -0.00000000000E+00 -0.00000000000E+00 -0.45593999997E+02  0.45594000000E+02  0.51100000000E-03 0. -1.
    9900012    2    1    2    0    0  0.28809633978E+02  0.32237921861E+02 -0.37874961473E+01  0.47787265641E+02  0.19999975362E+02 0.  0.
        -12    1    1    2    0    0 -0.28809633978E+02 -0.32237921861E+02  0.37874961473E+01  0.43400734359E+02  0.00000000000E+00 0.  1.
         11    1    3    3    0    0 -0.21770075239E+01  0.33174218987E+01  0.13775032846E+01  0.42002577746E+01  0.51100000000E-03 0.  1.
        -11    1    3    3    0    0  0.19390205718E+02  0.23466656422E+02 -0.29730659431E+01  0.30585996187E+02  0.51100000000E-03 0. -1.
         12    1    3    3    0    0  0.11596435784E+02  0.54538435405E+01 -0.21919334889E+01  0.13001011679E+02  0.00000000000E+00 0. -1.
</event>
<event>
 7    1  0.2530788E-009  0.4778727E+02  0.7816164E-02  0.1312668E+00
        -11   -1    0    0    0    0  0.00000000000E+00  0.00000000000E+00  0.45593999997E+02  0.45594000000E+02  0.51100000000E-03 0.  1.
         11   -1    0    0    0    0 -0.00000000000E+00 -0.00000000000E+00 -0.45593999997E+02  0.45594000000E+02  0.51100000000E-03 0. -1.
    9900012    2    1    2    0    0 -0.21796486384E+02 -0.25774473890E+02 -0.27280265111E+02  0.47787272039E+02  0.20000004537E+02 0.  0.
        -12    1    1    2    0    0  0.21796486384E+02  0.25774473890E+02  0.27280265111E+02  0.43400727961E+02  0.00000000000E+00 0.  1.
         11    1    3    3    0    0 -0.18470532683E+02 -0.11491101780E+02 -0.14238149112E+02  0.25998670891E+02  0.51100000000E-03 0. -1.
        -11    1    3    3    0    0  0.15184469807E+01 -0.31136105464E+01 -0.77967721240E+01  0.85317001637E+01  0.51100000000E-03 0.  1.
         12    1    3    3    0    0 -0.48444006820E+01 -0.11169761563E+02 -0.52453438747E+01  0.13256900985E+02  0.00000000000E+00 0. -1.
</event>
<event>
 7    1  0.2530788E-009  0.4778727E+02  0.7816164E-02  0.1312668E+00
        -11   -1    0    0    0    0  0.00000000000E+00  0.00000000000E+00  0.45593999997E+02  0.45594000000E+02  0.51100000000E-03 0.  1.
         11   -1    0    0    0    0 -0.00000000000E+00 -0.00000000000E+00 -0.45593999997E+02  0.45594000000E+02  0.51100000000E-03 0. -1.
    9900012    2    1    2    0    0  0.30502047137E+02 -0.94964112085E+01 -0.29377994627E+02  0.47787271047E+02  0.20000000010E+02 0.  0.
        -12    1    1    2    0    0 -0.30502047137E+02  0.94964112085E+01  0.29377994627E+02  0.43400728953E+02  0.00000000000E+00 0.  1.
         11    1    3    3    0    0  0.20647853920E+02 -0.42755716426E+01 -0.21748616356E+02  0.30292188730E+02  0.51100000000E-03 0. -1.
        -11    1    3    3    0    0  0.25085647661E+01 -0.70266106751E+01 -0.11782330753E+01  0.75534355234E+01  0.51100000000E-03 0.  1.
        -12    1    3    3    0    0  0.73456284506E+01  0.18057711092E+01 -0.64511451953E+01  0.99416467934E+01  0.00000000000E+00 0.  1.
</event>
<event>
 7    1  0.2530788E-009  0.4778727E+02  0.7816164E-02  0.1312668E+00
        -11   -1    0    0    0    0  0.00000000000E+00  0.00000000000E+00  0.45593999997E+02  0.45594000000E+02  0.51100000000E-03 0.  1.
         11   -1    0    0    0    0 -0.00000000000E+00 -0.00000000000E+00 -0.45593999997E+02  0.45594000000E+02  0.51100000000E-03 0. -1.
    9900012    2    1    2    0    0  0.43056109890E+02 -0.42694336916E+01 -0.34009738086E+01  0.47787270907E+02  0.19999999374E+02 0.  0.
        -12    1    1    2    0    0 -0.43056109890E+02  0.42694336916E+01  0.34009738086E+01  0.43400729093E+02  0.00000000000E+00 0.  1.
         11    1    3    3    0    0  0.79268789688E+01 -0.13307857576E+01  0.13458616008E+01  0.81497082542E+01  0.51100000000E-03 0. -1.
        -11    1    3    3    0    0  0.11679012759E+02 -0.34524300816E+01  0.62988033600E+01  0.13711073500E+02  0.51100000000E-03 0.  1.
        -12    1    3    3    0    0  0.23450218162E+02  0.51378214752E+00 -0.11045638769E+02  0.25926489153E+02  0.00000000000E+00 0.  1.
</event>
<event>
 7    1  0.2530788E-009  0.4778727E+02  0.7816164E-02  0.1312668E+00
        -11   -1    0    0    0    0  0.00000000000E+00  0.00000000000E+00  0.45593999997E+02  0.45594000000E+02  0.51100000000E-03 0. -1.
         11   -1    0    0    0    0 -0.00000000000E+00 -0.00000000000E+00 -0.45593999997E+02  0.45594000000E+02  0.51100000000E-03 0.  1.
    9900012    2    1    2    0    0 -0.31225817687E+02  0.78214040975E+01  0.29110087833E+02  0.47787271136E+02  0.20000000418E+02 0.  0.
        -12    1    1    2    0    0  0.31225817687E+02 -0.78214040975E+01 -0.29110087833E+02  0.43400728864E+02  0.00000000000E+00 0.  1.
         11    1    3    3    0    0 -0.16052544989E+02 -0.59050591496E+00  0.14264134580E+02  0.21482514597E+02  0.51100000000E-03 0.  1.
        -11    1    3    3    0    0 -0.11831717660E+02  0.44595446534E+01  0.24605426524E+01  0.12881434381E+02  0.51100000000E-03 0. -1.
         12    1    3    3    0    0 -0.33415550378E+01  0.39523653590E+01  0.12385410601E+02  0.13423322158E+02  0.00000000000E+00 0. -1.
</event>
<event>
 7    1  0.2530788E-009  0.4778728E+02  0.7816164E-02  0.1312668E+00
        -11   -1    0    0    0    0  0.00000000000E+00  0.00000000000E+00  0.45593999997E+02  0.45594000000E+02  0.51100000000E-03 0.  1.
         11   -1    0    0    0    0 -0.00000000000E+00 -0.00000000000E+00 -0.45593999997E+02  0.45594000000E+02  0.51100000000E-03 0. -1.
    9900012    2    1    2    0    0  0.27217510064E+02  0.65091870842E+01 -0.33173188808E+02  0.47787276201E+02  0.20000023512E+02 0.  0.
        -12    1    1    2    0    0 -0.27217510064E+02 -0.65091870842E+01  0.33173188808E+02  0.43400723799E+02  0.00000000000E+00 0.  1.
         11    1    3    3    0    0  0.24042399140E+01  0.49528967852E+01 -0.52381748921E+01  0.75993442210E+01  0.51100000000E-03 0. -1.
        -11    1    3    3    0    0  0.26555804323E+02  0.39252839785E+00 -0.24330363997E+02  0.36018487395E+02  0.51100000000E-03 0.  1.
        -12    1    3    3    0    0 -0.17425341732E+01  0.11637619012E+01 -0.36046499190E+01  0.41694445848E+01  0.00000000000E+00 0.  1.
</event>
<event>
 7    1  0.2588411E-009  0.4778726E+02  0.7816164E-02  0.1312668E+00
        -11   -1    0    0    0    0  0.00000000000E+00  0.00000000000E+00  0.45593999997E+02  0.45594000000E+02  0.51100000000E-03 0. -1.
         11   -1    0    0    0    0 -0.00000000000E+00 -0.00000000000E+00 -0.45593999997E+02  0.45594000000E+02  0.51100000000E-03 0.  1.
    9900012    2    1    2    0    0 -0.24790015246E+02  0.15532642613E+02  0.32059570447E+02  0.47787263835E+02  0.19999967129E+02 0.  0.
        -12    1    1    2    0    0  0.24790015246E+02 -0.15532642613E+02 -0.32059570447E+02  0.43400736165E+02  0.00000000000E+00 0.  1.
         11    1    3    3    0    0 -0.14397452165E+02  0.13531001495E+02  0.13702470056E+02  0.24044382217E+02  0.51100000000E-03 0. -1.
        -11    1    3    3    0    0 -0.39647208385E+01 -0.51809402076E+00  0.15930744956E+02  0.16424861274E+02  0.51100000000E-03 0.  1.
        -12    1    3    3    0    0 -0.64278422423E+01  0.25197351391E+01  0.24263554349E+01  0.73180203443E+01  0.00000000000E+00 0.  1.
</event>
<event>
 7    1  0.2530788E-009  0.4778727E+02  0.7816164E-02  0.1312668E+00
        -11   -1    0    0    0    0  0.00000000000E+00  0.00000000000E+00  0.45593999997E+02  0.45594000000E+02  0.51100000000E-03 0. -1.
         11   -1    0    0    0    0 -0.00000000000E+00 -0.00000000000E+00 -0.45593999997E+02  0.45594000000E+02  0.51100000000E-03 0.  1.
    9900012    2    1    2    0    0  0.15332912077E+02  0.29739122621E+02  0.27642534892E+02  0.47787270257E+02  0.19999996409E+02 0.  0.
        -12    1    1    2    0    0 -0.15332912077E+02 -0.29739122621E+02 -0.27642534892E+02  0.43400729743E+02  0.00000000000E+00 0.  1.
         11    1    3    3    0    0  0.47924197699E+01  0.84737335603E+01  0.12340759403E+02  0.15718326584E+02  0.51100000000E-03 0. -1.
        -11    1    3    3    0    0  0.56057139555E+01  0.16796218897E+02  0.28304429075E+01  0.17931770841E+02  0.51100000000E-03 0.  1.
        -12    1    3    3    0    0  0.49347783515E+01  0.44691701639E+01  0.12471332581E+02  0.14137172832E+02  0.00000000000E+00 0.  1.
</event>
<event>
 7    1  0.2530788E-009  0.4778727E+02  0.7816164E-02  0.1312668E+00
        -11   -1    0    0    0    0  0.00000000000E+00  0.00000000000E+00  0.45593999997E+02  0.45594000000E+02  0.51100000000E-03 0. -1.
         11   -1    0    0    0    0 -0.00000000000E+00 -0.00000000000E+00 -0.45593999997E+02  0.45594000000E+02  0.51100000000E-03 0.  1.
    9900012    2    1    2    0    0 -0.37950680609E+02 -0.13521128616E+02  0.16141502305E+02  0.47787272190E+02  0.20000005224E+02 0.  0.
        -12    1    1    2    0    0  0.37950680609E+02  0.13521128616E+02 -0.16141502305E+02  0.43400727810E+02  0.00000000000E+00 0.  1.
         11    1    3    3    0    0  0.31983738275E+00  0.11073781342E+01 -0.96466471408E+00  0.15030504167E+01  0.51100000000E-03 0. -1.
        -11    1    3    3    0    0 -0.14614797722E+02 -0.62999206814E+01 -0.21051637484E-01  0.15914828195E+02  0.51100000000E-03 0.  1.
         12    1    3    3    0    0 -0.23655720270E+02 -0.83285860690E+01  0.17127218657E+02  0.30369393578E+02  0.00000000000E+00 0. -1.
</event>
<event>
 7    1  0.2530788E-009  0.4778727E+02  0.7816164E-02  0.1312668E+00
        -11   -1    0    0    0    0  0.00000000000E+00  0.00000000000E+00  0.45593999997E+02  0.45594000000E+02  0.51100000000E-03 0. -1.
         11   -1    0    0    0    0 -0.00000000000E+00 -0.00000000000E+00 -0.45593999997E+02  0.45594000000E+02  0.51100000000E-03 0.  1.
    9900012    2    1    2    0    0 -0.36403350135E+02  0.80310341322E+01  0.22224357114E+02  0.47787268907E+02  0.19999990256E+02 0.  0.
        -12    1    1    2    0    0  0.36403350135E+02 -0.80310341322E+01 -0.22224357114E+02  0.43400731093E+02  0.00000000000E+00 0.  1.
         11    1    3    3    0    0 -0.91434678485E+01  0.60632655571E+00  0.30271726647E+01  0.96506171197E+01  0.51100000000E-03 0. -1.
        -11    1    3    3    0    0 -0.16983061717E+02 -0.85182919935E+00  0.18194147832E+02  0.24903353466E+02  0.51100000000E-03 0.  1.
        -12    1    3    3    0    0 -0.10276820569E+02  0.82765367758E+01  0.10030366173E+01  0.13233298321E+02  0.00000000000E+00 0.  1.
</event>
<event>
 7    1  0.2530788E-009  0.4778727E+02  0.7816164E-02  0.1312668E+00
        -11   -1    0    0    0    0  0.00000000000E+00  0.00000000000E+00  0.45593999997E+02  0.45594000000E+02  0.51100000000E-03 0.  1.
         11   -1    0    0    0    0 -0.00000000000E+00 -0.00000000000E+00 -0.45593999997E+02  0.45594000000E+02  0.51100000000E-03 0. -1.
    9900012    2    1    2    0    0  0.18274063154E+02  0.33387858256E+02 -0.20855035883E+02  0.47787274375E+02  0.20000015186E+02 0.  0.
        -12    1    1    2    0    0 -0.18274063154E+02 -0.33387858256E+02  0.20855035883E+02  0.43400725625E+02  0.00000000000E+00 0.  1.
         11    1    3    3    0    0  0.16271752483E+01  0.35264415291E+01 -0.12433455335E+01  0.40779158309E+01  0.51100000000E-03 0. -1.
        -11    1    3    3    0    0  0.67101569749E+01  0.26433296844E+02 -0.18886421018E+02  0.33172914973E+02  0.51100000000E-03 0.  1.
        -12    1    3    3    0    0  0.99367309312E+01  0.34281198833E+01 -0.72526933098E+00  0.10536443572E+02  0.00000000000E+00 0.  1.
</event>
<event>
 7    1  0.2530788E-009  0.4778727E+02  0.7816164E-02  0.1312668E+00
        -11   -1    0    0    0    0  0.00000000000E+00  0.00000000000E+00  0.45593999997E+02  0.45594000000E+02  0.51100000000E-03 0. -1.
         11   -1    0    0    0    0 -0.00000000000E+00 -0.00000000000E+00 -0.45593999997E+02  0.45594000000E+02  0.51100000000E-03 0.  1.
    9900012    2    1    2    0    0  0.14323860043E+02  0.40876883593E+02  0.27442101323E+01  0.47787271111E+02  0.20000000303E+02 0.  0.
        -12    1    1    2    0    0 -0.14323860043E+02 -0.40876883593E+02 -0.27442101323E+01  0.43400728889E+02  0.00000000000E+00 0.  1.
         11    1    3    3    0    0 -0.40401615077E+00  0.35079489049E+01  0.23364065205E+00  0.35388589665E+01  0.51100000000E-03 0. -1.
        -11    1    3    3    0    0  0.12624501764E+02  0.39013577728E+02  0.39846895537E+01  0.41198483504E+02  0.51100000000E-03 0.  1.
        -12    1    3    3    0    0  0.21033744306E+01 -0.16446430395E+01 -0.14741200735E+01  0.30499286407E+01  0.00000000000E+00 0.  1.
</event>
<event>
 7    1  0.2530788E-009  0.4778729E+02  0.7816164E-02  0.1312668E+00
        -11   -1    0    0    0    0  0.00000000000E+00  0.00000000000E+00  0.45593999997E+02  0.45594000000E+02  0.51100000000E-03 0. -1.
         11   -1    0    0    0    0 -0.00000000000E+00 -0.00000000000E+00 -0.45593999997E+02  0.45594000000E+02  0.51100000000E-03 0.  1.
    9900012    2    1    2    0    0 -0.32240395401E+02  0.13306031718E+02 -0.25828828310E+02  0.47787286324E+02  0.20000069665E+02 0.  0.
        -12    1    1    2    0    0  0.32240395401E+02 -0.13306031718E+02  0.25828828310E+02  0.43400713676E+02  0.00000000000E+00 0.  1.
         11    1    3    3    0    0 -0.28358832775E+02  0.47612336473E+01 -0.21409644657E+02  0.35850601485E+02  0.51100000000E-03 0. -1.
        -11    1    3    3    0    0 -0.23372098840E+01  0.16245234276E+01 -0.38986226317E+01  0.48270990351E+01  0.51100000000E-03 0.  1.
         12    1    3    3    0    0 -0.15443527419E+01  0.69202746431E+01 -0.52056102187E+00  0.71095858040E+01  0.00000000000E+00 0. -1.
</event>
<event>
 7    1  0.2530788E-009  0.4778727E+02  0.7816164E-02  0.1312668E+00
        -11   -1    0    0    0    0  0.00000000000E+00  0.00000000000E+00  0.45593999997E+02  0.45594000000E+02  0.51100000000E-03 0.  1.
         11   -1    0    0    0    0 -0.00000000000E+00 -0.00000000000E+00 -0.45593999997E+02  0.45594000000E+02  0.51100000000E-03 0. -1.
    9900012    2    1    2    0    0 -0.26232915743E+02 -0.34560279743E+02  0.10221539488E+01  0.47787267253E+02  0.19999982713E+02 0.  0.
        -12    1    1    2    0    0  0.26232915743E+02  0.34560279743E+02 -0.10221539488E+01  0.43400732747E+02  0.00000000000E+00 0.  1.
         11    1    3    3    0    0 -0.27505427001E+01 -0.74412831163E+01  0.62009901507E+01  0.10069282927E+02  0.51100000000E-03 0.  1.
        -11    1    3    3    0    0 -0.19924948624E+02 -0.24616250517E+02 -0.99866834010E+00  0.31685338974E+02  0.51100000000E-03 0. -1.
         12    1    3    3    0    0 -0.35574244189E+01 -0.25027461096E+01 -0.41801678618E+01  0.60326453516E+01  0.00000000000E+00 0. -1.
</event>
<event>
 7    1  0.2530788E-009  0.4778727E+02  0.7816164E-02  0.1312668E+00
        -11   -1    0    0    0    0  0.00000000000E+00  0.00000000000E+00  0.45593999997E+02  0.45594000000E+02  0.51100000000E-03 0. -1.
         11   -1    0    0    0    0 -0.00000000000E+00 -0.00000000000E+00 -0.45593999997E+02  0.45594000000E+02  0.51100000000E-03 0.  1.
    9900012    2    1    2    0    0  0.36753821445E+02  0.16256389350E+02  0.16386257942E+02  0.47787273798E+02  0.20000012556E+02 0.  0.
        -12    1    1    2    0    0 -0.36753821445E+02 -0.16256389350E+02 -0.16386257942E+02  0.43400726202E+02  0.00000000000E+00 0.  1.
         11    1    3    3    0    0  0.20202296794E+02  0.17896633131E+02  0.98234512460E+01  0.28721463539E+02  0.51100000000E-03 0. -1.
        -11    1    3    3    0    0  0.25215471558E+01  0.21991162748E+01  0.14661353468E+01  0.36529256172E+01  0.51100000000E-03 0.  1.
         12    1    3    3    0    0  0.14029977495E+02 -0.38393600559E+01  0.50966713491E+01  0.15412884642E+02  0.00000000000E+00 0. -1.
</event>
<event>
 7    1  0.2530788E-009  0.4778728E+02  0.7816164E-02  0.1312668E+00
        -11   -1    0    0    0    0  0.00000000000E+00  0.00000000000E+00  0.45593999997E+02  0.45594000000E+02  0.51100000000E-03 0.  1.
         11   -1    0    0    0    0 -0.00000000000E+00 -0.00000000000E+00 -0.45593999997E+02  0.45594000000E+02  0.51100000000E-03 0. -1.
    9900012    2    1    2    0    0  0.22594987413E+02 -0.30447952567E+02 -0.21118984929E+02  0.47787276548E+02  0.20000025093E+02 0.  0.
        -12    1    1    2    0    0 -0.22594987413E+02  0.30447952567E+02  0.21118984929E+02  0.43400723452E+02  0.00000000000E+00 0.  1.
         11    1    3    3    0    0  0.49005519088E+01 -0.19287454856E+02 -0.10701109854E+02  0.22595023262E+02  0.51100000000E-03 0. -1.
        -11    1    3    3    0    0  0.17751377430E+02 -0.94759505300E+01 -0.11512193078E+02  0.23182657933E+02  0.51100000000E-03 0.  1.
         12    1    3    3    0    0 -0.56941926052E-01 -0.16845471809E+01  0.10943180035E+01  0.20095953524E+01  0.00000000000E+00 0. -1.
</event>
<event>
 7    1  0.2530788E-009  0.4778731E+02  0.7816164E-02  0.1312668E+00
        -11   -1    0    0    0    0  0.00000000000E+00  0.00000000000E+00  0.45593999997E+02  0.45594000000E+02  0.51100000000E-03 0.  1.
         11   -1    0    0    0    0 -0.00000000000E+00 -0.00000000000E+00 -0.45593999997E+02  0.45594000000E+02  0.51100000000E-03 0. -1.
    9900012    2    1    2    0    0 -0.26546528136E+02  0.16384973599E+02 -0.30173400008E+02  0.47787313554E+02  0.20000193818E+02 0.  0.
        -12    1    1    2    0    0  0.26546528136E+02 -0.16384973599E+02  0.30173400008E+02  0.43400686446E+02  0.00000000000E+00 0.  1.
         11    1    3    3    0    0 -0.53298693154E+01  0.39114945550E+01 -0.16475712854E+02  0.17752645180E+02  0.51100000000E-03 0. -1.
        -11    1    3    3    0    0 -0.10387031448E+02  0.11650738271E+02 -0.59980896146E+01  0.16721459381E+02  0.51100000000E-03 0.  1.
         12    1    3    3    0    0 -0.10829627373E+02  0.82274077288E+00 -0.76995975393E+01  0.13313208993E+02  0.00000000000E+00 0. -1.
</event>
<event>
 7    1  0.2530788E-009  0.4778727E+02  0.7816164E-02  0.1312668E+00
        -11   -1    0    0    0    0  0.00000000000E+00  0.00000000000E+00  0.45593999997E+02  0.45594000000E+02  0.51100000000E-03 0.  1.
         11   -1    0    0    0    0 -0.00000000000E+00 -0.00000000000E+00 -0.45593999997E+02  0.45594000000E+02  0.51100000000E-03 0. -1.
    9900012    2    1    2    0    0  0.16079178786E+02  0.21840221783E+02 -0.33883446325E+02  0.47787271748E+02  0.20000003206E+02 0.  0.
        -12    1    1    2    0    0 -0.16079178786E+02 -0.21840221783E+02  0.33883446325E+02  0.43400728252E+02  0.00000000000E+00 0.  1.
         11    1    3    3    0    0  0.66214915769E+01 -0.27335126921E+00 -0.13079954930E+02  0.14663017863E+02  0.51100000000E-03 0. -1.
        -11    1    3    3    0    0  0.50908100073E+01  0.13494028199E+02 -0.63970180833E+01  0.15777420074E+02  0.51100000000E-03 0.  1.
         12    1    3    3    0    0  0.43668772015E+01  0.86195448534E+01 -0.14406473312E+02  0.17346833810E+02  0.00000000000E+00 0. -1.
</event>
<event>
 7    1  0.2530788E-009  0.4778727E+02  0.7816164E-02  0.1312668E+00
        -11   -1    0    0    0    0  0.00000000000E+00  0.00000000000E+00  0.45593999997E+02  0.45594000000E+02  0.51100000000E-03 0.  1.
         11   -1    0    0    0    0 -0.00000000000E+00 -0.00000000000E+00 -0.45593999997E+02  0.45594000000E+02  0.51100000000E-03 0. -1.
    9900012    2    1    2    0    0  0.37462664510E+02  0.21901572995E+02 -0.70239401000E+00  0.47787268564E+02  0.19999988690E+02 0.  0.
        -12    1    1    2    0    0 -0.37462664510E+02 -0.21901572995E+02  0.70239401000E+00  0.43400731436E+02  0.00000000000E+00 0.  1.
         11    1    3    3    0    0  0.12815247017E+02  0.12434536028E+02  0.65523246529E+01  0.19020546810E+02  0.51100000000E-03 0. -1.
        -11    1    3    3    0    0  0.12550591731E+02  0.12505256449E+00 -0.34208778148E+01  0.13009050550E+02  0.51100000000E-03 0.  1.
         12    1    3    3    0    0  0.12096825763E+02  0.93419844029E+01 -0.38338408481E+01  0.15757671204E+02  0.00000000000E+00 0. -1.
</event>
<event>
 7    1  0.2875937E-009  0.4778728E+02  0.7816164E-02  0.1312668E+00
        -11   -1    0    0    0    0  0.00000000000E+00  0.00000000000E+00  0.45593999997E+02  0.45594000000E+02  0.51100000000E-03 0. -1.
         11   -1    0    0    0    0 -0.00000000000E+00 -0.00000000000E+00 -0.45593999997E+02  0.45594000000E+02  0.51100000000E-03 0.  1.
    9900012    2    1    2    0    0 -0.14664010282E+02 -0.44427976291E+01  0.40606048439E+02  0.47787276294E+02  0.20000023936E+02 0.  0.
        -12    1    1    2    0    0  0.14664010282E+02  0.44427976291E+01 -0.40606048439E+02  0.43400723706E+02  0.00000000000E+00 0.  1.
         11    1    3    3    0    0 -0.89312663862E+01 -0.24087348419E+01  0.22462599055E+02  0.24292753639E+02  0.51100000000E-03 0. -1.
        -11    1    3    3    0    0  0.30675987238E+00 -0.33239689548E+01 -0.91436257123E+00  0.34610591449E+01  0.51100000000E-03 0.  1.
        -12    1    3    3    0    0 -0.60395037687E+01  0.12899061675E+01  0.19057811955E+02  0.20033463510E+02  0.00000000000E+00 0.  1.
</event>
<event>
 7    1  0.2530788E-009  0.4778727E+02  0.7816164E-02  0.1312668E+00
        -11   -1    0    0    0    0  0.00000000000E+00  0.00000000000E+00  0.45593999997E+02  0.45594000000E+02  0.51100000000E-03 0.  1.
         11   -1    0    0    0    0 -0.00000000000E+00 -0.00000000000E+00 -0.45593999997E+02  0.45594000000E+02  0.51100000000E-03 0. -1.
    9900012    2    1    2    0    0  0.40975121946E+02  0.90556292742E+01 -0.11075118272E+02  0.47787270919E+02  0.19999999427E+02 0.  0.
        -12    1    1    2    0    0 -0.40975121946E+02 -0.90556292742E+01  0.11075118272E+02  0.43400729081E+02  0.00000000000E+00 0.  1.
         11    1    3    3    0    0  0.14353296157E+02  0.38435908204E+00 -0.10515723034E+02  0.17797338949E+02  0.51100000000E-03 0. -1.
        -11    1    3    3    0    0  0.24575908931E+02  0.85555578766E+01  0.26764344955E+01  0.26159819805E+02  0.51100000000E-03 0.  1.
        -12    1    3    3    0    0  0.20459168579E+01  0.11571231553E+00 -0.32358297339E+01  0.38301121650E+01  0.00000000000E+00 0.  1.
</event>
<event>
 7    1  0.2530788E-009  0.4778723E+02  0.7816164E-02  0.1312668E+00
        -11   -1    0    0    0    0  0.00000000000E+00  0.00000000000E+00  0.45593999997E+02  0.45594000000E+02  0.51100000000E-03 0.  1.
         11   -1    0    0    0    0 -0.00000000000E+00 -0.00000000000E+00 -0.45593999997E+02  0.45594000000E+02  0.51100000000E-03 0. -1.
    9900012    2    1    2    0    0 -0.19118516169E+02 -0.21273238473E+02 -0.32642897125E+02  0.47787227330E+02  0.19999800687E+02 0.  0.
        -12    1    1    2    0    0  0.19118516169E+02  0.21273238473E+02  0.32642897125E+02  0.43400772670E+02  0.00000000000E+00 0.  1.
         11    1    3    3    0    0 -0.10870081365E+02 -0.28290664743E+01 -0.51993601194E+01  0.12377222302E+02  0.51100000000E-03 0. -1.
        -11    1    3    3    0    0 -0.10021957083E+02 -0.16585808485E+02 -0.26110339501E+02  0.32515819165E+02  0.51100000000E-03 0.  1.
        -12    1    3    3    0    0  0.17735222790E+01 -0.18583635132E+01 -0.13331975049E+01  0.28941858628E+01  0.00000000000E+00 0.  1.
</event>
<event>
 7    1  0.2530788E-009  0.4778727E+02  0.7816164E-02  0.1312668E+00
        -11   -1    0    0    0    0  0.00000000000E+00  0.00000000000E+00  0.45593999997E+02  0.45594000000E+02  0.51100000000E-03 0. -1.
         11   -1    0    0    0    0 -0.00000000000E+00 -0.00000000000E+00 -0.45593999997E+02  0.45594000000E+02  0.51100000000E-03 0.  1.
    9900012    2    1    2    0    0  0.92443954489E+01  0.33143194607E+02 -0.26451711709E+02  0.47787271339E+02  0.20000001343E+02 0.  0.
        -12    1    1    2    0    0 -0.92443954489E+01 -0.33143194607E+02  0.26451711709E+02  0.43400728661E+02  0.00000000000E+00 0.  1.
         11    1    3    3    0    0  0.95484142974E+01  0.16211995410E+02 -0.23752388252E+02  0.30301434928E+02  0.51100000000E-03 0. -1.
        -11    1    3    3    0    0  0.25046673287E+00  0.16542919476E+02 -0.28598028899E+01  0.16790157569E+02  0.51100000000E-03 0.  1.
        -12    1    3    3    0    0 -0.55448558137E+00  0.38827972144E+00  0.16047943329E+00  0.69567884152E+00  0.00000000000E+00 0.  1.
</event>
<event>
 7    1  0.2530788E-009  0.4778728E+02  0.7816164E-02  0.1312668E+00
        -11   -1    0    0    0    0  0.00000000000E+00  0.00000000000E+00  0.45593999997E+02  0.45594000000E+02  0.51100000000E-03 0. -1.
         11   -1    0    0    0    0 -0.00000000000E+00 -0.00000000000E+00 -0.45593999997E+02  0.45594000000E+02  0.51100000000E-03 0.  1.
    9900012    2    1    2    0    0 -0.26188006732E+02 -0.13061967689E+02  0.32049892582E+02  0.47787282137E+02  0.20000050577E+02 0.  0.
        -12    1    1    2    0    0  0.26188006732E+02  0.13061967689E+02 -0.32049892582E+02  0.43400717863E+02  0.00000000000E+00 0.  1.
         11    1    3    3    0    0 -0.16876888169E+02 -0.57574175233E+01  0.25322819323E+02  0.30971315592E+02  0.51100000000E-03 0. -1.
        -11    1    3    3    0    0 -0.16599315058E+01  0.21242776789E+01 -0.41648475192E+00  0.27278907732E+01  0.51100000000E-03 0.  1.
         12    1    3    3    0    0 -0.76511870576E+01 -0.94288278442E+01  0.71435580110E+01  0.14088075772E+02  0.00000000000E+00 0. -1.
</event>
<event>
 7    1  0.2530788E-009  0.4778727E+02  0.7816164E-02  0.1312668E+00
        -11   -1    0    0    0    0  0.00000000000E+00  0.00000000000E+00  0.45593999997E+02  0.45594000000E+02  0.51100000000E-03 0. -1.
         11   -1    0    0    0    0 -0.00000000000E+00 -0.00000000000E+00 -0.45593999997E+02  0.45594000000E+02  0.51100000000E-03 0.  1.
    9900012    2    1    2    0    0  0.38425502602E+02  0.19133502104E+02  0.64041374298E+01  0.47787272711E+02  0.20000007598E+02 0.  0.
        -12    1    1    2    0    0 -0.38425502602E+02 -0.19133502104E+02 -0.64041374298E+01  0.43400727289E+02  0.00000000000E+00 0.  1.
         11    1    3    3    0    0  0.18284243434E+02  0.14016388062E+02 -0.23956414666E+01  0.23162724160E+02  0.51100000000E-03 0. -1.
        -11    1    3    3    0    0  0.18824309180E+02  0.74141403693E+01  0.85527414501E+01  0.21965278967E+02  0.51100000000E-03 0.  1.
         12    1    3    3    0    0  0.13169499883E+01 -0.22970263268E+01  0.24703744627E+00  0.26592695834E+01  0.00000000000E+00 0. -1.
</event>
<event>
 7    1  0.2530788E-009  0.4778727E+02  0.7816164E-02  0.1312668E+00
        -11   -1    0    0    0    0  0.00000000000E+00  0.00000000000E+00  0.45593999997E+02  0.45594000000E+02  0.51100000000E-03 0.  1.
         11   -1    0    0    0    0 -0.00000000000E+00 -0.00000000000E+00 -0.45593999997E+02  0.45594000000E+02  0.51100000000E-03 0. -1.
    9900012    2    1    2    0    0  0.26068268134E+02  0.32686086131E+02 -0.11648531438E+02  0.47787272878E+02  0.20000008359E+02 0.  0.
        -12    1    1    2    0    0 -0.26068268134E+02 -0.32686086131E+02  0.11648531438E+02  0.43400727122E+02  0.00000000000E+00 0.  1.
         11    1    3    3    0    0  0.17878084110E+02  0.20038904760E+02 -0.14561582129E+02  0.30548703242E+02  0.51100000000E-03 0. -1.
        -11    1    3    3    0    0  0.16771980310E+01  0.76128013597E+01  0.42814269514E+01  0.88937255848E+01  0.51100000000E-03 0.  1.
        -12    1    3    3    0    0  0.65129859931E+01  0.50343800112E+01 -0.13683762613E+01  0.83448440510E+01  0.00000000000E+00 0.  1.
</event>
<event>
 7    1  0.2530788E-009  0.4778727E+02  0.7816164E-02  0.1312668E+00
        -11   -1    0    0    0    0  0.00000000000E+00  0.00000000000E+00  0.45593999997E+02  0.45594000000E+02  0.51100000000E-03 0.  1.
         11   -1    0    0    0    0 -0.00000000000E+00 -0.00000000000E+00 -0.45593999997E+02  0.45594000000E+02  0.51100000000E-03 0. -1.
    9900012    2    1    2    0    0  0.31654424502E+02  0.29572525060E+02  0.26620272143E+01  0.47787271690E+02  0.20000002941E+02 0.  0.
        -12    1    1    2    0    0 -0.31654424502E+02 -0.29572525060E+02 -0.26620272143E+01  0.43400728310E+02  0.00000000000E+00 0.  1.
         11    1    3    3    0    0  0.14941555186E+02  0.24109162196E+02 -0.16258020124E+01  0.28410297528E+02  0.51100000000E-03 0. -1.
        -11    1    3    3    0    0  0.11518200940E+02  0.97823137824E+00  0.57485430561E+00  0.11573951238E+02  0.51100000000E-03 0.  1.
         12    1    3    3    0    0  0.51946683766E+01  0.44851314849E+01  0.37129749211E+01  0.78030229235E+01  0.00000000000E+00 0. -1.
</event>
<event>
 7    1  0.2530788E-009  0.4778727E+02  0.7816164E-02  0.1312668E+00
        -11   -1    0    0    0    0  0.00000000000E+00  0.00000000000E+00  0.45593999997E+02  0.45594000000E+02  0.51100000000E-03 0. -1.
         11   -1    0    0    0    0 -0.00000000000E+00 -0.00000000000E+00 -0.45593999997E+02  0.45594000000E+02  0.51100000000E-03 0.  1.
    9900012    2    1    2    0    0 -0.34509333478E+02 -0.26267745882E+02 -0.16536773114E+01  0.47787271671E+02  0.20000002855E+02 0.  0.
        -12    1    1    2    0    0  0.34509333478E+02  0.26267745882E+02  0.16536773114E+01  0.43400728329E+02  0.00000000000E+00 0.  1.
         11    1    3    3    0    0 -0.31171468752E+02 -0.24951362234E+02 -0.55061837029E-01  0.39927859616E+02  0.51100000000E-03 0. -1.
        -11    1    3    3    0    0 -0.24298494126E+01 -0.40847949748E+01 -0.66022073553E+00  0.47985007903E+01  0.51100000000E-03 0.  1.
         12    1    3    3    0    0 -0.90801531426E+00  0.27684113262E+01 -0.93839473883E+00  0.30609112643E+01  0.00000000000E+00 0. -1.
</event>
<event>
 7    1  0.2530788E-009  0.4778727E+02  0.7816164E-02  0.1312668E+00
        -11   -1    0    0    0    0  0.00000000000E+00  0.00000000000E+00  0.45593999997E+02  0.45594000000E+02  0.51100000000E-03 0.  1.
         11   -1    0    0    0    0 -0.00000000000E+00 -0.00000000000E+00 -0.45593999997E+02  0.45594000000E+02  0.51100000000E-03 0. -1.
    9900012    2    1    2    0    0  0.33336622595E+02  0.10500371996E+02 -0.25730039635E+02  0.47787272382E+02  0.20000006100E+02 0.  0.
        -12    1    1    2    0    0 -0.33336622595E+02 -0.10500371996E+02  0.25730039635E+02  0.43400727618E+02  0.00000000000E+00 0.  1.
         11    1    3    3    0    0  0.46457753180E+01  0.14310595072E+01 -0.12237231944E+02  0.13167422129E+02  0.51100000000E-03 0. -1.
        -11    1    3    3    0    0  0.52287812943E+01  0.35289939985E+01 -0.74590460432E+01  0.97688955671E+01  0.51100000000E-03 0.  1.
         12    1    3    3    0    0  0.23462065983E+02  0.55403184906E+01 -0.60337616479E+01  0.24850954686E+02  0.00000000000E+00 0. -1.
</event>
<event>
 7    1  0.2530788E-009  0.4778727E+02  0.7816164E-02  0.1312668E+00
        -11   -1    0    0    0    0  0.00000000000E+00  0.00000000000E+00  0.45593999997E+02  0.45594000000E+02  0.51100000000E-03 0. -1.
         11   -1    0    0    0    0 -0.00000000000E+00 -0.00000000000E+00 -0.45593999997E+02  0.45594000000E+02  0.51100000000E-03 0.  1.
    9900012    2    1    2    0    0  0.11262982631E+02  0.37110172390E+02  0.19483429530E+02  0.47787266149E+02  0.19999977680E+02 0.  0.
        -12    1    1    2    0    0 -0.11262982631E+02 -0.37110172390E+02 -0.19483429530E+02  0.43400733851E+02  0.00000000000E+00 0.  1.
         11    1    3    3    0    0  0.11309962146E+02  0.15686654372E+02  0.64087725470E+01  0.20372990330E+02  0.51100000000E-03 0. -1.
        -11    1    3    3    0    0 -0.27471587762E+01  0.30820187628E+01 -0.86602387847E+00  0.42184971986E+01  0.51100000000E-03 0.  1.
         12    1    3    3    0    0  0.27001792611E+01  0.18341499254E+02  0.13940680862E+02  0.23195778621E+02  0.00000000000E+00 0. -1.
</event>
<event>
 7    1  0.2530788E-009  0.4778727E+02  0.7816164E-02  0.1312668E+00
        -11   -1    0    0    0    0  0.00000000000E+00  0.00000000000E+00  0.45593999997E+02  0.45594000000E+02  0.51100000000E-03 0.  1.
         11   -1    0    0    0    0 -0.00000000000E+00 -0.00000000000E+00 -0.45593999997E+02  0.45594000000E+02  0.51100000000E-03 0. -1.
    9900012    2    1    2    0    0  0.16655311805E+02  0.32522440335E+02 -0.23420389845E+02  0.47787271929E+02  0.20000004031E+02 0.  0.
        -12    1    1    2    0    0 -0.16655311805E+02 -0.32522440335E+02  0.23420389845E+02  0.43400728071E+02  0.00000000000E+00 0.  1.
         11    1    3    3    0    0  0.64668773904E+01  0.90961329980E+01 -0.38883629223E+01  0.11818608428E+02  0.51100000000E-03 0.  1.
        -11    1    3    3    0    0  0.70091448522E+01  0.25474682793E+02 -0.17074339060E+02  0.31458236275E+02  0.51100000000E-03 0. -1.
        -12    1    3    3    0    0  0.31792895621E+01 -0.20483754556E+01 -0.24576878620E+01  0.45104272252E+01  0.00000000000E+00 0.  1.
</event>
<event>
 7    1  0.2530788E-009  0.4778727E+02  0.7816164E-02  0.1312668E+00
        -11   -1    0    0    0    0  0.00000000000E+00  0.00000000000E+00  0.45593999997E+02  0.45594000000E+02  0.51100000000E-03 0. -1.
         11   -1    0    0    0    0 -0.00000000000E+00 -0.00000000000E+00 -0.45593999997E+02  0.45594000000E+02  0.51100000000E-03 0.  1.
    9900012    2    1    2    0    0  0.39327620830E+02 -0.63552669315E+01  0.17221270810E+02  0.47787270211E+02  0.19999996199E+02 0.  0.
        -12    1    1    2    0    0 -0.39327620830E+02  0.63552669315E+01 -0.17221270810E+02  0.43400729789E+02  0.00000000000E+00 0.  1.
         11    1    3    3    0    0  0.95555984910E+01 -0.82985234121E+01  0.11227454317E+02  0.16918353467E+02  0.51100000000E-03 0. -1.
        -11    1    3    3    0    0  0.20804592306E+02  0.14124672166E+01  0.65818391819E+01  0.21866566533E+02  0.51100000000E-03 0.  1.
        -12    1    3    3    0    0  0.89674300325E+01  0.53078926404E+00 -0.58802268827E+00  0.90023502105E+01  0.00000000000E+00 0.  1.
</event>
<event>
 7    1  0.2530788E-009  0.4778726E+02  0.7816164E-02  0.1312668E+00
        -11   -1    0    0    0    0  0.00000000000E+00  0.00000000000E+00  0.45593999997E+02  0.45594000000E+02  0.51100000000E-03 0.  1.
         11   -1    0    0    0    0 -0.00000000000E+00 -0.00000000000E+00 -0.45593999997E+02  0.45594000000E+02  0.51100000000E-03 0. -1.
    9900012    2    1    2    0    0  0.12303483860E+02 -0.58541993283E+01 -0.41206512698E+02  0.47787262062E+02  0.19999959045E+02 0.  0.
        -12    1    1    2    0    0 -0.12303483860E+02  0.58541993283E+01  0.41206512698E+02  0.43400737938E+02  0.00000000000E+00 0.  1.
         11    1    3    3    0    0 -0.47282695525E+01 -0.49472225444E+01 -0.14171330233E+02  0.15737158089E+02  0.51100000000E-03 0. -1.
        -11    1    3    3    0    0  0.15318429175E+02 -0.37260533281E+00 -0.23037309323E+02  0.27667864541E+02  0.51100000000E-03 0.  1.
        -12    1    3    3    0    0  0.17133242377E+01 -0.53437145104E+00 -0.39978731411E+01  0.43822394325E+01  0.00000000000E+00 0.  1.
</event>
<event>
 7    1  0.2530788E-009  0.4778729E+02  0.7816164E-02  0.1312668E+00
        -11   -1    0    0    0    0  0.00000000000E+00  0.00000000000E+00  0.45593999997E+02  0.45594000000E+02  0.51100000000E-03 0.  1.
         11   -1    0    0    0    0 -0.00000000000E+00 -0.00000000000E+00 -0.45593999997E+02  0.45594000000E+02  0.51100000000E-03 0. -1.
    9900012    2    1    2    0    0  0.36094996827E+02  0.24067900747E+02  0.12284094084E+01  0.47787289960E+02  0.20000086241E+02 0.  0.
        -12    1    1    2    0    0 -0.36094996827E+02 -0.24067900747E+02 -0.12284094084E+01  0.43400710040E+02  0.00000000000E+00 0.  1.
         11    1    3    3    0    0  0.30929213726E+01  0.10080648456E+02  0.31043830883E+01  0.10991943892E+02  0.51100000000E-03 0. -1.
        -11    1    3    3    0    0  0.18888324048E+02  0.37921956771E+01 -0.21302108955E+01  0.19382655446E+02  0.51100000000E-03 0.  1.
        -12    1    3    3    0    0  0.14113751407E+02  0.10195056614E+02  0.25423721549E+00  0.17412690622E+02  0.00000000000E+00 0.  1.
</event>
<event>
 7    1  0.2530788E-009  0.4778726E+02  0.7816164E-02  0.1312668E+00
        -11   -1    0    0    0    0  0.00000000000E+00  0.00000000000E+00  0.45593999997E+02  0.45594000000E+02  0.51100000000E-03 0.  1.
         11   -1    0    0    0    0 -0.00000000000E+00 -0.00000000000E+00 -0.45593999997E+02  0.45594000000E+02  0.51100000000E-03 0. -1.
    9900012    2    1    2    0    0 -0.28406903119E+02  0.27560549986E+02 -0.17806960010E+02  0.47787264003E+02  0.19999967893E+02 0.  0.
        -12    1    1    2    0    0  0.28406903119E+02 -0.27560549986E+02  0.17806960010E+02  0.43400735997E+02  0.00000000000E+00 0.  1.
         11    1    3    3    0    0 -0.88482663277E+01  0.14538614729E+02 -0.37951569843E+01  0.17437498446E+02  0.51100000000E-03 0. -1.
        -11    1    3    3    0    0  0.52266148357E-01  0.48571590903E+00 -0.55690510213E+01  0.55904365870E+01  0.51100000000E-03 0.  1.
        -12    1    3    3    0    0 -0.19610902939E+02  0.12536219348E+02 -0.84427520043E+01  0.24759328970E+02  0.00000000000E+00 0.  1.
</event>
<event>
 7    1  0.2530788E-009  0.4778727E+02  0.7816164E-02  0.1312668E+00
        -11   -1    0    0    0    0  0.00000000000E+00  0.00000000000E+00  0.45593999997E+02  0.45594000000E+02  0.51100000000E-03 0.  1.
         11   -1    0    0    0    0 -0.00000000000E+00 -0.00000000000E+00 -0.45593999997E+02  0.45594000000E+02  0.51100000000E-03 0. -1.
    9900012    2    1    2    0    0 -0.13970812023E+02  0.31021855511E+02 -0.26945943253E+02  0.47787274594E+02  0.20000016185E+02 0.  0.
        -12    1    1    2    0    0  0.13970812023E+02 -0.31021855511E+02  0.26945943253E+02  0.43400725406E+02  0.00000000000E+00 0.  1.
         11    1    3    3    0    0 -0.10201202246E+02  0.16519801480E+02 -0.70810123738E+01  0.20666618124E+02  0.51100000000E-03 0. -1.
        -11    1    3    3    0    0  0.26659202961E+01  0.87081441848E+01 -0.13854729448E+02  0.16579880413E+02  0.51100000000E-03 0.  1.
        -12    1    3    3    0    0 -0.64355300737E+01  0.57939098467E+01 -0.60102014310E+01  0.10540776057E+02  0.00000000000E+00 0.  1.
</event>
<event>
 7    1  0.2530788E-009  0.4778727E+02  0.7816164E-02  0.1312668E+00
        -11   -1    0    0    0    0  0.00000000000E+00  0.00000000000E+00  0.45593999997E+02  0.45594000000E+02  0.51100000000E-03 0.  1.
         11   -1    0    0    0    0 -0.00000000000E+00 -0.00000000000E+00 -0.45593999997E+02  0.45594000000E+02  0.51100000000E-03 0. -1.
    9900012    2    1    2    0    0  0.19483414356E+02  0.27487914679E+02 -0.27357527053E+02  0.47787272186E+02  0.20000005204E+02 0.  0.
        -12    1    1    2    0    0 -0.19483414356E+02 -0.27487914679E+02  0.27357527053E+02  0.43400727814E+02  0.00000000000E+00 0.  1.
         11    1    3    3    0    0  0.20066998925E+02  0.12570363861E+02 -0.19150069272E+02  0.30453631094E+02  0.51100000000E-03 0.  1.
        -11    1    3    3    0    0  0.16917171843E+00  0.13972537708E+02 -0.80185325991E+01  0.16110781929E+02  0.51100000000E-03 0. -1.
        -12    1    3    3    0    0 -0.75275628757E+00  0.94501311021E+00 -0.18892518203E+00  0.12228591625E+01  0.00000000000E+00 0.  1.
</event>
<event>
 7    1  0.2530788E-009  0.4778727E+02  0.7816164E-02  0.1312668E+00
        -11   -1    0    0    0    0  0.00000000000E+00  0.00000000000E+00  0.45593999997E+02  0.45594000000E+02  0.51100000000E-03 0. -1.
         11   -1    0    0    0    0 -0.00000000000E+00 -0.00000000000E+00 -0.45593999997E+02  0.45594000000E+02  0.51100000000E-03 0.  1.
    9900012    2    1    2    0    0  0.33623454015E+02  0.24100340698E+02  0.13124790959E+02  0.47787271672E+02  0.20000002863E+02 0.  0.
        -12    1    1    2    0    0 -0.33623454015E+02 -0.24100340698E+02 -0.13124790959E+02  0.43400728328E+02  0.00000000000E+00 0.  1.
         11    1    3    3    0    0  0.87021391390E+01  0.12358592924E+02  0.11304445183E+02  0.18874652999E+02  0.51100000000E-03 0. -1.
        -11    1    3    3    0    0  0.23007389905E+02  0.10675622663E+02  0.41655284308E+01  0.25703317623E+02  0.51100000000E-03 0.  1.
        -12    1    3    3    0    0  0.19139249711E+01  0.10661251107E+01 -0.23451826548E+01  0.32093010502E+01  0.00000000000E+00 0.  1.
</event>
<event>
 7    1  0.2530788E-009  0.4778726E+02  0.7816164E-02  0.1312668E+00
        -11   -1    0    0    0    0  0.00000000000E+00  0.00000000000E+00  0.45593999997E+02  0.45594000000E+02  0.51100000000E-03 0.  1.
         11   -1    0    0    0    0 -0.00000000000E+00 -0.00000000000E+00 -0.45593999997E+02  0.45594000000E+02  0.51100000000E-03 0. -1.
    9900012    2    1    2    0    0 -0.18143948444E+02 -0.86855638235E+01 -0.38457533976E+02  0.47787264941E+02  0.19999972174E+02 0.  0.
        -12    1    1    2    0    0  0.18143948444E+02  0.86855638235E+01  0.38457533976E+02  0.43400735059E+02  0.00000000000E+00 0.  1.
         11    1    3    3    0    0 -0.11046464859E+02 -0.52488822628E+01 -0.23483826728E+02  0.26477637148E+02  0.51100000000E-03 0. -1.
        -11    1    3    3    0    0  0.98852588112E+00  0.91736410595E+00  0.17624995674E+01  0.22192668399E+01  0.51100000000E-03 0.  1.
        -12    1    3    3    0    0 -0.80860094660E+01 -0.43540456666E+01 -0.16736206816E+02  0.19090360954E+02  0.00000000000E+00 0.  1.
</event>
<event>
 7    1  0.2530788E-009  0.4778727E+02  0.7816164E-02  0.1312668E+00
        -11   -1    0    0    0    0  0.00000000000E+00  0.00000000000E+00  0.45593999997E+02  0.45594000000E+02  0.51100000000E-03 0. -1.
         11   -1    0    0    0    0 -0.00000000000E+00 -0.00000000000E+00 -0.45593999997E+02  0.45594000000E+02  0.51100000000E-03 0.  1.
    9900012    2    1    2    0    0  0.57751152882E+01  0.40323896803E+02  0.14975132705E+02  0.47787271786E+02  0.20000003379E+02 0.  0.
        -12    1    1    2    0    0 -0.57751152882E+01 -0.40323896803E+02 -0.14975132705E+02  0.43400728214E+02  0.00000000000E+00 0.  1.
         11    1    3    3    0    0  0.57457095050E+01  0.30054059433E+02  0.18179538251E+02  0.35591505691E+02  0.51100000000E-03 0. -1.
        -11    1    3    3    0    0  0.95132963645E+00  0.33677008991E+01 -0.38496225780E+01  0.52025024438E+01  0.51100000000E-03 0.  1.
        -12    1    3    3    0    0 -0.92192385332E+00  0.69021364718E+01  0.64521703230E+00  0.69932636505E+01  0.00000000000E+00 0.  1.
</event>
<event>
 7    1  0.2530788E-009  0.4778727E+02  0.7816164E-02  0.1312668E+00
        -11   -1    0    0    0    0  0.00000000000E+00  0.00000000000E+00  0.45593999997E+02  0.45594000000E+02  0.51100000000E-03 0.  1.
         11   -1    0    0    0    0 -0.00000000000E+00 -0.00000000000E+00 -0.45593999997E+02  0.45594000000E+02  0.51100000000E-03 0. -1.
    9900012    2    1    2    0    0  0.29355589786E+02  0.31942637836E+02 -0.12412810722E+01  0.47787267952E+02  0.19999985901E+02 0.  0.
        -12    1    1    2    0    0 -0.29355589786E+02 -0.31942637836E+02  0.12412810722E+01  0.43400732048E+02  0.00000000000E+00 0.  1.
         11    1    3    3    0    0  0.20965220308E+02  0.28178222304E+02  0.43581633932E+01  0.35391330339E+02  0.51100000000E-03 0. -1.
        -11    1    3    3    0    0  0.25149935317E+01 -0.12179350992E+01 -0.33669108246E+01  0.43754596481E+01  0.51100000000E-03 0.  1.
         12    1    3    3    0    0  0.58753759466E+01  0.49823506309E+01 -0.22325336408E+01  0.80204779646E+01  0.00000000000E+00 0. -1.
</event>
<event>
 7    1  0.2530788E-009  0.4778727E+02  0.7816164E-02  0.1312668E+00
        -11   -1    0    0    0    0  0.00000000000E+00  0.00000000000E+00  0.45593999997E+02  0.45594000000E+02  0.51100000000E-03 0.  1.
         11   -1    0    0    0    0 -0.00000000000E+00 -0.00000000000E+00 -0.45593999997E+02  0.45594000000E+02  0.51100000000E-03 0. -1.
    9900012    2    1    2    0    0  0.25152281331E+02  0.20582796760E+02 -0.28763420432E+02  0.47787272661E+02  0.20000007371E+02 0.  0.
        -12    1    1    2    0    0 -0.25152281331E+02 -0.20582796760E+02  0.28763420432E+02  0.43400727339E+02  0.00000000000E+00 0.  1.
         11    1    3    3    0    0  0.80326609167E+01  0.83424026838E+00 -0.67756459199E+01  0.10541772912E+02  0.51100000000E-03 0. -1.
        -11    1    3    3    0    0  0.12953496853E+02  0.21787275059E+02 -0.19515228156E+02  0.31989413334E+02  0.51100000000E-03 0.  1.
        -12    1    3    3    0    0  0.41661235609E+01 -0.20387185677E+01 -0.24725463566E+01  0.52560864156E+01  0.00000000000E+00 0.  1.
</event>
<event>
 7    1  0.2530788E-009  0.4778727E+02  0.7816164E-02  0.1312668E+00
        -11   -1    0    0    0    0  0.00000000000E+00  0.00000000000E+00  0.45593999997E+02  0.45594000000E+02  0.51100000000E-03 0.  1.
         11   -1    0    0    0    0 -0.00000000000E+00 -0.00000000000E+00 -0.45593999997E+02  0.45594000000E+02  0.51100000000E-03 0. -1.
    9900012    2    1    2    0    0  0.22897743101E+02 -0.80750351037E+01 -0.35973746604E+02  0.47787271022E+02  0.19999999898E+02 0.  0.
        -12    1    1    2    0    0 -0.22897743101E+02  0.80750351037E+01  0.35973746604E+02  0.43400728978E+02  0.00000000000E+00 0.  1.
         11    1    3    3    0    0  0.67044848323E+01 -0.27212996262E+01 -0.61342495317E+01  0.94860216161E+01  0.51100000000E-03 0. -1.
        -11    1    3    3    0    0  0.11119723164E+02 -0.11172952407E+02 -0.23572384043E+02  0.28357369386E+02  0.51100000000E-03 0.  1.
        -12    1    3    3    0    0  0.50735351047E+01  0.58192169296E+01 -0.62671130296E+01  0.99438800203E+01  0.00000000000E+00 0.  1.
</event>
<event>
 7    1  0.2530788E-009  0.4778727E+02  0.7816164E-02  0.1312668E+00
        -11   -1    0    0    0    0  0.00000000000E+00  0.00000000000E+00  0.45593999997E+02  0.45594000000E+02  0.51100000000E-03 0.  1.
         11   -1    0    0    0    0 -0.00000000000E+00 -0.00000000000E+00 -0.45593999997E+02  0.45594000000E+02  0.51100000000E-03 0. -1.
    9900012    2    1    2    0    0 -0.28002967572E+02  0.18442872206E+02 -0.27555718248E+02  0.47787270327E+02  0.19999996727E+02 0.  0.
        -12    1    1    2    0    0  0.28002967572E+02 -0.18442872206E+02  0.27555718248E+02  0.43400729673E+02  0.00000000000E+00 0.  1.
         11    1    3    3    0    0 -0.75733591272E+01  0.10852239187E+02 -0.43173803412E+01  0.13920008517E+02  0.51100000000E-03 0. -1.
        -11    1    3    3    0    0 -0.15162889472E+02  0.20732720201E-01 -0.12047597212E+02  0.19366420573E+02  0.51100000000E-03 0.  1.
        -12    1    3    3    0    0 -0.52667189729E+01  0.75699002984E+01 -0.11190740695E+02  0.14500841236E+02  0.00000000000E+00 0.  1.
</event>
<event>
 7    1  0.2530788E-009  0.4778727E+02  0.7816164E-02  0.1312668E+00
        -11   -1    0    0    0    0  0.00000000000E+00  0.00000000000E+00  0.45593999997E+02  0.45594000000E+02  0.51100000000E-03 0.  1.
         11   -1    0    0    0    0 -0.00000000000E+00 -0.00000000000E+00 -0.45593999997E+02  0.45594000000E+02  0.51100000000E-03 0. -1.
    9900012    2    1    2    0    0  0.17734310223E+02 -0.22656229905E+02 -0.32493272456E+02  0.47787271118E+02  0.20000000335E+02 0.  0.
        -12    1    1    2    0    0 -0.17734310223E+02  0.22656229905E+02  0.32493272456E+02  0.43400728882E+02  0.00000000000E+00 0.  1.
         11    1    3    3    0    0  0.74903010348E+01 -0.12732865668E+02 -0.22626816994E+02  0.27022274613E+02  0.51100000000E-03 0. -1.
        -11    1    3    3    0    0  0.24798342296E+01  0.10242941062E+01  0.15901116123E+01  0.31188477717E+01  0.51100000000E-03 0.  1.
         12    1    3    3    0    0  0.77641749583E+01 -0.10947658343E+02 -0.11456567074E+02  0.17646148733E+02  0.00000000000E+00 0. -1.
</event>
<event>
 7    1  0.2530788E-009  0.4778727E+02  0.7816164E-02  0.1312668E+00
        -11   -1    0    0    0    0  0.00000000000E+00  0.00000000000E+00  0.45593999997E+02  0.45594000000E+02  0.51100000000E-03 0.  1.
         11   -1    0    0    0    0 -0.00000000000E+00 -0.00000000000E+00 -0.45593999997E+02  0.45594000000E+02  0.51100000000E-03 0. -1.
    9900012    2    1    2    0    0 -0.28448975103E+02 -0.15580915980E+02 -0.28835985322E+02  0.47787272164E+02  0.20000005105E+02 0.  0.
        -12    1    1    2    0    0  0.28448975103E+02  0.15580915980E+02  0.28835985322E+02  0.43400727836E+02  0.00000000000E+00 0.  1.
         11    1    3    3    0    0 -0.19968602111E+02 -0.13876579848E+01 -0.20557813011E+02  0.28693106158E+02  0.51100000000E-03 0. -1.
        -11    1    3    3    0    0 -0.31239393320E+01 -0.62168302291E+01 -0.97500356576E+00  0.70255681096E+01  0.51100000000E-03 0.  1.
         12    1    3    3    0    0 -0.53564336601E+01 -0.79764277663E+01 -0.73031687452E+01  0.12068597897E+02  0.00000000000E+00 0. -1.
</event>
<event>
 7    1  0.2530788E-009  0.4778727E+02  0.7816164E-02  0.1312668E+00
        -11   -1    0    0    0    0  0.00000000000E+00  0.00000000000E+00  0.45593999997E+02  0.45594000000E+02  0.51100000000E-03 0. -1.
         11   -1    0    0    0    0 -0.00000000000E+00 -0.00000000000E+00 -0.45593999997E+02  0.45594000000E+02  0.51100000000E-03 0.  1.
    9900012    2    1    2    0    0 -0.13959918136E+02 -0.37011787253E+02  0.17856972905E+02  0.47787271995E+02  0.20000004335E+02 0.  0.
        -12    1    1    2    0    0  0.13959918136E+02  0.37011787253E+02 -0.17856972905E+02  0.43400728005E+02  0.00000000000E+00 0.  1.
         11    1    3    3    0    0  0.21484459162E+01 -0.87428698063E+00  0.43841623329E+01  0.49599472983E+01  0.51100000000E-03 0. -1.
        -11    1    3    3    0    0 -0.52547833361E+01 -0.37404900111E+01  0.28076930777E+01  0.70347106630E+01  0.51100000000E-03 0.  1.
         12    1    3    3    0    0 -0.10853580716E+02 -0.32397010261E+02  0.10665117494E+02  0.35792614034E+02  0.00000000000E+00 0. -1.
</event>
<event>
 7    1  0.2530788E-009  0.4778727E+02  0.7816164E-02  0.1312668E+00
        -11   -1    0    0    0    0  0.00000000000E+00  0.00000000000E+00  0.45593999997E+02  0.45594000000E+02  0.51100000000E-03 0. -1.
         11   -1    0    0    0    0 -0.00000000000E+00 -0.00000000000E+00 -0.45593999997E+02  0.45594000000E+02  0.51100000000E-03 0.  1.
    9900012    2    1    2    0    0 -0.23918623489E+02 -0.36070445785E+02  0.32319356092E+01  0.47787274009E+02  0.20000013517E+02 0.  0.
        -12    1    1    2    0    0  0.23918623489E+02  0.36070445785E+02 -0.32319356092E+01  0.43400725991E+02  0.00000000000E+00 0.  1.
         11    1    3    3    0    0 -0.12469288775E+02 -0.71720710420E+01 -0.56141934253E+01  0.15441532750E+02  0.51100000000E-03 0. -1.
        -11    1    3    3    0    0 -0.63149715867E+01 -0.15871763582E+02  0.55520228883E+01  0.17961534003E+02  0.51100000000E-03 0.  1.
         12    1    3    3    0    0 -0.51343631266E+01 -0.13026611162E+02  0.32941061462E+01  0.14384207256E+02  0.00000000000E+00 0. -1.
</event>
<event>
 7    1  0.2530788E-009  0.4778727E+02  0.7816164E-02  0.1312668E+00
        -11   -1    0    0    0    0  0.00000000000E+00  0.00000000000E+00  0.45593999997E+02  0.45594000000E+02  0.51100000000E-03 0.  1.
         11   -1    0    0    0    0 -0.00000000000E+00 -0.00000000000E+00 -0.45593999997E+02  0.45594000000E+02  0.51100000000E-03 0. -1.
    9900012    2    1    2    0    0 -0.36394611629E+02 -0.23345565372E+02  0.37470373376E+01  0.47787268820E+02  0.19999989858E+02 0.  0.
        -12    1    1    2    0    0  0.36394611629E+02  0.23345565372E+02 -0.37470373376E+01  0.43400731180E+02  0.00000000000E+00 0.  1.
         11    1    3    3    0    0 -0.34562456504E+02 -0.22244882222E+02  0.18635716195E+01  0.41144514630E+02  0.51100000000E-03 0. -1.
        -11    1    3    3    0    0 -0.69167829843E+00  0.24703948663E+01  0.12000156812E+01  0.28321913001E+01  0.51100000000E-03 0.  1.
        -12    1    3    3    0    0 -0.11404768264E+01 -0.35710780159E+01  0.68345003688E+00  0.38105628902E+01  0.00000000000E+00 0.  1.
</event>
<event>
 7    1  0.2530788E-009  0.4778727E+02  0.7816164E-02  0.1312668E+00
        -11   -1    0    0    0    0  0.00000000000E+00  0.00000000000E+00  0.45593999997E+02  0.45594000000E+02  0.51100000000E-03 0.  1.
         11   -1    0    0    0    0 -0.00000000000E+00 -0.00000000000E+00 -0.45593999997E+02  0.45594000000E+02  0.51100000000E-03 0. -1.
    9900012    2    1    2    0    0 -0.20077091041E+02 -0.38023973114E+02 -0.58915894676E+01  0.47787274862E+02  0.20000017407E+02 0.  0.
        -12    1    1    2    0    0  0.20077091041E+02  0.38023973114E+02  0.58915894676E+01  0.43400725138E+02  0.00000000000E+00 0.  1.
         11    1    3    3    0    0 -0.18950140307E+02 -0.27173419142E+02 -0.39773330741E+01  0.33366475753E+02  0.51100000000E-03 0. -1.
        -11    1    3    3    0    0  0.28817633629E+01 -0.12010006298E+01 -0.24341209036E+01  0.39587760011E+01  0.51100000000E-03 0.  1.
         12    1    3    3    0    0 -0.40087140969E+01 -0.96495533416E+01  0.51986451006E+00  0.10462023108E+02  0.00000000000E+00 0. -1.
</event>
<event>
 7    1  0.2530788E-009  0.4778727E+02  0.7816164E-02  0.1312668E+00
        -11   -1    0    0    0    0  0.00000000000E+00  0.00000000000E+00  0.45593999997E+02  0.45594000000E+02  0.51100000000E-03 0.  1.
         11   -1    0    0    0    0 -0.00000000000E+00 -0.00000000000E+00 -0.45593999997E+02  0.45594000000E+02  0.51100000000E-03 0. -1.
    9900012    2    1    2    0    0 -0.39808951751E+02  0.79876258389E+01 -0.15331941885E+02  0.47787271343E+02  0.20000001360E+02 0.  0.
        -12    1    1    2    0    0  0.39808951751E+02 -0.79876258389E+01  0.15331941885E+02  0.43400728657E+02  0.00000000000E+00 0.  1.
         11    1    3    3    0    0 -0.40678613812E+01  0.24022835112E+01 -0.40384954427E+01  0.62151353957E+01  0.51100000000E-03 0. -1.
        -11    1    3    3    0    0 -0.15604606814E+02 -0.33578319159E+01  0.16032260134E+01  0.16042104691E+02  0.51100000000E-03 0.  1.
        -12    1    3    3    0    0 -0.20136483555E+02  0.89431742437E+01 -0.12896672455E+02  0.25530031256E+02  0.00000000000E+00 0.  1.
</event>
<event>
 7    1  0.2530788E-009  0.4778727E+02  0.7816164E-02  0.1312668E+00
        -11   -1    0    0    0    0  0.00000000000E+00  0.00000000000E+00  0.45593999997E+02  0.45594000000E+02  0.51100000000E-03 0.  1.
         11   -1    0    0    0    0 -0.00000000000E+00 -0.00000000000E+00 -0.45593999997E+02  0.45594000000E+02  0.51100000000E-03 0. -1.
    9900012    2    1    2    0    0  0.12056220999E+02 -0.30066281326E+02 -0.28884074326E+02  0.47787268587E+02  0.19999988794E+02 0.  0.
        -12    1    1    2    0    0 -0.12056220999E+02  0.30066281326E+02  0.28884074326E+02  0.43400731413E+02  0.00000000000E+00 0.  1.
         11    1    3    3    0    0  0.53064375113E+01 -0.38303826195E+01 -0.25252988537E+00  0.65493420797E+01  0.51100000000E-03 0.  1.
        -11    1    3    3    0    0  0.60025102758E+01 -0.25222617807E+02 -0.20616980365E+02  0.33125072955E+02  0.51100000000E-03 0. -1.
         12    1    3    3    0    0  0.74727321229E+00 -0.10132808992E+01 -0.80145640754E+01  0.81128535518E+01  0.00000000000E+00 0. -1.
</event>
<event>
 7    1  0.2530788E-009  0.4778727E+02  0.7816164E-02  0.1312668E+00
        -11   -1    0    0    0    0  0.00000000000E+00  0.00000000000E+00  0.45593999997E+02  0.45594000000E+02  0.51100000000E-03 0. -1.
         11   -1    0    0    0    0 -0.00000000000E+00 -0.00000000000E+00 -0.45593999997E+02  0.45594000000E+02  0.51100000000E-03 0.  1.
    9900012    2    1    2    0    0 -0.20999468486E+02  0.26713026850E+02  0.27001106827E+02  0.47787271319E+02  0.20000001250E+02 0.  0.
        -12    1    1    2    0    0  0.20999468486E+02 -0.26713026850E+02 -0.27001106827E+02  0.43400728681E+02  0.00000000000E+00 0.  1.
         11    1    3    3    0    0  0.67224442327E-01 -0.60694829133E+00 -0.19251715531E+01  0.20197007511E+01  0.51100000000E-03 0.  1.
        -11    1    3    3    0    0 -0.17908307821E+02  0.23594567232E+02  0.20482828159E+02  0.36013293956E+02  0.51100000000E-03 0. -1.
        -12    1    3    3    0    0 -0.31583851073E+01  0.37254079090E+01  0.84434502216E+01  0.97542766118E+01  0.00000000000E+00 0.  1.
</event>
<event>
 7    1  0.2530788E-009  0.4778727E+02  0.7816164E-02  0.1312668E+00
        -11   -1    0    0    0    0  0.00000000000E+00  0.00000000000E+00  0.45593999997E+02  0.45594000000E+02  0.51100000000E-03 0.  1.
         11   -1    0    0    0    0 -0.00000000000E+00 -0.00000000000E+00 -0.45593999997E+02  0.45594000000E+02  0.51100000000E-03 0. -1.
    9900012    2    1    2    0    0  0.38079451819E+02  0.19362436415E+02 -0.76599416454E+01  0.47787270735E+02  0.19999998588E+02 0.  0.
        -12    1    1    2    0    0 -0.38079451819E+02 -0.19362436415E+02  0.76599416454E+01  0.43400729265E+02  0.00000000000E+00 0.  1.
         11    1    3    3    0    0  0.21574555261E+02  0.11658922538E+02 -0.11097411693E+02  0.26917363467E+02  0.51100000000E-03 0. -1.
        -11    1    3    3    0    0  0.60462951299E+01 -0.19323184390E+01  0.14477405239E+01  0.65105677351E+01  0.51100000000E-03 0.  1.
         12    1    3    3    0    0  0.10458601428E+02  0.96358323158E+01  0.19897295233E+01  0.14359339533E+02  0.00000000000E+00 0. -1.
</event>
<event>
 7    1  0.2530788E-009  0.4778726E+02  0.7816164E-02  0.1312668E+00
        -11   -1    0    0    0    0  0.00000000000E+00  0.00000000000E+00  0.45593999997E+02  0.45594000000E+02  0.51100000000E-03 0.  1.
         11   -1    0    0    0    0 -0.00000000000E+00 -0.00000000000E+00 -0.45593999997E+02  0.45594000000E+02  0.51100000000E-03 0. -1.
    9900012    2    1    2    0    0  0.14748463533E+02 -0.38267521227E+02 -0.14202236407E+02  0.47787264103E+02  0.19999968351E+02 0.  0.
        -12    1    1    2    0    0 -0.14748463533E+02  0.38267521227E+02  0.14202236407E+02  0.43400735897E+02  0.00000000000E+00 0.  1.
         11    1    3    3    0    0  0.16271998616E+01 -0.28962285538E+01 -0.31965909001E+01  0.46102183104E+01  0.51100000000E-03 0. -1.
        -11    1    3    3    0    0  0.13629126751E+02 -0.32470163356E+02 -0.14948160834E+02  0.38255876894E+02  0.51100000000E-03 0.  1.
        -12    1    3    3    0    0 -0.50786307946E+00 -0.29011293172E+01  0.39425153273E+01  0.49211688986E+01  0.00000000000E+00 0.  1.
</event>
<event>
 7    1  0.2530788E-009  0.4778727E+02  0.7816164E-02  0.1312668E+00
        -11   -1    0    0    0    0  0.00000000000E+00  0.00000000000E+00  0.45593999997E+02  0.45594000000E+02  0.51100000000E-03 0. -1.
         11   -1    0    0    0    0 -0.00000000000E+00 -0.00000000000E+00 -0.45593999997E+02  0.45594000000E+02  0.51100000000E-03 0.  1.
    9900012    2    1    2    0    0 -0.27302434480E+01 -0.34251164870E+02 -0.26514653451E+02  0.47787269915E+02  0.19999994852E+02 0.  0.
        -12    1    1    2    0    0  0.27302434480E+01  0.34251164870E+02  0.26514653451E+02  0.43400730085E+02  0.00000000000E+00 0.  1.
         11    1    3    3    0    0 -0.29948643442E+00 -0.15568436830E+02 -0.92710859065E+01  0.18122332952E+02  0.51100000000E-03 0. -1.
        -11    1    3    3    0    0 -0.29280864248E+01 -0.54537331536E+01  0.18231935277E+01  0.64529784071E+01  0.51100000000E-03 0.  1.
        -12    1    3    3    0    0  0.49732941129E+00 -0.13228994886E+02 -0.19066761072E+02  0.23211958557E+02  0.00000000000E+00 0.  1.
</event>
<event>
 7    1  0.2530788E-009  0.4778727E+02  0.7816164E-02  0.1312668E+00
        -11   -1    0    0    0    0  0.00000000000E+00  0.00000000000E+00  0.45593999997E+02  0.45594000000E+02  0.51100000000E-03 0. -1.
         11   -1    0    0    0    0 -0.00000000000E+00 -0.00000000000E+00 -0.45593999997E+02  0.45594000000E+02  0.51100000000E-03 0.  1.
    9900012    2    1    2    0    0 -0.28772026323E+02  0.32492214989E+02  0.22283949162E+00  0.47787271998E+02  0.20000004347E+02 0.  0.
        -12    1    1    2    0    0  0.28772026323E+02 -0.32492214989E+02 -0.22283949162E+00  0.43400728002E+02  0.00000000000E+00 0.  1.
         11    1    3    3    0    0 -0.25477212519E+02  0.26526807954E+02  0.32875197343E+01  0.36926517359E+02  0.51100000000E-03 0. -1.
        -11    1    3    3    0    0  0.14182429242E+01  0.50461039315E+01 -0.15051162244E+00  0.52437803052E+01  0.51100000000E-03 0.  1.
         12    1    3    3    0    0 -0.47130567282E+01  0.91930310380E+00 -0.29141686203E+01  0.56169743339E+01  0.00000000000E+00 0. -1.
</event>
<event>
 7    1  0.2530788E-009  0.4778727E+02  0.7816164E-02  0.1312668E+00
        -11   -1    0    0    0    0  0.00000000000E+00  0.00000000000E+00  0.45593999997E+02  0.45594000000E+02  0.51100000000E-03 0. -1.
         11   -1    0    0    0    0 -0.00000000000E+00 -0.00000000000E+00 -0.45593999997E+02  0.45594000000E+02  0.51100000000E-03 0.  1.
    9900012    2    1    2    0    0  0.35183760759E+02 -0.10249325339E+02  0.23252476771E+02  0.47787269971E+02  0.19999995106E+02 0.  0.
        -12    1    1    2    0    0 -0.35183760759E+02  0.10249325339E+02 -0.23252476771E+02  0.43400730029E+02  0.00000000000E+00 0.  1.
         11    1    3    3    0    0 -0.20497314603E+01  0.42943311077E+00  0.12853343174E+01  0.24572131419E+01  0.51100000000E-03 0.  1.
        -11    1    3    3    0    0  0.33263052093E+02 -0.10701930126E+02  0.22122374463E+02  0.41356515751E+02  0.51100000000E-03 0. -1.
        -12    1    3    3    0    0  0.39704401262E+01  0.23171676081E-01 -0.15523200862E+00  0.39735410780E+01  0.00000000000E+00 0.  1.
</event>
<event>
 7    1  0.2530788E-009  0.4778727E+02  0.7816164E-02  0.1312668E+00
        -11   -1    0    0    0    0  0.00000000000E+00  0.00000000000E+00  0.45593999997E+02  0.45594000000E+02  0.51100000000E-03 0.  1.
         11   -1    0    0    0    0 -0.00000000000E+00 -0.00000000000E+00 -0.45593999997E+02  0.45594000000E+02  0.51100000000E-03 0. -1.
    9900012    2    1    2    0    0  0.13053283315E+02 -0.34704333231E+02 -0.22557572549E+02  0.47787273858E+02  0.20000012830E+02 0.  0.
        -12    1    1    2    0    0 -0.13053283315E+02  0.34704333231E+02  0.22557572549E+02  0.43400726142E+02  0.00000000000E+00 0.  1.
         11    1    3    3    0    0  0.13337922126E+02 -0.18458255981E+02 -0.10453619860E+02  0.25057644521E+02  0.51100000000E-03 0. -1.
        -11    1    3    3    0    0 -0.48053061062E+01 -0.64078485798E+01 -0.28974972753E+01  0.85174515506E+01  0.51100000000E-03 0.  1.
        -12    1    3    3    0    0  0.45206672950E+01 -0.98382286699E+01 -0.92064554135E+01  0.14212177787E+02  0.00000000000E+00 0.  1.
</event>
<event>
 7    1  0.2530788E-009  0.4778728E+02  0.7816164E-02  0.1312668E+00
        -11   -1    0    0    0    0  0.00000000000E+00  0.00000000000E+00  0.45593999997E+02  0.45594000000E+02  0.51100000000E-03 0.  1.
         11   -1    0    0    0    0 -0.00000000000E+00 -0.00000000000E+00 -0.45593999997E+02  0.45594000000E+02  0.51100000000E-03 0. -1.
    9900012    2    1    2    0    0  0.21776726893E+02  0.30783941279E+02 -0.21488264373E+02  0.47787281335E+02  0.20000046919E+02 0.  0.
        -12    1    1    2    0    0 -0.21776726893E+02 -0.30783941279E+02  0.21488264373E+02  0.43400718665E+02  0.00000000000E+00 0.  1.
         11    1    3    3    0    0  0.67894852842E+01  0.16048419540E+02 -0.22675281150E+01  0.17572437627E+02  0.51100000000E-03 0. -1.
        -11    1    3    3    0    0  0.15618232970E+02  0.10197656950E+02 -0.16381512310E+02  0.24824893841E+02  0.51100000000E-03 0.  1.
        -12    1    3    3    0    0 -0.63099136102E+00  0.45378647892E+01 -0.28392239473E+01  0.53899498668E+01  0.00000000000E+00 0.  1.
</event>
<event>
 7    1  0.2530788E-009  0.4778727E+02  0.7816164E-02  0.1312668E+00
        -11   -1    0    0    0    0  0.00000000000E+00  0.00000000000E+00  0.45593999997E+02  0.45594000000E+02  0.51100000000E-03 0. -1.
         11   -1    0    0    0    0 -0.00000000000E+00 -0.00000000000E+00 -0.45593999997E+02  0.45594000000E+02  0.51100000000E-03 0.  1.
    9900012    2    1    2    0    0  0.40404225424E+02  0.11170288551E+02 -0.11240400387E+02  0.47787269830E+02  0.19999994462E+02 0.  0.
        -12    1    1    2    0    0 -0.40404225424E+02 -0.11170288551E+02  0.11240400387E+02  0.43400730170E+02  0.00000000000E+00 0.  1.
         11    1    3    3    0    0  0.24537416442E+02  0.57744144647E+01 -0.77567746282E+01  0.26374158204E+02  0.51100000000E-03 0. -1.
        -11    1    3    3    0    0  0.88201211890E+00  0.49171348035E+01  0.20940379176E+01  0.54167476510E+01  0.51100000000E-03 0.  1.
         12    1    3    3    0    0  0.14984796863E+02  0.47873928266E+00 -0.55776636762E+01  0.15996363975E+02  0.00000000000E+00 0. -1.
</event>
<event>
 7    1  0.2530788E-009  0.4778726E+02  0.7816164E-02  0.1312668E+00
        -11   -1    0    0    0    0  0.00000000000E+00  0.00000000000E+00  0.45593999997E+02  0.45594000000E+02  0.51100000000E-03 0. -1.
         11   -1    0    0    0    0 -0.00000000000E+00 -0.00000000000E+00 -0.45593999997E+02  0.45594000000E+02  0.51100000000E-03 0.  1.
    9900012    2    1    2    0    0  0.13168982138E+02  0.19634877327E+02  0.36396067629E+02  0.47787259948E+02  0.19999949407E+02 0.  0.
        -12    1    1    2    0    0 -0.13168982138E+02 -0.19634877327E+02 -0.36396067629E+02  0.43400740052E+02  0.00000000000E+00 0.  1.
         11    1    3    3    0    0  0.12113463031E+02  0.74487023672E+01  0.24199164466E+02  0.28068108498E+02  0.51100000000E-03 0. -1.
        -11    1    3    3    0    0 -0.24691940920E+01  0.20926019039E+01 -0.32622443052E+00  0.32530485444E+01  0.51100000000E-03 0.  1.
         12    1    3    3    0    0  0.35247131995E+01  0.10093573056E+02  0.12523127594E+02  0.16466102906E+02  0.00000000000E+00 0. -1.
</event>
<event>
 7    1  0.2530788E-009  0.4778727E+02  0.7816164E-02  0.1312668E+00
        -11   -1    0    0    0    0  0.00000000000E+00  0.00000000000E+00  0.45593999997E+02  0.45594000000E+02  0.51100000000E-03 0.  1.
         11   -1    0    0    0    0 -0.00000000000E+00 -0.00000000000E+00 -0.45593999997E+02  0.45594000000E+02  0.51100000000E-03 0. -1.
    9900012    2    1    2    0    0  0.22364110089E+02  0.36862996261E+02 -0.49587647171E+01  0.47787271194E+02  0.20000000682E+02 0.  0.
        -12    1    1    2    0    0 -0.22364110089E+02 -0.36862996261E+02  0.49587647171E+01  0.43400728806E+02  0.00000000000E+00 0.  1.
         11    1    3    3    0    0  0.78601043870E+01  0.64531484806E+01  0.55352174803E+01  0.11578557730E+02  0.51100000000E-03 0.  1.
        -11    1    3    3    0    0  0.32805339026E+01  0.16188655705E+02 -0.56263455427E+01  0.17449648725E+02  0.51100000000E-03 0. -1.
         12    1    3    3    0    0  0.11223471799E+02  0.14221192075E+02 -0.48676366547E+01  0.18759064739E+02  0.00000000000E+00 0. -1.
</event>
<event>
 7    1  0.2530788E-009  0.4778727E+02  0.7816164E-02  0.1312668E+00
        -11   -1    0    0    0    0  0.00000000000E+00  0.00000000000E+00  0.45593999997E+02  0.45594000000E+02  0.51100000000E-03 0.  1.
         11   -1    0    0    0    0 -0.00000000000E+00 -0.00000000000E+00 -0.45593999997E+02  0.45594000000E+02  0.51100000000E-03 0. -1.
    9900012    2    1    2    0    0 -0.13833969183E+02  0.33816506630E+02 -0.23424101459E+02  0.47787270131E+02  0.19999995834E+02 0.  0.
        -12    1    1    2    0    0  0.13833969183E+02 -0.33816506630E+02  0.23424101459E+02  0.43400729869E+02  0.00000000000E+00 0.  1.
         11    1    3    3    0    0 -0.51766739251E+00  0.43230699279E+00 -0.53619328335E+01  0.54041829019E+01  0.51100000000E-03 0. -1.
        -11    1    3    3    0    0  0.24773849447E+01  0.34955141742E+01 -0.57461270120E+00  0.43227578608E+01  0.51100000000E-03 0.  1.
         12    1    3    3    0    0 -0.15793686735E+02  0.29888685463E+02 -0.17487555925E+02  0.38060329368E+02  0.00000000000E+00 0. -1.
</event>
<event>
 7    1  0.2530788E-009  0.4778727E+02  0.7816164E-02  0.1312668E+00
        -11   -1    0    0    0    0  0.00000000000E+00  0.00000000000E+00  0.45593999997E+02  0.45594000000E+02  0.51100000000E-03 0.  1.
         11   -1    0    0    0    0 -0.00000000000E+00 -0.00000000000E+00 -0.45593999997E+02  0.45594000000E+02  0.51100000000E-03 0. -1.
    9900012    2    1    2    0    0 -0.21663579361E+02 -0.14245183341E+02 -0.34804989756E+02  0.47787271538E+02  0.20000002248E+02 0.  0.
        -12    1    1    2    0    0  0.21663579361E+02  0.14245183341E+02  0.34804989756E+02  0.43400728462E+02  0.00000000000E+00 0.  1.
         11    1    3    3    0    0 -0.14190927076E+02 -0.11802840156E+02 -0.24284034601E+02  0.30502520942E+02  0.51100000000E-03 0. -1.
        -11    1    3    3    0    0  0.16460593731E+01 -0.32897683975E+01 -0.50492007781E+00  0.37130892953E+01  0.51100000000E-03 0.  1.
         12    1    3    3    0    0 -0.91187116584E+01  0.84742521208E+00 -0.10016035077E+02  0.13571661301E+02  0.00000000000E+00 0. -1.
</event>
<event>
 7    1  0.2530788E-009  0.4778727E+02  0.7816164E-02  0.1312668E+00
        -11   -1    0    0    0    0  0.00000000000E+00  0.00000000000E+00  0.45593999997E+02  0.45594000000E+02  0.51100000000E-03 0.  1.
         11   -1    0    0    0    0 -0.00000000000E+00 -0.00000000000E+00 -0.45593999997E+02  0.45594000000E+02  0.51100000000E-03 0. -1.
    9900012    2    1    2    0    0  0.88532528407E+01  0.40328008425E+02 -0.13375165868E+02  0.47787269461E+02  0.19999992778E+02 0.  0.
        -12    1    1    2    0    0 -0.88532528407E+01 -0.40328008425E+02  0.13375165868E+02  0.43400730539E+02  0.00000000000E+00 0.  1.
         11    1    3    3    0    0 -0.15091182914E+00  0.97051410365E+01 -0.77759574251E+01  0.12436963096E+02  0.51100000000E-03 0. -1.
        -11    1    3    3    0    0  0.20895289029E+01 -0.28514436915E+00  0.18597885830E+01  0.28118058578E+01  0.51100000000E-03 0.  1.
        -12    1    3    3    0    0  0.69146357669E+01  0.30908011757E+02 -0.74589970263E+01  0.32538500507E+02  0.00000000000E+00 0.  1.
</event>
<event>
 7    1  0.2530788E-009  0.4778728E+02  0.7816164E-02  0.1312668E+00
        -11   -1    0    0    0    0  0.00000000000E+00  0.00000000000E+00  0.45593999997E+02  0.45594000000E+02  0.51100000000E-03 0. -1.
         11   -1    0    0    0    0 -0.00000000000E+00 -0.00000000000E+00 -0.45593999997E+02  0.45594000000E+02  0.51100000000E-03 0.  1.
    9900012    2    1    2    0    0  0.15664540911E+02 -0.84266890044E+00  0.40466465730E+02  0.47787276717E+02  0.20000025864E+02 0.  0.
        -12    1    1    2    0    0 -0.15664540911E+02  0.84266890044E+00 -0.40466465730E+02  0.43400723283E+02  0.00000000000E+00 0.  1.
         11    1    3    3    0    0  0.41091565024E+01 -0.60934850093E+01  0.15645804074E+02  0.17286032284E+02  0.51100000000E-03 0. -1.
        -11    1    3    3    0    0  0.60338259486E+01  0.72318130243E+01  0.69856537362E+01  0.11726275350E+02  0.51100000000E-03 0.  1.
        -12    1    3    3    0    0  0.55215584596E+01 -0.19809969155E+01  0.17835007920E+02  0.18774969084E+02  0.00000000000E+00 0.  1.
</event>
<event>
 7    1  0.2530788E-009  0.4778728E+02  0.7816164E-02  0.1312668E+00
        -11   -1    0    0    0    0  0.00000000000E+00  0.00000000000E+00  0.45593999997E+02  0.45594000000E+02  0.51100000000E-03 0.  1.
         11   -1    0    0    0    0 -0.00000000000E+00 -0.00000000000E+00 -0.45593999997E+02  0.45594000000E+02  0.51100000000E-03 0. -1.
    9900012    2    1    2    0    0  0.37334826128E+02  0.19698040499E+02 -0.10085634827E+02  0.47787284897E+02  0.20000063161E+02 0.  0.
        -12    1    1    2    0    0 -0.37334826128E+02 -0.19698040499E+02  0.10085634827E+02  0.43400715103E+02  0.00000000000E+00 0.  1.
         11    1    3    3    0    0  0.20100630986E+02  0.89845106979E+01  0.38681093600E+01  0.22354397080E+02  0.51100000000E-03 0. -1.
        -11    1    3    3    0    0  0.10037487872E+02  0.60615490816E+01 -0.11716798441E+02  0.16576396050E+02  0.51100000000E-03 0.  1.
         12    1    3    3    0    0  0.71967072707E+01  0.46519807198E+01 -0.22369457457E+01  0.88564917674E+01  0.00000000000E+00 0. -1.
</event>
<event>
 7    1  0.2530788E-009  0.4778727E+02  0.7816164E-02  0.1312668E+00
        -11   -1    0    0    0    0  0.00000000000E+00  0.00000000000E+00  0.45593999997E+02  0.45594000000E+02  0.51100000000E-03 0.  1.
         11   -1    0    0    0    0 -0.00000000000E+00 -0.00000000000E+00 -0.45593999997E+02  0.45594000000E+02  0.51100000000E-03 0. -1.
    9900012    2    1    2    0    0  0.79082802181E+01 -0.86319514874E+01 -0.41792004047E+02  0.47787273223E+02  0.20000009933E+02 0.  0.
        -12    1    1    2    0    0 -0.79082802181E+01  0.86319514874E+01  0.41792004047E+02  0.43400726777E+02  0.00000000000E+00 0.  1.
         11    1    3    3    0    0 -0.13912428088E+01 -0.65684795127E+01 -0.10113843448E+02  0.12139617342E+02  0.51100000000E-03 0. -1.
        -11    1    3    3    0    0  0.10120033517E+02 -0.22881929353E+01 -0.11646014839E+02  0.15597453869E+02  0.51100000000E-03 0.  1.
        -12    1    3    3    0    0 -0.82051049018E+00  0.22472096070E+00 -0.20032145760E+02  0.20050202012E+02  0.00000000000E+00 0.  1.
</event>
<event>
 7    1  0.2530788E-009  0.4778727E+02  0.7816164E-02  0.1312668E+00
        -11   -1    0    0    0    0  0.00000000000E+00  0.00000000000E+00  0.45593999997E+02  0.45594000000E+02  0.51100000000E-03 0. -1.
         11   -1    0    0    0    0 -0.00000000000E+00 -0.00000000000E+00 -0.45593999997E+02  0.45594000000E+02  0.51100000000E-03 0.  1.
    9900012    2    1    2    0    0 -0.13380901172E+02 -0.21309006340E+02  0.35362426137E+02  0.47787269019E+02  0.19999990767E+02 0.  0.
        -12    1    1    2    0    0  0.13380901172E+02  0.21309006340E+02 -0.35362426137E+02  0.43400730981E+02  0.00000000000E+00 0.  1.
         11    1    3    3    0    0  0.20135843056E+01 -0.82665968716E+01  0.18894117188E+02  0.20721457723E+02  0.51100000000E-03 0. -1.
        -11    1    3    3    0    0 -0.96738254770E+01 -0.12116542419E+02  0.10368365167E+02  0.18651983703E+02  0.51100000000E-03 0.  1.
        -12    1    3    3    0    0 -0.57206600011E+01 -0.92586704954E+00  0.60999437817E+01  0.84138275940E+01  0.00000000000E+00 0.  1.
</event>
<event>
 7    1  0.2530788E-009  0.4778727E+02  0.7816164E-02  0.1312668E+00
        -11   -1    0    0    0    0  0.00000000000E+00  0.00000000000E+00  0.45593999997E+02  0.45594000000E+02  0.51100000000E-03 0.  1.
         11   -1    0    0    0    0 -0.00000000000E+00 -0.00000000000E+00 -0.45593999997E+02  0.45594000000E+02  0.51100000000E-03 0. -1.
    9900012    2    1    2    0    0  0.69091847683E+01  0.39950176263E+02  0.15487726169E+02  0.47787273283E+02  0.20000010208E+02 0.  0.
        -12    1    1    2    0    0 -0.69091847683E+01 -0.39950176263E+02 -0.15487726169E+02  0.43400726717E+02  0.00000000000E+00 0.  1.
         11    1    3    3    0    0 -0.19595501472E+00  0.93584312940E+01 -0.40424349444E+01  0.10196073518E+02  0.51100000000E-03 0. -1.
        -11    1    3    3    0    0 -0.92975243427E+00  0.70960928570E+00  0.57306714542E+00  0.13024558118E+01  0.51100000000E-03 0.  1.
         12    1    3    3    0    0  0.80348922173E+01  0.29882135684E+02  0.18957093968E+02  0.36288743953E+02  0.00000000000E+00 0. -1.
</event>
<event>
 7    1  0.2530788E-009  0.4778727E+02  0.7816164E-02  0.1312668E+00
        -11   -1    0    0    0    0  0.00000000000E+00  0.00000000000E+00  0.45593999997E+02  0.45594000000E+02  0.51100000000E-03 0.  1.
         11   -1    0    0    0    0 -0.00000000000E+00 -0.00000000000E+00 -0.45593999997E+02  0.45594000000E+02  0.51100000000E-03 0. -1.
    9900012    2    1    2    0    0 -0.12477305604E+02 -0.32837305229E+02 -0.25488259482E+02  0.47787272573E+02  0.20000006967E+02 0.  0.
        -12    1    1    2    0    0  0.12477305604E+02  0.32837305229E+02  0.25488259482E+02  0.43400727427E+02  0.00000000000E+00 0.  1.
         11    1    3    3    0    0 -0.62508235054E+01 -0.29968351758E+01 -0.13097573108E+02  0.14818914844E+02  0.51100000000E-03 0. -1.
        -11    1    3    3    0    0 -0.31012609571E+01 -0.15960078854E+02 -0.55350819104E+01  0.17174954689E+02  0.51100000000E-03 0.  1.
         12    1    3    3    0    0 -0.31252211420E+01 -0.13880391199E+02 -0.68556044632E+01  0.15793403040E+02  0.00000000000E+00 0. -1.
</event>
<event>
 7    1  0.3803334E-009  0.4778727E+02  0.7816164E-02  0.1312668E+00
        -11   -1    0    0    0    0  0.00000000000E+00  0.00000000000E+00  0.45593999997E+02  0.45594000000E+02  0.51100000000E-03 0. -1.
         11   -1    0    0    0    0 -0.00000000000E+00 -0.00000000000E+00 -0.45593999997E+02  0.45594000000E+02  0.51100000000E-03 0.  1.
    9900012    2    1    2    0    0  0.32503679815E+02  0.19956180815E+01  0.28690613545E+02  0.47787274215E+02  0.20000014456E+02 0.  0.
        -12    1    1    2    0    0 -0.32503679815E+02 -0.19956180815E+01 -0.28690613545E+02  0.43400725785E+02  0.00000000000E+00 0.  1.
         11    1    3    3    0    0  0.17159952367E+02 -0.91823885679E+00  0.17901397691E+02  0.24814656302E+02  0.51100000000E-03 0. -1.
        -11    1    3    3    0    0  0.20471590143E+01 -0.31538592060E+01 -0.13276354914E+01  0.39875185492E+01  0.51100000000E-03 0.  1.
        -12    1    3    3    0    0  0.13296568434E+02  0.60677161443E+01  0.12116851345E+02  0.18985099364E+02  0.00000000000E+00 0.  1.
</event>
<event>
 7    1  0.2530788E-009  0.4778727E+02  0.7816164E-02  0.1312668E+00
        -11   -1    0    0    0    0  0.00000000000E+00  0.00000000000E+00  0.45593999997E+02  0.45594000000E+02  0.51100000000E-03 0.  1.
         11   -1    0    0    0    0 -0.00000000000E+00 -0.00000000000E+00 -0.45593999997E+02  0.45594000000E+02  0.51100000000E-03 0. -1.
    9900012    2    1    2    0    0 -0.10133062838E+02  0.21238038355E+02 -0.36467657316E+02  0.47787271138E+02  0.20000000425E+02 0.  0.
        -12    1    1    2    0    0  0.10133062838E+02 -0.21238038355E+02  0.36467657316E+02  0.43400728862E+02  0.00000000000E+00 0.  1.
         11    1    3    3    0    0 -0.43289957009E+01  0.18153118397E+02 -0.32697889698E+02  0.37648743701E+02  0.51100000000E-03 0. -1.
        -11    1    3    3    0    0 -0.21597938446E+01 -0.20557796277E+01 -0.20101802680E+01  0.35960762367E+01  0.51100000000E-03 0.  1.
         12    1    3    3    0    0 -0.36442732923E+01  0.51406995856E+01 -0.17595873504E+01  0.65424511998E+01  0.00000000000E+00 0. -1.
</event>
<event>
 7    1  0.2530788E-009  0.4778727E+02  0.7816164E-02  0.1312668E+00
        -11   -1    0    0    0    0  0.00000000000E+00  0.00000000000E+00  0.45593999997E+02  0.45594000000E+02  0.51100000000E-03 0.  1.
         11   -1    0    0    0    0 -0.00000000000E+00 -0.00000000000E+00 -0.45593999997E+02  0.45594000000E+02  0.51100000000E-03 0. -1.
    9900012    2    1    2    0    0 -0.14573806305E+02 -0.36699488693E+02 -0.18010415756E+02  0.47787269865E+02  0.19999994623E+02 0.  0.
        -12    1    1    2    0    0  0.14573806305E+02  0.36699488693E+02  0.18010415756E+02  0.43400730135E+02  0.00000000000E+00 0.  1.
         11    1    3    3    0    0 -0.11870741240E+02 -0.28096574779E+02 -0.46785939985E+01  0.30858082474E+02  0.51100000000E-03 0. -1.
        -11    1    3    3    0    0  0.37154566013E+00 -0.68885561229E+01 -0.92471049819E+01  0.11536862764E+02  0.51100000000E-03 0.  1.
         12    1    3    3    0    0 -0.30746107245E+01 -0.17143577911E+01 -0.40847167754E+01  0.53923246266E+01  0.00000000000E+00 0. -1.
</event>
<event>
 7    1  0.2530788E-009  0.4778727E+02  0.7816164E-02  0.1312668E+00
        -11   -1    0    0    0    0  0.00000000000E+00  0.00000000000E+00  0.45593999997E+02  0.45594000000E+02  0.51100000000E-03 0.  1.
         11   -1    0    0    0    0 -0.00000000000E+00 -0.00000000000E+00 -0.45593999997E+02  0.45594000000E+02  0.51100000000E-03 0. -1.
    9900012    2    1    2    0    0 -0.21433710163E+02  0.37324508511E+02 -0.55767742802E+01  0.47787270993E+02  0.19999999767E+02 0.  0.
        -12    1    1    2    0    0  0.21433710163E+02 -0.37324508511E+02  0.55767742802E+01  0.43400729007E+02  0.00000000000E+00 0.  1.
         11    1    3    3    0    0 -0.48428077066E+01  0.17423942381E+02 -0.64663698398E+01  0.19205741166E+02  0.51100000000E-03 0. -1.
        -11    1    3    3    0    0 -0.67643669229E+01  0.17029458883E+02  0.86451242697E+00  0.18344113816E+02  0.51100000000E-03 0.  1.
         12    1    3    3    0    0 -0.98265355338E+01  0.28711072474E+01  0.25083132621E-01  0.10237416011E+02  0.00000000000E+00 0. -1.
</event>
<event>
 7    1  0.2530788E-009  0.4778727E+02  0.7816164E-02  0.1312668E+00
        -11   -1    0    0    0    0  0.00000000000E+00  0.00000000000E+00  0.45593999997E+02  0.45594000000E+02  0.51100000000E-03 0.  1.
         11   -1    0    0    0    0 -0.00000000000E+00 -0.00000000000E+00 -0.45593999997E+02  0.45594000000E+02  0.51100000000E-03 0. -1.
    9900012    2    1    2    0    0 -0.26622912537E+01  0.43276088778E+02  0.19276035037E+01  0.47787270630E+02  0.19999998108E+02 0.  0.
        -12    1    1    2    0    0  0.26622912537E+01 -0.43276088778E+02 -0.19276035037E+01  0.43400729370E+02  0.00000000000E+00 0.  1.
         11    1    3    3    0    0 -0.21432722178E+01  0.11332091642E+02  0.29200392094E+00  0.11536688577E+02  0.51100000000E-03 0. -1.
        -11    1    3    3    0    0 -0.53143289473E+01  0.19680962915E+01 -0.10918182248E+01  0.57712704381E+01  0.51100000000E-03 0.  1.
        -12    1    3    3    0    0  0.47953099113E+01  0.29975900844E+02  0.27274178076E+01  0.30479311614E+02  0.00000000000E+00 0.  1.
</event>
<event>
 7    1  0.2530788E-009  0.4778727E+02  0.7816164E-02  0.1312668E+00
        -11   -1    0    0    0    0  0.00000000000E+00  0.00000000000E+00  0.45593999997E+02  0.45594000000E+02  0.51100000000E-03 0.  1.
         11   -1    0    0    0    0 -0.00000000000E+00 -0.00000000000E+00 -0.45593999997E+02  0.45594000000E+02  0.51100000000E-03 0. -1.
    9900012    2    1    2    0    0  0.30913454065E+02  0.17319953322E+02 -0.25059942855E+02  0.47787272343E+02  0.20000005920E+02 0.  0.
        -12    1    1    2    0    0 -0.30913454065E+02 -0.17319953322E+02  0.25059942855E+02  0.43400727657E+02  0.00000000000E+00 0.  1.
         11    1    3    3    0    0  0.89166567646E+01  0.34222893903E+01  0.27450888323E+00  0.95547992086E+01  0.51100000000E-03 0. -1.
        -11    1    3    3    0    0  0.89512118628E+00  0.13243894007E+01  0.12558689486E+01  0.20328443866E+01  0.51100000000E-03 0.  1.
         12    1    3    3    0    0  0.21101676114E+02  0.12573274531E+02 -0.26590320687E+02  0.36199628748E+02  0.00000000000E+00 0. -1.
</event>
<event>
 7    1  0.2530788E-009  0.4778727E+02  0.7816164E-02  0.1312668E+00
        -11   -1    0    0    0    0  0.00000000000E+00  0.00000000000E+00  0.45593999997E+02  0.45594000000E+02  0.51100000000E-03 0.  1.
         11   -1    0    0    0    0 -0.00000000000E+00 -0.00000000000E+00 -0.45593999997E+02  0.45594000000E+02  0.51100000000E-03 0. -1.
    9900012    2    1    2    0    0  0.30575369821E+02 -0.22006515758E+02 -0.21551872979E+02  0.47787271845E+02  0.20000003651E+02 0.  0.
        -12    1    1    2    0    0 -0.30575369821E+02  0.22006515758E+02  0.21551872979E+02  0.43400728155E+02  0.00000000000E+00 0.  1.
         11    1    3    3    0    0  0.95928482485E+01 -0.43084891285E+00 -0.10642789105E+02  0.14334480406E+02  0.51100000000E-03 0. -1.
        -11    1    3    3    0    0  0.12414267539E+02 -0.10789324996E+02 -0.98906678358E+00  0.16477312455E+02  0.51100000000E-03 0.  1.
        -12    1    3    3    0    0  0.85682540336E+01 -0.10786341849E+02 -0.99200170902E+01  0.16975478984E+02  0.00000000000E+00 0.  1.
</event>
<event>
 7    1  0.2530788E-009  0.4778726E+02  0.7816164E-02  0.1312668E+00
        -11   -1    0    0    0    0  0.00000000000E+00  0.00000000000E+00  0.45593999997E+02  0.45594000000E+02  0.51100000000E-03 0.  1.
         11   -1    0    0    0    0 -0.00000000000E+00 -0.00000000000E+00 -0.45593999997E+02  0.45594000000E+02  0.51100000000E-03 0. -1.
    9900012    2    1    2    0    0 -0.11840106531E+02 -0.32956513337E+02 -0.25637939452E+02  0.47787264599E+02  0.19999970613E+02 0.  0.
        -12    1    1    2    0    0  0.11840106531E+02  0.32956513337E+02  0.25637939452E+02  0.43400735401E+02  0.00000000000E+00 0.  1.
         11    1    3    3    0    0 -0.86652230633E+01 -0.22357466781E+02 -0.14280246454E+02  0.27908204003E+02  0.51100000000E-03 0. -1.
        -11    1    3    3    0    0 -0.33101737260E+01 -0.98137628256E+00  0.15476073752E+01  0.37835748114E+01  0.51100000000E-03 0.  1.
        -12    1    3    3    0    0  0.13529025816E+00 -0.96176702730E+01 -0.12905300373E+02  0.16095485785E+02  0.00000000000E+00 0.  1.
</event>
<event>
 7    1  0.2530788E-009  0.4778727E+02  0.7816164E-02  0.1312668E+00
        -11   -1    0    0    0    0  0.00000000000E+00  0.00000000000E+00  0.45593999997E+02  0.45594000000E+02  0.51100000000E-03 0.  1.
         11   -1    0    0    0    0 -0.00000000000E+00 -0.00000000000E+00 -0.45593999997E+02  0.45594000000E+02  0.51100000000E-03 0. -1.
    9900012    2    1    2    0    0 -0.16441684519E+02  0.14470817963E+02 -0.37468514359E+02  0.47787272695E+02  0.20000007525E+02 0.  0.
        -12    1    1    2    0    0  0.16441684519E+02 -0.14470817963E+02  0.37468514359E+02  0.43400727305E+02  0.00000000000E+00 0.  1.
         11    1    3    3    0    0 -0.87228160963E+01 -0.17462679607E+01 -0.61491957677E+01  0.10814322970E+02  0.51100000000E-03 0. -1.
        -11    1    3    3    0    0  0.72161350968E+00  0.19960832750E+01 -0.86873593187E+01  0.89428902873E+01  0.51100000000E-03 0.  1.
         12    1    3    3    0    0 -0.84404819327E+01  0.14221002649E+02 -0.22631959272E+02  0.28030059438E+02  0.00000000000E+00 0. -1.
</event>
<event>
 7    1  0.2530788E-009  0.4778727E+02  0.7816164E-02  0.1312668E+00
        -11   -1    0    0    0    0  0.00000000000E+00  0.00000000000E+00  0.45593999997E+02  0.45594000000E+02  0.51100000000E-03 0. -1.
         11   -1    0    0    0    0 -0.00000000000E+00 -0.00000000000E+00 -0.45593999997E+02  0.45594000000E+02  0.51100000000E-03 0.  1.
    9900012    2    1    2    0    0 -0.35768610456E+02 -0.24167442671E+02 -0.44904623211E+01  0.47787273842E+02  0.20000012754E+02 0.  0.
        -12    1    1    2    0    0  0.35768610456E+02  0.24167442671E+02  0.44904623211E+01  0.43400726158E+02  0.00000000000E+00 0.  1.
         11    1    3    3    0    0  0.18942572413E+00  0.20860309903E+01  0.56140746717E+00  0.21685446739E+01  0.51100000000E-03 0.  1.
        -11    1    3    3    0    0 -0.18656067808E+02 -0.18782970983E+02 -0.23045135804E+01  0.26573664559E+02  0.51100000000E-03 0. -1.
         12    1    3    3    0    0 -0.17301968372E+02 -0.74705026786E+01 -0.27473562079E+01  0.19045064608E+02  0.00000000000E+00 0. -1.
</event>
<event>
 7    1  0.2530788E-009  0.4778727E+02  0.7816164E-02  0.1312668E+00
        -11   -1    0    0    0    0  0.00000000000E+00  0.00000000000E+00  0.45593999997E+02  0.45594000000E+02  0.51100000000E-03 0. -1.
         11   -1    0    0    0    0 -0.00000000000E+00 -0.00000000000E+00 -0.45593999997E+02  0.45594000000E+02  0.51100000000E-03 0.  1.
    9900012    2    1    2    0    0  0.22767164903E+02 -0.34714422563E+02  0.12656549513E+02  0.47787272159E+02  0.20000005080E+02 0.  0.
        -12    1    1    2    0    0 -0.22767164903E+02  0.34714422563E+02 -0.12656549513E+02  0.43400727841E+02  0.00000000000E+00 0.  1.
         11    1    3    3    0    0  0.37336342591E+01 -0.12062721512E+02  0.11151530298E+02  0.16846539802E+02  0.51100000000E-03 0. -1.
        -11    1    3    3    0    0  0.84201475460E+01 -0.44658304569E+01 -0.15747423811E+01  0.96603488651E+01  0.51100000000E-03 0.  1.
        -12    1    3    3    0    0  0.10613383098E+02 -0.18185870594E+02  0.30797615953E+01  0.21280383491E+02  0.00000000000E+00 0.  1.
</event>
<event>
 7    1  0.2530788E-009  0.4778727E+02  0.7816164E-02  0.1312668E+00
        -11   -1    0    0    0    0  0.00000000000E+00  0.00000000000E+00  0.45593999997E+02  0.45594000000E+02  0.51100000000E-03 0. -1.
         11   -1    0    0    0    0 -0.00000000000E+00 -0.00000000000E+00 -0.45593999997E+02  0.45594000000E+02  0.51100000000E-03 0.  1.
    9900012    2    1    2    0    0  0.37799615956E+02  0.13832711603E+02 -0.16231705505E+02  0.47787272583E+02  0.20000007016E+02 0.  0.
        -12    1    1    2    0    0 -0.37799615956E+02 -0.13832711603E+02  0.16231705505E+02  0.43400727417E+02  0.00000000000E+00 0.  1.
         11    1    3    3    0    0  0.31445546334E+02  0.13656588566E+02 -0.89096728208E+01  0.35421844469E+02  0.51100000000E-03 0. -1.
        -11    1    3    3    0    0 -0.14970542212E+01  0.92255392759E+00 -0.27064024434E+01  0.32275209585E+01  0.51100000000E-03 0.  1.
         12    1    3    3    0    0  0.78511238431E+01 -0.74643089086E+00 -0.46156302409E+01  0.91379071562E+01  0.00000000000E+00 0. -1.
</event>
<event>
 7    1  0.2530788E-009  0.4778727E+02  0.7816164E-02  0.1312668E+00
        -11   -1    0    0    0    0  0.00000000000E+00  0.00000000000E+00  0.45593999997E+02  0.45594000000E+02  0.51100000000E-03 0.  1.
         11   -1    0    0    0    0 -0.00000000000E+00 -0.00000000000E+00 -0.45593999997E+02  0.45594000000E+02  0.51100000000E-03 0. -1.
    9900012    2    1    2    0    0 -0.41177685515E+02 -0.11321139377E+02  0.77365041743E+01  0.47787268692E+02  0.19999989276E+02 0.  0.
        -12    1    1    2    0    0  0.41177685515E+02  0.11321139377E+02 -0.77365041743E+01  0.43400731308E+02  0.00000000000E+00 0.  1.
         11    1    3    3    0    0 -0.33383301416E+02 -0.10220611679E+02  0.45501844677E+01  0.35208094176E+02  0.51100000000E-03 0. -1.
        -11    1    3    3    0    0 -0.67390569598E+01 -0.42901518080E+01  0.42580567300E+01  0.90526978641E+01  0.51100000000E-03 0.  1.
         12    1    3    3    0    0 -0.10553271392E+01  0.31896241098E+01 -0.10717370234E+01  0.35264766524E+01  0.00000000000E+00 0. -1.
</event>
<event>
 7    1  0.2530788E-009  0.4778727E+02  0.7816164E-02  0.1312668E+00
        -11   -1    0    0    0    0  0.00000000000E+00  0.00000000000E+00  0.45593999997E+02  0.45594000000E+02  0.51100000000E-03 0.  1.
         11   -1    0    0    0    0 -0.00000000000E+00 -0.00000000000E+00 -0.45593999997E+02  0.45594000000E+02  0.51100000000E-03 0. -1.
    9900012    2    1    2    0    0  0.19898730923E+02 -0.29962155122E+02 -0.24288530596E+02  0.47787274771E+02  0.20000016992E+02 0.  0.
        -12    1    1    2    0    0 -0.19898730923E+02  0.29962155122E+02  0.24288530596E+02  0.43400725229E+02  0.00000000000E+00 0.  1.
         11    1    3    3    0    0  0.12153552404E+02 -0.20035697280E+02 -0.78588739921E+01  0.24716389344E+02  0.51100000000E-03 0. -1.
        -11    1    3    3    0    0  0.68705920727E+01 -0.14116176469E+01 -0.43071678874E+01  0.82310020825E+01  0.51100000000E-03 0.  1.
         12    1    3    3    0    0  0.87458644611E+00 -0.85148401946E+01 -0.12122488716E+02  0.14839883344E+02  0.00000000000E+00 0. -1.
</event>
<event>
 7    1  0.2530788E-009  0.4778727E+02  0.7816164E-02  0.1312668E+00
        -11   -1    0    0    0    0  0.00000000000E+00  0.00000000000E+00  0.45593999997E+02  0.45594000000E+02  0.51100000000E-03 0.  1.
         11   -1    0    0    0    0 -0.00000000000E+00 -0.00000000000E+00 -0.45593999997E+02  0.45594000000E+02  0.51100000000E-03 0. -1.
    9900012    2    1    2    0    0 -0.20579000353E+02 -0.23012693683E+02 -0.30504819132E+02  0.47787270555E+02  0.19999997771E+02 0.  0.
        -12    1    1    2    0    0  0.20579000353E+02  0.23012693683E+02  0.30504819132E+02  0.43400729445E+02  0.00000000000E+00 0.  1.
         11    1    3    3    0    0 -0.16085208984E+02 -0.11708647318E+02 -0.28016088086E+02  0.34361716517E+02  0.51100000000E-03 0. -1.
        -11    1    3    3    0    0 -0.81240383750E+00 -0.44412644443E+01  0.13916075834E+01  0.47245530780E+01  0.51100000000E-03 0.  1.
        -12    1    3    3    0    0 -0.36813875320E+01 -0.68627819203E+01 -0.38803386291E+01  0.87010009610E+01  0.00000000000E+00 0.  1.
</event>
<event>
 7    1  0.2530788E-009  0.4778727E+02  0.7816164E-02  0.1312668E+00
        -11   -1    0    0    0    0  0.00000000000E+00  0.00000000000E+00  0.45593999997E+02  0.45594000000E+02  0.51100000000E-03 0.  1.
         11   -1    0    0    0    0 -0.00000000000E+00 -0.00000000000E+00 -0.45593999997E+02  0.45594000000E+02  0.51100000000E-03 0. -1.
    9900012    2    1    2    0    0  0.18579734035E+02 -0.31041733284E+02 -0.23975556622E+02  0.47787273768E+02  0.20000012419E+02 0.  0.
        -12    1    1    2    0    0 -0.18579734035E+02  0.31041733284E+02  0.23975556622E+02  0.43400726232E+02  0.00000000000E+00 0.  1.
         11    1    3    3    0    0  0.16764502645E+02 -0.32051184335E+02 -0.23636249598E+02  0.43208786855E+02  0.51100000000E-03 0. -1.
        -11    1    3    3    0    0  0.53200609550E+00 -0.18816607691E+00  0.17563965110E+01  0.18448213798E+01  0.51100000000E-03 0.  1.
         12    1    3    3    0    0  0.12832252946E+01  0.11976171274E+01 -0.20957035353E+01  0.27336655334E+01  0.00000000000E+00 0. -1.
</event>
<event>
 7    1  0.2530788E-009  0.4778727E+02  0.7816164E-02  0.1312668E+00
        -11   -1    0    0    0    0  0.00000000000E+00  0.00000000000E+00  0.45593999997E+02  0.45594000000E+02  0.51100000000E-03 0.  1.
         11   -1    0    0    0    0 -0.00000000000E+00 -0.00000000000E+00 -0.45593999997E+02  0.45594000000E+02  0.51100000000E-03 0. -1.
    9900012    2    1    2    0    0  0.29374415012E+02  0.43939187677E+01 -0.31645863627E+02  0.47787268852E+02  0.19999990006E+02 0.  0.
        -12    1    1    2    0    0 -0.29374415012E+02 -0.43939187677E+01  0.31645863627E+02  0.43400731148E+02  0.00000000000E+00 0.  1.
         11    1    3    3    0    0 -0.21324972983E+00  0.40729059140E+01 -0.31222305508E+01  0.51363763399E+01  0.51100000000E-03 0.  1.
        -11    1    3    3    0    0  0.23047005580E+02 -0.21008511632E+01 -0.26908871399E+02  0.35491765271E+02  0.51100000000E-03 0. -1.
         12    1    3    3    0    0  0.65406591618E+01  0.24218640169E+01 -0.16147616773E+01  0.71591272416E+01  0.00000000000E+00 0. -1.
</event>
<event>
 7    1  0.2530788E-009  0.4778727E+02  0.7816164E-02  0.1312668E+00
        -11   -1    0    0    0    0  0.00000000000E+00  0.00000000000E+00  0.45593999997E+02  0.45594000000E+02  0.51100000000E-03 0.  1.
         11   -1    0    0    0    0 -0.00000000000E+00 -0.00000000000E+00 -0.45593999997E+02  0.45594000000E+02  0.51100000000E-03 0. -1.
    9900012    2    1    2    0    0  0.29921951942E+02  0.27722980409E+02 -0.14823505294E+02  0.47787272357E+02  0.20000005984E+02 0.  0.
        -12    1    1    2    0    0 -0.29921951942E+02 -0.27722980409E+02  0.14823505294E+02  0.43400727643E+02  0.00000000000E+00 0.  1.
         11    1    3    3    0    0  0.11073213776E+02  0.62913060062E+01 -0.12604249123E+02  0.17918250216E+02  0.51100000000E-03 0. -1.
        -11    1    3    3    0    0  0.90117867494E+01  0.16245433710E+02 -0.25004305817E+01  0.18745094564E+02  0.51100000000E-03 0.  1.
        -12    1    3    3    0    0  0.98369514162E+01  0.51862406925E+01  0.28117441060E+00  0.11123927577E+02  0.00000000000E+00 0.  1.
</event>
<event>
 7    1  0.2530788E-009  0.4778727E+02  0.7816164E-02  0.1312668E+00
        -11   -1    0    0    0    0  0.00000000000E+00  0.00000000000E+00  0.45593999997E+02  0.45594000000E+02  0.51100000000E-03 0.  1.
         11   -1    0    0    0    0 -0.00000000000E+00 -0.00000000000E+00 -0.45593999997E+02  0.45594000000E+02  0.51100000000E-03 0. -1.
    9900012    2    1    2    0    0  0.16469157796E+02  0.15320886202E+02 -0.37116847584E+02  0.47787273196E+02  0.20000009811E+02 0.  0.
        -12    1    1    2    0    0 -0.16469157796E+02 -0.15320886202E+02  0.37116847584E+02  0.43400726804E+02  0.00000000000E+00 0.  1.
         11    1    3    3    0    0 -0.86087361250E+00 -0.14815822441E+01 -0.13896775787E+02  0.14002020099E+02  0.51100000000E-03 0.  1.
        -11    1    3    3    0    0  0.14687438224E+02  0.12811942540E+02 -0.20472850370E+02  0.28266664390E+02  0.51100000000E-03 0. -1.
        -12    1    3    3    0    0  0.26425931848E+01  0.39905259063E+01 -0.27472214272E+01  0.55185887072E+01  0.00000000000E+00 0.  1.
</event>
<event>
 7    1  0.2530788E-009  0.4778727E+02  0.7816164E-02  0.1312668E+00
        -11   -1    0    0    0    0  0.00000000000E+00  0.00000000000E+00  0.45593999997E+02  0.45594000000E+02  0.51100000000E-03 0. -1.
         11   -1    0    0    0    0 -0.00000000000E+00 -0.00000000000E+00 -0.45593999997E+02  0.45594000000E+02  0.51100000000E-03 0.  1.
    9900012    2    1    2    0    0  0.41149827771E+02  0.13505165716E+02  0.28152376552E+01  0.47787269711E+02  0.19999993919E+02 0.  0.
        -12    1    1    2    0    0 -0.41149827771E+02 -0.13505165716E+02 -0.28152376552E+01  0.43400730289E+02  0.00000000000E+00 0.  1.
         11    1    3    3    0    0  0.12376770512E+02  0.49185593245E+01  0.20219377718E+01  0.13470891090E+02  0.51100000000E-03 0. -1.
        -11    1    3    3    0    0  0.25242477665E+02  0.12054798260E+02  0.42297869128E+01  0.28291198938E+02  0.51100000000E-03 0.  1.
        -12    1    3    3    0    0  0.35305795938E+01 -0.34681918688E+01 -0.34364870294E+01  0.60251796828E+01  0.00000000000E+00 0.  1.
</event>
<event>
 7    1  0.2530788E-009  0.4778727E+02  0.7816164E-02  0.1312668E+00
        -11   -1    0    0    0    0  0.00000000000E+00  0.00000000000E+00  0.45593999997E+02  0.45594000000E+02  0.51100000000E-03 0.  1.
         11   -1    0    0    0    0 -0.00000000000E+00 -0.00000000000E+00 -0.45593999997E+02  0.45594000000E+02  0.51100000000E-03 0. -1.
    9900012    2    1    2    0    0  0.89560802589E+01  0.25083445566E+02 -0.34267076889E+02  0.47787272200E+02  0.20000005268E+02 0.  0.
        -12    1    1    2    0    0 -0.89560802589E+01 -0.25083445566E+02  0.34267076889E+02  0.43400727800E+02  0.00000000000E+00 0.  1.
         11    1    3    3    0    0  0.64792466396E+01  0.15701331364E+02 -0.17377458407E+02  0.24299969229E+02  0.51100000000E-03 0. -1.
        -11    1    3    3    0    0 -0.48959814397E+00  0.11788917431E+02 -0.94222457737E+01  0.15099569405E+02  0.51100000000E-03 0.  1.
        -12    1    3    3    0    0  0.29664317633E+01 -0.24068032294E+01 -0.74673727089E+01  0.83877335654E+01  0.00000000000E+00 0.  1.
</event>
<event>
 7    1  0.2530788E-009  0.4778727E+02  0.7816164E-02  0.1312668E+00
        -11   -1    0    0    0    0  0.00000000000E+00  0.00000000000E+00  0.45593999997E+02  0.45594000000E+02  0.51100000000E-03 0.  1.
         11   -1    0    0    0    0 -0.00000000000E+00 -0.00000000000E+00 -0.45593999997E+02  0.45594000000E+02  0.51100000000E-03 0. -1.
    9900012    2    1    2    0    0 -0.66924264123E+01  0.22257794926E+02 -0.36652766408E+02  0.47787270840E+02  0.19999999068E+02 0.  0.
        -12    1    1    2    0    0  0.66924264123E+01 -0.22257794926E+02  0.36652766408E+02  0.43400729160E+02  0.00000000000E+00 0.  1.
         11    1    3    3    0    0 -0.80038822319E+01  0.77377211901E+01 -0.16674151116E+02  0.20048984405E+02  0.51100000000E-03 0. -1.
        -11    1    3    3    0    0  0.44018694006E+01  0.15395592557E+02 -0.16183256521E+02  0.22766170435E+02  0.51100000000E-03 0.  1.
        -12    1    3    3    0    0 -0.30904135810E+01 -0.87551882091E+00 -0.37953587715E+01  0.49721159994E+01  0.00000000000E+00 0.  1.
</event>
<event>
 7    1  0.2530788E-009  0.4778727E+02  0.7816164E-02  0.1312668E+00
        -11   -1    0    0    0    0  0.00000000000E+00  0.00000000000E+00  0.45593999997E+02  0.45594000000E+02  0.51100000000E-03 0.  1.
         11   -1    0    0    0    0 -0.00000000000E+00 -0.00000000000E+00 -0.45593999997E+02  0.45594000000E+02  0.51100000000E-03 0. -1.
    9900012    2    1    2    0    0  0.31049337287E+02  0.69916558531E+01 -0.29507266660E+02  0.47787269784E+02  0.19999994254E+02 0.  0.
        -12    1    1    2    0    0 -0.31049337287E+02 -0.69916558531E+01  0.29507266660E+02  0.43400730216E+02  0.00000000000E+00 0.  1.
         11    1    3    3    0    0  0.15411300309E+02  0.34470115169E+01 -0.24719878086E+02  0.29333640048E+02  0.51100000000E-03 0. -1.
        -11    1    3    3    0    0  0.11106379982E+02 -0.12681901291E+01 -0.24658533028E+01  0.11447288556E+02  0.51100000000E-03 0.  1.
         12    1    3    3    0    0  0.45316569953E+01  0.48128344654E+01 -0.23215352715E+01  0.70063411800E+01  0.00000000000E+00 0. -1.
</event>
<event>
 7    1  0.2530788E-009  0.4778727E+02  0.7816164E-02  0.1312668E+00
        -11   -1    0    0    0    0  0.00000000000E+00  0.00000000000E+00  0.45593999997E+02  0.45594000000E+02  0.51100000000E-03 0.  1.
         11   -1    0    0    0    0 -0.00000000000E+00 -0.00000000000E+00 -0.45593999997E+02  0.45594000000E+02  0.51100000000E-03 0. -1.
    9900012    2    1    2    0    0  0.16251947513E+02  0.24425982127E+02 -0.31982317547E+02  0.47787273779E+02  0.20000012469E+02 0.  0.
        -12    1    1    2    0    0 -0.16251947513E+02 -0.24425982127E+02  0.31982317547E+02  0.43400726221E+02  0.00000000000E+00 0.  1.
         11    1    3    3    0    0 -0.41057132530E+01  0.11659248650E+01 -0.46510314762E+01  0.63125554382E+01  0.51100000000E-03 0. -1.
        -11    1    3    3    0    0  0.17351290199E+02  0.17423609147E+02 -0.22413854536E+02  0.33272064900E+02  0.51100000000E-03 0.  1.
         12    1    3    3    0    0  0.30063705667E+01  0.58364481146E+01 -0.49174315349E+01  0.82026534414E+01  0.00000000000E+00 0. -1.
</event>
<event>
 7    1  0.2530788E-009  0.4778727E+02  0.7816164E-02  0.1312668E+00
        -11   -1    0    0    0    0  0.00000000000E+00  0.00000000000E+00  0.45593999997E+02  0.45594000000E+02  0.51100000000E-03 0.  1.
         11   -1    0    0    0    0 -0.00000000000E+00 -0.00000000000E+00 -0.45593999997E+02  0.45594000000E+02  0.51100000000E-03 0. -1.
    9900012    2    1    2    0    0  0.38592690940E+02  0.57449853083E+01 -0.19005859184E+02  0.47787270358E+02  0.19999996869E+02 0.  0.
        -12    1    1    2    0    0 -0.38592690940E+02 -0.57449853083E+01  0.19005859184E+02  0.43400729642E+02  0.00000000000E+00 0.  1.
         11    1    3    3    0    0  0.18509561403E+02  0.11297445752E+02 -0.15243901667E+02  0.26506842176E+02  0.51100000000E-03 0. -1.
        -11    1    3    3    0    0  0.16261658071E+02 -0.53093644806E+01 -0.33221266667E+01  0.17426055212E+02  0.51100000000E-03 0.  1.
         12    1    3    3    0    0  0.38214714663E+01 -0.24309596289E+00 -0.43983084978E+00  0.38543729700E+01  0.00000000000E+00 0. -1.
</event>
<event>
 7    1  0.2530788E-009  0.4778727E+02  0.7816164E-02  0.1312668E+00
        -11   -1    0    0    0    0  0.00000000000E+00  0.00000000000E+00  0.45593999997E+02  0.45594000000E+02  0.51100000000E-03 0. -1.
         11   -1    0    0    0    0 -0.00000000000E+00 -0.00000000000E+00 -0.45593999997E+02  0.45594000000E+02  0.51100000000E-03 0.  1.
    9900012    2    1    2    0    0 -0.19114272439E+02  0.38849982158E+02  0.29911195699E+01  0.47787270504E+02  0.19999997534E+02 0.  0.
        -12    1    1    2    0    0  0.19114272439E+02 -0.38849982158E+02 -0.29911195699E+01  0.43400729496E+02  0.00000000000E+00 0.  1.
         11    1    3    3    0    0 -0.60699046932E+01  0.26525169728E+02  0.28563726973E+01  0.27360322318E+02  0.51100000000E-03 0. -1.
        -11    1    3    3    0    0 -0.14455495879E+02  0.12033487742E+02 -0.58192152265E+00  0.18817673109E+02  0.51100000000E-03 0.  1.
         12    1    3    3    0    0  0.14111281332E+01  0.29132468824E+00  0.71666839533E+00  0.16092750763E+01  0.00000000000E+00 0. -1.
</event>
<event>
 7    1  0.2530788E-009  0.4778727E+02  0.7816164E-02  0.1312668E+00
        -11   -1    0    0    0    0  0.00000000000E+00  0.00000000000E+00  0.45593999997E+02  0.45594000000E+02  0.51100000000E-03 0.  1.
         11   -1    0    0    0    0 -0.00000000000E+00 -0.00000000000E+00 -0.45593999997E+02  0.45594000000E+02  0.51100000000E-03 0. -1.
    9900012    2    1    2    0    0  0.98987396518E+01  0.82195763597E+01 -0.41449686965E+02  0.47787273834E+02  0.20000012720E+02 0.  0.
        -12    1    1    2    0    0 -0.98987396518E+01 -0.82195763597E+01  0.41449686965E+02  0.43400726166E+02  0.00000000000E+00 0.  1.
         11    1    3    3    0    0  0.14145199336E+02  0.88757052791E+01 -0.30086975858E+02  0.34410622270E+02  0.51100000000E-03 0. -1.
        -11    1    3    3    0    0 -0.17698703909E+01  0.23472588378E+01 -0.66025325490E+01  0.72274132007E+01  0.51100000000E-03 0.  1.
         12    1    3    3    0    0 -0.24765892936E+01 -0.30033877572E+01 -0.47601785582E+01  0.61492383638E+01  0.00000000000E+00 0. -1.
</event>
<event>
 7    1  0.2530788E-009  0.4778727E+02  0.7816164E-02  0.1312668E+00
        -11   -1    0    0    0    0  0.00000000000E+00  0.00000000000E+00  0.45593999997E+02  0.45594000000E+02  0.51100000000E-03 0.  1.
         11   -1    0    0    0    0 -0.00000000000E+00 -0.00000000000E+00 -0.45593999997E+02  0.45594000000E+02  0.51100000000E-03 0. -1.
    9900012    2    1    2    0    0 -0.30295221446E+02 -0.15743813765E+02 -0.26794687486E+02  0.47787269686E+02  0.19999993806E+02 0.  0.
        -12    1    1    2    0    0  0.30295221446E+02  0.15743813765E+02  0.26794687486E+02  0.43400730314E+02  0.00000000000E+00 0.  1.
         11    1    3    3    0    0 -0.70348032614E+01 -0.30636487103E+01 -0.10489237424E+02  0.12996095657E+02  0.51100000000E-03 0. -1.
        -11    1    3    3    0    0 -0.25612304708E+02 -0.11972768352E+02 -0.15172577785E+02  0.32086515102E+02  0.51100000000E-03 0.  1.
        -12    1    3    3    0    0  0.23518865235E+01 -0.70739670301E+00 -0.11328722771E+01  0.27046589269E+01  0.00000000000E+00 0.  1.
</event>
<event>
 7    1  0.2530788E-009  0.4778727E+02  0.7816164E-02  0.1312668E+00
        -11   -1    0    0    0    0  0.00000000000E+00  0.00000000000E+00  0.45593999997E+02  0.45594000000E+02  0.51100000000E-03 0. -1.
         11   -1    0    0    0    0 -0.00000000000E+00 -0.00000000000E+00 -0.45593999997E+02  0.45594000000E+02  0.51100000000E-03 0.  1.
    9900012    2    1    2    0    0 -0.32520088439E+02  0.80447462477E+00  0.28730117110E+02  0.47787274653E+02  0.20000016454E+02 0.  0.
        -12    1    1    2    0    0  0.32520088439E+02 -0.80447462477E+00 -0.28730117110E+02  0.43400725347E+02  0.00000000000E+00 0.  1.
         11    1    3    3    0    0 -0.10947188621E+02 -0.50558591975E+01  0.84362389297E+01  0.14716411875E+02  0.51100000000E-03 0. -1.
        -11    1    3    3    0    0 -0.57950666322E+01  0.73874214666E+01  0.11823650386E+02  0.15098195320E+02  0.51100000000E-03 0.  1.
        -12    1    3    3    0    0 -0.15777833185E+02 -0.15270876443E+01  0.84702277938E+01  0.17972667459E+02  0.00000000000E+00 0.  1.
</event>
<event>
 7    1  0.2530788E-009  0.4778727E+02  0.7816164E-02  0.1312668E+00
        -11   -1    0    0    0    0  0.00000000000E+00  0.00000000000E+00  0.45593999997E+02  0.45594000000E+02  0.51100000000E-03 0. -1.
         11   -1    0    0    0    0 -0.00000000000E+00 -0.00000000000E+00 -0.45593999997E+02  0.45594000000E+02  0.51100000000E-03 0.  1.
    9900012    2    1    2    0    0  0.23831343021E+02  0.12702851932E+00 -0.36272223519E+02  0.47787271372E+02  0.20000001495E+02 0.  0.
        -12    1    1    2    0    0 -0.23831343021E+02 -0.12702851932E+00  0.36272223519E+02  0.43400728628E+02  0.00000000000E+00 0.  1.
         11    1    3    3    0    0  0.17951768153E+02  0.45745499370E+01 -0.32142454722E+02  0.37098920237E+02  0.51100000000E-03 0. -1.
        -11    1    3    3    0    0 -0.10493408331E+01 -0.19046055288E+01 -0.21242787441E+01  0.30399340204E+01  0.51100000000E-03 0.  1.
         12    1    3    3    0    0  0.69289157011E+01 -0.25429158889E+01 -0.20054900524E+01  0.76484171147E+01  0.00000000000E+00 0. -1.
</event>
<event>
 7    1  0.2530788E-009  0.4778727E+02  0.7816164E-02  0.1312668E+00
        -11   -1    0    0    0    0  0.00000000000E+00  0.00000000000E+00  0.45593999997E+02  0.45594000000E+02  0.51100000000E-03 0.  1.
         11   -1    0    0    0    0 -0.00000000000E+00 -0.00000000000E+00 -0.45593999997E+02  0.45594000000E+02  0.51100000000E-03 0. -1.
    9900012    2    1    2    0    0 -0.16929360145E+02  0.98439710323E+01 -0.38731332818E+02  0.47787272558E+02  0.20000006900E+02 0.  0.
        -12    1    1    2    0    0  0.16929360145E+02 -0.98439710323E+01  0.38731332818E+02  0.43400727442E+02  0.00000000000E+00 0.  1.
         11    1    3    3    0    0 -0.78269488016E+01  0.23877433298E+01 -0.44039749292E+01  0.92928704494E+01  0.51100000000E-03 0.  1.
        -11    1    3    3    0    0  0.20592538083E+01  0.14400436738E+01 -0.16073476525E+02  0.16268709226E+02  0.51100000000E-03 0. -1.
         12    1    3    3    0    0 -0.11161665152E+02  0.60161840287E+01 -0.18253881365E+02  0.22225692883E+02  0.00000000000E+00 0. -1.
</event>
<event>
 7    1  0.2530788E-009  0.4778727E+02  0.7816164E-02  0.1312668E+00
        -11   -1    0    0    0    0  0.00000000000E+00  0.00000000000E+00  0.45593999997E+02  0.45594000000E+02  0.51100000000E-03 0. -1.
         11   -1    0    0    0    0 -0.00000000000E+00 -0.00000000000E+00 -0.45593999997E+02  0.45594000000E+02  0.51100000000E-03 0.  1.
    9900012    2    1    2    0    0  0.24892638501E+02 -0.34217681462E+02  0.96503997862E+01  0.47787269681E+02  0.19999993785E+02 0.  0.
        -12    1    1    2    0    0 -0.24892638501E+02  0.34217681462E+02 -0.96503997862E+01  0.43400730319E+02  0.00000000000E+00 0.  1.
         11    1    3    3    0    0  0.79398896573E+01 -0.13770882944E+02  0.31261099712E+01  0.16200358905E+02  0.51100000000E-03 0. -1.
        -11    1    3    3    0    0  0.48049763277E+01 -0.11671893283E+02 -0.40387636004E+01  0.13252641322E+02  0.51100000000E-03 0.  1.
        -12    1    3    3    0    0  0.12147772516E+02 -0.87749052342E+01  0.10563053415E+02  0.18334269454E+02  0.00000000000E+00 0.  1.
</event>
<event>
 7    1  0.2530788E-009  0.4778727E+02  0.7816164E-02  0.1312668E+00
        -11   -1    0    0    0    0  0.00000000000E+00  0.00000000000E+00  0.45593999997E+02  0.45594000000E+02  0.51100000000E-03 0.  1.
         11   -1    0    0    0    0 -0.00000000000E+00 -0.00000000000E+00 -0.45593999997E+02  0.45594000000E+02  0.51100000000E-03 0. -1.
    9900012    2    1    2    0    0  0.35046845762E+02 -0.69359812479E+01 -0.24642116028E+02  0.47787272863E+02  0.20000008292E+02 0.  0.
        -12    1    1    2    0    0 -0.35046845762E+02  0.69359812479E+01  0.24642116028E+02  0.43400727137E+02  0.00000000000E+00 0.  1.
         11    1    3    3    0    0  0.26814538912E+02  0.68874861089E+00 -0.14038942429E+02  0.30275167655E+02  0.51100000000E-03 0. -1.
        -11    1    3    3    0    0  0.38943684623E+01 -0.73685138459E+01 -0.10164515456E+02  0.13144522689E+02  0.51100000000E-03 0.  1.
        -12    1    3    3    0    0  0.43379383871E+01 -0.25621601287E+00 -0.43865814259E+00  0.43675825191E+01  0.00000000000E+00 0.  1.
</event>
<event>
 7    1  0.2530788E-009  0.4778726E+02  0.7816164E-02  0.1312668E+00
        -11   -1    0    0    0    0  0.00000000000E+00  0.00000000000E+00  0.45593999997E+02  0.45594000000E+02  0.51100000000E-03 0.  1.
         11   -1    0    0    0    0 -0.00000000000E+00 -0.00000000000E+00 -0.45593999997E+02  0.45594000000E+02  0.51100000000E-03 0. -1.
    9900012    2    1    2    0    0 -0.43325003957E+02 -0.22341704832E+01  0.12555342216E+01  0.47787264386E+02  0.19999969644E+02 0.  0.
        -12    1    1    2    0    0  0.43325003957E+02  0.22341704832E+01 -0.12555342216E+01  0.43400735614E+02  0.00000000000E+00 0.  1.
         11    1    3    3    0    0 -0.15144828761E+02  0.68275993969E+01  0.34220929809E+01  0.16961505604E+02  0.51100000000E-03 0.  1.
        -11    1    3    3    0    0 -0.22104110675E+02 -0.41715999509E+01 -0.39155568376E+01  0.22832554402E+02  0.51100000000E-03 0. -1.
         12    1    3    3    0    0 -0.60760645201E+01 -0.48901699291E+01  0.17489980784E+01  0.79932043804E+01  0.00000000000E+00 0. -1.
</event>
<event>
 7    1  0.2530788E-009  0.4778727E+02  0.7816164E-02  0.1312668E+00
        -11   -1    0    0    0    0  0.00000000000E+00  0.00000000000E+00  0.45593999997E+02  0.45594000000E+02  0.51100000000E-03 0.  1.
         11   -1    0    0    0    0 -0.00000000000E+00 -0.00000000000E+00 -0.45593999997E+02  0.45594000000E+02  0.51100000000E-03 0. -1.
    9900012    2    1    2    0    0  0.88592442790E+01  0.21429065367E+02 -0.36686949238E+02  0.47787270788E+02  0.19999998832E+02 0.  0.
        -12    1    1    2    0    0 -0.88592442790E+01 -0.21429065367E+02  0.36686949238E+02  0.43400729212E+02  0.00000000000E+00 0.  1.
         11    1    3    3    0    0 -0.18729731779E+01  0.14874875205E+02 -0.25715364832E+02  0.29766590830E+02  0.51100000000E-03 0. -1.
        -11    1    3    3    0    0  0.40244821350E+01  0.37979399599E+01 -0.89450154204E+00  0.56054382223E+01  0.51100000000E-03 0.  1.
         12    1    3    3    0    0  0.67077353220E+01  0.27562502023E+01 -0.10077082864E+02  0.12415241736E+02  0.00000000000E+00 0. -1.
</event>
<event>
 7    1  0.2530788E-009  0.4778727E+02  0.7816164E-02  0.1312668E+00
        -11   -1    0    0    0    0  0.00000000000E+00  0.00000000000E+00  0.45593999997E+02  0.45594000000E+02  0.51100000000E-03 0.  1.
         11   -1    0    0    0    0 -0.00000000000E+00 -0.00000000000E+00 -0.45593999997E+02  0.45594000000E+02  0.51100000000E-03 0. -1.
    9900012    2    1    2    0    0  0.57195446973E+01  0.39698458470E+02 -0.16581390163E+02  0.47787270788E+02  0.19999998830E+02 0.  0.
        -12    1    1    2    0    0 -0.57195446973E+01 -0.39698458470E+02  0.16581390163E+02  0.43400729212E+02  0.00000000000E+00 0.  1.
         11    1    3    3    0    0  0.29847140700E+00  0.47293513428E+01 -0.43146880288E+01  0.64087738571E+01  0.51100000000E-03 0. -1.
        -11    1    3    3    0    0 -0.34272201416E+01  0.22628394342E+02 -0.12725711560E+02  0.26186519497E+02  0.51100000000E-03 0.  1.
        -12    1    3    3    0    0  0.88482934319E+01  0.12340712785E+02  0.45900942560E+00  0.15191977434E+02  0.00000000000E+00 0.  1.
</event>
<event>
 7    1  0.2530788E-009  0.4778725E+02  0.7816164E-02  0.1312668E+00
        -11   -1    0    0    0    0  0.00000000000E+00  0.00000000000E+00  0.45593999997E+02  0.45594000000E+02  0.51100000000E-03 0. -1.
         11   -1    0    0    0    0 -0.00000000000E+00 -0.00000000000E+00 -0.45593999997E+02  0.45594000000E+02  0.51100000000E-03 0.  1.
    9900012    2    1    2    0    0  0.31863756661E+02  0.18823703902E+02  0.22671437922E+02  0.47787252142E+02  0.19999913817E+02 0.  0.
        -12    1    1    2    0    0 -0.31863756661E+02 -0.18823703902E+02 -0.22671437922E+02  0.43400747858E+02  0.00000000000E+00 0.  1.
         11    1    3    3    0    0  0.58904674053E+01 -0.15427978740E+01  0.74186112083E+01  0.95975842822E+01  0.51100000000E-03 0. -1.
        -11    1    3    3    0    0  0.26453647702E+02  0.17089108614E+02  0.14955261444E+02  0.34863920536E+02  0.51100000000E-03 0.  1.
        -12    1    3    3    0    0 -0.48035844651E+00  0.32773931619E+01  0.29756526959E+00  0.33257473242E+01  0.00000000000E+00 0.  1.
</event>
<event>
 7    1  0.2530788E-009  0.4778727E+02  0.7816164E-02  0.1312668E+00
        -11   -1    0    0    0    0  0.00000000000E+00  0.00000000000E+00  0.45593999997E+02  0.45594000000E+02  0.51100000000E-03 0. -1.
         11   -1    0    0    0    0 -0.00000000000E+00 -0.00000000000E+00 -0.45593999997E+02  0.45594000000E+02  0.51100000000E-03 0.  1.
    9900012    2    1    2    0    0  0.20124412880E+02  0.41027300992E+01  0.38233478023E+02  0.47787271552E+02  0.20000002316E+02 0.  0.
        -12    1    1    2    0    0 -0.20124412880E+02 -0.41027300992E+01 -0.38233478023E+02  0.43400728448E+02  0.00000000000E+00 0.  1.
         11    1    3    3    0    0  0.13423885512E+02  0.11744282907E+01  0.29110694887E+02  0.32078225342E+02  0.51100000000E-03 0. -1.
        -11    1    3    3    0    0 -0.76560669886E-01  0.55178612074E+01  0.35627726768E+01  0.65685617336E+01  0.51100000000E-03 0.  1.
         12    1    3    3    0    0  0.67770880380E+01 -0.25895593989E+01  0.55600104593E+01  0.91404844763E+01  0.00000000000E+00 0. -1.
</event>
<event>
 7    1  0.2530788E-009  0.4778727E+02  0.7816164E-02  0.1312668E+00
        -11   -1    0    0    0    0  0.00000000000E+00  0.00000000000E+00  0.45593999997E+02  0.45594000000E+02  0.51100000000E-03 0.  1.
         11   -1    0    0    0    0 -0.00000000000E+00 -0.00000000000E+00 -0.45593999997E+02  0.45594000000E+02  0.51100000000E-03 0. -1.
    9900012    2    1    2    0    0 -0.26861166859E+01 -0.33760591925E+02 -0.27140939650E+02  0.47787269649E+02  0.19999993636E+02 0.  0.
        -12    1    1    2    0    0  0.26861166859E+01  0.33760591925E+02  0.27140939650E+02  0.43400730351E+02  0.00000000000E+00 0.  1.
         11    1    3    3    0    0  0.59293084865E+01 -0.39326327685E+01 -0.29511845332E+01  0.77027131603E+01  0.51100000000E-03 0. -1.
        -11    1    3    3    0    0 -0.65309623001E+01 -0.17434783589E+02 -0.10013687221E+02  0.21139987686E+02  0.51100000000E-03 0.  1.
        -12    1    3    3    0    0 -0.20844628723E+01 -0.12393175567E+02 -0.14176067896E+02  0.18944568802E+02  0.00000000000E+00 0.  1.
</event>
<event>
 7    1  0.2530788E-009  0.4778728E+02  0.7816164E-02  0.1312668E+00
        -11   -1    0    0    0    0  0.00000000000E+00  0.00000000000E+00  0.45593999997E+02  0.45594000000E+02  0.51100000000E-03 0.  1.
         11   -1    0    0    0    0 -0.00000000000E+00 -0.00000000000E+00 -0.45593999997E+02  0.45594000000E+02  0.51100000000E-03 0. -1.
    9900012    2    1    2    0    0 -0.46088940346E+01  0.18823228777E+02 -0.38833833180E+02  0.47787280591E+02  0.20000043525E+02 0.  0.
        -12    1    1    2    0    0  0.46088940346E+01 -0.18823228777E+02  0.38833833180E+02  0.43400719409E+02  0.00000000000E+00 0.  1.
         11    1    3    3    0    0 -0.11723579025E+02  0.12890110785E+02 -0.23783808637E+02  0.29483331133E+02  0.51100000000E-03 0. -1.
        -11    1    3    3    0    0  0.28786279529E+01 -0.13389691329E+00 -0.56354843164E+01  0.63295427178E+01  0.51100000000E-03 0.  1.
         12    1    3    3    0    0  0.42360570370E+01  0.60670149051E+01 -0.94145402269E+01  0.11974406740E+02  0.00000000000E+00 0. -1.
</event>
<event>
 7    1  0.2530788E-009  0.4778727E+02  0.7816164E-02  0.1312668E+00
        -11   -1    0    0    0    0  0.00000000000E+00  0.00000000000E+00  0.45593999997E+02  0.45594000000E+02  0.51100000000E-03 0.  1.
         11   -1    0    0    0    0 -0.00000000000E+00 -0.00000000000E+00 -0.45593999997E+02  0.45594000000E+02  0.51100000000E-03 0. -1.
    9900012    2    1    2    0    0 -0.15738593857E+02 -0.31826321678E+02 -0.24960073913E+02  0.47787269846E+02  0.19999994534E+02 0.  0.
        -12    1    1    2    0    0  0.15738593857E+02  0.31826321678E+02  0.24960073913E+02  0.43400730154E+02  0.00000000000E+00 0.  1.
         11    1    3    3    0    0 -0.74160607111E+01 -0.18573580196E+02 -0.23361483176E+02  0.30752800428E+02  0.51100000000E-03 0. -1.
        -11    1    3    3    0    0 -0.25157043461E+01 -0.49939308576E+01  0.25167101382E+01  0.61320423962E+01  0.51100000000E-03 0.  1.
        -12    1    3    3    0    0 -0.58068287997E+01 -0.82588106253E+01 -0.41153008759E+01  0.10902427021E+02  0.00000000000E+00 0.  1.
</event>
<event>
 7    1  0.2530788E-009  0.4778728E+02  0.7816164E-02  0.1312668E+00
        -11   -1    0    0    0    0  0.00000000000E+00  0.00000000000E+00  0.45593999997E+02  0.45594000000E+02  0.51100000000E-03 0.  1.
         11   -1    0    0    0    0 -0.00000000000E+00 -0.00000000000E+00 -0.45593999997E+02  0.45594000000E+02  0.51100000000E-03 0. -1.
    9900012    2    1    2    0    0  0.14813560734E+02 -0.15430307907E+02 -0.37763561112E+02  0.47787279596E+02  0.20000038990E+02 0.  0.
        -12    1    1    2    0    0 -0.14813560734E+02  0.15430307907E+02  0.37763561112E+02  0.43400720404E+02  0.00000000000E+00 0.  1.
         11    1    3    3    0    0  0.12779618160E+02 -0.14900523080E+02 -0.20221056529E+02  0.28182181530E+02  0.51100000000E-03 0. -1.
        -11    1    3    3    0    0  0.46096948803E+01  0.16706226617E+01 -0.13306427023E+02  0.14181017853E+02  0.51100000000E-03 0.  1.
        -12    1    3    3    0    0 -0.25757523067E+01 -0.22004074880E+01 -0.42360775600E+01  0.54240802127E+01  0.00000000000E+00 0.  1.
</event>
<event>
 7    1  0.2530788E-009  0.4778727E+02  0.7816164E-02  0.1312668E+00
        -11   -1    0    0    0    0  0.00000000000E+00  0.00000000000E+00  0.45593999997E+02  0.45594000000E+02  0.51100000000E-03 0.  1.
         11   -1    0    0    0    0 -0.00000000000E+00 -0.00000000000E+00 -0.45593999997E+02  0.45594000000E+02  0.51100000000E-03 0. -1.
    9900012    2    1    2    0    0 -0.42981933370E+02  0.23010189845E+01 -0.55571638146E+01  0.47787270119E+02  0.19999995778E+02 0.  0.
        -12    1    1    2    0    0  0.42981933370E+02 -0.23010189845E+01  0.55571638146E+01  0.43400729881E+02  0.00000000000E+00 0.  1.
         11    1    3    3    0    0 -0.88557415774E+01  0.21673528677E+01  0.51562006638E+01  0.10474157860E+02  0.51100000000E-03 0.  1.
        -11    1    3    3    0    0 -0.88268896263E+01  0.30739323419E+01 -0.67677165555E+01  0.11539715254E+02  0.51100000000E-03 0. -1.
         12    1    3    3    0    0 -0.25299302166E+02 -0.29402662250E+01 -0.39456479229E+01  0.25773397004E+02  0.00000000000E+00 0. -1.
</event>
<event>
 7    1  0.2530788E-009  0.4778727E+02  0.7816164E-02  0.1312668E+00
        -11   -1    0    0    0    0  0.00000000000E+00  0.00000000000E+00  0.45593999997E+02  0.45594000000E+02  0.51100000000E-03 0.  1.
         11   -1    0    0    0    0 -0.00000000000E+00 -0.00000000000E+00 -0.45593999997E+02  0.45594000000E+02  0.51100000000E-03 0. -1.
    9900012    2    1    2    0    0 -0.28658725231E+00  0.27203311432E+02 -0.33815992338E+02  0.47787267023E+02  0.19999981666E+02 0.  0.
        -12    1    1    2    0    0  0.28658725231E+00 -0.27203311432E+02  0.33815992338E+02  0.43400732977E+02  0.00000000000E+00 0.  1.
         11    1    3    3    0    0  0.64753838324E+01  0.12065032115E+02 -0.19749643721E+02  0.24032145619E+02  0.51100000000E-03 0. -1.
        -11    1    3    3    0    0 -0.68397021173E+01  0.38577443138E+01 -0.61382567591E+01  0.99670413135E+01  0.51100000000E-03 0.  1.
        -12    1    3    3    0    0  0.77731032590E-01  0.11280535003E+02 -0.79280918581E+01  0.13788080090E+02  0.00000000000E+00 0.  1.
</event>
<event>
 7    1  0.2530788E-009  0.4778727E+02  0.7816164E-02  0.1312668E+00
        -11   -1    0    0    0    0  0.00000000000E+00  0.00000000000E+00  0.45593999997E+02  0.45594000000E+02  0.51100000000E-03 0.  1.
         11   -1    0    0    0    0 -0.00000000000E+00 -0.00000000000E+00 -0.45593999997E+02  0.45594000000E+02  0.51100000000E-03 0. -1.
    9900012    2    1    2    0    0 -0.39796432675E+02 -0.14312271334E+02 -0.97481288487E+01  0.47787272121E+02  0.20000004909E+02 0.  0.
        -12    1    1    2    0    0  0.39796432675E+02  0.14312271334E+02  0.97481288487E+01  0.43400727879E+02  0.00000000000E+00 0.  1.
         11    1    3    3    0    0 -0.93707062212E+01  0.36803268753E+01 -0.38474254306E+00  0.10074868142E+02  0.51100000000E-03 0. -1.
        -11    1    3    3    0    0  0.23440540967E+00  0.47561821363E+00  0.33727907966E+00  0.62842343998E+00  0.51100000000E-03 0.  1.
         12    1    3    3    0    0 -0.30660131863E+02 -0.18468216422E+02 -0.97006653853E+01  0.37083980539E+02  0.00000000000E+00 0. -1.
</event>
<event>
 7    1  0.2530788E-009  0.4778727E+02  0.7816164E-02  0.1312668E+00
        -11   -1    0    0    0    0  0.00000000000E+00  0.00000000000E+00  0.45593999997E+02  0.45594000000E+02  0.51100000000E-03 0.  1.
         11   -1    0    0    0    0 -0.00000000000E+00 -0.00000000000E+00 -0.45593999997E+02  0.45594000000E+02  0.51100000000E-03 0. -1.
    9900012    2    1    2    0    0 -0.66584239414E+01  0.33134591527E+02 -0.27228433027E+02  0.47787270396E+02  0.19999997044E+02 0.  0.
        -12    1    1    2    0    0  0.66584239414E+01 -0.33134591527E+02  0.27228433027E+02  0.43400729604E+02  0.00000000000E+00 0.  1.
         11    1    3    3    0    0  0.56919186896E+01  0.69975499083E+01 -0.80092878653E+01  0.12062849392E+02  0.51100000000E-03 0. -1.
        -11    1    3    3    0    0 -0.77361025300E+01  0.17225632566E+02 -0.17084625051E+02  0.25464762183E+02  0.51100000000E-03 0.  1.
        -12    1    3    3    0    0 -0.46142401010E+01  0.89114090527E+01 -0.21345201109E+01  0.10259658821E+02  0.00000000000E+00 0.  1.
</event>
<event>
 7    1  0.2530788E-009  0.4778727E+02  0.7816164E-02  0.1312668E+00
        -11   -1    0    0    0    0  0.00000000000E+00  0.00000000000E+00  0.45593999997E+02  0.45594000000E+02  0.51100000000E-03 0.  1.
         11   -1    0    0    0    0 -0.00000000000E+00 -0.00000000000E+00 -0.45593999997E+02  0.45594000000E+02  0.51100000000E-03 0. -1.
    9900012    2    1    2    0    0  0.14593386267E+02 -0.37382501491E+02 -0.16528904538E+02  0.47787273903E+02  0.20000013034E+02 0.  0.
        -12    1    1    2    0    0 -0.14593386267E+02  0.37382501491E+02  0.16528904538E+02  0.43400726097E+02  0.00000000000E+00 0.  1.
         11    1    3    3    0    0 -0.11168946955E+01 -0.13169510672E+02 -0.10517161092E+02  0.16890652527E+02  0.51100000000E-03 0. -1.
        -11    1    3    3    0    0  0.13292778446E+00 -0.43860117253E+01  0.14162585388E+01  0.46109171713E+01  0.51100000000E-03 0.  1.
         12    1    3    3    0    0  0.15577353178E+02 -0.19826979094E+02 -0.74280019848E+01  0.26285704205E+02  0.00000000000E+00 0. -1.
</event>
<event>
 7    1  0.2530788E-009  0.4778727E+02  0.7816164E-02  0.1312668E+00
        -11   -1    0    0    0    0  0.00000000000E+00  0.00000000000E+00  0.45593999997E+02  0.45594000000E+02  0.51100000000E-03 0.  1.
         11   -1    0    0    0    0 -0.00000000000E+00 -0.00000000000E+00 -0.45593999997E+02  0.45594000000E+02  0.51100000000E-03 0. -1.
    9900012    2    1    2    0    0 -0.62924992547E+01  0.55300172417E+01 -0.42584582563E+02  0.47787270633E+02  0.19999998124E+02 0.  0.
        -12    1    1    2    0    0  0.62924992547E+01 -0.55300172417E+01  0.42584582563E+02  0.43400729367E+02  0.00000000000E+00 0.  1.
         11    1    3    3    0    0 -0.74179801031E+01  0.29537214486E+01 -0.18905317892E+02  0.20522230485E+02  0.51100000000E-03 0. -1.
        -11    1    3    3    0    0  0.31845427924E+01  0.54648069852E+01 -0.45048233574E+01  0.77652341834E+01  0.51100000000E-03 0.  1.
        -12    1    3    3    0    0 -0.20590619440E+01 -0.28885111920E+01 -0.19174441313E+02  0.19499805965E+02  0.00000000000E+00 0.  1.
</event>
<event>
 7    1  0.2530788E-009  0.4778727E+02  0.7816164E-02  0.1312668E+00
        -11   -1    0    0    0    0  0.00000000000E+00  0.00000000000E+00  0.45593999997E+02  0.45594000000E+02  0.51100000000E-03 0. -1.
         11   -1    0    0    0    0 -0.00000000000E+00 -0.00000000000E+00 -0.45593999997E+02  0.45594000000E+02  0.51100000000E-03 0.  1.
    9900012    2    1    2    0    0 -0.16725608676E+02  0.17614381826E+02  0.35966807094E+02  0.47787266766E+02  0.19999980492E+02 0.  0.
        -12    1    1    2    0    0  0.16725608676E+02 -0.17614381826E+02 -0.35966807094E+02  0.43400733234E+02  0.00000000000E+00 0.  1.
         11    1    3    3    0    0  0.23369033841E+00 -0.17891110336E+00  0.64997595646E+00  0.71350498405E+00  0.51100000000E-03 0. -1.
        -11    1    3    3    0    0 -0.14856298635E+02  0.13430780996E+02  0.12190452099E+02  0.23445737565E+02  0.51100000000E-03 0.  1.
        -12    1    3    3    0    0 -0.21030003795E+01  0.43625119332E+01  0.23126379039E+02  0.23628024217E+02  0.00000000000E+00 0.  1.
</event>
<event>
 7    1  0.2530788E-009  0.4778724E+02  0.7816164E-02  0.1312668E+00
        -11   -1    0    0    0    0  0.00000000000E+00  0.00000000000E+00  0.45593999997E+02  0.45594000000E+02  0.51100000000E-03 0.  1.
         11   -1    0    0    0    0 -0.00000000000E+00 -0.00000000000E+00 -0.45593999997E+02  0.45594000000E+02  0.51100000000E-03 0. -1.
    9900012    2    1    2    0    0  0.11199253496E+02  0.13860455899E+02 -0.39573860050E+02  0.47787240608E+02  0.19999861227E+02 0.  0.
        -12    1    1    2    0    0 -0.11199253496E+02 -0.13860455899E+02  0.39573860050E+02  0.43400759392E+02  0.00000000000E+00 0.  1.
         11    1    3    3    0    0  0.65735087421E+00 -0.21798469504E+01 -0.90943633286E+01  0.93750353340E+01  0.51100000000E-03 0. -1.
        -11    1    3    3    0    0  0.87094208910E+01  0.15146724520E+02 -0.15690606676E+02  0.23483449790E+02  0.51100000000E-03 0.  1.
        -12    1    3    3    0    0  0.18324817305E+01  0.89357832942E+00 -0.14788890045E+02  0.14928755484E+02  0.00000000000E+00 0.  1.
</event>
<event>
 7    1  0.2530788E-009  0.4778727E+02  0.7816164E-02  0.1312668E+00
        -11   -1    0    0    0    0  0.00000000000E+00  0.00000000000E+00  0.45593999997E+02  0.45594000000E+02  0.51100000000E-03 0.  1.
         11   -1    0    0    0    0 -0.00000000000E+00 -0.00000000000E+00 -0.45593999997E+02  0.45594000000E+02  0.51100000000E-03 0. -1.
    9900012    2    1    2    0    0  0.35540913957E+02 -0.17433056590E+02 -0.17792002604E+02  0.47787269780E+02  0.19999994235E+02 0.  0.
        -12    1    1    2    0    0 -0.35540913957E+02  0.17433056590E+02  0.17792002604E+02  0.43400730220E+02  0.00000000000E+00 0.  1.
         11    1    3    3    0    0  0.21066445824E+02 -0.10316518780E+02 -0.33799631322E+01  0.23699152947E+02  0.51100000000E-03 0. -1.
        -11    1    3    3    0    0  0.14071650186E+02 -0.90002544005E+01 -0.14556455951E+02  0.22156406034E+02  0.51100000000E-03 0.  1.
        -12    1    3    3    0    0  0.40281794705E+00  0.18837165902E+01  0.14441647876E+00  0.19317107987E+01  0.00000000000E+00 0.  1.
</event>
<event>
 7    1  0.2530788E-009  0.4778727E+02  0.7816164E-02  0.1312668E+00
        -11   -1    0    0    0    0  0.00000000000E+00  0.00000000000E+00  0.45593999997E+02  0.45594000000E+02  0.51100000000E-03 0. -1.
         11   -1    0    0    0    0 -0.00000000000E+00 -0.00000000000E+00 -0.45593999997E+02  0.45594000000E+02  0.51100000000E-03 0.  1.
    9900012    2    1    2    0    0  0.34229302922E+02  0.18855138649E+02 -0.18880193615E+02  0.47787272553E+02  0.20000006877E+02 0.  0.
        -12    1    1    2    0    0 -0.34229302922E+02 -0.18855138649E+02  0.18880193615E+02  0.43400727447E+02  0.00000000000E+00 0.  1.
         11    1    3    3    0    0  0.33007057307E+02  0.10650382428E+02 -0.14293119733E+02  0.37512527906E+02  0.51100000000E-03 0. -1.
        -11    1    3    3    0    0 -0.82054942552E+00  0.13669732405E+01 -0.22653839851E+01  0.27701772617E+01  0.51100000000E-03 0.  1.
         12    1    3    3    0    0  0.20427950406E+01  0.68377829801E+01 -0.23216898975E+01  0.75045673854E+01  0.00000000000E+00 0. -1.
</event>
<event>
 7    1  0.2530788E-009  0.4778727E+02  0.7816164E-02  0.1312668E+00
        -11   -1    0    0    0    0  0.00000000000E+00  0.00000000000E+00  0.45593999997E+02  0.45594000000E+02  0.51100000000E-03 0.  1.
         11   -1    0    0    0    0 -0.00000000000E+00 -0.00000000000E+00 -0.45593999997E+02  0.45594000000E+02  0.51100000000E-03 0. -1.
    9900012    2    1    2    0    0 -0.29822446508E+02 -0.34459948912E+01 -0.31342782428E+02  0.47787271816E+02  0.20000003519E+02 0.  0.
        -12    1    1    2    0    0  0.29822446508E+02  0.34459948912E+01  0.31342782428E+02  0.43400728184E+02  0.00000000000E+00 0.  1.
         11    1    3    3    0    0 -0.86525957286E+01 -0.22803821127E+01 -0.16810364097E+01  0.91045834114E+01  0.51100000000E-03 0. -1.
        -11    1    3    3    0    0 -0.73625730594E+01 -0.26272133042E+01 -0.20776821680E+02  0.22198784904E+02  0.51100000000E-03 0.  1.
        -12    1    3    3    0    0 -0.13807277720E+02  0.14616005258E+01 -0.88849243382E+01  0.16483903501E+02  0.00000000000E+00 0.  1.
</event>
<event>
 7    1  0.2530788E-009  0.4778726E+02  0.7816164E-02  0.1312668E+00
        -11   -1    0    0    0    0  0.00000000000E+00  0.00000000000E+00  0.45593999997E+02  0.45594000000E+02  0.51100000000E-03 0.  1.
         11   -1    0    0    0    0 -0.00000000000E+00 -0.00000000000E+00 -0.45593999997E+02  0.45594000000E+02  0.51100000000E-03 0. -1.
    9900012    2    1    2    0    0 -0.55564945408E-01 -0.32730293291E+02 -0.28501738973E+02  0.47787259098E+02  0.19999945530E+02 0.  0.
        -12    1    1    2    0    0  0.55564945408E-01  0.32730293291E+02  0.28501738973E+02  0.43400740902E+02  0.00000000000E+00 0.  1.
         11    1    3    3    0    0 -0.36093973785E+01 -0.16278766188E+02 -0.35426803357E+01  0.17046306411E+02  0.51100000000E-03 0. -1.
        -11    1    3    3    0    0  0.23380709755E+01 -0.61727927997E+01 -0.14951266416E+02  0.16343509860E+02  0.51100000000E-03 0.  1.
        -12    1    3    3    0    0  0.12157614576E+01 -0.10278734304E+02 -0.10007792221E+02  0.14397442827E+02  0.00000000000E+00 0.  1.
</event>
<event>
 7    1  0.2530788E-009  0.4778727E+02  0.7816164E-02  0.1312668E+00
        -11   -1    0    0    0    0  0.00000000000E+00  0.00000000000E+00  0.45593999997E+02  0.45594000000E+02  0.51100000000E-03 0.  1.
         11   -1    0    0    0    0 -0.00000000000E+00 -0.00000000000E+00 -0.45593999997E+02  0.45594000000E+02  0.51100000000E-03 0. -1.
    9900012    2    1    2    0    0  0.20385840840E+02 -0.49118482782E+01 -0.37998873531E+02  0.47787272473E+02  0.20000006511E+02 0.  0.
        -12    1    1    2    0    0 -0.20385840840E+02  0.49118482782E+01  0.37998873531E+02  0.43400727527E+02  0.00000000000E+00 0.  1.
         11    1    3    3    0    0  0.39283099126E+01 -0.32761388164E+01 -0.23473717436E+02  0.24024573146E+02  0.51100000000E-03 0.  1.
        -11    1    3    3    0    0  0.16774628469E+02  0.21044181098E+00 -0.13905135034E+02  0.21789566921E+02  0.51100000000E-03 0. -1.
        -12    1    3    3    0    0 -0.31709754172E+00 -0.18461512729E+01 -0.62002106096E+00  0.19731324054E+01  0.00000000000E+00 0.  1.
</event>
<event>
 7    1  0.2530788E-009  0.4778727E+02  0.7816164E-02  0.1312668E+00
        -11   -1    0    0    0    0  0.00000000000E+00  0.00000000000E+00  0.45593999997E+02  0.45594000000E+02  0.51100000000E-03 0.  1.
         11   -1    0    0    0    0 -0.00000000000E+00 -0.00000000000E+00 -0.45593999997E+02  0.45594000000E+02  0.51100000000E-03 0. -1.
    9900012    2    1    2    0    0  0.36110921657E+02 -0.10257443828E+02 -0.21780940929E+02  0.47787271843E+02  0.20000003642E+02 0.  0.
        -12    1    1    2    0    0 -0.36110921657E+02  0.10257443828E+02  0.21780940929E+02  0.43400728157E+02  0.00000000000E+00 0.  1.
         11    1    3    3    0    0  0.13485031848E+02  0.31076957654E+00 -0.79117569599E+00  0.13511795622E+02  0.51100000000E-03 0. -1.
        -11    1    3    3    0    0  0.10817142640E+02 -0.10759310559E+02 -0.11033715937E+02  0.18828601282E+02  0.51100000000E-03 0.  1.
         12    1    3    3    0    0  0.11808747168E+02  0.19109715395E+00 -0.99560492968E+01  0.15446874940E+02  0.00000000000E+00 0. -1.
</event>
<event>
 7    1  0.2530788E-009  0.4778727E+02  0.7816164E-02  0.1312668E+00
        -11   -1    0    0    0    0  0.00000000000E+00  0.00000000000E+00  0.45593999997E+02  0.45594000000E+02  0.51100000000E-03 0. -1.
         11   -1    0    0    0    0 -0.00000000000E+00 -0.00000000000E+00 -0.45593999997E+02  0.45594000000E+02  0.51100000000E-03 0.  1.
    9900012    2    1    2    0    0 -0.10426080733E+02 -0.40147115632E+02  0.12772207133E+02  0.47787270420E+02  0.19999997153E+02 0.  0.
        -12    1    1    2    0    0  0.10426080733E+02  0.40147115632E+02 -0.12772207133E+02  0.43400729580E+02  0.00000000000E+00 0.  1.
         11    1    3    3    0    0 -0.14607276943E+02 -0.27920950932E+02  0.93723755617E+01  0.32875423412E+02  0.51100000000E-03 0. -1.
        -11    1    3    3    0    0  0.54003783472E+01 -0.60166697397E+01  0.27977361932E+01  0.85552164857E+01  0.51100000000E-03 0.  1.
         12    1    3    3    0    0 -0.12191821375E+01 -0.62094949604E+01  0.60209537860E+00  0.63566305219E+01  0.00000000000E+00 0. -1.
</event>
<event>
 7    1  0.2530788E-009  0.4778727E+02  0.7816164E-02  0.1312668E+00
        -11   -1    0    0    0    0  0.00000000000E+00  0.00000000000E+00  0.45593999997E+02  0.45594000000E+02  0.51100000000E-03 0. -1.
         11   -1    0    0    0    0 -0.00000000000E+00 -0.00000000000E+00 -0.45593999997E+02  0.45594000000E+02  0.51100000000E-03 0.  1.
    9900012    2    1    2    0    0 -0.38162740274E+02 -0.88080698285E+01  0.18698848611E+02  0.47787265229E+02  0.19999973485E+02 0.  0.
        -12    1    1    2    0    0  0.38162740274E+02  0.88080698285E+01 -0.18698848611E+02  0.43400734771E+02  0.00000000000E+00 0.  1.
         11    1    3    3    0    0 -0.73475705433E+01 -0.76891254198E+01  0.76879016517E+01  0.13123005551E+02  0.51100000000E-03 0. -1.
        -11    1    3    3    0    0 -0.35904918633E+01 -0.31019186136E+01 -0.98805380696E+00  0.48466257842E+01  0.51100000000E-03 0.  1.
         12    1    3    3    0    0 -0.27224677867E+02  0.19829742049E+01  0.11999000766E+02  0.29817633894E+02  0.00000000000E+00 0. -1.
</event>
<event>
 7    1  0.2530788E-009  0.4778727E+02  0.7816164E-02  0.1312668E+00
        -11   -1    0    0    0    0  0.00000000000E+00  0.00000000000E+00  0.45593999997E+02  0.45594000000E+02  0.51100000000E-03 0.  1.
         11   -1    0    0    0    0 -0.00000000000E+00 -0.00000000000E+00 -0.45593999997E+02  0.45594000000E+02  0.51100000000E-03 0. -1.
    9900012    2    1    2    0    0 -0.17800705463E+02 -0.86384941967E+01 -0.38628158033E+02  0.47787270858E+02  0.19999999152E+02 0.  0.
        -12    1    1    2    0    0  0.17800705463E+02  0.86384941967E+01  0.38628158033E+02  0.43400729142E+02  0.00000000000E+00 0.  1.
         11    1    3    3    0    0  0.17439957828E+01 -0.93440338256E+00  0.10052644513E+01  0.22192764248E+01  0.51100000000E-03 0.  1.
        -11    1    3    3    0    0 -0.95601421879E+01  0.27173515741E+00 -0.14460429697E+02  0.17337075473E+02  0.51100000000E-03 0. -1.
         12    1    3    3    0    0 -0.99845590580E+01 -0.79758259715E+01 -0.25172992787E+02  0.28230918961E+02  0.00000000000E+00 0. -1.
</event>
<event>
 7    1  0.2530788E-009  0.4778727E+02  0.7816164E-02  0.1312668E+00
        -11   -1    0    0    0    0  0.00000000000E+00  0.00000000000E+00  0.45593999997E+02  0.45594000000E+02  0.51100000000E-03 0.  1.
         11   -1    0    0    0    0 -0.00000000000E+00 -0.00000000000E+00 -0.45593999997E+02  0.45594000000E+02  0.51100000000E-03 0. -1.
    9900012    2    1    2    0    0  0.29596227374E+02  0.30219915743E+02 -0.97181881494E+01  0.47787272319E+02  0.20000005813E+02 0.  0.
        -12    1    1    2    0    0 -0.29596227374E+02 -0.30219915743E+02  0.97181881494E+01  0.43400727681E+02  0.00000000000E+00 0.  1.
         11    1    3    3    0    0  0.64091406498E+01 -0.17718245776E+01 -0.22037582080E+01  0.70052121098E+01  0.51100000000E-03 0. -1.
        -11    1    3    3    0    0  0.21587810048E+02  0.25688133792E+02 -0.57511190848E+01  0.34043929435E+02  0.51100000000E-03 0.  1.
         12    1    3    3    0    0  0.15992766760E+01  0.63036065289E+01 -0.17633108566E+01  0.67381307745E+01  0.00000000000E+00 0. -1.
</event>
<event>
 7    1  0.2530788E-009  0.4778726E+02  0.7816164E-02  0.1312668E+00
        -11   -1    0    0    0    0  0.00000000000E+00  0.00000000000E+00  0.45593999997E+02  0.45594000000E+02  0.51100000000E-03 0.  1.
         11   -1    0    0    0    0 -0.00000000000E+00 -0.00000000000E+00 -0.45593999997E+02  0.45594000000E+02  0.51100000000E-03 0. -1.
    9900012    2    1    2    0    0 -0.34671833416E+02  0.23781619923E+02  0.10766739664E+02  0.47787260817E+02  0.19999953370E+02 0.  0.
        -12    1    1    2    0    0  0.34671833416E+02 -0.23781619923E+02 -0.10766739664E+02  0.43400739183E+02  0.00000000000E+00 0.  1.
         11    1    3    3    0    0 -0.50976395939E+01  0.92644101252E+01  0.61965553833E+01  0.12256121869E+02  0.51100000000E-03 0. -1.
        -11    1    3    3    0    0 -0.11037509580E+02 -0.62249427573E+00 -0.49998338478E+00  0.11066349918E+02  0.51100000000E-03 0.  1.
         12    1    3    3    0    0 -0.18536684242E+02  0.15139704074E+02  0.50701676656E+01  0.24464789030E+02  0.00000000000E+00 0. -1.
</event>
<event>
 7    1  0.2530788E-009  0.4778727E+02  0.7816164E-02  0.1312668E+00
        -11   -1    0    0    0    0  0.00000000000E+00  0.00000000000E+00  0.45593999997E+02  0.45594000000E+02  0.51100000000E-03 0.  1.
         11   -1    0    0    0    0 -0.00000000000E+00 -0.00000000000E+00 -0.45593999997E+02  0.45594000000E+02  0.51100000000E-03 0. -1.
    9900012    2    1    2    0    0  0.35809839669E+02  0.45101979080E+01 -0.24102626498E+02  0.47787272974E+02  0.20000008797E+02 0.  0.
        -12    1    1    2    0    0 -0.35809839669E+02 -0.45101979080E+01  0.24102626498E+02  0.43400727026E+02  0.00000000000E+00 0.  1.
         11    1    3    3    0    0  0.10269559250E+02  0.87905744082E+01 -0.10484224352E+02  0.17107220877E+02  0.51100000000E-03 0. -1.
        -11    1    3    3    0    0  0.42764140069E+01 -0.27142936440E+01  0.52787547842E+00  0.50925199583E+01  0.51100000000E-03 0.  1.
         12    1    3    3    0    0  0.21263866412E+02 -0.15660828563E+01 -0.14146277624E+02  0.25587532138E+02  0.00000000000E+00 0. -1.
</event>
<event>
 7    1  0.2530788E-009  0.4778727E+02  0.7816164E-02  0.1312668E+00
        -11   -1    0    0    0    0  0.00000000000E+00  0.00000000000E+00  0.45593999997E+02  0.45594000000E+02  0.51100000000E-03 0.  1.
         11   -1    0    0    0    0 -0.00000000000E+00 -0.00000000000E+00 -0.45593999997E+02  0.45594000000E+02  0.51100000000E-03 0. -1.
    9900012    2    1    2    0    0  0.85065090388E+01 -0.40576903636E+02 -0.12836584165E+02  0.47787266162E+02  0.19999977738E+02 0.  0.
        -12    1    1    2    0    0 -0.85065090388E+01  0.40576903636E+02  0.12836584165E+02  0.43400733838E+02  0.00000000000E+00 0.  1.
         11    1    3    3    0    0  0.52033132460E+01 -0.10449457430E+02 -0.27661592219E+01  0.11996552272E+02  0.51100000000E-03 0. -1.
        -11    1    3    3    0    0 -0.87802884893E+00 -0.28251872318E+02 -0.45718456684E+01  0.28632865683E+02  0.51100000000E-03 0.  1.
        -12    1    3    3    0    0  0.41812246417E+01 -0.18755738875E+01 -0.54985792745E+01  0.71578482067E+01  0.00000000000E+00 0.  1.
</event>
<event>
 7    1  0.2530788E-009  0.4778728E+02  0.7816164E-02  0.1312668E+00
        -11   -1    0    0    0    0  0.00000000000E+00  0.00000000000E+00  0.45593999997E+02  0.45594000000E+02  0.51100000000E-03 0.  1.
         11   -1    0    0    0    0 -0.00000000000E+00 -0.00000000000E+00 -0.45593999997E+02  0.45594000000E+02  0.51100000000E-03 0. -1.
    9900012    2    1    2    0    0  0.19703168308E+02 -0.23722779879E+02 -0.30539118968E+02  0.47787275192E+02  0.20000018908E+02 0.  0.
        -12    1    1    2    0    0 -0.19703168308E+02  0.23722779879E+02  0.30539118968E+02  0.43400724808E+02  0.00000000000E+00 0.  1.
         11    1    3    3    0    0  0.19307276196E+02 -0.23846581645E+02 -0.28270407789E+02  0.41721053763E+02  0.51100000000E-03 0. -1.
        -11    1    3    3    0    0  0.50764433464E+00  0.69082454279E+00  0.17804138254E+01  0.19760604673E+01  0.51100000000E-03 0.  1.
         12    1    3    3    0    0 -0.11175222256E+00 -0.56702277652E+00 -0.40491250047E+01  0.40901609616E+01  0.00000000000E+00 0. -1.
</event>
<event>
 7    1  0.2530788E-009  0.4778727E+02  0.7816164E-02  0.1312668E+00
        -11   -1    0    0    0    0  0.00000000000E+00  0.00000000000E+00  0.45593999997E+02  0.45594000000E+02  0.51100000000E-03 0. -1.
         11   -1    0    0    0    0 -0.00000000000E+00 -0.00000000000E+00 -0.45593999997E+02  0.45594000000E+02  0.51100000000E-03 0.  1.
    9900012    2    1    2    0    0 -0.11294997754E+02  0.27163582377E+02  0.31909030344E+02  0.47787269599E+02  0.19999993411E+02 0.  0.
        -12    1    1    2    0    0  0.11294997754E+02 -0.27163582377E+02 -0.31909030344E+02  0.43400730401E+02  0.00000000000E+00 0.  1.
         11    1    3    3    0    0 -0.74986644767E+01  0.16410883404E+02  0.21531068295E+02  0.28091528354E+02  0.51100000000E-03 0. -1.
        -11    1    3    3    0    0  0.23100190238E+01 -0.11245850585E+01  0.43304788341E+01  0.50352682786E+01  0.51100000000E-03 0.  1.
        -12    1    3    3    0    0 -0.61063523012E+01  0.11877284032E+02  0.60474832145E+01  0.14660472967E+02  0.00000000000E+00 0.  1.
</event>
<event>
 7    1  0.2530788E-009  0.4778728E+02  0.7816164E-02  0.1312668E+00
        -11   -1    0    0    0    0  0.00000000000E+00  0.00000000000E+00  0.45593999997E+02  0.45594000000E+02  0.51100000000E-03 0.  1.
         11   -1    0    0    0    0 -0.00000000000E+00 -0.00000000000E+00 -0.45593999997E+02  0.45594000000E+02  0.51100000000E-03 0. -1.
    9900012    2    1    2    0    0  0.23355004992E+02  0.50640993022E+01 -0.36228735613E+02  0.47787278301E+02  0.20000033085E+02 0.  0.
        -12    1    1    2    0    0 -0.23355004992E+02 -0.50640993022E+01  0.36228735613E+02  0.43400721699E+02  0.00000000000E+00 0.  1.
         11    1    3    3    0    0  0.36127387904E+01 -0.56177926054E+01 -0.61022190492E+01  0.90470190069E+01  0.51100000000E-03 0. -1.
        -11    1    3    3    0    0  0.42417531361E+01 -0.86850363615E+00 -0.24304231464E+01  0.49652517726E+01  0.51100000000E-03 0.  1.
         12    1    3    3    0    0  0.15500513065E+02  0.11550395544E+02 -0.27696093417E+02  0.33775007521E+02  0.00000000000E+00 0. -1.
</event>
<event>
 7    1  0.2530788E-009  0.4778726E+02  0.7816164E-02  0.1312668E+00
        -11   -1    0    0    0    0  0.00000000000E+00  0.00000000000E+00  0.45593999997E+02  0.45594000000E+02  0.51100000000E-03 0. -1.
         11   -1    0    0    0    0 -0.00000000000E+00 -0.00000000000E+00 -0.45593999997E+02  0.45594000000E+02  0.51100000000E-03 0.  1.
    9900012    2    1    2    0    0 -0.14581396342E+02 -0.27474412402E+02  0.30268190777E+02  0.47787264649E+02  0.19999970841E+02 0.  0.
        -12    1    1    2    0    0  0.14581396342E+02  0.27474412402E+02 -0.30268190777E+02  0.43400735351E+02  0.00000000000E+00 0.  1.
         11    1    3    3    0    0 -0.13592885545E+01 -0.10236795917E+02  0.62864313806E+01  0.12089618513E+02  0.51100000000E-03 0. -1.
        -11    1    3    3    0    0 -0.74590079218E+01 -0.62225548116E+01  0.12569826063E+01  0.97947431357E+01  0.51100000000E-03 0.  1.
        -12    1    3    3    0    0 -0.57630998654E+01 -0.11015061673E+02  0.22724776790E+02  0.25902903001E+02  0.00000000000E+00 0.  1.
</event>
<event>
 7    1  0.2530788E-009  0.4778727E+02  0.7816164E-02  0.1312668E+00
        -11   -1    0    0    0    0  0.00000000000E+00  0.00000000000E+00  0.45593999997E+02  0.45594000000E+02  0.51100000000E-03 0.  1.
         11   -1    0    0    0    0 -0.00000000000E+00 -0.00000000000E+00 -0.45593999997E+02  0.45594000000E+02  0.51100000000E-03 0. -1.
    9900012    2    1    2    0    0 -0.35494589320E+02  0.23786570850E+02 -0.76129057291E+01  0.47787272386E+02  0.20000006116E+02 0.  0.
        -12    1    1    2    0    0  0.35494589320E+02 -0.23786570850E+02  0.76129057291E+01  0.43400727614E+02  0.00000000000E+00 0.  1.
         11    1    3    3    0    0 -0.38350786556E+01 -0.31921606287E+00 -0.42832083865E-01  0.38485792233E+01  0.51100000000E-03 0. -1.
        -11    1    3    3    0    0 -0.27004763530E+02  0.13822016047E+02 -0.10793260903E+02  0.32199376734E+02  0.51100000000E-03 0.  1.
        -12    1    3    3    0    0 -0.46547471346E+01  0.10283770866E+02  0.32231872575E+01  0.11739316428E+02  0.00000000000E+00 0.  1.
</event>
<event>
 7    1  0.2530788E-009  0.4778727E+02  0.7816164E-02  0.1312668E+00
        -11   -1    0    0    0    0  0.00000000000E+00  0.00000000000E+00  0.45593999997E+02  0.45594000000E+02  0.51100000000E-03 0. -1.
         11   -1    0    0    0    0 -0.00000000000E+00 -0.00000000000E+00 -0.45593999997E+02  0.45594000000E+02  0.51100000000E-03 0.  1.
    9900012    2    1    2    0    0 -0.11583453860E+02 -0.88157334911E+00  0.41817097229E+02  0.47787271947E+02  0.20000004113E+02 0.  0.
        -12    1    1    2    0    0  0.11583453860E+02  0.88157334911E+00 -0.41817097229E+02  0.43400728053E+02  0.00000000000E+00 0.  1.
         11    1    3    3    0    0 -0.30492874555E+01  0.43148172093E+00 -0.96097777202E+00  0.32261136064E+01  0.51100000000E-03 0. -1.
        -11    1    3    3    0    0  0.42015445557E+00  0.23138218666E+01  0.14222133508E+02  0.14415248287E+02  0.51100000000E-03 0.  1.
         12    1    3    3    0    0 -0.89543208604E+01 -0.36268769367E+01  0.28555941493E+02  0.30145910053E+02  0.00000000000E+00 0. -1.
</event>
<event>
 7    1  0.2530788E-009  0.4778727E+02  0.7816164E-02  0.1312668E+00
        -11   -1    0    0    0    0  0.00000000000E+00  0.00000000000E+00  0.45593999997E+02  0.45594000000E+02  0.51100000000E-03 0.  1.
         11   -1    0    0    0    0 -0.00000000000E+00 -0.00000000000E+00 -0.45593999997E+02  0.45594000000E+02  0.51100000000E-03 0. -1.
    9900012    2    1    2    0    0 -0.26979152826E+02 -0.24330823073E+02 -0.23743622014E+02  0.47787271608E+02  0.20000002570E+02 0.  0.
        -12    1    1    2    0    0  0.26979152826E+02  0.24330823073E+02  0.23743622014E+02  0.43400728392E+02  0.00000000000E+00 0.  1.
         11    1    3    3    0    0 -0.11648596808E+02 -0.27367140184E+01 -0.21629666213E+01  0.12159680756E+02  0.51100000000E-03 0. -1.
        -11    1    3    3    0    0 -0.74167391927E+01 -0.13704086904E+02 -0.65623957629E+01  0.16907840091E+02  0.51100000000E-03 0.  1.
         12    1    3    3    0    0 -0.79138168252E+01 -0.78900221503E+01 -0.15018259630E+02  0.18719750762E+02  0.00000000000E+00 0. -1.
</event>
<event>
 7    1  0.2530788E-009  0.4778728E+02  0.7816164E-02  0.1312668E+00
        -11   -1    0    0    0    0  0.00000000000E+00  0.00000000000E+00  0.45593999997E+02  0.45594000000E+02  0.51100000000E-03 0.  1.
         11   -1    0    0    0    0 -0.00000000000E+00 -0.00000000000E+00 -0.45593999997E+02  0.45594000000E+02  0.51100000000E-03 0. -1.
    9900012    2    1    2    0    0  0.90690432585E+01 -0.42254049206E+02  0.39963324948E+01  0.47787275429E+02  0.20000019989E+02 0.  0.
        -12    1    1    2    0    0 -0.90690432585E+01  0.42254049206E+02 -0.39963324948E+01  0.43400724571E+02  0.00000000000E+00 0.  1.
         11    1    3    3    0    0  0.36515562212E+01 -0.29934097177E+02 -0.50063321881E+01  0.30568732373E+02  0.51100000000E-03 0. -1.
        -11    1    3    3    0    0  0.72627530455E+00 -0.21227714282E+01  0.46808131245E+01  0.51907269358E+01  0.51100000000E-03 0.  1.
         12    1    3    3    0    0  0.46912117328E+01 -0.10197180601E+02  0.43218515585E+01  0.12027816120E+02  0.00000000000E+00 0. -1.
</event>
<event>
 7    1  0.2530788E-009  0.4778727E+02  0.7816164E-02  0.1312668E+00
        -11   -1    0    0    0    0  0.00000000000E+00  0.00000000000E+00  0.45593999997E+02  0.45594000000E+02  0.51100000000E-03 0. -1.
         11   -1    0    0    0    0 -0.00000000000E+00 -0.00000000000E+00 -0.45593999997E+02  0.45594000000E+02  0.51100000000E-03 0.  1.
    9900012    2    1    2    0    0 -0.11263077387E+02  0.26612952086E+02  0.32380812242E+02  0.47787272674E+02  0.20000007432E+02 0.  0.
        -12    1    1    2    0    0  0.11263077387E+02 -0.26612952086E+02 -0.32380812242E+02  0.43400727326E+02  0.00000000000E+00 0.  1.
         11    1    3    3    0    0  0.33260097164E+01  0.49257352140E+01  0.40917583164E+01  0.72157947873E+01  0.51100000000E-03 0. -1.
        -11    1    3    3    0    0 -0.15239726586E+02  0.20240836047E+02  0.20410980179E+02  0.32535347277E+02  0.51100000000E-03 0.  1.
        -12    1    3    3    0    0  0.65063948278E+00  0.14463808244E+01  0.78780737469E+01  0.80361306104E+01  0.00000000000E+00 0.  1.
</event>
<event>
 7    1  0.2530788E-009  0.4778727E+02  0.7816164E-02  0.1312668E+00
        -11   -1    0    0    0    0  0.00000000000E+00  0.00000000000E+00  0.45593999997E+02  0.45594000000E+02  0.51100000000E-03 0.  1.
         11   -1    0    0    0    0 -0.00000000000E+00 -0.00000000000E+00 -0.45593999997E+02  0.45594000000E+02  0.51100000000E-03 0. -1.
    9900012    2    1    2    0    0 -0.18912236769E+02  0.37080388301E+02  0.12288014935E+02  0.47787271813E+02  0.20000003504E+02 0.  0.
        -12    1    1    2    0    0  0.18912236769E+02 -0.37080388301E+02 -0.12288014935E+02  0.43400728187E+02  0.00000000000E+00 0.  1.
         11    1    3    3    0    0 -0.14297508669E+02  0.15979324760E+02 -0.92945323410E+00  0.21462093502E+02  0.51100000000E-03 0. -1.
        -11    1    3    3    0    0 -0.30553920397E+01  0.15675154887E+02  0.57717051350E+01  0.16981121332E+02  0.51100000000E-03 0.  1.
         12    1    3    3    0    0 -0.15593360601E+01  0.54259086533E+01  0.74457630344E+01  0.93440569790E+01  0.00000000000E+00 0. -1.
</event>
<event>
 7    1  0.2530788E-009  0.4778726E+02  0.7816164E-02  0.1312668E+00
        -11   -1    0    0    0    0  0.00000000000E+00  0.00000000000E+00  0.45593999997E+02  0.45594000000E+02  0.51100000000E-03 0. -1.
         11   -1    0    0    0    0 -0.00000000000E+00 -0.00000000000E+00 -0.45593999997E+02  0.45594000000E+02  0.51100000000E-03 0.  1.
    9900012    2    1    2    0    0  0.29486510367E+02 -0.25072315236E+02  0.19635409396E+02  0.47787255916E+02  0.19999931023E+02 0.  0.
        -12    1    1    2    0    0 -0.29486510367E+02  0.25072315236E+02 -0.19635409396E+02  0.43400744084E+02  0.00000000000E+00 0.  1.
         11    1    3    3    0    0  0.48231927015E+01 -0.10054357289E+02  0.52144630534E+01  0.12310317361E+02  0.51100000000E-03 0. -1.
        -11    1    3    3    0    0  0.24609667510E+02 -0.12369643649E+02  0.82357592865E+01  0.28748418222E+02  0.51100000000E-03 0.  1.
        -12    1    3    3    0    0  0.53650154998E-01 -0.26483142976E+01  0.61851870557E+01  0.67285203330E+01  0.00000000000E+00 0.  1.
</event>
<event>
 7    1  0.2530788E-009  0.4778728E+02  0.7816164E-02  0.1312668E+00
        -11   -1    0    0    0    0  0.00000000000E+00  0.00000000000E+00  0.45593999997E+02  0.45594000000E+02  0.51100000000E-03 0. -1.
         11   -1    0    0    0    0 -0.00000000000E+00 -0.00000000000E+00 -0.45593999997E+02  0.45594000000E+02  0.51100000000E-03 0.  1.
    9900012    2    1    2    0    0 -0.12889301893E+02  0.14750783092E+02  0.38728575803E+02  0.47787282392E+02  0.20000051740E+02 0.  0.
        -12    1    1    2    0    0  0.12889301893E+02 -0.14750783092E+02 -0.38728575803E+02  0.43400717608E+02  0.00000000000E+00 0.  1.
         11    1    3    3    0    0 -0.65317932738E+01  0.10690833838E+02  0.35517620907E+02  0.37662443451E+02  0.51100000000E-03 0. -1.
        -11    1    3    3    0    0 -0.74596642975E+01  0.40671961634E+01  0.29300250367E+01  0.89874202661E+01  0.51100000000E-03 0.  1.
         12    1    3    3    0    0  0.11021556786E+01 -0.72469093995E-02  0.28092985910E+00  0.11374186754E+01  0.00000000000E+00 0. -1.
</event>
<event>
 7    1  0.2530788E-009  0.4778727E+02  0.7816164E-02  0.1312668E+00
        -11   -1    0    0    0    0  0.00000000000E+00  0.00000000000E+00  0.45593999997E+02  0.45594000000E+02  0.51100000000E-03 0. -1.
         11   -1    0    0    0    0 -0.00000000000E+00 -0.00000000000E+00 -0.45593999997E+02  0.45594000000E+02  0.51100000000E-03 0.  1.
    9900012    2    1    2    0    0 -0.30858341057E+02  0.72604084271E+01  0.29642410589E+02  0.47787271333E+02  0.20000001314E+02 0.  0.
        -12    1    1    2    0    0  0.30858341057E+02 -0.72604084271E+01 -0.29642410589E+02  0.43400728667E+02  0.00000000000E+00 0.  1.
         11    1    3    3    0    0 -0.62274843996E+01 -0.38810398156E+01  0.13264317823E+02  0.15158699138E+02  0.51100000000E-03 0. -1.
        -11    1    3    3    0    0  0.52680570622E-01 -0.79688029011E+00  0.53895090605E+00  0.96346342927E+00  0.51100000000E-03 0.  1.
         12    1    3    3    0    0 -0.24683537228E+02  0.11938328533E+02  0.15839141860E+02  0.31665108765E+02  0.00000000000E+00 0. -1.
</event>
<event>
 7    1  0.2530788E-009  0.4778727E+02  0.7816164E-02  0.1312668E+00
        -11   -1    0    0    0    0  0.00000000000E+00  0.00000000000E+00  0.45593999997E+02  0.45594000000E+02  0.51100000000E-03 0. -1.
         11   -1    0    0    0    0 -0.00000000000E+00 -0.00000000000E+00 -0.45593999997E+02  0.45594000000E+02  0.51100000000E-03 0.  1.
    9900012    2    1    2    0    0 -0.18911781169E+02 -0.19694910294E+02  0.33735417710E+02  0.47787269977E+02  0.19999995133E+02 0.  0.
        -12    1    1    2    0    0  0.18911781169E+02  0.19694910294E+02 -0.33735417710E+02  0.43400730023E+02  0.00000000000E+00 0.  1.
         11    1    3    3    0    0 -0.12206261778E+02 -0.13467647613E+02  0.26979216250E+02  0.32530731140E+02  0.51100000000E-03 0. -1.
        -11    1    3    3    0    0  0.45534306609E+00 -0.22781495506E+01 -0.21500465393E+01  0.31654388424E+01  0.51100000000E-03 0.  1.
        -12    1    3    3    0    0 -0.71608624571E+01 -0.39491131312E+01  0.89062479990E+01  0.12091099994E+02  0.00000000000E+00 0.  1.
</event>
<event>
 7    1  0.2530788E-009  0.4778727E+02  0.7816164E-02  0.1312668E+00
        -11   -1    0    0    0    0  0.00000000000E+00  0.00000000000E+00  0.45593999997E+02  0.45594000000E+02  0.51100000000E-03 0.  1.
         11   -1    0    0    0    0 -0.00000000000E+00 -0.00000000000E+00 -0.45593999997E+02  0.45594000000E+02  0.51100000000E-03 0. -1.
    9900012    2    1    2    0    0 -0.77368476568E+01  0.22150502498E+02 -0.36511914977E+02  0.47787268349E+02  0.19999987709E+02 0.  0.
        -12    1    1    2    0    0  0.77368476568E+01 -0.22150502498E+02  0.36511914977E+02  0.43400731651E+02  0.00000000000E+00 0.  1.
         11    1    3    3    0    0 -0.13917647465E+01  0.21178969147E+02 -0.20587942431E+02  0.29569394939E+02  0.51100000000E-03 0. -1.
        -11    1    3    3    0    0 -0.40115368944E+01 -0.23398492602E+01 -0.10177984721E+02  0.11187434740E+02  0.51100000000E-03 0.  1.
        -12    1    3    3    0    0 -0.23335460159E+01  0.33113826112E+01 -0.57459878254E+01  0.70304386702E+01  0.00000000000E+00 0.  1.
</event>
<event>
 7    1  0.2530788E-009  0.4778727E+02  0.7816164E-02  0.1312668E+00
        -11   -1    0    0    0    0  0.00000000000E+00  0.00000000000E+00  0.45593999997E+02  0.45594000000E+02  0.51100000000E-03 0.  1.
         11   -1    0    0    0    0 -0.00000000000E+00 -0.00000000000E+00 -0.45593999997E+02  0.45594000000E+02  0.51100000000E-03 0. -1.
    9900012    2    1    2    0    0 -0.42978386976E+02 -0.16358600636E+01 -0.58142621680E+01  0.47787269248E+02  0.19999991811E+02 0.  0.
        -12    1    1    2    0    0  0.42978386976E+02  0.16358600636E+01  0.58142621680E+01  0.43400730752E+02  0.00000000000E+00 0.  1.
         11    1    3    3    0    0 -0.10324671475E+02 -0.69638040230E+01  0.22026392778E+00  0.12455598099E+02  0.51100000000E-03 0. -1.
        -11    1    3    3    0    0 -0.14036406641E+01 -0.83847157080E+00  0.18989963543E+01  0.25058789084E+01  0.51100000000E-03 0.  1.
         12    1    3    3    0    0 -0.31250074837E+02  0.61664155302E+01 -0.79335224500E+01  0.32825792241E+02  0.00000000000E+00 0. -1.
</event>
<event>
 7    1  0.2530788E-009  0.4778729E+02  0.7816164E-02  0.1312668E+00
        -11   -1    0    0    0    0  0.00000000000E+00  0.00000000000E+00  0.45593999997E+02  0.45594000000E+02  0.51100000000E-03 0. -1.
         11   -1    0    0    0    0 -0.00000000000E+00 -0.00000000000E+00 -0.45593999997E+02  0.45594000000E+02  0.51100000000E-03 0.  1.
    9900012    2    1    2    0    0  0.38239466934E+02 -0.19865144563E+02  0.51711712085E+01  0.47787287891E+02  0.20000076810E+02 0.  0.
        -12    1    1    2    0    0 -0.38239466934E+02  0.19865144563E+02 -0.51711712085E+01  0.43400712109E+02  0.00000000000E+00 0.  1.
         11    1    3    3    0    0  0.13190566651E+02 -0.15217498749E+02  0.20113215877E+00  0.20139607026E+02  0.51100000000E-03 0. -1.
        -11    1    3    3    0    0  0.57689453996E+01 -0.22716495374E+01 -0.27000042855E+01  0.67624807613E+01  0.51100000000E-03 0.  1.
         12    1    3    3    0    0  0.19279954884E+02 -0.23759962771E+01  0.76700433353E+01  0.20885200104E+02  0.00000000000E+00 0. -1.
</event>
<event>
 7    1  0.2530788E-009  0.4778726E+02  0.7816164E-02  0.1312668E+00
        -11   -1    0    0    0    0  0.00000000000E+00  0.00000000000E+00  0.45593999997E+02  0.45594000000E+02  0.51100000000E-03 0.  1.
         11   -1    0    0    0    0 -0.00000000000E+00 -0.00000000000E+00 -0.45593999997E+02  0.45594000000E+02  0.51100000000E-03 0. -1.
    9900012    2    1    2    0    0 -0.21705594173E+02 -0.23023626079E+02 -0.29705288779E+02  0.47787258558E+02  0.19999943071E+02 0.  0.
        -12    1    1    2    0    0  0.21705594173E+02  0.23023626079E+02  0.29705288779E+02  0.43400741442E+02  0.00000000000E+00 0.  1.
         11    1    3    3    0    0 -0.12345178810E+02 -0.19873911651E+02 -0.17712652638E+02  0.29344741742E+02  0.51100000000E-03 0. -1.
        -11    1    3    3    0    0 -0.73417973356E+01 -0.65913889881E+00 -0.15682566446E+01  0.75363042249E+01  0.51100000000E-03 0.  1.
         12    1    3    3    0    0 -0.20186180275E+01 -0.24905755290E+01 -0.10424379497E+02  0.10906212592E+02  0.00000000000E+00 0. -1.
</event>
<event>
 7    1  0.2530788E-009  0.4778728E+02  0.7816164E-02  0.1312668E+00
        -11   -1    0    0    0    0  0.00000000000E+00  0.00000000000E+00  0.45593999997E+02  0.45594000000E+02  0.51100000000E-03 0.  1.
         11   -1    0    0    0    0 -0.00000000000E+00 -0.00000000000E+00 -0.45593999997E+02  0.45594000000E+02  0.51100000000E-03 0. -1.
    9900012    2    1    2    0    0 -0.40891256183E+02  0.29256631688E+01 -0.14246701227E+02  0.47787276123E+02  0.20000023154E+02 0.  0.
        -12    1    1    2    0    0  0.40891256183E+02 -0.29256631688E+01  0.14246701227E+02  0.43400723877E+02  0.00000000000E+00 0.  1.
         11    1    3    3    0    0 -0.32473242957E+02  0.64545210850E+01 -0.16009689096E+02  0.36776113114E+02  0.51100000000E-03 0. -1.
        -11    1    3    3    0    0 -0.21529496358E+01 -0.12237026211E+01  0.33340181991E+01  0.41531094197E+01  0.51100000000E-03 0.  1.
        -12    1    3    3    0    0 -0.62650635909E+01 -0.23051552951E+01 -0.15710303296E+01  0.68580535890E+01  0.00000000000E+00 0.  1.
</event>
<event>
 7    1  0.2530788E-009  0.4778727E+02  0.7816164E-02  0.1312668E+00
        -11   -1    0    0    0    0  0.00000000000E+00  0.00000000000E+00  0.45593999997E+02  0.45594000000E+02  0.51100000000E-03 0.  1.
         11   -1    0    0    0    0 -0.00000000000E+00 -0.00000000000E+00 -0.45593999997E+02  0.45594000000E+02  0.51100000000E-03 0. -1.
    9900012    2    1    2    0    0 -0.25097674924E+01 -0.12123312901E+02 -0.41597469988E+02  0.47787272379E+02  0.20000006087E+02 0.  0.
        -12    1    1    2    0    0  0.25097674924E+01  0.12123312901E+02  0.41597469988E+02  0.43400727621E+02  0.00000000000E+00 0.  1.
         11    1    3    3    0    0  0.18992746581E+01 -0.89140938177E+00  0.22188384693E+00  0.21097600848E+01  0.51100000000E-03 0.  1.
        -11    1    3    3    0    0  0.14966764023E+01 -0.18294876535E+01 -0.27285737045E+02  0.27387926385E+02  0.51100000000E-03 0. -1.
        -12    1    3    3    0    0 -0.59057185527E+01 -0.94024158658E+01 -0.14533616790E+02  0.18289585910E+02  0.00000000000E+00 0.  1.
</event>
<event>
 7    1  0.2530788E-009  0.4778727E+02  0.7816164E-02  0.1312668E+00
        -11   -1    0    0    0    0  0.00000000000E+00  0.00000000000E+00  0.45593999997E+02  0.45594000000E+02  0.51100000000E-03 0.  1.
         11   -1    0    0    0    0 -0.00000000000E+00 -0.00000000000E+00 -0.45593999997E+02  0.45594000000E+02  0.51100000000E-03 0. -1.
    9900012    2    1    2    0    0  0.14436804978E+02 -0.10830923657E+02 -0.39470150203E+02  0.47787274174E+02  0.20000014268E+02 0.  0.
        -12    1    1    2    0    0 -0.14436804978E+02  0.10830923657E+02  0.39470150203E+02  0.43400725826E+02  0.00000000000E+00 0.  1.
         11    1    3    3    0    0  0.13772258691E+02 -0.59796014960E+01 -0.24191861884E+02  0.28472388821E+02  0.51100000000E-03 0. -1.
        -11    1    3    3    0    0 -0.19999169801E+01 -0.10328168239E+01  0.94161879492E+00  0.24398821150E+01  0.51100000000E-03 0.  1.
         12    1    3    3    0    0  0.26644632672E+01 -0.38185053367E+01 -0.16219907114E+02  0.16875003238E+02  0.00000000000E+00 0. -1.
</event>
<event>
 7    1  0.2530788E-009  0.4778727E+02  0.7816164E-02  0.1312668E+00
        -11   -1    0    0    0    0  0.00000000000E+00  0.00000000000E+00  0.45593999997E+02  0.45594000000E+02  0.51100000000E-03 0.  1.
         11   -1    0    0    0    0 -0.00000000000E+00 -0.00000000000E+00 -0.45593999997E+02  0.45594000000E+02  0.51100000000E-03 0. -1.
    9900012    2    1    2    0    0 -0.14446651246E+02  0.54251994066E+01 -0.40564579668E+02  0.47787266775E+02  0.19999980535E+02 0.  0.
        -12    1    1    2    0    0  0.14446651246E+02 -0.54251994066E+01  0.40564579668E+02  0.43400733225E+02  0.00000000000E+00 0.  1.
         11    1    3    3    0    0  0.28458514590E+01 -0.25002416116E+00 -0.14959720439E+02  0.15230056417E+02  0.51100000000E-03 0.  1.
        -11    1    3    3    0    0 -0.23272264726E+01 -0.27194925371E+00 -0.94911183532E+01  0.97760558155E+01  0.51100000000E-03 0. -1.
         12    1    3    3    0    0 -0.14965276232E+02  0.59471728215E+01 -0.16113740876E+02  0.22781154542E+02  0.00000000000E+00 0. -1.
</event>
<event>
 7    1  0.2530788E-009  0.4778731E+02  0.7816164E-02  0.1312668E+00
        -11   -1    0    0    0    0  0.00000000000E+00  0.00000000000E+00  0.45593999997E+02  0.45594000000E+02  0.51100000000E-03 0.  1.
         11   -1    0    0    0    0 -0.00000000000E+00 -0.00000000000E+00 -0.45593999997E+02  0.45594000000E+02  0.51100000000E-03 0. -1.
    9900012    2    1    2    0    0  0.51231988589E+01 -0.34119840275E+02 -0.26328860167E+02  0.47787314007E+02  0.20000195884E+02 0.  0.
        -12    1    1    2    0    0 -0.51231988589E+01  0.34119840275E+02  0.26328860167E+02  0.43400685993E+02  0.00000000000E+00 0.  1.
         11    1    3    3    0    0  0.45242076556E+01 -0.96716115742E+01 -0.14256115162E+02  0.17811382460E+02  0.51100000000E-03 0. -1.
        -11    1    3    3    0    0  0.48906369681E+01 -0.38965986088E+01 -0.42974219807E+01  0.75874664159E+01  0.51100000000E-03 0.  1.
         12    1    3    3    0    0 -0.42916457648E+01 -0.20551630092E+02 -0.77753230241E+01  0.22388465132E+02  0.00000000000E+00 0. -1.
</event>
<event>
 7    1  0.2530788E-009  0.4778727E+02  0.7816164E-02  0.1312668E+00
        -11   -1    0    0    0    0  0.00000000000E+00  0.00000000000E+00  0.45593999997E+02  0.45594000000E+02  0.51100000000E-03 0.  1.
         11   -1    0    0    0    0 -0.00000000000E+00 -0.00000000000E+00 -0.45593999997E+02  0.45594000000E+02  0.51100000000E-03 0. -1.
    9900012    2    1    2    0    0 -0.11917408090E+02  0.18103390521E+02 -0.37601410514E+02  0.47787269170E+02  0.19999991454E+02 0.  0.
        -12    1    1    2    0    0  0.11917408090E+02 -0.18103390521E+02  0.37601410514E+02  0.43400730830E+02  0.00000000000E+00 0.  1.
         11    1    3    3    0    0 -0.26013163497E+01  0.19000857931E+02 -0.22834635634E+02  0.29819792650E+02  0.51100000000E-03 0.  1.
        -11    1    3    3    0    0 -0.70918315554E+01  0.11210231039E+01 -0.95519222262E+01  0.11949476394E+02  0.51100000000E-03 0. -1.
        -12    1    3    3    0    0 -0.22242601847E+01 -0.20184905138E+01 -0.52148526537E+01  0.60180001266E+01  0.00000000000E+00 0.  1.
</event>
<event>
 7    1  0.2530788E-009  0.4778727E+02  0.7816164E-02  0.1312668E+00
        -11   -1    0    0    0    0  0.00000000000E+00  0.00000000000E+00  0.45593999997E+02  0.45594000000E+02  0.51100000000E-03 0. -1.
         11   -1    0    0    0    0 -0.00000000000E+00 -0.00000000000E+00 -0.45593999997E+02  0.45594000000E+02  0.51100000000E-03 0.  1.
    9900012    2    1    2    0    0 -0.28694813969E+02 -0.28629848226E+01  0.32435072997E+02  0.47787274302E+02  0.20000014853E+02 0.  0.
        -12    1    1    2    0    0  0.28694813969E+02  0.28629848226E+01 -0.32435072997E+02  0.43400725698E+02  0.00000000000E+00 0.  1.
         11    1    3    3    0    0 -0.24579494587E+02 -0.44791679383E+01  0.17554255168E+02  0.30534674951E+02  0.51100000000E-03 0. -1.
        -11    1    3    3    0    0 -0.18989730313E+01 -0.11391521380E+01  0.13114018381E+02  0.13299670843E+02  0.51100000000E-03 0.  1.
        -12    1    3    3    0    0 -0.22163463503E+01  0.27553352537E+01  0.17667994470E+01  0.39529285082E+01  0.00000000000E+00 0.  1.
</event>
<event>
 7    1  0.2530788E-009  0.4778727E+02  0.7816164E-02  0.1312668E+00
        -11   -1    0    0    0    0  0.00000000000E+00  0.00000000000E+00  0.45593999997E+02  0.45594000000E+02  0.51100000000E-03 0.  1.
         11   -1    0    0    0    0 -0.00000000000E+00 -0.00000000000E+00 -0.45593999997E+02  0.45594000000E+02  0.51100000000E-03 0. -1.
    9900012    2    1    2    0    0  0.27332958247E+02 -0.26888371652E+00 -0.33711422910E+02  0.47787274895E+02  0.20000017558E+02 0.  0.
        -12    1    1    2    0    0 -0.27332958247E+02  0.26888371652E+00  0.33711422910E+02  0.43400725105E+02  0.00000000000E+00 0.  1.
         11    1    3    3    0    0  0.20114167754E+02 -0.27887933813E+01 -0.19743998364E+02  0.28322827978E+02  0.51100000000E-03 0. -1.
        -11    1    3    3    0    0  0.75295591141E+01  0.17003312375E+01 -0.27221702016E+01  0.81850838504E+01  0.51100000000E-03 0.  1.
         12    1    3    3    0    0 -0.31076862179E+00  0.81957842729E+00 -0.11245254344E+02  0.11279363067E+02  0.00000000000E+00 0. -1.
</event>
<event>
 7    1  0.2530788E-009  0.4778727E+02  0.7816164E-02  0.1312668E+00
        -11   -1    0    0    0    0  0.00000000000E+00  0.00000000000E+00  0.45593999997E+02  0.45594000000E+02  0.51100000000E-03 0.  1.
         11   -1    0    0    0    0 -0.00000000000E+00 -0.00000000000E+00 -0.45593999997E+02  0.45594000000E+02  0.51100000000E-03 0. -1.
    9900012    2    1    2    0    0 -0.42560154798E+02 -0.27342489571E+01  0.80486210170E+01  0.47787271964E+02  0.20000004193E+02 0.  0.
        -12    1    1    2    0    0  0.42560154798E+02  0.27342489571E+01 -0.80486210170E+01  0.43400728036E+02  0.00000000000E+00 0.  1.
         11    1    3    3    0    0 -0.18723212833E+02 -0.42493763526E+01 -0.13993672151E+01  0.19250301998E+02  0.51100000000E-03 0. -1.
        -11    1    3    3    0    0 -0.20097242688E+02  0.27916344039E+01  0.12242161603E+02  0.23697318568E+02  0.51100000000E-03 0.  1.
        -12    1    3    3    0    0 -0.37396992772E+01 -0.12765070085E+01 -0.27941733713E+01  0.48396513982E+01  0.00000000000E+00 0.  1.
</event>
<event>
 7    1  0.2530788E-009  0.4778727E+02  0.7816164E-02  0.1312668E+00
        -11   -1    0    0    0    0  0.00000000000E+00  0.00000000000E+00  0.45593999997E+02  0.45594000000E+02  0.51100000000E-03 0.  1.
         11   -1    0    0    0    0 -0.00000000000E+00 -0.00000000000E+00 -0.45593999997E+02  0.45594000000E+02  0.51100000000E-03 0. -1.
    9900012    2    1    2    0    0  0.12821138793E+02  0.49708516080E+01 -0.41164697761E+02  0.47787270658E+02  0.19999998237E+02 0.  0.
        -12    1    1    2    0    0 -0.12821138793E+02 -0.49708516080E+01  0.41164697761E+02  0.43400729342E+02  0.00000000000E+00 0.  1.
         11    1    3    3    0    0  0.70632474119E+01  0.99507030928E+01 -0.21610067560E+02  0.24817352321E+02  0.51100000000E-03 0. -1.
        -11    1    3    3    0    0 -0.18170330693E+01  0.23735751000E+00 -0.79699917184E+01  0.81779408175E+01  0.51100000000E-03 0.  1.
         12    1    3    3    0    0  0.75749244508E+01 -0.52172089948E+01 -0.11584638483E+02  0.14791977519E+02  0.00000000000E+00 0. -1.
</event>
<event>
 7    1  0.2530788E-009  0.4778727E+02  0.7816164E-02  0.1312668E+00
        -11   -1    0    0    0    0  0.00000000000E+00  0.00000000000E+00  0.45593999997E+02  0.45594000000E+02  0.51100000000E-03 0.  1.
         11   -1    0    0    0    0 -0.00000000000E+00 -0.00000000000E+00 -0.45593999997E+02  0.45594000000E+02  0.51100000000E-03 0. -1.
    9900012    2    1    2    0    0  0.36152473167E+02 -0.23269644843E+02 -0.59283680782E+01  0.47787271489E+02  0.20000002026E+02 0.  0.
        -12    1    1    2    0    0 -0.36152473167E+02  0.23269644843E+02  0.59283680782E+01  0.43400728511E+02  0.00000000000E+00 0.  1.
         11    1    3    3    0    0  0.19867832847E+02 -0.73845142209E+01  0.24677383455E+01  0.21338968229E+02  0.51100000000E-03 0. -1.
        -11    1    3    3    0    0  0.11088729548E+01  0.14901978279E+01  0.10939704684E+00  0.18607140487E+01  0.51100000000E-03 0.  1.
         12    1    3    3    0    0  0.15175767366E+02 -0.17375328450E+02 -0.85055034706E+01  0.24587589211E+02  0.00000000000E+00 0. -1.
</event>
<event>
 7    1  0.2530788E-009  0.4778729E+02  0.7816164E-02  0.1312668E+00
        -11   -1    0    0    0    0  0.00000000000E+00  0.00000000000E+00  0.45593999997E+02  0.45594000000E+02  0.51100000000E-03 0. -1.
         11   -1    0    0    0    0 -0.00000000000E+00 -0.00000000000E+00 -0.45593999997E+02  0.45594000000E+02  0.51100000000E-03 0.  1.
    9900012    2    1    2    0    0  0.15396838351E+02 -0.28842280365E+02  0.28542634446E+02  0.47787288612E+02  0.20000080099E+02 0.  0.
        -12    1    1    2    0    0 -0.15396838351E+02  0.28842280365E+02 -0.28542634446E+02  0.43400711388E+02  0.00000000000E+00 0.  1.
         11    1    3    3    0    0 -0.10279899569E+01 -0.20968910709E+01  0.10490679977E+01  0.25601287936E+01  0.51100000000E-03 0. -1.
        -11    1    3    3    0    0  0.12106626522E+02 -0.23399145917E+02  0.12288658539E+02  0.29070630615E+02  0.51100000000E-03 0.  1.
        -12    1    3    3    0    0  0.43182017854E+01 -0.33462433767E+01  0.15204907909E+02  0.16156529204E+02  0.00000000000E+00 0.  1.
</event>
<event>
 7    1  0.2530788E-009  0.4778727E+02  0.7816164E-02  0.1312668E+00
        -11   -1    0    0    0    0  0.00000000000E+00  0.00000000000E+00  0.45593999997E+02  0.45594000000E+02  0.51100000000E-03 0.  1.
         11   -1    0    0    0    0 -0.00000000000E+00 -0.00000000000E+00 -0.45593999997E+02  0.45594000000E+02  0.51100000000E-03 0. -1.
    9900012    2    1    2    0    0  0.70519796073E+01  0.31761575926E+02 -0.28724468932E+02  0.47787271467E+02  0.20000001929E+02 0.  0.
        -12    1    1    2    0    0 -0.70519796073E+01 -0.31761575926E+02  0.28724468932E+02  0.43400728533E+02  0.00000000000E+00 0.  1.
         11    1    3    3    0    0  0.11432604785E+02  0.12162276890E+02 -0.94058017153E+01  0.19159711310E+02  0.51100000000E-03 0. -1.
        -11    1    3    3    0    0 -0.13064393751E+01  0.16419998493E+02 -0.13370193765E+02  0.21215211899E+02  0.51100000000E-03 0.  1.
         12    1    3    3    0    0 -0.30741858025E+01  0.31793005440E+01 -0.59484734522E+01  0.74123482587E+01  0.00000000000E+00 0. -1.
</event>
<event>
 7    1  0.2530788E-009  0.4778727E+02  0.7816164E-02  0.1312668E+00
        -11   -1    0    0    0    0  0.00000000000E+00  0.00000000000E+00  0.45593999997E+02  0.45594000000E+02  0.51100000000E-03 0.  1.
         11   -1    0    0    0    0 -0.00000000000E+00 -0.00000000000E+00 -0.45593999997E+02  0.45594000000E+02  0.51100000000E-03 0. -1.
    9900012    2    1    2    0    0 -0.66475710587E+01 -0.40768160216E+02 -0.13318790485E+02  0.47787271108E+02  0.20000000292E+02 0.  0.
        -12    1    1    2    0    0  0.66475710587E+01  0.40768160216E+02  0.13318790485E+02  0.43400728892E+02  0.00000000000E+00 0.  1.
         11    1    3    3    0    0  0.38559603996E+01 -0.21629814755E+02 -0.11266680380E+02  0.24691200943E+02  0.51100000000E-03 0. -1.
        -11    1    3    3    0    0 -0.17629737777E+01 -0.44496971423E+01  0.25110625366E+01  0.54049344605E+01  0.51100000000E-03 0.  1.
         12    1    3    3    0    0 -0.87405576806E+01 -0.14688648318E+02 -0.45631726412E+01  0.17691135705E+02  0.00000000000E+00 0. -1.
</event>
<event>
 7    1  0.2530788E-009  0.4778727E+02  0.7816164E-02  0.1312668E+00
        -11   -1    0    0    0    0  0.00000000000E+00  0.00000000000E+00  0.45593999997E+02  0.45594000000E+02  0.51100000000E-03 0.  1.
         11   -1    0    0    0    0 -0.00000000000E+00 -0.00000000000E+00 -0.45593999997E+02  0.45594000000E+02  0.51100000000E-03 0. -1.
    9900012    2    1    2    0    0  0.44311400336E+01 -0.36646842359E+02 -0.22825367348E+02  0.47787268998E+02  0.19999990671E+02 0.  0.
        -12    1    1    2    0    0 -0.44311400336E+01  0.36646842359E+02  0.22825367348E+02  0.43400731002E+02  0.00000000000E+00 0.  1.
         11    1    3    3    0    0  0.42951876995E+01 -0.93410762319E+01 -0.15129103903E+02  0.18291914272E+02  0.51100000000E-03 0. -1.
        -11    1    3    3    0    0 -0.13375284230E+01 -0.25647328597E+02 -0.86229362529E+01  0.27091132799E+02  0.51100000000E-03 0.  1.
         12    1    3    3    0    0  0.14734807571E+01 -0.16584375304E+01  0.92667280803E+00  0.24042219275E+01  0.00000000000E+00 0. -1.
</event>
<event>
 7    1  0.2530788E-009  0.4778727E+02  0.7816164E-02  0.1312668E+00
        -11   -1    0    0    0    0  0.00000000000E+00  0.00000000000E+00  0.45593999997E+02  0.45594000000E+02  0.51100000000E-03 0.  1.
         11   -1    0    0    0    0 -0.00000000000E+00 -0.00000000000E+00 -0.45593999997E+02  0.45594000000E+02  0.51100000000E-03 0. -1.
    9900012    2    1    2    0    0 -0.20877358246E+01  0.16776495534E+02 -0.39972661356E+02  0.47787273058E+02  0.20000009178E+02 0.  0.
        -12    1    1    2    0    0  0.20877358246E+01 -0.16776495534E+02  0.39972661356E+02  0.43400726942E+02  0.00000000000E+00 0.  1.
         11    1    3    3    0    0  0.42736541796E+01  0.83126945422E+01 -0.39424674712E+01  0.10144361026E+02  0.51100000000E-03 0. -1.
        -11    1    3    3    0    0 -0.54745128550E+01  0.76853498035E+01 -0.34092291691E+02  0.35373991089E+02  0.51100000000E-03 0.  1.
         12    1    3    3    0    0 -0.88687714919E+00  0.77845118835E+00 -0.19379021937E+01  0.22689209424E+01  0.00000000000E+00 0. -1.
</event>
<event>
 7    1  0.2530788E-009  0.4778727E+02  0.7816164E-02  0.1312668E+00
        -11   -1    0    0    0    0  0.00000000000E+00  0.00000000000E+00  0.45593999997E+02  0.45594000000E+02  0.51100000000E-03 0.  1.
         11   -1    0    0    0    0 -0.00000000000E+00 -0.00000000000E+00 -0.45593999997E+02  0.45594000000E+02  0.51100000000E-03 0. -1.
    9900012    2    1    2    0    0 -0.41520187867E+02 -0.12064140047E+02 -0.37621570228E+01  0.47787270731E+02  0.19999998571E+02 0.  0.
        -12    1    1    2    0    0  0.41520187867E+02  0.12064140047E+02  0.37621570228E+01  0.43400729269E+02  0.00000000000E+00 0.  1.
         11    1    3    3    0    0 -0.23924737894E+02 -0.27769716863E+00 -0.31677309650E+01  0.24135134530E+02  0.51100000000E-03 0. -1.
        -11    1    3    3    0    0  0.68006303423E+00 -0.22714437597E+01  0.17045242853E+01  0.29201619448E+01  0.51100000000E-03 0.  1.
         12    1    3    3    0    0 -0.18275513007E+02 -0.95149991183E+01 -0.22989503430E+01  0.20731974257E+02  0.00000000000E+00 0. -1.
</event>
<event>
 7    1  0.2530788E-009  0.4778727E+02  0.7816164E-02  0.1312668E+00
        -11   -1    0    0    0    0  0.00000000000E+00  0.00000000000E+00  0.45593999997E+02  0.45594000000E+02  0.51100000000E-03 0. -1.
         11   -1    0    0    0    0 -0.00000000000E+00 -0.00000000000E+00 -0.45593999997E+02  0.45594000000E+02  0.51100000000E-03 0.  1.
    9900012    2    1    2    0    0  0.26397380593E+02  0.40503176539E+01  0.34211059920E+02  0.47787269636E+02  0.19999993580E+02 0.  0.
        -12    1    1    2    0    0 -0.26397380593E+02 -0.40503176539E+01 -0.34211059920E+02  0.43400730364E+02  0.00000000000E+00 0.  1.
         11    1    3    3    0    0  0.14555360811E+01  0.18640457442E+01  0.11784054744E+02  0.12019034832E+02  0.51100000000E-03 0. -1.
        -11    1    3    3    0    0 -0.12355892012E+01 -0.80706465971E+00  0.78626727333E+00  0.16721993079E+01  0.51100000000E-03 0.  1.
         12    1    3    3    0    0  0.26177433713E+02  0.29933365693E+01  0.21640737903E+02  0.34096035497E+02  0.00000000000E+00 0. -1.
</event>
<event>
 7    1  0.2530788E-009  0.4778727E+02  0.7816164E-02  0.1312668E+00
        -11   -1    0    0    0    0  0.00000000000E+00  0.00000000000E+00  0.45593999997E+02  0.45594000000E+02  0.51100000000E-03 0.  1.
         11   -1    0    0    0    0 -0.00000000000E+00 -0.00000000000E+00 -0.45593999997E+02  0.45594000000E+02  0.51100000000E-03 0. -1.
    9900012    2    1    2    0    0 -0.10630049787E+02 -0.27928531070E+02 -0.31474155550E+02  0.47787271046E+02  0.20000000005E+02 0.  0.
        -12    1    1    2    0    0  0.10630049787E+02  0.27928531070E+02  0.31474155550E+02  0.43400728954E+02  0.00000000000E+00 0.  1.
         11    1    3    3    0    0 -0.67062830232E+01 -0.67364201811E+01 -0.10660221070E+02  0.14282643396E+02  0.51100000000E-03 0. -1.
        -11    1    3    3    0    0 -0.79588513067E+01 -0.20424196359E+02 -0.19023495653E+02  0.29023860842E+02  0.51100000000E-03 0.  1.
        -12    1    3    3    0    0  0.40350845433E+01 -0.76791452969E+00 -0.17904388267E+01  0.44807668081E+01  0.00000000000E+00 0.  1.
</event>
<event>
 7    1  0.2530788E-009  0.4778725E+02  0.7816164E-02  0.1312668E+00
        -11   -1    0    0    0    0  0.00000000000E+00  0.00000000000E+00  0.45593999997E+02  0.45594000000E+02  0.51100000000E-03 0. -1.
         11   -1    0    0    0    0 -0.00000000000E+00 -0.00000000000E+00 -0.45593999997E+02  0.45594000000E+02  0.51100000000E-03 0.  1.
    9900012    2    1    2    0    0  0.11180201059E+02  0.17179350261E+01  0.41900800016E+02  0.47787248411E+02  0.19999896806E+02 0.  0.
        -12    1    1    2    0    0 -0.11180201059E+02 -0.17179350261E+01 -0.41900800016E+02  0.43400751589E+02  0.00000000000E+00 0.  1.
         11    1    3    3    0    0  0.98704827967E+01 -0.22283669259E+01  0.10566109022E+02  0.14629925151E+02  0.51100000000E-03 0. -1.
        -11    1    3    3    0    0  0.19065907975E+01 -0.78968583785E+00  0.25656057000E+02  0.25738919038E+02  0.51100000000E-03 0.  1.
         12    1    3    3    0    0 -0.59687253516E+00  0.47359877899E+01  0.56786339932E+01  0.74184042218E+01  0.00000000000E+00 0. -1.
</event>
<event>
 7    1  0.2530788E-009  0.4778727E+02  0.7816164E-02  0.1312668E+00
        -11   -1    0    0    0    0  0.00000000000E+00  0.00000000000E+00  0.45593999997E+02  0.45594000000E+02  0.51100000000E-03 0.  1.
         11   -1    0    0    0    0 -0.00000000000E+00 -0.00000000000E+00 -0.45593999997E+02  0.45594000000E+02  0.51100000000E-03 0. -1.
    9900012    2    1    2    0    0 -0.72639680091E+01 -0.42755473448E+02  0.16815115990E+01  0.47787271639E+02  0.20000002712E+02 0.  0.
        -12    1    1    2    0    0  0.72639680091E+01  0.42755473448E+02 -0.16815115990E+01  0.43400728361E+02  0.00000000000E+00 0.  1.
         11    1    3    3    0    0 -0.25565383773E+01 -0.13330112568E+02 -0.29525559452E+01  0.13890477905E+02  0.51100000000E-03 0. -1.
        -11    1    3    3    0    0  0.64614621989E-02 -0.19822168671E+01 -0.42328884809E+01  0.46740315159E+01  0.51100000000E-03 0.  1.
        -12    1    3    3    0    0 -0.47138910940E+01 -0.27443144012E+02  0.88669560251E+01  0.29222762218E+02  0.00000000000E+00 0.  1.
</event>
<event>
 7    1  0.2530788E-009  0.4778727E+02  0.7816164E-02  0.1312668E+00
        -11   -1    0    0    0    0  0.00000000000E+00  0.00000000000E+00  0.45593999997E+02  0.45594000000E+02  0.51100000000E-03 0.  1.
         11   -1    0    0    0    0 -0.00000000000E+00 -0.00000000000E+00 -0.45593999997E+02  0.45594000000E+02  0.51100000000E-03 0. -1.
    9900012    2    1    2    0    0 -0.15722736418E+02  0.19233871275E+02 -0.35587595183E+02  0.47787272177E+02  0.20000005162E+02 0.  0.
        -12    1    1    2    0    0  0.15722736418E+02 -0.19233871275E+02  0.35587595183E+02  0.43400727823E+02  0.00000000000E+00 0.  1.
         11    1    3    3    0    0 -0.88288421635E+01  0.12018685826E+02 -0.11062762072E+02  0.18568305465E+02  0.51100000000E-03 0. -1.
        -11    1    3    3    0    0 -0.26799218421E+01 -0.32576995392E+01 -0.41030211410E+01  0.58846724728E+01  0.51100000000E-03 0.  1.
        -12    1    3    3    0    0 -0.42139724123E+01  0.10472884988E+02 -0.20421811970E+02  0.23334294239E+02  0.00000000000E+00 0.  1.
</event>
<event>
 7    1  0.2530788E-009  0.4778727E+02  0.7816164E-02  0.1312668E+00
        -11   -1    0    0    0    0  0.00000000000E+00  0.00000000000E+00  0.45593999997E+02  0.45594000000E+02  0.51100000000E-03 0. -1.
         11   -1    0    0    0    0 -0.00000000000E+00 -0.00000000000E+00 -0.45593999997E+02  0.45594000000E+02  0.51100000000E-03 0.  1.
    9900012    2    1    2    0    0  0.14403643333E+02  0.33677577274E+02  0.23280444940E+02  0.47787271101E+02  0.20000000260E+02 0.  0.
        -12    1    1    2    0    0 -0.14403643333E+02 -0.33677577274E+02 -0.23280444940E+02  0.43400728899E+02  0.00000000000E+00 0.  1.
         11    1    3    3    0    0  0.34136216156E+01  0.15497955568E+02  0.54433824934E+01  0.16777063288E+02  0.51100000000E-03 0. -1.
        -11    1    3    3    0    0  0.48315819884E+01 -0.11666299206E+01  0.46074739809E+01  0.67774646165E+01  0.51100000000E-03 0.  1.
        -12    1    3    3    0    0  0.61584397290E+01  0.19346251627E+02  0.13229588465E+02  0.24232743197E+02  0.00000000000E+00 0.  1.
</event>
<event>
 7    1  0.2530788E-009  0.4778728E+02  0.7816164E-02  0.1312668E+00
        -11   -1    0    0    0    0  0.00000000000E+00  0.00000000000E+00  0.45593999997E+02  0.45594000000E+02  0.51100000000E-03 0.  1.
         11   -1    0    0    0    0 -0.00000000000E+00 -0.00000000000E+00 -0.45593999997E+02  0.45594000000E+02  0.51100000000E-03 0. -1.
    9900012    2    1    2    0    0 -0.34600452795E+02  0.21119485746E+02 -0.15504797609E+02  0.47787276957E+02  0.20000026956E+02 0.  0.
        -12    1    1    2    0    0  0.34600452795E+02 -0.21119485746E+02  0.15504797609E+02  0.43400723043E+02  0.00000000000E+00 0.  1.
         11    1    3    3    0    0 -0.28852574534E+02  0.12062023363E+02 -0.11648110611E+02  0.33371274263E+02  0.51100000000E-03 0. -1.
        -11    1    3    3    0    0 -0.25147907600E+00 -0.54028674652E+00 -0.32876341739E+01  0.33412108908E+01  0.51100000000E-03 0.  1.
         12    1    3    3    0    0 -0.54963991844E+01  0.95977491299E+01 -0.56905282416E+00  0.11074791803E+02  0.00000000000E+00 0. -1.
</event>
<event>
 7    1  0.2530788E-009  0.4778727E+02  0.7816164E-02  0.1312668E+00
        -11   -1    0    0    0    0  0.00000000000E+00  0.00000000000E+00  0.45593999997E+02  0.45594000000E+02  0.51100000000E-03 0.  1.
         11   -1    0    0    0    0 -0.00000000000E+00 -0.00000000000E+00 -0.45593999997E+02  0.45594000000E+02  0.51100000000E-03 0. -1.
    9900012    2    1    2    0    0 -0.34721645454E+02 -0.26038959473E+02  0.53895539937E-01  0.47787274451E+02  0.20000015532E+02 0.  0.
        -12    1    1    2    0    0  0.34721645454E+02  0.26038959473E+02 -0.53895539937E-01  0.43400725549E+02  0.00000000000E+00 0.  1.
         11    1    3    3    0    0 -0.16094031118E+02 -0.90817738557E+01 -0.52271428152E+01  0.19204673292E+02  0.51100000000E-03 0. -1.
        -11    1    3    3    0    0 -0.33790376415E+01 -0.73505138383E+00  0.52885775822E+01  0.63188012331E+01  0.51100000000E-03 0.  1.
        -12    1    3    3    0    0 -0.15248576695E+02 -0.16222134233E+02 -0.75392270908E-02  0.22263799926E+02  0.00000000000E+00 0.  1.
</event>
<event>
 7    1  0.2530788E-009  0.4778727E+02  0.7816164E-02  0.1312668E+00
        -11   -1    0    0    0    0  0.00000000000E+00  0.00000000000E+00  0.45593999997E+02  0.45594000000E+02  0.51100000000E-03 0.  1.
         11   -1    0    0    0    0 -0.00000000000E+00 -0.00000000000E+00 -0.45593999997E+02  0.45594000000E+02  0.51100000000E-03 0. -1.
    9900012    2    1    2    0    0  0.32821983284E+02  0.16766124503E+02 -0.22918064117E+02  0.47787272121E+02  0.20000004909E+02 0.  0.
        -12    1    1    2    0    0 -0.32821983284E+02 -0.16766124503E+02  0.22918064117E+02  0.43400727879E+02  0.00000000000E+00 0.  1.
         11    1    3    3    0    0  0.87559552991E+01  0.11682038038E+02 -0.11453517486E+01  0.14644063534E+02  0.51100000000E-03 0. -1.
        -11    1    3    3    0    0  0.12991394425E+00 -0.40082289722E+00 -0.25131495944E+00  0.49060788600E+00  0.51100000000E-03 0.  1.
         12    1    3    3    0    0  0.23936114041E+02  0.54849093627E+01 -0.21521397408E+02  0.32652600701E+02  0.00000000000E+00 0. -1.
</event>
<event>
 7    1  0.2530788E-009  0.4778728E+02  0.7816164E-02  0.1312668E+00
        -11   -1    0    0    0    0  0.00000000000E+00  0.00000000000E+00  0.45593999997E+02  0.45594000000E+02  0.51100000000E-03 0.  1.
         11   -1    0    0    0    0 -0.00000000000E+00 -0.00000000000E+00 -0.45593999997E+02  0.45594000000E+02  0.51100000000E-03 0. -1.
    9900012    2    1    2    0    0  0.48816642154E+01 -0.31539060051E+02 -0.29412240931E+02  0.47787275686E+02  0.20000021164E+02 0.  0.
        -12    1    1    2    0    0 -0.48816642154E+01  0.31539060051E+02  0.29412240931E+02  0.43400724314E+02  0.00000000000E+00 0.  1.
         11    1    3    3    0    0  0.34101517763E+01 -0.10852866330E+02 -0.15219957694E+02  0.19001604016E+02  0.51100000000E-03 0. -1.
        -11    1    3    3    0    0 -0.28359888440E+01 -0.13771728349E+02 -0.21167035790E+01  0.14219133895E+02  0.51100000000E-03 0.  1.
        -12    1    3    3    0    0  0.43075012831E+01 -0.69144653723E+01 -0.12075579658E+02  0.14566537775E+02  0.00000000000E+00 0.  1.
</event>
<event>
 7    1  0.2530788E-009  0.4778727E+02  0.7816164E-02  0.1312668E+00
        -11   -1    0    0    0    0  0.00000000000E+00  0.00000000000E+00  0.45593999997E+02  0.45594000000E+02  0.51100000000E-03 0.  1.
         11   -1    0    0    0    0 -0.00000000000E+00 -0.00000000000E+00 -0.45593999997E+02  0.45594000000E+02  0.51100000000E-03 0. -1.
    9900012    2    1    2    0    0 -0.11771238267E+02  0.25722447393E+02 -0.32915305870E+02  0.47787266011E+02  0.19999977052E+02 0.  0.
        -12    1    1    2    0    0  0.11771238267E+02 -0.25722447393E+02  0.32915305870E+02  0.43400733989E+02  0.00000000000E+00 0.  1.
         11    1    3    3    0    0 -0.35405935572E+01  0.96107302539E+01 -0.18839817312E+02  0.21443895527E+02  0.51100000000E-03 0. -1.
        -11    1    3    3    0    0 -0.30159637680E+01  0.15564272210E+02 -0.65095858072E+01  0.17138182941E+02  0.51100000000E-03 0.  1.
        -12    1    3    3    0    0 -0.52146809423E+01  0.54744492931E+00 -0.75659027506E+01  0.92051875435E+01  0.00000000000E+00 0.  1.
</event>
<event>
 7    1  0.2530788E-009  0.4778727E+02  0.7816164E-02  0.1312668E+00
        -11   -1    0    0    0    0  0.00000000000E+00  0.00000000000E+00  0.45593999997E+02  0.45594000000E+02  0.51100000000E-03 0.  1.
         11   -1    0    0    0    0 -0.00000000000E+00 -0.00000000000E+00 -0.45593999997E+02  0.45594000000E+02  0.51100000000E-03 0. -1.
    9900012    2    1    2    0    0  0.31317096260E+02 -0.19274929268E+02 -0.23050810254E+02  0.47787271091E+02  0.20000000215E+02 0.  0.
        -12    1    1    2    0    0 -0.31317096260E+02  0.19274929268E+02  0.23050810254E+02  0.43400728909E+02  0.00000000000E+00 0.  1.
         11    1    3    3    0    0  0.91177814415E+00 -0.44990402760E+01 -0.48921830603E+01  0.67086629179E+01  0.51100000000E-03 0. -1.
        -11    1    3    3    0    0  0.69692492886E+01 -0.12382859076E-01 -0.10026948391E+02  0.12211072159E+02  0.51100000000E-03 0.  1.
        -12    1    3    3    0    0  0.23436068827E+02 -0.14763506133E+02 -0.81316788029E+01  0.28867536015E+02  0.00000000000E+00 0.  1.
</event>
<event>
 7    1  0.2530788E-009  0.4778727E+02  0.7816164E-02  0.1312668E+00
        -11   -1    0    0    0    0  0.00000000000E+00  0.00000000000E+00  0.45593999997E+02  0.45594000000E+02  0.51100000000E-03 0.  1.
         11   -1    0    0    0    0 -0.00000000000E+00 -0.00000000000E+00 -0.45593999997E+02  0.45594000000E+02  0.51100000000E-03 0. -1.
    9900012    2    1    2    0    0 -0.86321366575E+01 -0.24885177594E+02 -0.34494019902E+02  0.47787271249E+02  0.20000000932E+02 0.  0.
        -12    1    1    2    0    0  0.86321366575E+01  0.24885177594E+02  0.34494019902E+02  0.43400728751E+02  0.00000000000E+00 0.  1.
         11    1    3    3    0    0 -0.53773338236E+01  0.10845390795E+01 -0.11686555432E+02  0.12909977621E+02  0.51100000000E-03 0.  1.
        -11    1    3    3    0    0 -0.38846808562E+01 -0.20246671703E+02 -0.17371896802E+02  0.26959251829E+02  0.51100000000E-03 0. -1.
        -12    1    3    3    0    0  0.62987802233E+00 -0.57230449698E+01 -0.54355676685E+01  0.79180417988E+01  0.00000000000E+00 0.  1.
</event>
<event>
 7    1  0.2530788E-009  0.4778727E+02  0.7816164E-02  0.1312668E+00
        -11   -1    0    0    0    0  0.00000000000E+00  0.00000000000E+00  0.45593999997E+02  0.45594000000E+02  0.51100000000E-03 0.  1.
         11   -1    0    0    0    0 -0.00000000000E+00 -0.00000000000E+00 -0.45593999997E+02  0.45594000000E+02  0.51100000000E-03 0. -1.
    9900012    2    1    2    0    0  0.42609689842E+01 -0.29146623760E+02 -0.31873840324E+02  0.47787271547E+02  0.20000002290E+02 0.  0.
        -12    1    1    2    0    0 -0.42609689842E+01  0.29146623760E+02  0.31873840324E+02  0.43400728453E+02  0.00000000000E+00 0.  1.
         11    1    3    3    0    0  0.16393972488E+01 -0.11575968737E+02 -0.56616682987E+01  0.12990194907E+02  0.51100000000E-03 0. -1.
        -11    1    3    3    0    0 -0.15267301702E+01 -0.34760543486E+01 -0.17082230892E+02  0.17499042013E+02  0.51100000000E-03 0.  1.
        -12    1    3    3    0    0  0.41483019055E+01 -0.14094600674E+02 -0.91299411330E+01  0.17298034627E+02  0.00000000000E+00 0.  1.
</event>
<event>
 7    1  0.2530788E-009  0.4778727E+02  0.7816164E-02  0.1312668E+00
        -11   -1    0    0    0    0  0.00000000000E+00  0.00000000000E+00  0.45593999997E+02  0.45594000000E+02  0.51100000000E-03 0.  1.
         11   -1    0    0    0    0 -0.00000000000E+00 -0.00000000000E+00 -0.45593999997E+02  0.45594000000E+02  0.51100000000E-03 0. -1.
    9900012    2    1    2    0    0 -0.23294720362E+02 -0.11491568603E+02  0.34769575755E+02  0.47787267934E+02  0.19999985818E+02 0.  0.
        -12    1    1    2    0    0  0.23294720362E+02  0.11491568603E+02 -0.34769575755E+02  0.43400732066E+02  0.00000000000E+00 0.  1.
         11    1    3    3    0    0 -0.41011277394E+01 -0.25166674006E+01  0.77759344078E+01  0.91442889126E+01  0.51100000000E-03 0. -1.
        -11    1    3    3    0    0 -0.43723895022E+01 -0.42784386847E+01 -0.13961411104E+01  0.62747141608E+01  0.51100000000E-03 0.  1.
        -12    1    3    3    0    0 -0.14821203121E+02 -0.46964625179E+01  0.28389782457E+02  0.32368264861E+02  0.00000000000E+00 0.  1.
</event>
<event>
 7    1  0.2530788E-009  0.4778727E+02  0.7816164E-02  0.1312668E+00
        -11   -1    0    0    0    0  0.00000000000E+00  0.00000000000E+00  0.45593999997E+02  0.45594000000E+02  0.51100000000E-03 0. -1.
         11   -1    0    0    0    0 -0.00000000000E+00 -0.00000000000E+00 -0.45593999997E+02  0.45594000000E+02  0.51100000000E-03 0.  1.
    9900012    2    1    2    0    0  0.79681327670E+01 -0.29729795769E+02  0.30598550391E+02  0.47787272099E+02  0.20000004810E+02 0.  0.
        -12    1    1    2    0    0 -0.79681327670E+01  0.29729795769E+02 -0.30598550391E+02  0.43400727901E+02  0.00000000000E+00 0.  1.
         11    1    3    3    0    0  0.10786939766E+02 -0.16128953481E+02  0.18360007066E+02  0.26713125418E+02  0.51100000000E-03 0. -1.
        -11    1    3    3    0    0 -0.49086096532E+01 -0.56639315974E+01  0.16452687683E+01  0.76734268387E+01  0.51100000000E-03 0.  1.
        -12    1    3    3    0    0  0.20898026545E+01 -0.79369106912E+01  0.10593274557E+02  0.13400719842E+02  0.00000000000E+00 0.  1.
</event>
<event>
 7    1  0.2530788E-009  0.4778727E+02  0.7816164E-02  0.1312668E+00
        -11   -1    0    0    0    0  0.00000000000E+00  0.00000000000E+00  0.45593999997E+02  0.45594000000E+02  0.51100000000E-03 0.  1.
         11   -1    0    0    0    0 -0.00000000000E+00 -0.00000000000E+00 -0.45593999997E+02  0.45594000000E+02  0.51100000000E-03 0. -1.
    9900012    2    1    2    0    0 -0.10034765624E+02  0.41542303058E+02 -0.75606652658E+01  0.47787272774E+02  0.20000007884E+02 0.  0.
        -12    1    1    2    0    0  0.10034765624E+02 -0.41542303058E+02  0.75606652658E+01  0.43400727226E+02  0.00000000000E+00 0.  1.
         11    1    3    3    0    0  0.27823902373E+01  0.16744217560E+02 -0.89230459831E+01  0.19176320476E+02  0.51100000000E-03 0. -1.
        -11    1    3    3    0    0 -0.64004875581E+01  0.15434016525E+02  0.34707102516E+01  0.17065196658E+02  0.51100000000E-03 0.  1.
         12    1    3    3    0    0 -0.64166683032E+01  0.93640689741E+01 -0.21083295343E+01  0.11545755640E+02  0.00000000000E+00 0. -1.
</event>
<event>
 7    1  0.2530788E-009  0.4778727E+02  0.7816164E-02  0.1312668E+00
        -11   -1    0    0    0    0  0.00000000000E+00  0.00000000000E+00  0.45593999997E+02  0.45594000000E+02  0.51100000000E-03 0.  1.
         11   -1    0    0    0    0 -0.00000000000E+00 -0.00000000000E+00 -0.45593999997E+02  0.45594000000E+02  0.51100000000E-03 0. -1.
    9900012    2    1    2    0    0  0.31070929090E+02  0.26639648198E+02 -0.14441255120E+02  0.47787270282E+02  0.19999996524E+02 0.  0.
        -12    1    1    2    0    0 -0.31070929090E+02 -0.26639648198E+02  0.14441255120E+02  0.43400729718E+02  0.00000000000E+00 0.  1.
         11    1    3    3    0    0  0.30155006242E+02  0.19658520182E+02 -0.12859334112E+02  0.38224917152E+02  0.51100000000E-03 0. -1.
        -11    1    3    3    0    0 -0.19026033705E+01  0.74504814245E+00  0.96581407836E+00  0.22600427905E+01  0.51100000000E-03 0.  1.
         12    1    3    3    0    0  0.28185262185E+01  0.62360798732E+01 -0.25477350870E+01  0.73023103401E+01  0.00000000000E+00 0. -1.
</event>
<event>
 7    1  0.2530788E-009  0.4778727E+02  0.7816164E-02  0.1312668E+00
        -11   -1    0    0    0    0  0.00000000000E+00  0.00000000000E+00  0.45593999997E+02  0.45594000000E+02  0.51100000000E-03 0. -1.
         11   -1    0    0    0    0 -0.00000000000E+00 -0.00000000000E+00 -0.45593999997E+02  0.45594000000E+02  0.51100000000E-03 0.  1.
    9900012    2    1    2    0    0  0.26708340739E+01  0.42246258766E+02 -0.95782890881E+01  0.47787270096E+02  0.19999995676E+02 0.  0.
        -12    1    1    2    0    0 -0.26708340739E+01 -0.42246258766E+02  0.95782890881E+01  0.43400729904E+02  0.00000000000E+00 0.  1.
         11    1    3    3    0    0  0.47435404914E+01  0.25531073603E+02  0.21200012631E+01  0.26054391210E+02  0.51100000000E-03 0. -1.
        -11    1    3    3    0    0 -0.38719060315E+01  0.47679287842E+01 -0.29340842811E+01  0.68068826960E+01  0.51100000000E-03 0.  1.
         12    1    3    3    0    0  0.17991996140E+01  0.11947256378E+02 -0.87642060701E+01  0.14925996190E+02  0.00000000000E+00 0. -1.
</event>
<event>
 7    1  0.2530788E-009  0.4778727E+02  0.7816164E-02  0.1312668E+00
        -11   -1    0    0    0    0  0.00000000000E+00  0.00000000000E+00  0.45593999997E+02  0.45594000000E+02  0.51100000000E-03 0. -1.
         11   -1    0    0    0    0 -0.00000000000E+00 -0.00000000000E+00 -0.45593999997E+02  0.45594000000E+02  0.51100000000E-03 0.  1.
    9900012    2    1    2    0    0 -0.18047164640E+02 -0.38101754326E+02  0.10304356748E+02  0.47787267261E+02  0.19999982750E+02 0.  0.
        -12    1    1    2    0    0  0.18047164640E+02  0.38101754326E+02 -0.10304356748E+02  0.43400732739E+02  0.00000000000E+00 0.  1.
         11    1    3    3    0    0 -0.14038331122E+02 -0.11787203059E+02  0.92327730053E+01  0.20524546141E+02  0.51100000000E-03 0. -1.
        -11    1    3    3    0    0 -0.34995941180E+01 -0.23901545295E+02  0.27009571170E+01  0.24306916630E+02  0.51100000000E-03 0.  1.
         12    1    3    3    0    0 -0.50923940005E+00 -0.24130059725E+01 -0.16293733745E+01  0.29558044900E+01  0.00000000000E+00 0. -1.
</event>
<event>
 7    1  0.2530788E-009  0.4778724E+02  0.7816164E-02  0.1312668E+00
        -11   -1    0    0    0    0  0.00000000000E+00  0.00000000000E+00  0.45593999997E+02  0.45594000000E+02  0.51100000000E-03 0.  1.
         11   -1    0    0    0    0 -0.00000000000E+00 -0.00000000000E+00 -0.45593999997E+02  0.45594000000E+02  0.51100000000E-03 0. -1.
    9900012    2    1    2    0    0  0.35226904234E+02 -0.59549269179E+01 -0.24642036657E+02  0.47787240708E+02  0.19999861686E+02 0.  0.
        -12    1    1    2    0    0 -0.35226904234E+02  0.59549269179E+01  0.24642036657E+02  0.43400759292E+02  0.00000000000E+00 0.  1.
         11    1    3    3    0    0  0.57237586729E+01  0.47532140764E+01 -0.31242620945E+00  0.74466145193E+01  0.51100000000E-03 0. -1.
        -11    1    3    3    0    0  0.13960346251E+02 -0.87142207641E+01 -0.11325354156E+02  0.19977301069E+02  0.51100000000E-03 0.  1.
         12    1    3    3    0    0  0.15542799310E+02 -0.19939202302E+01 -0.13004256291E+02  0.20363325120E+02  0.00000000000E+00 0. -1.
</event>
<event>
 7    1  0.2530788E-009  0.4778728E+02  0.7816164E-02  0.1312668E+00
        -11   -1    0    0    0    0  0.00000000000E+00  0.00000000000E+00  0.45593999997E+02  0.45594000000E+02  0.51100000000E-03 0.  1.
         11   -1    0    0    0    0 -0.00000000000E+00 -0.00000000000E+00 -0.45593999997E+02  0.45594000000E+02  0.51100000000E-03 0. -1.
    9900012    2    1    2    0    0 -0.31765136317E+02  0.10022093640E+02 -0.27823662467E+02  0.47787280659E+02  0.20000043838E+02 0.  0.
        -12    1    1    2    0    0  0.31765136317E+02 -0.10022093640E+02  0.27823662467E+02  0.43400719341E+02  0.00000000000E+00 0.  1.
         11    1    3    3    0    0 -0.26231055200E+01  0.41793821521E+01 -0.65682180471E+01  0.82151936263E+01  0.51100000000E-03 0. -1.
        -11    1    3    3    0    0 -0.62930017898E+01  0.70713055690E+01 -0.20200480389E+01  0.96791439868E+01  0.51100000000E-03 0.  1.
        -12    1    3    3    0    0 -0.22849029008E+02 -0.12285940814E+01 -0.19235396381E+02  0.29892943046E+02  0.00000000000E+00 0.  1.
</event>
<event>
 7    1  0.2530788E-009  0.4778727E+02  0.7816164E-02  0.1312668E+00
        -11   -1    0    0    0    0  0.00000000000E+00  0.00000000000E+00  0.45593999997E+02  0.45594000000E+02  0.51100000000E-03 0. -1.
         11   -1    0    0    0    0 -0.00000000000E+00 -0.00000000000E+00 -0.45593999997E+02  0.45594000000E+02  0.51100000000E-03 0.  1.
    9900012    2    1    2    0    0 -0.18090377347E+02 -0.24763718070E+02  0.30710254240E+02  0.47787271888E+02  0.20000003846E+02 0.  0.
        -12    1    1    2    0    0  0.18090377347E+02  0.24763718070E+02 -0.30710254240E+02  0.43400728112E+02  0.00000000000E+00 0.  1.
         11    1    3    3    0    0 -0.89058907949E+00 -0.45346286514E+00  0.11980562980E+02  0.12022173974E+02  0.51100000000E-03 0. -1.
        -11    1    3    3    0    0 -0.40377851878E+01 -0.92116278072E+01  0.36748060264E+01  0.10708034165E+02  0.51100000000E-03 0.  1.
         12    1    3    3    0    0 -0.13162003079E+02 -0.15098627397E+02  0.15054885233E+02  0.25057063749E+02  0.00000000000E+00 0. -1.
</event>
<event>
 7    1  0.2530788E-009  0.4778727E+02  0.7816164E-02  0.1312668E+00
        -11   -1    0    0    0    0  0.00000000000E+00  0.00000000000E+00  0.45593999997E+02  0.45594000000E+02  0.51100000000E-03 0.  1.
         11   -1    0    0    0    0 -0.00000000000E+00 -0.00000000000E+00 -0.45593999997E+02  0.45594000000E+02  0.51100000000E-03 0. -1.
    9900012    2    1    2    0    0 -0.69559763824E+01 -0.42375696645E+02  0.62879208507E+01  0.47787271639E+02  0.20000002712E+02 0.  0.
        -12    1    1    2    0    0  0.69559763824E+01  0.42375696645E+02 -0.62879208507E+01  0.43400728361E+02  0.00000000000E+00 0.  1.
         11    1    3    3    0    0 -0.48423827856E+01 -0.10713333955E+02 -0.20143952564E+01  0.11928201205E+02  0.51100000000E-03 0. -1.
        -11    1    3    3    0    0 -0.19258539575E+01 -0.24972891931E+02  0.12465636996E+02  0.27977604452E+02  0.51100000000E-03 0.  1.
        -12    1    3    3    0    0 -0.18773963920E+00 -0.66894707590E+01 -0.41633208891E+01  0.78814659824E+01  0.00000000000E+00 0.  1.
</event>
<event>
 7    1  0.2530788E-009  0.4778727E+02  0.7816164E-02  0.1312668E+00
        -11   -1    0    0    0    0  0.00000000000E+00  0.00000000000E+00  0.45593999997E+02  0.45594000000E+02  0.51100000000E-03 0.  1.
         11   -1    0    0    0    0 -0.00000000000E+00 -0.00000000000E+00 -0.45593999997E+02  0.45594000000E+02  0.51100000000E-03 0. -1.
    9900012    2    1    2    0    0 -0.15185831649E+02  0.31816391611E+02 -0.25312665801E+02  0.47787270652E+02  0.19999998209E+02 0.  0.
        -12    1    1    2    0    0  0.15185831649E+02 -0.31816391611E+02  0.25312665801E+02  0.43400729348E+02  0.00000000000E+00 0.  1.
         11    1    3    3    0    0 -0.14356022755E+02  0.19973392928E+02 -0.19909963708E+02  0.31645512629E+02  0.51100000000E-03 0. -1.
        -11    1    3    3    0    0 -0.43994132343E+01  0.10175122352E+02 -0.28463347905E+01  0.11445067658E+02  0.51100000000E-03 0.  1.
         12    1    3    3    0    0  0.35696043402E+01  0.16678763305E+01 -0.25563673018E+01  0.46966903647E+01  0.00000000000E+00 0. -1.
</event>
<event>
 7    1  0.2530788E-009  0.4778727E+02  0.7816164E-02  0.1312668E+00
        -11   -1    0    0    0    0  0.00000000000E+00  0.00000000000E+00  0.45593999997E+02  0.45594000000E+02  0.51100000000E-03 0.  1.
         11   -1    0    0    0    0 -0.00000000000E+00 -0.00000000000E+00 -0.45593999997E+02  0.45594000000E+02  0.51100000000E-03 0. -1.
    9900012    2    1    2    0    0  0.31395481650E+02 -0.28043265343E+02 -0.10560419312E+02  0.47787268956E+02  0.19999990479E+02 0.  0.
        -12    1    1    2    0    0 -0.31395481650E+02  0.28043265343E+02  0.10560419312E+02  0.43400731044E+02  0.00000000000E+00 0.  1.
         11    1    3    3    0    0  0.14026506748E+02 -0.63888056154E+01 -0.10284540307E+02  0.18529206630E+02  0.51100000000E-03 0. -1.
        -11    1    3    3    0    0  0.81777155034E+01 -0.17130190523E+02 -0.81412087784E+00  0.18999506606E+02  0.51100000000E-03 0.  1.
         12    1    3    3    0    0  0.91912593983E+01 -0.45242692042E+01  0.53824187261E+00  0.10258555721E+02  0.00000000000E+00 0. -1.
</event>
<event>
 7    1  0.2530788E-009  0.4778727E+02  0.7816164E-02  0.1312668E+00
        -11   -1    0    0    0    0  0.00000000000E+00  0.00000000000E+00  0.45593999997E+02  0.45594000000E+02  0.51100000000E-03 0.  1.
         11   -1    0    0    0    0 -0.00000000000E+00 -0.00000000000E+00 -0.45593999997E+02  0.45594000000E+02  0.51100000000E-03 0. -1.
    9900012    2    1    2    0    0 -0.37361285585E+01  0.23798142350E+02 -0.36101425557E+02  0.47787272320E+02  0.20000005816E+02 0.  0.
        -12    1    1    2    0    0  0.37361285585E+01 -0.23798142350E+02  0.36101425557E+02  0.43400727680E+02  0.00000000000E+00 0.  1.
         11    1    3    3    0    0  0.52496570437E+00  0.54722772568E+01 -0.50170033034E+01  0.74425620436E+01  0.51100000000E-03 0. -1.
        -11    1    3    3    0    0  0.14923531284E+01  0.17706773272E+02 -0.15010671199E+02  0.23261065918E+02  0.51100000000E-03 0.  1.
        -12    1    3    3    0    0 -0.57534473913E+01  0.61909182090E+00 -0.16073751055E+02  0.17083644358E+02  0.00000000000E+00 0.  1.
</event>
<event>
 7    1  0.2530788E-009  0.4778727E+02  0.7816164E-02  0.1312668E+00
        -11   -1    0    0    0    0  0.00000000000E+00  0.00000000000E+00  0.45593999997E+02  0.45594000000E+02  0.51100000000E-03 0. -1.
         11   -1    0    0    0    0 -0.00000000000E+00 -0.00000000000E+00 -0.45593999997E+02  0.45594000000E+02  0.51100000000E-03 0.  1.
    9900012    2    1    2    0    0 -0.29935026748E+02  0.31126870007E+02  0.43168396620E+01  0.47787274574E+02  0.20000016091E+02 0.  0.
        -12    1    1    2    0    0  0.29935026748E+02 -0.31126870007E+02 -0.43168396620E+01  0.43400725426E+02  0.00000000000E+00 0.  1.
         11    1    3    3    0    0 -0.61508964899E+01  0.13986911567E+02  0.18794746921E+01  0.15394792892E+02  0.51100000000E-03 0. -1.
        -11    1    3    3    0    0 -0.17345188814E+02  0.64058247454E+01  0.58936161706E+01  0.19406825538E+02  0.51100000000E-03 0.  1.
        -12    1    3    3    0    0 -0.64389414449E+01  0.10734133694E+02 -0.34562512007E+01  0.12985656143E+02  0.00000000000E+00 0.  1.
</event>
<event>
 7    1  0.2530788E-009  0.4778731E+02  0.7816164E-02  0.1312668E+00
        -11   -1    0    0    0    0  0.00000000000E+00  0.00000000000E+00  0.45593999997E+02  0.45594000000E+02  0.51100000000E-03 0. -1.
         11   -1    0    0    0    0 -0.00000000000E+00 -0.00000000000E+00 -0.45593999997E+02  0.45594000000E+02  0.51100000000E-03 0.  1.
    9900012    2    1    2    0    0 -0.29929079112E+02  0.19481405017E+02  0.24664653554E+02  0.47787308153E+02  0.20000169190E+02 0.  0.
        -12    1    1    2    0    0  0.29929079112E+02 -0.19481405017E+02 -0.24664653554E+02  0.43400691847E+02  0.00000000000E+00 0.  1.
         11    1    3    3    0    0 -0.28570184921E+02  0.18793539514E+02  0.23060663613E+02  0.41246173161E+02  0.51100000000E-03 0. -1.
        -11    1    3    3    0    0 -0.20799255603E+01 -0.19079581937E+01 -0.79652488240E+00  0.29327200608E+01  0.51100000000E-03 0.  1.
         12    1    3    3    0    0  0.72103136945E+00  0.25958236960E+01  0.24005148232E+01  0.36084149308E+01  0.00000000000E+00 0. -1.
</event>
<event>
 7    1  0.2530788E-009  0.4778726E+02  0.7816164E-02  0.1312668E+00
        -11   -1    0    0    0    0  0.00000000000E+00  0.00000000000E+00  0.45593999997E+02  0.45594000000E+02  0.51100000000E-03 0. -1.
         11   -1    0    0    0    0 -0.00000000000E+00 -0.00000000000E+00 -0.45593999997E+02  0.45594000000E+02  0.51100000000E-03 0.  1.
    9900012    2    1    2    0    0  0.27341595615E+02 -0.30140518056E+02  0.15086755644E+02  0.47787264116E+02  0.19999968409E+02 0.  0.
        -12    1    1    2    0    0 -0.27341595615E+02  0.30140518056E+02 -0.15086755644E+02  0.43400735884E+02  0.00000000000E+00 0.  1.
         11    1    3    3    0    0  0.36988788021E+01 -0.14300038472E+02  0.91715168158E+01  0.17386475366E+02  0.51100000000E-03 0. -1.
        -11    1    3    3    0    0  0.16304762295E+02 -0.97714867729E+01 -0.33273399709E+00  0.19011521228E+02  0.51100000000E-03 0.  1.
        -12    1    3    3    0    0  0.73379545178E+01 -0.60689928107E+01  0.62479728255E+01  0.11389267521E+02  0.00000000000E+00 0.  1.
</event>
<event>
 7    1  0.2530788E-009  0.4778727E+02  0.7816164E-02  0.1312668E+00
        -11   -1    0    0    0    0  0.00000000000E+00  0.00000000000E+00  0.45593999997E+02  0.45594000000E+02  0.51100000000E-03 0. -1.
         11   -1    0    0    0    0 -0.00000000000E+00 -0.00000000000E+00 -0.45593999997E+02  0.45594000000E+02  0.51100000000E-03 0.  1.
    9900012    2    1    2    0    0  0.39480497498E+02  0.16425945709E+02 -0.74230702181E+01  0.47787270207E+02  0.19999996181E+02 0.  0.
        -12    1    1    2    0    0 -0.39480497498E+02 -0.16425945709E+02  0.74230702181E+01  0.43400729793E+02  0.00000000000E+00 0.  1.
         11    1    3    3    0    0  0.32140037701E+02  0.13779681238E+02 -0.29122760701E+01  0.35090497156E+02  0.51100000000E-03 0. -1.
        -11    1    3    3    0    0  0.11868209663E+01  0.14976827945E+01 -0.59705629945E+01  0.62689090352E+01  0.51100000000E-03 0.  1.
         12    1    3    3    0    0  0.61536388305E+01  0.11485816763E+01  0.14597688464E+01  0.64278640160E+01  0.00000000000E+00 0. -1.
</event>
<event>
 7    1  0.2530788E-009  0.4778727E+02  0.7816164E-02  0.1312668E+00
        -11   -1    0    0    0    0  0.00000000000E+00  0.00000000000E+00  0.45593999997E+02  0.45594000000E+02  0.51100000000E-03 0.  1.
         11   -1    0    0    0    0 -0.00000000000E+00 -0.00000000000E+00 -0.45593999997E+02  0.45594000000E+02  0.51100000000E-03 0. -1.
    9900012    2    1    2    0    0 -0.39675664845E+02 -0.47258964384E+01 -0.16944924963E+02  0.47787274660E+02  0.20000016487E+02 0.  0.
        -12    1    1    2    0    0  0.39675664845E+02  0.47258964384E+01  0.16944924963E+02  0.43400725340E+02  0.00000000000E+00 0.  1.
         11    1    3    3    0    0 -0.35487630272E+02 -0.20759582730E+01 -0.13051069912E+02  0.37868349993E+02  0.51100000000E-03 0. -1.
        -11    1    3    3    0    0 -0.17279940903E+00 -0.40825115234E+01  0.85619868488E-01  0.40870638602E+01  0.51100000000E-03 0.  1.
        -12    1    3    3    0    0 -0.40152351633E+01  0.14325733580E+01 -0.39794749190E+01  0.58318608071E+01  0.00000000000E+00 0.  1.
</event>
<event>
 7    1  0.2530788E-009  0.4778727E+02  0.7816164E-02  0.1312668E+00
        -11   -1    0    0    0    0  0.00000000000E+00  0.00000000000E+00  0.45593999997E+02  0.45594000000E+02  0.51100000000E-03 0.  1.
         11   -1    0    0    0    0 -0.00000000000E+00 -0.00000000000E+00 -0.45593999997E+02  0.45594000000E+02  0.51100000000E-03 0. -1.
    9900012    2    1    2    0    0  0.36760863438E+02 -0.18865668841E+02 -0.13279629691E+02  0.47787272976E+02  0.20000008807E+02 0.  0.
        -12    1    1    2    0    0 -0.36760863438E+02  0.18865668841E+02  0.13279629691E+02  0.43400727024E+02  0.00000000000E+00 0.  1.
         11    1    3    3    0    0  0.21226899307E+02 -0.15113169075E+02 -0.14120702288E+02  0.29637533079E+02  0.51100000000E-03 0. -1.
        -11    1    3    3    0    0  0.79203210300E+01 -0.18906989063E+01  0.47120772435E+01  0.94079700139E+01  0.51100000000E-03 0.  1.
         12    1    3    3    0    0  0.76136431009E+01 -0.18618008593E+01 -0.38710046465E+01  0.87417698826E+01  0.00000000000E+00 0. -1.
</event>
<event>
 7    1  0.2530788E-009  0.4778727E+02  0.7816164E-02  0.1312668E+00
        -11   -1    0    0    0    0  0.00000000000E+00  0.00000000000E+00  0.45593999997E+02  0.45594000000E+02  0.51100000000E-03 0. -1.
         11   -1    0    0    0    0 -0.00000000000E+00 -0.00000000000E+00 -0.45593999997E+02  0.45594000000E+02  0.51100000000E-03 0.  1.
    9900012    2    1    2    0    0 -0.20777179639E+02  0.20157495813E+02  0.32335858849E+02  0.47787267302E+02  0.19999982938E+02 0.  0.
        -12    1    1    2    0    0  0.20777179639E+02 -0.20157495813E+02 -0.32335858849E+02  0.43400732698E+02  0.00000000000E+00 0.  1.
         11    1    3    3    0    0 -0.12084013758E+02  0.16870186782E+01  0.85741951970E+01  0.14912620295E+02  0.51100000000E-03 0. -1.
        -11    1    3    3    0    0 -0.30267878520E+01  0.10043142113E+02  0.18900152174E+02  0.21615778975E+02  0.51100000000E-03 0.  1.
         12    1    3    3    0    0 -0.56663780292E+01  0.84273350213E+01  0.48615114778E+01  0.11258868033E+02  0.00000000000E+00 0. -1.
</event>
<event>
 7    1  0.2530788E-009  0.4778726E+02  0.7816164E-02  0.1312668E+00
        -11   -1    0    0    0    0  0.00000000000E+00  0.00000000000E+00  0.45593999997E+02  0.45594000000E+02  0.51100000000E-03 0. -1.
         11   -1    0    0    0    0 -0.00000000000E+00 -0.00000000000E+00 -0.45593999997E+02  0.45594000000E+02  0.51100000000E-03 0.  1.
    9900012    2    1    2    0    0  0.86111857798E+00 -0.43013973310E+02  0.57166764693E+01  0.47787264810E+02  0.19999971576E+02 0.  0.
        -12    1    1    2    0    0 -0.86111857798E+00  0.43013973310E+02 -0.57166764693E+01  0.43400735190E+02  0.00000000000E+00 0.  1.
         11    1    3    3    0    0  0.35519383694E+01 -0.12933304169E+02  0.70438829035E+01  0.15149353436E+02  0.51100000000E-03 0. -1.
        -11    1    3    3    0    0 -0.10725522557E+01 -0.12923281612E+02 -0.66867541542E+01  0.14590211011E+02  0.51100000000E-03 0.  1.
         12    1    3    3    0    0 -0.16182675357E+01 -0.17157387529E+02  0.53595477199E+01  0.18047700364E+02  0.00000000000E+00 0. -1.
</event>
<event>
 7    1  0.3430349E-009  0.4778727E+02  0.7816164E-02  0.1312668E+00
        -11   -1    0    0    0    0  0.00000000000E+00  0.00000000000E+00  0.45593999997E+02  0.45594000000E+02  0.51100000000E-03 0. -1.
         11   -1    0    0    0    0 -0.00000000000E+00 -0.00000000000E+00 -0.45593999997E+02  0.45594000000E+02  0.51100000000E-03 0.  1.
    9900012    2    1    2    0    0 -0.16846930701E+02 -0.18852959662E+02  0.35275629433E+02  0.47787271965E+02  0.20000004197E+02 0.  0.
        -12    1    1    2    0    0  0.16846930701E+02  0.18852959662E+02 -0.35275629433E+02  0.43400728035E+02  0.00000000000E+00 0.  1.
         11    1    3    3    0    0 -0.98044232636E+01 -0.10206875148E+02  0.22382589132E+02  0.26481829852E+02  0.51100000000E-03 0.  1.
        -11    1    3    3    0    0  0.12752086463E+01  0.26144752529E+01  0.28819835124E+01  0.40948097839E+01  0.51100000000E-03 0. -1.
        -12    1    3    3    0    0 -0.83177160840E+01 -0.11260559768E+02  0.10011056789E+02  0.17210632329E+02  0.00000000000E+00 0.  1.
</event>
<event>
 7    1  0.2530788E-009  0.4778727E+02  0.7816164E-02  0.1312668E+00
        -11   -1    0    0    0    0  0.00000000000E+00  0.00000000000E+00  0.45593999997E+02  0.45594000000E+02  0.51100000000E-03 0. -1.
         11   -1    0    0    0    0 -0.00000000000E+00 -0.00000000000E+00 -0.45593999997E+02  0.45594000000E+02  0.51100000000E-03 0.  1.
    9900012    2    1    2    0    0 -0.11935316508E+01  0.42100982691E+02 -0.10474072575E+02  0.47787268927E+02  0.19999990344E+02 0.  0.
        -12    1    1    2    0    0  0.11935316508E+01 -0.42100982691E+02  0.10474072575E+02  0.43400731073E+02  0.00000000000E+00 0.  1.
         11    1    3    3    0    0  0.15131868311E+01  0.58352740903E+01 -0.29164370963E+01  0.66966979693E+01  0.51100000000E-03 0. -1.
        -11    1    3    3    0    0  0.52488255661E+01  0.20896044166E+02  0.14239938318E+01  0.21592188178E+02  0.51100000000E-03 0.  1.
        -12    1    3    3    0    0 -0.79555440480E+01  0.15369664435E+02 -0.89816293106E+01  0.19498382780E+02  0.00000000000E+00 0.  1.
</event>
<event>
 7    1  0.2530788E-009  0.4778727E+02  0.7816164E-02  0.1312668E+00
        -11   -1    0    0    0    0  0.00000000000E+00  0.00000000000E+00  0.45593999997E+02  0.45594000000E+02  0.51100000000E-03 0.  1.
         11   -1    0    0    0    0 -0.00000000000E+00 -0.00000000000E+00 -0.45593999997E+02  0.45594000000E+02  0.51100000000E-03 0. -1.
    9900012    2    1    2    0    0  0.31381677692E+02 -0.14317613418E+00 -0.29979876125E+02  0.47787272279E+02  0.20000005630E+02 0.  0.
        -12    1    1    2    0    0 -0.31381677692E+02  0.14317613418E+00  0.29979876125E+02  0.43400727721E+02  0.00000000000E+00 0.  1.
         11    1    3    3    0    0  0.47108993294E+01 -0.67102591537E+00 -0.17170489603E+02  0.17817647481E+02  0.51100000000E-03 0. -1.
        -11    1    3    3    0    0  0.12751474112E+02 -0.99012532703E+00 -0.38905027537E+01  0.13368487279E+02  0.51100000000E-03 0.  1.
         12    1    3    3    0    0  0.13919304251E+02  0.15179751082E+01 -0.89188837683E+01  0.16601137519E+02  0.00000000000E+00 0. -1.
</event>
<event>
 7    1  0.2530788E-009  0.4778727E+02  0.7816164E-02  0.1312668E+00
        -11   -1    0    0    0    0  0.00000000000E+00  0.00000000000E+00  0.45593999997E+02  0.45594000000E+02  0.51100000000E-03 0. -1.
         11   -1    0    0    0    0 -0.00000000000E+00 -0.00000000000E+00 -0.45593999997E+02  0.45594000000E+02  0.51100000000E-03 0.  1.
    9900012    2    1    2    0    0 -0.31806001355E+02 -0.88915121648E+01 -0.28159238334E+02  0.47787269427E+02  0.19999992624E+02 0.  0.
        -12    1    1    2    0    0  0.31806001355E+02  0.88915121648E+01  0.28159238334E+02  0.43400730573E+02  0.00000000000E+00 0.  1.
         11    1    3    3    0    0 -0.19985480115E+02  0.24619357930E+01 -0.20243000074E+02  0.28552751103E+02  0.51100000000E-03 0. -1.
        -11    1    3    3    0    0 -0.18257606866E+01 -0.58327931551E+01 -0.27711439374E+01  0.67107463860E+01  0.51100000000E-03 0.  1.
         12    1    3    3    0    0 -0.99947605533E+01 -0.55206548027E+01 -0.51450943221E+01  0.12523771938E+02  0.00000000000E+00 0. -1.
</event>
<event>
 7    1  0.2530788E-009  0.4778727E+02  0.7816164E-02  0.1312668E+00
        -11   -1    0    0    0    0  0.00000000000E+00  0.00000000000E+00  0.45593999997E+02  0.45594000000E+02  0.51100000000E-03 0.  1.
         11   -1    0    0    0    0 -0.00000000000E+00 -0.00000000000E+00 -0.45593999997E+02  0.45594000000E+02  0.51100000000E-03 0. -1.
    9900012    2    1    2    0    0  0.25856247479E+02  0.52161062556E+01  0.34465490699E+02  0.47787270198E+02  0.19999996143E+02 0.  0.
        -12    1    1    2    0    0 -0.25856247479E+02 -0.52161062556E+01 -0.34465490699E+02  0.43400729802E+02  0.00000000000E+00 0.  1.
         11    1    3    3    0    0  0.83467777401E+01 -0.46567990118E+01  0.47101393340E+01  0.10655509771E+02  0.51100000000E-03 0. -1.
        -11    1    3    3    0    0  0.12649180262E+02  0.11455400603E+02  0.21987523995E+02  0.27833059047E+02  0.51100000000E-03 0.  1.
        -12    1    3    3    0    0  0.48602894774E+01 -0.15824953352E+01  0.77678273706E+01  0.92987013797E+01  0.00000000000E+00 0.  1.
</event>
<event>
 7    1  0.2530788E-009  0.4778727E+02  0.7816164E-02  0.1312668E+00
        -11   -1    0    0    0    0  0.00000000000E+00  0.00000000000E+00  0.45593999997E+02  0.45594000000E+02  0.51100000000E-03 0.  1.
         11   -1    0    0    0    0 -0.00000000000E+00 -0.00000000000E+00 -0.45593999997E+02  0.45594000000E+02  0.51100000000E-03 0. -1.
    9900012    2    1    2    0    0 -0.40564010962E+02  0.14139653383E+02 -0.61849990834E+01  0.47787274237E+02  0.20000014557E+02 0.  0.
        -12    1    1    2    0    0  0.40564010962E+02 -0.14139653383E+02  0.61849990834E+01  0.43400725763E+02  0.00000000000E+00 0.  1.
         11    1    3    3    0    0 -0.22007551360E+01  0.18255238712E+01 -0.24590404275E+01  0.37713049013E+01  0.51100000000E-03 0. -1.
        -11    1    3    3    0    0 -0.32397348425E+02  0.16442264455E+02 -0.49230873487E+01  0.36662965437E+02  0.51100000000E-03 0.  1.
        -12    1    3    3    0    0 -0.59659074009E+01 -0.41281349430E+01  0.11971286929E+01  0.73530038985E+01  0.00000000000E+00 0.  1.
</event>
<event>
 7    1  0.2530788E-009  0.4778727E+02  0.7816164E-02  0.1312668E+00
        -11   -1    0    0    0    0  0.00000000000E+00  0.00000000000E+00  0.45593999997E+02  0.45594000000E+02  0.51100000000E-03 0.  1.
         11   -1    0    0    0    0 -0.00000000000E+00 -0.00000000000E+00 -0.45593999997E+02  0.45594000000E+02  0.51100000000E-03 0. -1.
    9900012    2    1    2    0    0  0.18986097808E+02  0.36024285388E+02  0.15013398297E+02  0.47787272171E+02  0.20000005135E+02 0.  0.
        -12    1    1    2    0    0 -0.18986097808E+02 -0.36024285388E+02 -0.15013398297E+02  0.43400727829E+02  0.00000000000E+00 0.  1.
         11    1    3    3    0    0  0.14980742323E+01  0.12190426328E+01  0.76166237186E+01  0.78576872220E+01  0.51100000000E-03 0. -1.
        -11    1    3    3    0    0  0.13397486130E+01  0.65102267727E+01  0.16420895197E+01  0.68464908698E+01  0.51100000000E-03 0.  1.
         12    1    3    3    0    0  0.16148274962E+02  0.28295015982E+02  0.57546850589E+01  0.33083094079E+02  0.00000000000E+00 0. -1.
</event>
<event>
 7    1  0.2633006E-009  0.4778727E+02  0.7816164E-02  0.1312668E+00
        -11   -1    0    0    0    0  0.00000000000E+00  0.00000000000E+00  0.45593999997E+02  0.45594000000E+02  0.51100000000E-03 0.  1.
         11   -1    0    0    0    0 -0.00000000000E+00 -0.00000000000E+00 -0.45593999997E+02  0.45594000000E+02  0.51100000000E-03 0. -1.
    9900012    2    1    2    0    0  0.20393499313E+02  0.35307386871E+02 -0.14869996480E+02  0.47787272159E+02  0.20000005080E+02 0.  0.
        -12    1    1    2    0    0 -0.20393499313E+02 -0.35307386871E+02  0.14869996480E+02  0.43400727841E+02  0.00000000000E+00 0.  1.
         11    1    3    3    0    0  0.15487693435E+02  0.24696765031E+02 -0.93834836462E+01  0.30624314140E+02  0.51100000000E-03 0. -1.
        -11    1    3    3    0    0  0.23691413504E+01  0.36659104777E+01 -0.81983057794E+01  0.92878387305E+01  0.51100000000E-03 0.  1.
        -12    1    3    3    0    0  0.25366645270E+01  0.69447113623E+01  0.27117929458E+01  0.78751192886E+01  0.00000000000E+00 0.  1.
</event>
<event>
 7    1  0.2530788E-009  0.4778727E+02  0.7816164E-02  0.1312668E+00
        -11   -1    0    0    0    0  0.00000000000E+00  0.00000000000E+00  0.45593999997E+02  0.45594000000E+02  0.51100000000E-03 0.  1.
         11   -1    0    0    0    0 -0.00000000000E+00 -0.00000000000E+00 -0.45593999997E+02  0.45594000000E+02  0.51100000000E-03 0. -1.
    9900012    2    1    2    0    0 -0.43051430086E+02  0.51299093095E+01  0.19701413526E+01  0.47787273521E+02  0.20000011291E+02 0.  0.
        -12    1    1    2    0    0  0.43051430086E+02 -0.51299093095E+01 -0.19701413526E+01  0.43400726479E+02  0.00000000000E+00 0.  1.
         11    1    3    3    0    0 -0.50247151666E+01  0.53350050890E+01  0.89289356735E+00  0.73829059990E+01  0.51100000000E-03 0. -1.
        -11    1    3    3    0    0 -0.34563979296E+02 -0.31087255347E+01  0.41336255340E+01  0.34948815424E+02  0.51100000000E-03 0.  1.
         12    1    3    3    0    0 -0.34627356236E+01  0.29036297552E+01 -0.30563777488E+01  0.54555520983E+01  0.00000000000E+00 0. -1.
</event>
<event>
 7    1  0.2530788E-009  0.4778727E+02  0.7816164E-02  0.1312668E+00
        -11   -1    0    0    0    0  0.00000000000E+00  0.00000000000E+00  0.45593999997E+02  0.45594000000E+02  0.51100000000E-03 0.  1.
         11   -1    0    0    0    0 -0.00000000000E+00 -0.00000000000E+00 -0.45593999997E+02  0.45594000000E+02  0.51100000000E-03 0. -1.
    9900012    2    1    2    0    0 -0.23718444275E+02  0.25340802349E+02 -0.26055753285E+02  0.47787272567E+02  0.20000006940E+02 0.  0.
        -12    1    1    2    0    0  0.23718444275E+02 -0.25340802349E+02  0.26055753285E+02  0.43400727433E+02  0.00000000000E+00 0.  1.
         11    1    3    3    0    0 -0.35878926004E+01  0.16249822358E+01 -0.12733986075E+02  0.13329213862E+02  0.51100000000E-03 0. -1.
        -11    1    3    3    0    0 -0.71392889185E+01  0.10739110360E+02 -0.24733513467E+01  0.13130704655E+02  0.51100000000E-03 0.  1.
         12    1    3    3    0    0 -0.12991262756E+02  0.12976709753E+02 -0.10848415864E+02  0.21327354050E+02  0.00000000000E+00 0. -1.
</event>
<event>
 7    1  0.2530788E-009  0.4778727E+02  0.7816164E-02  0.1312668E+00
        -11   -1    0    0    0    0  0.00000000000E+00  0.00000000000E+00  0.45593999997E+02  0.45594000000E+02  0.51100000000E-03 0.  1.
         11   -1    0    0    0    0 -0.00000000000E+00 -0.00000000000E+00 -0.45593999997E+02  0.45594000000E+02  0.51100000000E-03 0. -1.
    9900012    2    1    2    0    0 -0.31405917911E+02  0.12348437044E+02 -0.27291162687E+02  0.47787272609E+02  0.20000007135E+02 0.  0.
        -12    1    1    2    0    0  0.31405917911E+02 -0.12348437044E+02  0.27291162687E+02  0.43400727391E+02  0.00000000000E+00 0.  1.
         11    1    3    3    0    0 -0.23571626187E+01 -0.29014976508E+01 -0.99303540078E+01  0.10610694379E+02  0.51100000000E-03 0.  1.
        -11    1    3    3    0    0 -0.20038800337E+02  0.10821053912E+02 -0.13075994460E+02  0.26260814117E+02  0.51100000000E-03 0. -1.
        -12    1    3    3    0    0 -0.90099549552E+01  0.44288807825E+01 -0.42848142194E+01  0.10915764113E+02  0.00000000000E+00 0.  1.
</event>
<event>
 7    1  0.2530788E-009  0.4778727E+02  0.7816164E-02  0.1312668E+00
        -11   -1    0    0    0    0  0.00000000000E+00  0.00000000000E+00  0.45593999997E+02  0.45594000000E+02  0.51100000000E-03 0.  1.
         11   -1    0    0    0    0 -0.00000000000E+00 -0.00000000000E+00 -0.45593999997E+02  0.45594000000E+02  0.51100000000E-03 0. -1.
    9900012    2    1    2    0    0 -0.88692938162E+01  0.79089259260E+01 -0.41742156120E+02  0.47787273282E+02  0.20000010201E+02 0.  0.
        -12    1    1    2    0    0  0.88692938162E+01 -0.79089259260E+01  0.41742156120E+02  0.43400726718E+02  0.00000000000E+00 0.  1.
         11    1    3    3    0    0 -0.84552065067E+01  0.33126124038E+01 -0.73618697460E+01  0.11690211479E+02  0.51100000000E-03 0. -1.
        -11    1    3    3    0    0  0.31320931860E+01  0.12774411097E+01 -0.27313224988E+02  0.27521884438E+02  0.51100000000E-03 0.  1.
        -12    1    3    3    0    0 -0.35461804956E+01  0.33188724125E+01 -0.70670613866E+01  0.85751773649E+01  0.00000000000E+00 0.  1.
</event>
<event>
 7    1  0.2530788E-009  0.4778727E+02  0.7816164E-02  0.1312668E+00
        -11   -1    0    0    0    0  0.00000000000E+00  0.00000000000E+00  0.45593999997E+02  0.45594000000E+02  0.51100000000E-03 0.  1.
         11   -1    0    0    0    0 -0.00000000000E+00 -0.00000000000E+00 -0.45593999997E+02  0.45594000000E+02  0.51100000000E-03 0. -1.
    9900012    2    1    2    0    0 -0.21708806467E+02  0.24279072432E+02 -0.28685843559E+02  0.47787271237E+02  0.20000000880E+02 0.  0.
        -12    1    1    2    0    0  0.21708806467E+02 -0.24279072432E+02  0.28685843559E+02  0.43400728763E+02  0.00000000000E+00 0.  1.
         11    1    3    3    0    0 -0.17225521272E+02  0.71436296951E+01 -0.10173266616E+02  0.21242537095E+02  0.51100000000E-03 0. -1.
        -11    1    3    3    0    0 -0.31892510279E+00  0.10585738413E+02 -0.71269945462E+01  0.12765328922E+02  0.51100000000E-03 0.  1.
        -12    1    3    3    0    0 -0.41643600920E+01  0.65497043244E+01 -0.11385582397E+02  0.13779405220E+02  0.00000000000E+00 0.  1.
</event>
<event>
 7    1  0.2530788E-009  0.4778727E+02  0.7816164E-02  0.1312668E+00
        -11   -1    0    0    0    0  0.00000000000E+00  0.00000000000E+00  0.45593999997E+02  0.45594000000E+02  0.51100000000E-03 0.  1.
         11   -1    0    0    0    0 -0.00000000000E+00 -0.00000000000E+00 -0.45593999997E+02  0.45594000000E+02  0.51100000000E-03 0. -1.
    9900012    2    1    2    0    0 -0.69276509364E-01  0.36745366174E+02 -0.23095384729E+02  0.47787268091E+02  0.19999986532E+02 0.  0.
        -12    1    1    2    0    0  0.69276509364E-01 -0.36745366174E+02  0.23095384729E+02  0.43400731909E+02  0.00000000000E+00 0.  1.
         11    1    3    3    0    0  0.59998861316E+01  0.18278465572E+02 -0.18129497200E+02  0.26434439776E+02  0.51100000000E-03 0. -1.
        -11    1    3    3    0    0 -0.55976485796E+01  0.18019453955E+02 -0.62801968978E+01  0.19886559878E+02  0.51100000000E-03 0.  1.
         12    1    3    3    0    0 -0.47151406132E+00  0.44744664723E+00  0.13143093689E+01  0.14662684370E+01  0.00000000000E+00 0. -1.
</event>
<event>
 7    1  0.2530788E-009  0.4778728E+02  0.7816164E-02  0.1312668E+00
        -11   -1    0    0    0    0  0.00000000000E+00  0.00000000000E+00  0.45593999997E+02  0.45594000000E+02  0.51100000000E-03 0.  1.
         11   -1    0    0    0    0 -0.00000000000E+00 -0.00000000000E+00 -0.45593999997E+02  0.45594000000E+02  0.51100000000E-03 0. -1.
    9900012    2    1    2    0    0 -0.38139691586E+02  0.27544433760E+01 -0.20528022430E+02  0.47787277224E+02  0.20000028176E+02 0.  0.
        -12    1    1    2    0    0  0.38139691586E+02 -0.27544433760E+01  0.20528022430E+02  0.43400722776E+02  0.00000000000E+00 0.  1.
         11    1    3    3    0    0 -0.68320266305E+01 -0.58901367362E+01 -0.77908130859E+01  0.11919189043E+02  0.51100000000E-03 0. -1.
        -11    1    3    3    0    0 -0.10534814094E+02  0.25450963876E+01 -0.17845432549E+00  0.10839357446E+02  0.51100000000E-03 0.  1.
         12    1    3    3    0    0 -0.20772850861E+02  0.60994837246E+01 -0.12558755018E+02  0.25028730735E+02  0.00000000000E+00 0. -1.
</event>
<event>
 7    1  0.2530788E-009  0.4778727E+02  0.7816164E-02  0.1312668E+00
        -11   -1    0    0    0    0  0.00000000000E+00  0.00000000000E+00  0.45593999997E+02  0.45594000000E+02  0.51100000000E-03 0. -1.
         11   -1    0    0    0    0 -0.00000000000E+00 -0.00000000000E+00 -0.45593999997E+02  0.45594000000E+02  0.51100000000E-03 0.  1.
    9900012    2    1    2    0    0  0.73641692073E+01 -0.38459241254E+02  0.18715746264E+02  0.47787269774E+02  0.19999994207E+02 0.  0.
        -12    1    1    2    0    0 -0.73641692073E+01  0.38459241254E+02 -0.18715746264E+02  0.43400730226E+02  0.00000000000E+00 0.  1.
         11    1    3    3    0    0  0.93605073195E+00 -0.19170409650E+02  0.21228745866E+01  0.19310292434E+02  0.51100000000E-03 0. -1.
        -11    1    3    3    0    0  0.60535351437E+01 -0.20298284590E+02  0.17159638320E+02  0.27260206026E+02  0.51100000000E-03 0.  1.
        -12    1    3    3    0    0  0.37458333166E+00  0.10094529859E+01 -0.56676664266E+00  0.12167713139E+01  0.00000000000E+00 0.  1.
</event>
<event>
 7    1  0.2530788E-009  0.4778727E+02  0.7816164E-02  0.1312668E+00
        -11   -1    0    0    0    0  0.00000000000E+00  0.00000000000E+00  0.45593999997E+02  0.45594000000E+02  0.51100000000E-03 0.  1.
         11   -1    0    0    0    0 -0.00000000000E+00 -0.00000000000E+00 -0.45593999997E+02  0.45594000000E+02  0.51100000000E-03 0. -1.
    9900012    2    1    2    0    0 -0.31517377270E+02  0.20762754603E+02 -0.21428628454E+02  0.47787272286E+02  0.20000005661E+02 0.  0.
        -12    1    1    2    0    0  0.31517377270E+02 -0.20762754603E+02  0.21428628454E+02  0.43400727714E+02  0.00000000000E+00 0.  1.
         11    1    3    3    0    0 -0.75292903760E+01  0.79524056302E+01  0.11861806591E+01  0.11015352636E+02  0.51100000000E-03 0. -1.
        -11    1    3    3    0    0 -0.10927183986E+02  0.88660073827E+01 -0.16869930520E+02  0.21968249652E+02  0.51100000000E-03 0.  1.
         12    1    3    3    0    0 -0.13060902908E+02  0.39443415901E+01 -0.57448785924E+01  0.14803669998E+02  0.00000000000E+00 0. -1.
</event>
<event>
 7    1  0.2530788E-009  0.4778727E+02  0.7816164E-02  0.1312668E+00
        -11   -1    0    0    0    0  0.00000000000E+00  0.00000000000E+00  0.45593999997E+02  0.45594000000E+02  0.51100000000E-03 0. -1.
         11   -1    0    0    0    0 -0.00000000000E+00 -0.00000000000E+00 -0.45593999997E+02  0.45594000000E+02  0.51100000000E-03 0.  1.
    9900012    2    1    2    0    0  0.17486927373E+02  0.22349733163E+02  0.32837785406E+02  0.47787270147E+02  0.19999995907E+02 0.  0.
        -12    1    1    2    0    0 -0.17486927373E+02 -0.22349733163E+02 -0.32837785406E+02  0.43400729853E+02  0.00000000000E+00 0.  1.
         11    1    3    3    0    0  0.16600800997E+02  0.19193246056E+02  0.27670996250E+02  0.37545323565E+02  0.51100000000E-03 0. -1.
        -11    1    3    3    0    0  0.37806108054E+01  0.34435801165E+00  0.14429838516E+00  0.37990028675E+01  0.51100000000E-03 0.  1.
         12    1    3    3    0    0 -0.28944844286E+01  0.28121290959E+01  0.50224907707E+01  0.64429437140E+01  0.00000000000E+00 0. -1.
</event>
<event>
 7    1  0.2530788E-009  0.4778727E+02  0.7816164E-02  0.1312668E+00
        -11   -1    0    0    0    0  0.00000000000E+00  0.00000000000E+00  0.45593999997E+02  0.45594000000E+02  0.51100000000E-03 0. -1.
         11   -1    0    0    0    0 -0.00000000000E+00 -0.00000000000E+00 -0.45593999997E+02  0.45594000000E+02  0.51100000000E-03 0.  1.
    9900012    2    1    2    0    0  0.28442705085E+02  0.25047087433E+02  0.21148974304E+02  0.47787272177E+02  0.20000005165E+02 0.  0.
        -12    1    1    2    0    0 -0.28442705085E+02 -0.25047087433E+02 -0.21148974304E+02  0.43400727823E+02  0.00000000000E+00 0.  1.
         11    1    3    3    0    0  0.15807037528E+02  0.17315427210E+02  0.46719805032E+01  0.23906355995E+02  0.51100000000E-03 0. -1.
        -11    1    3    3    0    0  0.89031897365E+01  0.31502695418E+01  0.43646085647E+01  0.10403883595E+02  0.51100000000E-03 0.  1.
         12    1    3    3    0    0  0.37324778205E+01  0.45813906808E+01  0.12112385236E+02  0.13477032587E+02  0.00000000000E+00 0. -1.
</event>
<event>
 7    1  0.2530788E-009  0.4778727E+02  0.7816164E-02  0.1312668E+00
        -11   -1    0    0    0    0  0.00000000000E+00  0.00000000000E+00  0.45593999997E+02  0.45594000000E+02  0.51100000000E-03 0.  1.
         11   -1    0    0    0    0 -0.00000000000E+00 -0.00000000000E+00 -0.45593999997E+02  0.45594000000E+02  0.51100000000E-03 0. -1.
    9900012    2    1    2    0    0 -0.35787131959E+02 -0.39894858820E+01 -0.24227847489E+02  0.47787269530E+02  0.19999993094E+02 0.  0.
        -12    1    1    2    0    0  0.35787131959E+02  0.39894858820E+01  0.24227847489E+02  0.43400730470E+02  0.00000000000E+00 0.  1.
         11    1    3    3    0    0 -0.30004420784E+02 -0.45019041079E+01 -0.15693385840E+02  0.34158670445E+02  0.51100000000E-03 0.  1.
        -11    1    3    3    0    0 -0.79816096127E+00  0.16540705053E+01  0.14967202045E+01  0.23692154373E+01  0.51100000000E-03 0. -1.
         12    1    3    3    0    0 -0.49845502133E+01 -0.11416522794E+01 -0.10031181853E+02  0.11259383647E+02  0.00000000000E+00 0. -1.
</event>
<event>
 7    1  0.2530788E-009  0.4778727E+02  0.7816164E-02  0.1312668E+00
        -11   -1    0    0    0    0  0.00000000000E+00  0.00000000000E+00  0.45593999997E+02  0.45594000000E+02  0.51100000000E-03 0.  1.
         11   -1    0    0    0    0 -0.00000000000E+00 -0.00000000000E+00 -0.45593999997E+02  0.45594000000E+02  0.51100000000E-03 0. -1.
    9900012    2    1    2    0    0  0.11164233918E+02  0.19905558674E+02 -0.36915469097E+02  0.47787271391E+02  0.20000001580E+02 0.  0.
        -12    1    1    2    0    0 -0.11164233918E+02 -0.19905558674E+02  0.36915469097E+02  0.43400728609E+02  0.00000000000E+00 0.  1.
         11    1    3    3    0    0  0.31178684377E-01  0.15109101985E+02 -0.29802642702E+02  0.33413821200E+02  0.51100000000E-03 0. -1.
        -11    1    3    3    0    0  0.78525684063E+01  0.31396505784E+01 -0.64572232361E+01  0.10640299268E+02  0.51100000000E-03 0.  1.
         12    1    3    3    0    0  0.32804868270E+01  0.16568061112E+01 -0.65560315929E+00  0.37331509231E+01  0.00000000000E+00 0. -1.
</event>
<event>
 7    1  0.2530788E-009  0.4778727E+02  0.7816164E-02  0.1312668E+00
        -11   -1    0    0    0    0  0.00000000000E+00  0.00000000000E+00  0.45593999997E+02  0.45594000000E+02  0.51100000000E-03 0.  1.
         11   -1    0    0    0    0 -0.00000000000E+00 -0.00000000000E+00 -0.45593999997E+02  0.45594000000E+02  0.51100000000E-03 0. -1.
    9900012    2    1    2    0    0  0.13254123052E+02  0.11042621669E+02 -0.39824766578E+02  0.47787270695E+02  0.19999998408E+02 0.  0.
        -12    1    1    2    0    0 -0.13254123052E+02 -0.11042621669E+02  0.39824766578E+02  0.43400729305E+02  0.00000000000E+00 0.  1.
         11    1    3    3    0    0  0.71174638717E+01  0.86216190956E+00 -0.10092048664E+02  0.12379461281E+02  0.51100000000E-03 0. -1.
        -11    1    3    3    0    0 -0.30202452426E+01  0.92078639534E+01 -0.11977316245E+02  0.15406581211E+02  0.51100000000E-03 0.  1.
        -12    1    3    3    0    0  0.91569044226E+01  0.97259580645E+00 -0.17755401669E+02  0.20001228203E+02  0.00000000000E+00 0.  1.
</event>
<event>
 7    1  0.2586083E-009  0.4778727E+02  0.7816164E-02  0.1312668E+00
        -11   -1    0    0    0    0  0.00000000000E+00  0.00000000000E+00  0.45593999997E+02  0.45594000000E+02  0.51100000000E-03 0.  1.
         11   -1    0    0    0    0 -0.00000000000E+00 -0.00000000000E+00 -0.45593999997E+02  0.45594000000E+02  0.51100000000E-03 0. -1.
    9900012    2    1    2    0    0  0.37574852491E+02  0.18209261145E+02 -0.11839620056E+02  0.47787270349E+02  0.19999996831E+02 0.  0.
        -12    1    1    2    0    0 -0.37574852491E+02 -0.18209261145E+02  0.11839620056E+02  0.43400729651E+02  0.00000000000E+00 0.  1.
         11    1    3    3    0    0  0.27628319737E+02  0.89990159368E+01 -0.82367745225E+01  0.30201834284E+02  0.51100000000E-03 0. -1.
        -11    1    3    3    0    0  0.15306652381E+01  0.30432083652E+00  0.32073191547E+01  0.35668534682E+01  0.51100000000E-03 0.  1.
        -12    1    3    3    0    0  0.84158675155E+01  0.89059243715E+01 -0.68101646882E+01  0.14018582597E+02  0.00000000000E+00 0.  1.
</event>
<event>
 7    1  0.2530788E-009  0.4778721E+02  0.7816164E-02  0.1312668E+00
        -11   -1    0    0    0    0  0.00000000000E+00  0.00000000000E+00  0.45593999997E+02  0.45594000000E+02  0.51100000000E-03 0.  1.
         11   -1    0    0    0    0 -0.00000000000E+00 -0.00000000000E+00 -0.45593999997E+02  0.45594000000E+02  0.51100000000E-03 0. -1.
    9900012    2    1    2    0    0  0.15544737938E+02  0.21342701465E+02 -0.34445303294E+02  0.47787208505E+02  0.19999714858E+02 0.  0.
        -12    1    1    2    0    0 -0.15544737938E+02 -0.21342701465E+02  0.34445303294E+02  0.43400791495E+02  0.00000000000E+00 0.  1.
         11    1    3    3    0    0  0.97641030107E+01  0.84555754692E+01 -0.29042580452E+02  0.31785310187E+02  0.51100000000E-03 0. -1.
        -11    1    3    3    0    0  0.51360002701E+01  0.77089894831E+01 -0.12790734875E+01  0.93510986987E+01  0.51100000000E-03 0.  1.
        -12    1    3    3    0    0  0.64463465673E+00  0.51781365127E+01 -0.41236493538E+01  0.66507996194E+01  0.00000000000E+00 0.  1.
</event>
<event>
 7    1  0.2530788E-009  0.4778727E+02  0.7816164E-02  0.1312668E+00
        -11   -1    0    0    0    0  0.00000000000E+00  0.00000000000E+00  0.45593999997E+02  0.45594000000E+02  0.51100000000E-03 0.  1.
         11   -1    0    0    0    0 -0.00000000000E+00 -0.00000000000E+00 -0.45593999997E+02  0.45594000000E+02  0.51100000000E-03 0. -1.
    9900012    2    1    2    0    0 -0.14512104804E+02  0.12539658528E+02 -0.38933005635E+02  0.47787272476E+02  0.20000006526E+02 0.  0.
        -12    1    1    2    0    0  0.14512104804E+02 -0.12539658528E+02  0.38933005635E+02  0.43400727524E+02  0.00000000000E+00 0.  1.
         11    1    3    3    0    0 -0.72322600571E+01 -0.11275985581E+01 -0.74324438708E+01  0.10431600366E+02  0.51100000000E-03 0. -1.
        -11    1    3    3    0    0 -0.16037605912E+01  0.12293610915E+02 -0.13038019413E+02  0.17991522110E+02  0.51100000000E-03 0.  1.
        -12    1    3    3    0    0 -0.56760841555E+01  0.13736461717E+01 -0.18462542351E+02  0.19364150000E+02  0.00000000000E+00 0.  1.
</event>
<event>
 7    1  0.2530788E-009  0.4778727E+02  0.7816164E-02  0.1312668E+00
        -11   -1    0    0    0    0  0.00000000000E+00  0.00000000000E+00  0.45593999997E+02  0.45594000000E+02  0.51100000000E-03 0.  1.
         11   -1    0    0    0    0 -0.00000000000E+00 -0.00000000000E+00 -0.45593999997E+02  0.45594000000E+02  0.51100000000E-03 0. -1.
    9900012    2    1    2    0    0 -0.42903434460E+02 -0.76457382011E+00  0.65064693536E+01  0.47787269533E+02  0.19999993109E+02 0.  0.
        -12    1    1    2    0    0  0.42903434460E+02  0.76457382011E+00 -0.65064693536E+01  0.43400730467E+02  0.00000000000E+00 0.  1.
         11    1    3    3    0    0 -0.37641173388E+01 -0.15184792078E+01  0.27380827631E+01  0.48960653513E+01  0.51100000000E-03 0. -1.
        -11    1    3    3    0    0 -0.11891699819E+01  0.20570028278E+01  0.43024651551E+01  0.49149356610E+01  0.51100000000E-03 0.  1.
        -12    1    3    3    0    0 -0.37950147140E+02 -0.13030974401E+01 -0.53407856471E+00  0.37976268521E+02  0.00000000000E+00 0.  1.
</event>
<event>
 7    1  0.2530788E-009  0.4778727E+02  0.7816164E-02  0.1312668E+00
        -11   -1    0    0    0    0  0.00000000000E+00  0.00000000000E+00  0.45593999997E+02  0.45594000000E+02  0.51100000000E-03 0.  1.
         11   -1    0    0    0    0 -0.00000000000E+00 -0.00000000000E+00 -0.45593999997E+02  0.45594000000E+02  0.51100000000E-03 0. -1.
    9900012    2    1    2    0    0 -0.57453681683E-01 -0.18921811821E+02 -0.39058737942E+02  0.47787271053E+02  0.20000000041E+02 0.  0.
        -12    1    1    2    0    0  0.57453681683E-01  0.18921811821E+02  0.39058737942E+02  0.43400728947E+02  0.00000000000E+00 0.  1.
         11    1    3    3    0    0  0.37248773862E+01 -0.17059063263E+02 -0.17042536662E+02  0.24399475549E+02  0.51100000000E-03 0. -1.
        -11    1    3    3    0    0 -0.93361463503E+00  0.13373468149E+01 -0.94404526645E+00  0.18845037851E+01  0.51100000000E-03 0.  1.
         12    1    3    3    0    0 -0.28487164328E+01 -0.32000953730E+01 -0.21072156013E+02  0.21503291719E+02  0.00000000000E+00 0. -1.
</event>
<event>
 7    1  0.2530788E-009  0.4778727E+02  0.7816164E-02  0.1312668E+00
        -11   -1    0    0    0    0  0.00000000000E+00  0.00000000000E+00  0.45593999997E+02  0.45594000000E+02  0.51100000000E-03 0. -1.
         11   -1    0    0    0    0 -0.00000000000E+00 -0.00000000000E+00 -0.45593999997E+02  0.45594000000E+02  0.51100000000E-03 0.  1.
    9900012    2    1    2    0    0 -0.31007407155E+02 -0.25053349943E+02  0.17160815658E+02  0.47787271481E+02  0.20000001993E+02 0.  0.
        -12    1    1    2    0    0  0.31007407155E+02  0.25053349943E+02 -0.17160815658E+02  0.43400728519E+02  0.00000000000E+00 0.  1.
         11    1    3    3    0    0 -0.10598605632E+02  0.49670286623E+00  0.52980365355E+01  0.11859441237E+02  0.51100000000E-03 0. -1.
        -11    1    3    3    0    0 -0.15459131308E+02 -0.17115347987E+02  0.40627870549E+01  0.23418499449E+02  0.51100000000E-03 0.  1.
         12    1    3    3    0    0 -0.49496702155E+01 -0.84347048223E+01  0.77999920675E+01  0.12509330795E+02  0.00000000000E+00 0. -1.
</event>
<event>
 7    1  0.2530788E-009  0.4778727E+02  0.7816164E-02  0.1312668E+00
        -11   -1    0    0    0    0  0.00000000000E+00  0.00000000000E+00  0.45593999997E+02  0.45594000000E+02  0.51100000000E-03 0. -1.
         11   -1    0    0    0    0 -0.00000000000E+00 -0.00000000000E+00 -0.45593999997E+02  0.45594000000E+02  0.51100000000E-03 0.  1.
    9900012    2    1    2    0    0 -0.40861137452E+02 -0.14108385130E+02 -0.38657720353E+01  0.47787270994E+02  0.19999999771E+02 0.  0.
        -12    1    1    2    0    0  0.40861137452E+02  0.14108385130E+02  0.38657720353E+01  0.43400729006E+02  0.00000000000E+00 0.  1.
         11    1    3    3    0    0 -0.12019718034E+02 -0.53690806670E+01 -0.54701307334E+00  0.13175730431E+02  0.51100000000E-03 0. -1.
        -11    1    3    3    0    0 -0.12136246989E+02 -0.47355822334E+01  0.67785536772E+01  0.14685469699E+02  0.51100000000E-03 0.  1.
        -12    1    3    3    0    0 -0.16705172428E+02 -0.40037222292E+01 -0.10097312639E+02  0.19926070864E+02  0.00000000000E+00 0.  1.
</event>
<event>
 7    1  0.2530788E-009  0.4778727E+02  0.7816164E-02  0.1312668E+00
        -11   -1    0    0    0    0  0.00000000000E+00  0.00000000000E+00  0.45593999997E+02  0.45594000000E+02  0.51100000000E-03 0.  1.
         11   -1    0    0    0    0 -0.00000000000E+00 -0.00000000000E+00 -0.45593999997E+02  0.45594000000E+02  0.51100000000E-03 0. -1.
    9900012    2    1    2    0    0 -0.24305631212E+02  0.17115402024E+00 -0.35955948337E+02  0.47787271629E+02  0.20000002663E+02 0.  0.
        -12    1    1    2    0    0  0.24305631212E+02 -0.17115402024E+00  0.35955948337E+02  0.43400728371E+02  0.00000000000E+00 0.  1.
         11    1    3    3    0    0 -0.10801295226E+02 -0.80147458671E+01 -0.14096324288E+02  0.19483595370E+02  0.51100000000E-03 0. -1.
        -11    1    3    3    0    0 -0.65988029888E+01  0.81784205948E+01 -0.96023887978E+01  0.14235049533E+02  0.51100000000E-03 0.  1.
         12    1    3    3    0    0 -0.69055329979E+01  0.74792925732E-02 -0.12257235252E+02  0.14068626726E+02  0.00000000000E+00 0. -1.
</event>
<event>
 7    1  0.2530788E-009  0.4778727E+02  0.7816164E-02  0.1312668E+00
        -11   -1    0    0    0    0  0.00000000000E+00  0.00000000000E+00  0.45593999997E+02  0.45594000000E+02  0.51100000000E-03 0. -1.
         11   -1    0    0    0    0 -0.00000000000E+00 -0.00000000000E+00 -0.45593999997E+02  0.45594000000E+02  0.51100000000E-03 0.  1.
    9900012    2    1    2    0    0  0.36885567827E+02 -0.14205257263E+02 -0.17924533007E+02  0.47787270383E+02  0.19999996983E+02 0.  0.
        -12    1    1    2    0    0 -0.36885567827E+02  0.14205257263E+02  0.17924533007E+02  0.43400729617E+02  0.00000000000E+00 0.  1.
         11    1    3    3    0    0  0.16808440906E+02  0.93035111707E+00 -0.56783747375E+01  0.17766068187E+02  0.51100000000E-03 0. -1.
        -11    1    3    3    0    0  0.17126010780E+02 -0.66156344966E+01 -0.75054292330E+01  0.19834271685E+02  0.51100000000E-03 0.  1.
         12    1    3    3    0    0  0.29511161404E+01 -0.85199738832E+01 -0.47407290366E+01  0.10186930511E+02  0.00000000000E+00 0. -1.
</event>
<event>
 7    1  0.2530788E-009  0.4778727E+02  0.7816164E-02  0.1312668E+00
        -11   -1    0    0    0    0  0.00000000000E+00  0.00000000000E+00  0.45593999997E+02  0.45594000000E+02  0.51100000000E-03 0.  1.
         11   -1    0    0    0    0 -0.00000000000E+00 -0.00000000000E+00 -0.45593999997E+02  0.45594000000E+02  0.51100000000E-03 0. -1.
    9900012    2    1    2    0    0 -0.18971146383E+02 -0.37278887933E+02 -0.11575984469E+02  0.47787270778E+02  0.19999998785E+02 0.  0.
        -12    1    1    2    0    0  0.18971146383E+02  0.37278887933E+02  0.11575984469E+02  0.43400729222E+02  0.00000000000E+00 0.  1.
         11    1    3    3    0    0 -0.13029669851E+02 -0.18961742615E+02 -0.12919830288E+01  0.23043202899E+02  0.51100000000E-03 0. -1.
        -11    1    3    3    0    0  0.25523038183E+01 -0.64100779635E+00 -0.25462850242E+01  0.36617910182E+01  0.51100000000E-03 0.  1.
         12    1    3    3    0    0 -0.84937803497E+01 -0.17676137522E+02 -0.77377164158E+01  0.21082276861E+02  0.00000000000E+00 0. -1.
</event>
<event>
 7    1  0.2530788E-009  0.4778728E+02  0.7816164E-02  0.1312668E+00
        -11   -1    0    0    0    0  0.00000000000E+00  0.00000000000E+00  0.45593999997E+02  0.45594000000E+02  0.51100000000E-03 0.  1.
         11   -1    0    0    0    0 -0.00000000000E+00 -0.00000000000E+00 -0.45593999997E+02  0.45594000000E+02  0.51100000000E-03 0. -1.
    9900012    2    1    2    0    0 -0.25329879913E+02  0.32053323009E+02 -0.14649382362E+02  0.47787277243E+02  0.20000028260E+02 0.  0.
        -12    1    1    2    0    0  0.25329879913E+02 -0.32053323009E+02  0.14649382362E+02  0.43400722757E+02  0.00000000000E+00 0.  1.
         11    1    3    3    0    0 -0.13610675507E+02  0.69421583426E+01 -0.10096719234E+01  0.15312200621E+02  0.51100000000E-03 0. -1.
        -11    1    3    3    0    0 -0.61912733559E+00 -0.57178130925E+00  0.64424107079E+00  0.10608012734E+01  0.51100000000E-03 0.  1.
         12    1    3    3    0    0 -0.11100077070E+02  0.25682945975E+02 -0.14283951509E+02  0.31414275348E+02  0.00000000000E+00 0. -1.
</event>
<event>
 7    1  0.2530788E-009  0.4778726E+02  0.7816164E-02  0.1312668E+00
        -11   -1    0    0    0    0  0.00000000000E+00  0.00000000000E+00  0.45593999997E+02  0.45594000000E+02  0.51100000000E-03 0.  1.
         11   -1    0    0    0    0 -0.00000000000E+00 -0.00000000000E+00 -0.45593999997E+02  0.45594000000E+02  0.51100000000E-03 0. -1.
    9900012    2    1    2    0    0 -0.24997726994E+01 -0.39239278740E+01 -0.43150641515E+02  0.47787263409E+02  0.19999965187E+02 0.  0.
        -12    1    1    2    0    0  0.24997726994E+01  0.39239278740E+01  0.43150641515E+02  0.43400736591E+02  0.00000000000E+00 0.  1.
         11    1    3    3    0    0 -0.13939122705E+01  0.18939374213E+00 -0.94102080526E+01  0.95147715297E+01  0.51100000000E-03 0. -1.
        -11    1    3    3    0    0 -0.75215701196E+01  0.62650046893E-01 -0.27145564330E+02  0.28168415027E+02  0.51100000000E-03 0.  1.
        -12    1    3    3    0    0  0.64157096907E+01 -0.41759716630E+01 -0.65948691319E+01  0.10104076852E+02  0.00000000000E+00 0.  1.
</event>
<event>
 7    1  0.2530788E-009  0.4778727E+02  0.7816164E-02  0.1312668E+00
        -11   -1    0    0    0    0  0.00000000000E+00  0.00000000000E+00  0.45593999997E+02  0.45594000000E+02  0.51100000000E-03 0.  1.
         11   -1    0    0    0    0 -0.00000000000E+00 -0.00000000000E+00 -0.45593999997E+02  0.45594000000E+02  0.51100000000E-03 0. -1.
    9900012    2    1    2    0    0  0.41037218824E+02 -0.13482384443E+02  0.42184713931E+01  0.47787268209E+02  0.19999987073E+02 0.  0.
        -12    1    1    2    0    0 -0.41037218824E+02  0.13482384443E+02 -0.42184713931E+01  0.43400731791E+02  0.00000000000E+00 0.  1.
         11    1    3    3    0    0  0.22810370193E+02 -0.10360997850E+02 -0.60677166265E+01  0.25777518308E+02  0.51100000000E-03 0. -1.
        -11    1    3    3    0    0  0.41457054373E+01  0.15428597530E+01  0.37536689325E+01  0.58014929550E+01  0.51100000000E-03 0.  1.
         12    1    3    3    0    0  0.14081143194E+02 -0.46642463462E+01  0.65325190870E+01  0.16208256947E+02  0.00000000000E+00 0. -1.
</event>
<event>
 7    1  0.2530788E-009  0.4778726E+02  0.7816164E-02  0.1312668E+00
        -11   -1    0    0    0    0  0.00000000000E+00  0.00000000000E+00  0.45593999997E+02  0.45594000000E+02  0.51100000000E-03 0. -1.
         11   -1    0    0    0    0 -0.00000000000E+00 -0.00000000000E+00 -0.45593999997E+02  0.45594000000E+02  0.51100000000E-03 0.  1.
    9900012    2    1    2    0    0  0.42222855169E+02  0.98467639106E+01 -0.19737227508E+01  0.47787264527E+02  0.19999970284E+02 0.  0.
        -12    1    1    2    0    0 -0.42222855169E+02 -0.98467639106E+01  0.19737227508E+01  0.43400735473E+02  0.00000000000E+00 0.  1.
         11    1    3    3    0    0  0.23451139630E+02  0.92020296859E+01  0.68752190958E+01  0.26113252156E+02  0.51100000000E-03 0. -1.
        -11    1    3    3    0    0  0.70943454066E+01  0.23906160808E+01 -0.58256317856E+01  0.94859247285E+01  0.51100000000E-03 0.  1.
         12    1    3    3    0    0  0.11677370132E+02 -0.17458818561E+01 -0.30233100610E+01  0.12188087642E+02  0.00000000000E+00 0. -1.
</event>
<event>
 7    1  0.2530788E-009  0.4778727E+02  0.7816164E-02  0.1312668E+00
        -11   -1    0    0    0    0  0.00000000000E+00  0.00000000000E+00  0.45593999997E+02  0.45594000000E+02  0.51100000000E-03 0.  1.
         11   -1    0    0    0    0 -0.00000000000E+00 -0.00000000000E+00 -0.45593999997E+02  0.45594000000E+02  0.51100000000E-03 0. -1.
    9900012    2    1    2    0    0 -0.34534696464E+02 -0.76602870290E+01 -0.25145535789E+02  0.47787271581E+02  0.20000002445E+02 0.  0.
        -12    1    1    2    0    0  0.34534696464E+02  0.76602870290E+01  0.25145535789E+02  0.43400728419E+02  0.00000000000E+00 0.  1.
         11    1    3    3    0    0 -0.12528989340E+02 -0.43620357433E+01 -0.14542860753E+02  0.19684961998E+02  0.51100000000E-03 0. -1.
        -11    1    3    3    0    0 -0.12082416573E+02  0.36754169159E+01 -0.10671315016E+01  0.12674077862E+02  0.51100000000E-03 0.  1.
        -12    1    3    3    0    0 -0.99232905504E+01 -0.69736682016E+01 -0.95355435336E+01  0.15428231720E+02  0.00000000000E+00 0.  1.
</event>
<event>
 7    1  0.2530788E-009  0.4778727E+02  0.7816164E-02  0.1312668E+00
        -11   -1    0    0    0    0  0.00000000000E+00  0.00000000000E+00  0.45593999997E+02  0.45594000000E+02  0.51100000000E-03 0.  1.
         11   -1    0    0    0    0 -0.00000000000E+00 -0.00000000000E+00 -0.45593999997E+02  0.45594000000E+02  0.51100000000E-03 0. -1.
    9900012    2    1    2    0    0  0.32447716668E+02 -0.26477661434E+02  0.11388702127E+02  0.47787269498E+02  0.19999992950E+02 0.  0.
        -12    1    1    2    0    0 -0.32447716668E+02  0.26477661434E+02 -0.11388702127E+02  0.43400730502E+02  0.00000000000E+00 0.  1.
         11    1    3    3    0    0  0.14969086623E+02 -0.16232777261E+02  0.11832643804E+01  0.22112818155E+02  0.51100000000E-03 0. -1.
        -11    1    3    3    0    0  0.17041765768E+02 -0.42893172114E+01  0.80013197343E+01  0.19309094759E+02  0.51100000000E-03 0.  1.
        -12    1    3    3    0    0  0.43686427658E+00 -0.59555669618E+01  0.22041180120E+01  0.63653565842E+01  0.00000000000E+00 0.  1.
</event>
<event>
 7    1  0.2530788E-009  0.4778726E+02  0.7816164E-02  0.1312668E+00
        -11   -1    0    0    0    0  0.00000000000E+00  0.00000000000E+00  0.45593999997E+02  0.45594000000E+02  0.51100000000E-03 0. -1.
         11   -1    0    0    0    0 -0.00000000000E+00 -0.00000000000E+00 -0.45593999997E+02  0.45594000000E+02  0.51100000000E-03 0.  1.
    9900012    2    1    2    0    0 -0.33813874156E+02 -0.26870562325E+02 -0.42683475368E+01  0.47787262728E+02  0.19999962081E+02 0.  0.
        -12    1    1    2    0    0  0.33813874156E+02  0.26870562325E+02  0.42683475368E+01  0.43400737272E+02  0.00000000000E+00 0.  1.
         11    1    3    3    0    0 -0.16105628769E+02 -0.18359401811E+02 -0.34246211687E+01  0.24661446497E+02  0.51100000000E-03 0. -1.
        -11    1    3    3    0    0  0.13811562880E+01  0.57943975360E+00  0.11503687124E+01  0.18885686525E+01  0.51100000000E-03 0.  1.
        -12    1    3    3    0    0 -0.19089401675E+02 -0.90906002680E+01 -0.19940950805E+01  0.21237247579E+02  0.00000000000E+00 0.  1.
</event>
<event>
 7    1  0.2530788E-009  0.4778728E+02  0.7816164E-02  0.1312668E+00
        -11   -1    0    0    0    0  0.00000000000E+00  0.00000000000E+00  0.45593999997E+02  0.45594000000E+02  0.51100000000E-03 0.  1.
         11   -1    0    0    0    0 -0.00000000000E+00 -0.00000000000E+00 -0.45593999997E+02  0.45594000000E+02  0.51100000000E-03 0. -1.
    9900012    2    1    2    0    0 -0.84729518013E+01 -0.41085516749E+01 -0.42366865823E+02  0.47787280781E+02  0.20000044391E+02 0.  0.
        -12    1    1    2    0    0  0.84729518013E+01  0.41085516749E+01  0.42366865823E+02  0.43400719219E+02  0.00000000000E+00 0.  1.
         11    1    3    3    0    0 -0.76743294596E+01 -0.62204908986E+00 -0.57738889920E+01  0.96239322565E+01  0.51100000000E-03 0. -1.
        -11    1    3    3    0    0  0.32342218288E+01 -0.34328935499E+01 -0.30460352968E+02  0.30823336162E+02  0.51100000000E-03 0.  1.
        -12    1    3    3    0    0 -0.40328441705E+01 -0.53609035133E-01 -0.61326238630E+01  0.73400123622E+01  0.00000000000E+00 0.  1.
</event>
<event>
 7    1  0.2530788E-009  0.4778727E+02  0.7816164E-02  0.1312668E+00
        -11   -1    0    0    0    0  0.00000000000E+00  0.00000000000E+00  0.45593999997E+02  0.45594000000E+02  0.51100000000E-03 0.  1.
         11   -1    0    0    0    0 -0.00000000000E+00 -0.00000000000E+00 -0.45593999997E+02  0.45594000000E+02  0.51100000000E-03 0. -1.
    9900012    2    1    2    0    0  0.19540730592E+02  0.96213440976E+00 -0.38740903144E+02  0.47787269233E+02  0.19999991739E+02 0.  0.
        -12    1    1    2    0    0 -0.19540730592E+02 -0.96213440976E+00  0.38740903144E+02  0.43400730767E+02  0.00000000000E+00 0.  1.
         11    1    3    3    0    0  0.13713023235E+02 -0.24133290570E+01 -0.17513173182E+02  0.22373698812E+02  0.51100000000E-03 0. -1.
        -11    1    3    3    0    0 -0.32804260660E+01  0.30873399598E+00 -0.18383295649E+01  0.37730581370E+01  0.51100000000E-03 0.  1.
        -12    1    3    3    0    0  0.91081334235E+01  0.30667294708E+01 -0.19389400398E+02  0.21640512283E+02  0.00000000000E+00 0.  1.
</event>
<event>
 7    1  0.2530788E-009  0.4778728E+02  0.7816164E-02  0.1312668E+00
        -11   -1    0    0    0    0  0.00000000000E+00  0.00000000000E+00  0.45593999997E+02  0.45594000000E+02  0.51100000000E-03 0.  1.
         11   -1    0    0    0    0 -0.00000000000E+00 -0.00000000000E+00 -0.45593999997E+02  0.45594000000E+02  0.51100000000E-03 0. -1.
    9900012    2    1    2    0    0 -0.10266683643E+02 -0.15217305342E+02 -0.39327491223E+02  0.47787277186E+02  0.20000028003E+02 0.  0.
        -12    1    1    2    0    0  0.10266683643E+02  0.15217305342E+02  0.39327491223E+02  0.43400722814E+02  0.00000000000E+00 0.  1.
         11    1    3    3    0    0 -0.60297095515E+01  0.29331097832E+00 -0.21828894289E+02  0.22648268250E+02  0.51100000000E-03 0. -1.
        -11    1    3    3    0    0 -0.77220002084E+00 -0.14354322068E+02 -0.13449039496E+02  0.19685515450E+02  0.51100000000E-03 0.  1.
        -12    1    3    3    0    0 -0.34647740709E+01 -0.11562942528E+01 -0.40495574377E+01  0.54534934861E+01  0.00000000000E+00 0.  1.
</event>
<event>
 7    1  0.2530788E-009  0.4778727E+02  0.7816164E-02  0.1312668E+00
        -11   -1    0    0    0    0  0.00000000000E+00  0.00000000000E+00  0.45593999997E+02  0.45594000000E+02  0.51100000000E-03 0.  1.
         11   -1    0    0    0    0 -0.00000000000E+00 -0.00000000000E+00 -0.45593999997E+02  0.45594000000E+02  0.51100000000E-03 0. -1.
    9900012    2    1    2    0    0  0.28129259723E+02 -0.17697901527E+02 -0.27913293708E+02  0.47787274929E+02  0.20000017713E+02 0.  0.
        -12    1    1    2    0    0 -0.28129259723E+02  0.17697901527E+02  0.27913293708E+02  0.43400725071E+02  0.00000000000E+00 0.  1.
         11    1    3    3    0    0  0.53012385552E+01 -0.81221842068E+01 -0.75955173302E+01  0.12319289358E+02  0.51100000000E-03 0. -1.
        -11    1    3    3    0    0  0.44500644987E+01 -0.26774907654E+01  0.21605070839E+01  0.56249286184E+01  0.51100000000E-03 0.  1.
        -12    1    3    3    0    0  0.18377956669E+02 -0.68982265551E+01 -0.22478283461E+02  0.29843056953E+02  0.00000000000E+00 0.  1.
</event>
<event>
 7    1  0.2530788E-009  0.4778727E+02  0.7816164E-02  0.1312668E+00
        -11   -1    0    0    0    0  0.00000000000E+00  0.00000000000E+00  0.45593999997E+02  0.45594000000E+02  0.51100000000E-03 0.  1.
         11   -1    0    0    0    0 -0.00000000000E+00 -0.00000000000E+00 -0.45593999997E+02  0.45594000000E+02  0.51100000000E-03 0. -1.
    9900012    2    1    2    0    0 -0.29879193551E+02 -0.28139270639E+02 -0.14108110396E+02  0.47787267998E+02  0.19999986111E+02 0.  0.
        -12    1    1    2    0    0  0.29879193551E+02  0.28139270639E+02  0.14108110396E+02  0.43400732002E+02  0.00000000000E+00 0.  1.
         11    1    3    3    0    0 -0.12088743306E+02 -0.64732914721E+01 -0.10949319478E+02  0.17547900572E+02  0.51100000000E-03 0. -1.
        -11    1    3    3    0    0 -0.10149747756E+02 -0.16857522399E+02  0.21042596627E+01  0.19789425204E+02  0.51100000000E-03 0.  1.
        -12    1    3    3    0    0 -0.76407024888E+01 -0.48084567681E+01 -0.52630505806E+01  0.10449942221E+02  0.00000000000E+00 0.  1.
</event>
<event>
 7    1  0.2530788E-009  0.4778727E+02  0.7816164E-02  0.1312668E+00
        -11   -1    0    0    0    0  0.00000000000E+00  0.00000000000E+00  0.45593999997E+02  0.45594000000E+02  0.51100000000E-03 0.  1.
         11   -1    0    0    0    0 -0.00000000000E+00 -0.00000000000E+00 -0.45593999997E+02  0.45594000000E+02  0.51100000000E-03 0. -1.
    9900012    2    1    2    0    0 -0.38031645713E+02 -0.17299455920E+02 -0.11745038662E+02  0.47787272080E+02  0.20000004722E+02 0.  0.
        -12    1    1    2    0    0  0.38031645713E+02  0.17299455920E+02  0.11745038662E+02  0.43400727920E+02  0.00000000000E+00 0.  1.
         11    1    3    3    0    0 -0.17239448238E+02 -0.86536141245E+01  0.22457030378E+01  0.19419752711E+02  0.51100000000E-03 0. -1.
        -11    1    3    3    0    0 -0.10584456235E+01 -0.14931067643E+01  0.14292814539E+01  0.23221801573E+01  0.51100000000E-03 0.  1.
         12    1    3    3    0    0 -0.19733751852E+02 -0.71527350316E+01 -0.15420023154E+02  0.26045339212E+02  0.00000000000E+00 0. -1.
</event>
<event>
 7    1  0.2530788E-009  0.4778727E+02  0.7816164E-02  0.1312668E+00
        -11   -1    0    0    0    0  0.00000000000E+00  0.00000000000E+00  0.45593999997E+02  0.45594000000E+02  0.51100000000E-03 0. -1.
         11   -1    0    0    0    0 -0.00000000000E+00 -0.00000000000E+00 -0.45593999997E+02  0.45594000000E+02  0.51100000000E-03 0.  1.
    9900012    2    1    2    0    0 -0.23327470365E+01 -0.39827843612E+01  0.43154595459E+02  0.47787269715E+02  0.19999993940E+02 0.  0.
        -12    1    1    2    0    0  0.23327470365E+01  0.39827843612E+01 -0.43154595459E+02  0.43400730285E+02  0.00000000000E+00 0.  1.
         11    1    3    3    0    0  0.28850948752E+01 -0.51187346896E+00  0.36832569040E+02  0.36948936780E+02  0.51100000000E-03 0. -1.
        -11    1    3    3    0    0 -0.55988272276E+01 -0.30831958155E+01  0.73102705042E+01  0.97104591996E+01  0.51100000000E-03 0.  1.
        -12    1    3    3    0    0  0.38098531594E+00 -0.38771507667E+00 -0.98824408461E+00  0.11278737351E+01  0.00000000000E+00 0.  1.
</event>
<event>
 7    1  0.2530788E-009  0.4778728E+02  0.7816164E-02  0.1312668E+00
        -11   -1    0    0    0    0  0.00000000000E+00  0.00000000000E+00  0.45593999997E+02  0.45594000000E+02  0.51100000000E-03 0. -1.
         11   -1    0    0    0    0 -0.00000000000E+00 -0.00000000000E+00 -0.45593999997E+02  0.45594000000E+02  0.51100000000E-03 0.  1.
    9900012    2    1    2    0    0 -0.34053617613E+02 -0.96828150204E+01  0.25104113137E+02  0.47787282545E+02  0.20000052434E+02 0.  0.
        -12    1    1    2    0    0  0.34053617613E+02  0.96828150204E+01 -0.25104113137E+02  0.43400717455E+02  0.00000000000E+00 0.  1.
         11    1    3    3    0    0 -0.28479149138E+02 -0.12396012956E+02  0.17887267896E+02  0.35842397044E+02  0.51100000000E-03 0. -1.
        -11    1    3    3    0    0 -0.20068404045E+01  0.37034965973E+01  0.45637818699E+00  0.42369301110E+01  0.51100000000E-03 0.  1.
        -12    1    3    3    0    0 -0.35676280698E+01 -0.99029866212E+00  0.67604670549E+01  0.77079553893E+01  0.00000000000E+00 0.  1.
</event>
<event>
 7    1  0.2530788E-009  0.4778727E+02  0.7816164E-02  0.1312668E+00
        -11   -1    0    0    0    0  0.00000000000E+00  0.00000000000E+00  0.45593999997E+02  0.45594000000E+02  0.51100000000E-03 0. -1.
         11   -1    0    0    0    0 -0.00000000000E+00 -0.00000000000E+00 -0.45593999997E+02  0.45594000000E+02  0.51100000000E-03 0.  1.
    9900012    2    1    2    0    0  0.13624400320E+02 -0.84371992315E+01  0.40333765299E+02  0.47787271456E+02  0.20000001875E+02 0.  0.
        -12    1    1    2    0    0 -0.13624400320E+02  0.84371992315E+01 -0.40333765299E+02  0.43400728544E+02  0.00000000000E+00 0.  1.
         11    1    3    3    0    0  0.20896846606E+01 -0.49953180619E+01  0.18781264516E+02  0.19546249809E+02  0.51100000000E-03 0. -1.
        -11    1    3    3    0    0  0.14111477487E+02 -0.39332323896E+01  0.14069072866E+02  0.20311152736E+02  0.51100000000E-03 0.  1.
         12    1    3    3    0    0 -0.25767618279E+01  0.49135121998E+00  0.74834279173E+01  0.79298689102E+01  0.00000000000E+00 0. -1.
</event>
<event>
 7    1  0.2530788E-009  0.4778728E+02  0.7816164E-02  0.1312668E+00
        -11   -1    0    0    0    0  0.00000000000E+00  0.00000000000E+00  0.45593999997E+02  0.45594000000E+02  0.51100000000E-03 0. -1.
         11   -1    0    0    0    0 -0.00000000000E+00 -0.00000000000E+00 -0.45593999997E+02  0.45594000000E+02  0.51100000000E-03 0.  1.
    9900012    2    1    2    0    0  0.43123639566E+02 -0.44853327963E+01 -0.19637142853E+01  0.47787277961E+02  0.20000031533E+02 0.  0.
        -12    1    1    2    0    0 -0.43123639566E+02  0.44853327963E+01  0.19637142853E+01  0.43400722039E+02  0.00000000000E+00 0.  1.
         11    1    3    3    0    0  0.19561121675E+02  0.61436540679E+01  0.30212195668E+01  0.20724616629E+02  0.51100000000E-03 0. -1.
        -11    1    3    3    0    0  0.13698524529E+02 -0.53642480372E+01 -0.58864072802E+01  0.15845331243E+02  0.51100000000E-03 0.  1.
        -12    1    3    3    0    0  0.98639933628E+01 -0.52647388270E+01  0.90147342804E+00  0.11217330089E+02  0.00000000000E+00 0.  1.
</event>
<event>
 7    1  0.2530788E-009  0.4778726E+02  0.7816164E-02  0.1312668E+00
        -11   -1    0    0    0    0  0.00000000000E+00  0.00000000000E+00  0.45593999997E+02  0.45594000000E+02  0.51100000000E-03 0.  1.
         11   -1    0    0    0    0 -0.00000000000E+00 -0.00000000000E+00 -0.45593999997E+02  0.45594000000E+02  0.51100000000E-03 0. -1.
    9900012    2    1    2    0    0  0.14527311025E+02  0.34318567674E+02 -0.22244484546E+02  0.47787263306E+02  0.19999964719E+02 0.  0.
        -12    1    1    2    0    0 -0.14527311025E+02 -0.34318567674E+02  0.22244484546E+02  0.43400736694E+02  0.00000000000E+00 0.  1.
         11    1    3    3    0    0  0.65095425986E+01  0.78882934377E+01  0.10813319400E+01  0.10284386089E+02  0.51100000000E-03 0. -1.
        -11    1    3    3    0    0  0.76974862124E+00  0.10368828376E+02 -0.14368475069E+02  0.17735788421E+02  0.51100000000E-03 0.  1.
        -12    1    3    3    0    0  0.72480198051E+01  0.16061445861E+02 -0.89573414167E+01  0.19767088796E+02  0.00000000000E+00 0.  1.
</event>
<event>
 7    1  0.2530788E-009  0.4778728E+02  0.7816164E-02  0.1312668E+00
        -11   -1    0    0    0    0  0.00000000000E+00  0.00000000000E+00  0.45593999997E+02  0.45594000000E+02  0.51100000000E-03 0.  1.
         11   -1    0    0    0    0 -0.00000000000E+00 -0.00000000000E+00 -0.45593999997E+02  0.45594000000E+02  0.51100000000E-03 0. -1.
    9900012    2    1    2    0    0 -0.19383916616E+02  0.25780112836E+02 -0.29039151512E+02  0.47787276944E+02  0.20000026900E+02 0.  0.
        -12    1    1    2    0    0  0.19383916616E+02 -0.25780112836E+02  0.29039151512E+02  0.43400723056E+02  0.00000000000E+00 0.  1.
         11    1    3    3    0    0 -0.98472936162E+01  0.85692309760E+01 -0.47423594129E+01  0.13888516269E+02  0.51100000000E-03 0. -1.
        -11    1    3    3    0    0 -0.10868404364E+02  0.14311473581E+02 -0.24843412928E+02  0.30661631653E+02  0.51100000000E-03 0.  1.
        -12    1    3    3    0    0  0.13317813647E+01  0.28994082797E+01  0.54662082893E+00  0.32371290222E+01  0.00000000000E+00 0.  1.
</event>
<event>
 7    1  0.2530788E-009  0.4778727E+02  0.7816164E-02  0.1312668E+00
        -11   -1    0    0    0    0  0.00000000000E+00  0.00000000000E+00  0.45593999997E+02  0.45594000000E+02  0.51100000000E-03 0.  1.
         11   -1    0    0    0    0 -0.00000000000E+00 -0.00000000000E+00 -0.45593999997E+02  0.45594000000E+02  0.51100000000E-03 0. -1.
    9900012    2    1    2    0    0 -0.24732499897E+02 -0.11056084874E+02 -0.33907075954E+02  0.47787270010E+02  0.19999995284E+02 0.  0.
        -12    1    1    2    0    0  0.24732499897E+02  0.11056084874E+02  0.33907075954E+02  0.43400729990E+02  0.00000000000E+00 0.  1.
         11    1    3    3    0    0 -0.60097667790E+01  0.19816689563E-01 -0.20041669695E+02  0.20923341365E+02  0.51100000000E-03 0. -1.
        -11    1    3    3    0    0 -0.45720590677E+01 -0.42373364284E+01 -0.53694748884E+00  0.62567609027E+01  0.51100000000E-03 0.  1.
         12    1    3    3    0    0 -0.14150674050E+02 -0.68385651349E+01 -0.13328458771E+02  0.20607167743E+02  0.00000000000E+00 0. -1.
</event>
<event>
 7    1  0.2530788E-009  0.4778727E+02  0.7816164E-02  0.1312668E+00
        -11   -1    0    0    0    0  0.00000000000E+00  0.00000000000E+00  0.45593999997E+02  0.45594000000E+02  0.51100000000E-03 0.  1.
         11   -1    0    0    0    0 -0.00000000000E+00 -0.00000000000E+00 -0.45593999997E+02  0.45594000000E+02  0.51100000000E-03 0. -1.
    9900012    2    1    2    0    0  0.53889816862E+01  0.27620190825E+02 -0.33040991776E+02  0.47787271868E+02  0.20000003755E+02 0.  0.
        -12    1    1    2    0    0 -0.53889816862E+01 -0.27620190825E+02  0.33040991776E+02  0.43400728132E+02  0.00000000000E+00 0.  1.
         11    1    3    3    0    0  0.26214661848E+01  0.25438741817E+02 -0.21234908060E+02  0.33240381928E+02  0.51100000000E-03 0. -1.
        -11    1    3    3    0    0 -0.21736694189E+01 -0.55134509008E+00 -0.61869928220E+01  0.65808586515E+01  0.51100000000E-03 0.  1.
         12    1    3    3    0    0  0.49411849203E+01  0.27327940984E+01 -0.56190908945E+01  0.79660312881E+01  0.00000000000E+00 0. -1.
</event>
<event>
 7    1  0.2530788E-009  0.4778727E+02  0.7816164E-02  0.1312668E+00
        -11   -1    0    0    0    0  0.00000000000E+00  0.00000000000E+00  0.45593999997E+02  0.45594000000E+02  0.51100000000E-03 0.  1.
         11   -1    0    0    0    0 -0.00000000000E+00 -0.00000000000E+00 -0.45593999997E+02  0.45594000000E+02  0.51100000000E-03 0. -1.
    9900012    2    1    2    0    0 -0.16355983269E+02 -0.12958563637E+02 -0.38054968358E+02  0.47787272161E+02  0.20000005090E+02 0.  0.
        -12    1    1    2    0    0  0.16355983269E+02  0.12958563637E+02  0.38054968358E+02  0.43400727839E+02  0.00000000000E+00 0.  1.
         11    1    3    3    0    0 -0.98754481327E+01 -0.57387367757E+01 -0.70190063391E+01  0.13406118971E+02  0.51100000000E-03 0. -1.
        -11    1    3    3    0    0 -0.80098964378E+00 -0.24151596354E+01 -0.24023284558E+02  0.24157665071E+02  0.51100000000E-03 0.  1.
        -12    1    3    3    0    0 -0.56795454921E+01 -0.48046672259E+01 -0.70126774612E+01  0.10223488119E+02  0.00000000000E+00 0.  1.
</event>
<event>
 7    1  0.2530788E-009  0.4778727E+02  0.7816164E-02  0.1312668E+00
        -11   -1    0    0    0    0  0.00000000000E+00  0.00000000000E+00  0.45593999997E+02  0.45594000000E+02  0.51100000000E-03 0.  1.
         11   -1    0    0    0    0 -0.00000000000E+00 -0.00000000000E+00 -0.45593999997E+02  0.45594000000E+02  0.51100000000E-03 0. -1.
    9900012    2    1    2    0    0 -0.22548982647E+01 -0.23574481606E+02 -0.36370078079E+02  0.47787270414E+02  0.19999997124E+02 0.  0.
        -12    1    1    2    0    0  0.22548982647E+01  0.23574481606E+02  0.36370078079E+02  0.43400729586E+02  0.00000000000E+00 0.  1.
         11    1    3    3    0    0  0.55559746725E-01  0.11137370566E+00 -0.99901383728E+01  0.99909136698E+01  0.51100000000E-03 0. -1.
        -11    1    3    3    0    0 -0.72581705231E+01 -0.18416731485E+02 -0.18345576381E+02  0.26989205452E+02  0.51100000000E-03 0.  1.
        -12    1    3    3    0    0  0.49477125117E+01 -0.52691238266E+01 -0.80343633251E+01  0.10807151292E+02  0.00000000000E+00 0.  1.
</event>
<event>
 7    1  0.2530788E-009  0.4778727E+02  0.7816164E-02  0.1312668E+00
        -11   -1    0    0    0    0  0.00000000000E+00  0.00000000000E+00  0.45593999997E+02  0.45594000000E+02  0.51100000000E-03 0.  1.
         11   -1    0    0    0    0 -0.00000000000E+00 -0.00000000000E+00 -0.45593999997E+02  0.45594000000E+02  0.51100000000E-03 0. -1.
    9900012    2    1    2    0    0 -0.23983179261E+02  0.32996675115E+02 -0.14820593108E+02  0.47787269175E+02  0.19999991476E+02 0.  0.
        -12    1    1    2    0    0  0.23983179261E+02 -0.32996675115E+02  0.14820593108E+02  0.43400730825E+02  0.00000000000E+00 0.  1.
         11    1    3    3    0    0 -0.81722077995E+00  0.58012937193E+00 -0.54233053441E+01  0.55151283764E+01  0.51100000000E-03 0. -1.
        -11    1    3    3    0    0 -0.13439768000E+02  0.10566335743E+02 -0.18677858064E+01  0.17197774245E+02  0.51100000000E-03 0.  1.
         12    1    3    3    0    0 -0.97261904811E+01  0.21850210000E+02 -0.75295019570E+01  0.25074366553E+02  0.00000000000E+00 0. -1.
</event>
<event>
 7    1  0.2530788E-009  0.4778727E+02  0.7816164E-02  0.1312668E+00
        -11   -1    0    0    0    0  0.00000000000E+00  0.00000000000E+00  0.45593999997E+02  0.45594000000E+02  0.51100000000E-03 0.  1.
         11   -1    0    0    0    0 -0.00000000000E+00 -0.00000000000E+00 -0.45593999997E+02  0.45594000000E+02  0.51100000000E-03 0. -1.
    9900012    2    1    2    0    0  0.10243664753E+02  0.20249847033E+02 -0.36995056182E+02  0.47787272421E+02  0.20000006278E+02 0.  0.
        -12    1    1    2    0    0 -0.10243664753E+02 -0.20249847033E+02  0.36995056182E+02  0.43400727579E+02  0.00000000000E+00 0.  1.
         11    1    3    3    0    0 -0.23731687329E+01 -0.15272330628E+01 -0.88468776268E+00  0.29575400862E+01  0.51100000000E-03 0.  1.
        -11    1    3    3    0    0 -0.25932463115E+00  0.44039738999E+01 -0.99824994152E+01  0.10913868710E+02  0.51100000000E-03 0. -1.
         12    1    3    3    0    0  0.12876158117E+02  0.17373106195E+02 -0.26127869005E+02  0.33915863625E+02  0.00000000000E+00 0. -1.
</event>
<event>
 7    1  0.2932421E-009  0.4778727E+02  0.7816164E-02  0.1312668E+00
        -11   -1    0    0    0    0  0.00000000000E+00  0.00000000000E+00  0.45593999997E+02  0.45594000000E+02  0.51100000000E-03 0.  1.
         11   -1    0    0    0    0 -0.00000000000E+00 -0.00000000000E+00 -0.45593999997E+02  0.45594000000E+02  0.51100000000E-03 0. -1.
    9900012    2    1    2    0    0 -0.36753991826E+02  0.12128989676E+02 -0.19638097243E+02  0.47787272253E+02  0.20000005509E+02 0.  0.
        -12    1    1    2    0    0  0.36753991826E+02 -0.12128989676E+02  0.19638097243E+02  0.43400727747E+02  0.00000000000E+00 0.  1.
         11    1    3    3    0    0 -0.96350952321E+01  0.54358963372E+01 -0.46257595600E+01  0.11990899920E+02  0.51100000000E-03 0. -1.
        -11    1    3    3    0    0 -0.19659509767E+02  0.55891993576E+01 -0.18426755061E+02  0.27518735001E+02  0.51100000000E-03 0.  1.
        -12    1    3    3    0    0 -0.74593868268E+01  0.11038939812E+01  0.34144173787E+01  0.82776373313E+01  0.00000000000E+00 0.  1.
</event>
<event>
 7    1  0.2530788E-009  0.4778727E+02  0.7816164E-02  0.1312668E+00
        -11   -1    0    0    0    0  0.00000000000E+00  0.00000000000E+00  0.45593999997E+02  0.45594000000E+02  0.51100000000E-03 0. -1.
         11   -1    0    0    0    0 -0.00000000000E+00 -0.00000000000E+00 -0.45593999997E+02  0.45594000000E+02  0.51100000000E-03 0.  1.
    9900012    2    1    2    0    0 -0.42616447165E+01  0.40697176051E+02  0.14463802678E+02  0.47787270258E+02  0.19999996414E+02 0.  0.
        -12    1    1    2    0    0  0.42616447165E+01 -0.40697176051E+02 -0.14463802678E+02  0.43400729742E+02  0.00000000000E+00 0.  1.
         11    1    3    3    0    0 -0.34851582387E+01  0.39698848960E+02  0.12383736031E+02  0.41731305456E+02  0.51100000000E-03 0. -1.
        -11    1    3    3    0    0 -0.18196395445E+01 -0.18500586548E+01  0.13950824653E+01  0.29461942305E+01  0.51100000000E-03 0.  1.
        -12    1    3    3    0    0  0.10431530666E+01  0.28483857459E+01  0.68498418176E+00  0.31097705715E+01  0.00000000000E+00 0.  1.
</event>
<event>
 7    1  0.2530788E-009  0.4778727E+02  0.7816164E-02  0.1312668E+00
        -11   -1    0    0    0    0  0.00000000000E+00  0.00000000000E+00  0.45593999997E+02  0.45594000000E+02  0.51100000000E-03 0.  1.
         11   -1    0    0    0    0 -0.00000000000E+00 -0.00000000000E+00 -0.45593999997E+02  0.45594000000E+02  0.51100000000E-03 0. -1.
    9900012    2    1    2    0    0  0.17829314904E+02  0.26633094313E+02 -0.29264605768E+02  0.47787270359E+02  0.19999996875E+02 0.  0.
        -12    1    1    2    0    0 -0.17829314904E+02 -0.26633094313E+02  0.29264605768E+02  0.43400729641E+02  0.00000000000E+00 0.  1.
         11    1    3    3    0    0  0.13375363594E+02  0.22910587415E+02 -0.22042708274E+02  0.34491685307E+02  0.51100000000E-03 0. -1.
        -11    1    3    3    0    0 -0.81419367897E+00 -0.16008928100E+01 -0.52531386949E+01  0.55516876304E+01  0.51100000000E-03 0.  1.
        -12    1    3    3    0    0  0.52681449887E+01  0.53233997080E+01 -0.19687587986E+01  0.77438974218E+01  0.00000000000E+00 0.  1.
</event>
<event>
 7    1  0.2530788E-009  0.4778728E+02  0.7816164E-02  0.1312668E+00
        -11   -1    0    0    0    0  0.00000000000E+00  0.00000000000E+00  0.45593999997E+02  0.45594000000E+02  0.51100000000E-03 0. -1.
         11   -1    0    0    0    0 -0.00000000000E+00 -0.00000000000E+00 -0.45593999997E+02  0.45594000000E+02  0.51100000000E-03 0.  1.
    9900012    2    1    2    0    0  0.16762401450E+02 -0.14255230761E+02  0.37408998247E+02  0.47787275856E+02  0.20000021937E+02 0.  0.
        -12    1    1    2    0    0 -0.16762401450E+02  0.14255230761E+02 -0.37408998247E+02  0.43400724144E+02  0.00000000000E+00 0.  1.
         11    1    3    3    0    0  0.52564473945E+01 -0.10713730853E+01  0.42438024928E+01  0.68401710036E+01  0.51100000000E-03 0.  1.
        -11    1    3    3    0    0  0.15335234045E+02 -0.10100106045E+02  0.21414276880E+02  0.28209090731E+02  0.51100000000E-03 0. -1.
        -12    1    3    3    0    0 -0.38292799897E+01 -0.30837516308E+01  0.11750918874E+02  0.12738014121E+02  0.00000000000E+00 0.  1.
</event>
<event>
 7    1  0.2530788E-009  0.4778727E+02  0.7816164E-02  0.1312668E+00
        -11   -1    0    0    0    0  0.00000000000E+00  0.00000000000E+00  0.45593999997E+02  0.45594000000E+02  0.51100000000E-03 0.  1.
         11   -1    0    0    0    0 -0.00000000000E+00 -0.00000000000E+00 -0.45593999997E+02  0.45594000000E+02  0.51100000000E-03 0. -1.
    9900012    2    1    2    0    0 -0.31087517755E+02 -0.23163533556E+02 -0.19510002966E+02  0.47787271173E+02  0.20000000585E+02 0.  0.
        -12    1    1    2    0    0  0.31087517755E+02  0.23163533556E+02  0.19510002966E+02  0.43400728827E+02  0.00000000000E+00 0.  1.
         11    1    3    3    0    0 -0.20517441930E+02 -0.11103547052E+02 -0.16387809401E+02  0.28509901398E+02  0.51100000000E-03 0. -1.
        -11    1    3    3    0    0 -0.93229580506E+01 -0.42109243021E+01  0.10810639201E+01  0.10286793949E+02  0.51100000000E-03 0.  1.
         12    1    3    3    0    0 -0.12471177750E+01 -0.78490622017E+01 -0.42032574850E+01  0.89905758256E+01  0.00000000000E+00 0. -1.
</event>
<event>
 7    1  0.2530788E-009  0.4778727E+02  0.7816164E-02  0.1312668E+00
        -11   -1    0    0    0    0  0.00000000000E+00  0.00000000000E+00  0.45593999997E+02  0.45594000000E+02  0.51100000000E-03 0.  1.
         11   -1    0    0    0    0 -0.00000000000E+00 -0.00000000000E+00 -0.45593999997E+02  0.45594000000E+02  0.51100000000E-03 0. -1.
    9900012    2    1    2    0    0  0.30320990574E+02 -0.52379803867E+01 -0.30607594779E+02  0.47787265374E+02  0.19999974147E+02 0.  0.
        -12    1    1    2    0    0 -0.30320990574E+02  0.52379803867E+01  0.30607594779E+02  0.43400734626E+02  0.00000000000E+00 0.  1.
         11    1    3    3    0    0  0.13960621467E+02 -0.92997839020E+01 -0.10826133828E+02  0.19964721543E+02  0.51100000000E-03 0. -1.
        -11    1    3    3    0    0  0.96825258189E+00 -0.99585178380E+00  0.82036928320E+00  0.16131459511E+01  0.51100000000E-03 0.  1.
         12    1    3    3    0    0  0.15392116525E+02  0.50576552991E+01 -0.20601830234E+02  0.26209397880E+02  0.00000000000E+00 0. -1.
</event>
<event>
 7    1  0.2530788E-009  0.4778727E+02  0.7816164E-02  0.1312668E+00
        -11   -1    0    0    0    0  0.00000000000E+00  0.00000000000E+00  0.45593999997E+02  0.45594000000E+02  0.51100000000E-03 0. -1.
         11   -1    0    0    0    0 -0.00000000000E+00 -0.00000000000E+00 -0.45593999997E+02  0.45594000000E+02  0.51100000000E-03 0.  1.
    9900012    2    1    2    0    0 -0.32506745090E+02  0.21803468505E+02  0.18749497061E+02  0.47787270106E+02  0.19999995723E+02 0.  0.
        -12    1    1    2    0    0  0.32506745090E+02 -0.21803468505E+02 -0.18749497061E+02  0.43400729894E+02  0.00000000000E+00 0.  1.
         11    1    3    3    0    0 -0.10199881016E+01  0.71399221898E+00  0.15824190605E+01  0.20135071295E+01  0.51100000000E-03 0. -1.
        -11    1    3    3    0    0 -0.16593654499E+02  0.21940669955E+02  0.10754224529E+02  0.29536345630E+02  0.51100000000E-03 0.  1.
        -12    1    3    3    0    0 -0.14893102490E+02 -0.85119366880E+00  0.64128534724E+01  0.16237417347E+02  0.00000000000E+00 0.  1.
</event>
<event>
 7    1  0.2530788E-009  0.4778727E+02  0.7816164E-02  0.1312668E+00
        -11   -1    0    0    0    0  0.00000000000E+00  0.00000000000E+00  0.45593999997E+02  0.45594000000E+02  0.51100000000E-03 0.  1.
         11   -1    0    0    0    0 -0.00000000000E+00 -0.00000000000E+00 -0.45593999997E+02  0.45594000000E+02  0.51100000000E-03 0. -1.
    9900012    2    1    2    0    0 -0.36933338282E+02  0.21726199445E+02 -0.68937670275E+01  0.47787271402E+02  0.20000001632E+02 0.  0.
        -12    1    1    2    0    0  0.36933338282E+02 -0.21726199445E+02  0.68937670275E+01  0.43400728598E+02  0.00000000000E+00 0.  1.
         11    1    3    3    0    0 -0.30943050130E+02  0.15640054813E+02 -0.49835417759E+01  0.35027408623E+02  0.51100000000E-03 0. -1.
        -11    1    3    3    0    0 -0.44669073371E+00  0.27012309942E+00  0.31969679495E+01  0.32393060108E+01  0.51100000000E-03 0.  1.
         12    1    3    3    0    0 -0.55435974181E+01  0.58160215322E+01 -0.51071932011E+01  0.95205567690E+01  0.00000000000E+00 0. -1.
</event>
<event>
 7    1  0.2530788E-009  0.4778726E+02  0.7816164E-02  0.1312668E+00
        -11   -1    0    0    0    0  0.00000000000E+00  0.00000000000E+00  0.45593999997E+02  0.45594000000E+02  0.51100000000E-03 0. -1.
         11   -1    0    0    0    0 -0.00000000000E+00 -0.00000000000E+00 -0.45593999997E+02  0.45594000000E+02  0.51100000000E-03 0.  1.
    9900012    2    1    2    0    0  0.30743475503E+02 -0.30027842598E+02 -0.60656029503E+01  0.47787260879E+02  0.19999953651E+02 0.  0.
        -12    1    1    2    0    0 -0.30743475503E+02  0.30027842598E+02  0.60656029503E+01  0.43400739121E+02  0.00000000000E+00 0.  1.
         11    1    3    3    0    0  0.68717334861E+01 -0.82530551839E+01  0.43520477828E+01  0.11587664180E+02  0.51100000000E-03 0. -1.
        -11    1    3    3    0    0  0.11651161539E+01  0.15893314732E+01  0.73061465557E-01  0.19720061924E+01  0.51100000000E-03 0.  1.
         12    1    3    3    0    0  0.22706625863E+02 -0.23364118888E+02 -0.10490712199E+02  0.34227590507E+02  0.00000000000E+00 0. -1.
</event>
<event>
 7    1  0.2530788E-009  0.4778727E+02  0.7816164E-02  0.1312668E+00
        -11   -1    0    0    0    0  0.00000000000E+00  0.00000000000E+00  0.45593999997E+02  0.45594000000E+02  0.51100000000E-03 0.  1.
         11   -1    0    0    0    0 -0.00000000000E+00 -0.00000000000E+00 -0.45593999997E+02  0.45594000000E+02  0.51100000000E-03 0. -1.
    9900012    2    1    2    0    0 -0.11414185395E+01  0.37834124510E+02 -0.21234398569E+02  0.47787268482E+02  0.19999988316E+02 0.  0.
        -12    1    1    2    0    0  0.11414185395E+01 -0.37834124510E+02  0.21234398569E+02  0.43400731518E+02  0.00000000000E+00 0.  1.
         11    1    3    3    0    0  0.90231282483E+00  0.23380024794E+02 -0.21540655729E+02  0.31803137853E+02  0.51100000000E-03 0. -1.
        -11    1    3    3    0    0 -0.10753729811E+00  0.76690468329E+01 -0.29442519826E+01  0.82155014207E+01  0.51100000000E-03 0.  1.
         12    1    3    3    0    0 -0.19361940662E+01  0.67850528835E+01  0.32505091423E+01  0.77686292085E+01  0.00000000000E+00 0. -1.
</event>
<event>
 7    1  0.2530788E-009  0.4778727E+02  0.7816164E-02  0.1312668E+00
        -11   -1    0    0    0    0  0.00000000000E+00  0.00000000000E+00  0.45593999997E+02  0.45594000000E+02  0.51100000000E-03 0.  1.
         11   -1    0    0    0    0 -0.00000000000E+00 -0.00000000000E+00 -0.45593999997E+02  0.45594000000E+02  0.51100000000E-03 0. -1.
    9900012    2    1    2    0    0 -0.22569206263E+02  0.10830848336E+02 -0.35453443579E+02  0.47787274100E+02  0.20000013933E+02 0.  0.
        -12    1    1    2    0    0  0.22569206263E+02 -0.10830848336E+02  0.35453443579E+02  0.43400725900E+02  0.00000000000E+00 0.  1.
         11    1    3    3    0    0  0.45793317638E-02  0.35038247941E+01 -0.12564261698E+02  0.13043675917E+02  0.51100000000E-03 0. -1.
        -11    1    3    3    0    0  0.64236890495E+00  0.22440610156E+01 -0.15390239852E+01  0.27958974838E+01  0.51100000000E-03 0.  1.
         12    1    3    3    0    0 -0.23216154500E+02  0.50829625265E+01 -0.21350157895E+02  0.31947700699E+02  0.00000000000E+00 0. -1.
</event>
<event>
 7    1  0.2530788E-009  0.4778727E+02  0.7816164E-02  0.1312668E+00
        -11   -1    0    0    0    0  0.00000000000E+00  0.00000000000E+00  0.45593999997E+02  0.45594000000E+02  0.51100000000E-03 0. -1.
         11   -1    0    0    0    0 -0.00000000000E+00 -0.00000000000E+00 -0.45593999997E+02  0.45594000000E+02  0.51100000000E-03 0.  1.
    9900012    2    1    2    0    0  0.83339840446E+01 -0.12493791971E+02  0.40719446306E+02  0.47787269184E+02  0.19999991517E+02 0.  0.
        -12    1    1    2    0    0 -0.83339840446E+01  0.12493791971E+02 -0.40719446306E+02  0.43400730816E+02  0.00000000000E+00 0.  1.
         11    1    3    3    0    0  0.73733323825E+01 -0.17913545325E+02  0.32591857518E+02  0.37914249475E+02  0.51100000000E-03 0. -1.
        -11    1    3    3    0    0  0.10739360847E+01  0.36834700320E+01  0.60368953582E+01  0.71529990926E+01  0.51100000000E-03 0.  1.
         12    1    3    3    0    0 -0.11328442263E+00  0.17362833215E+01  0.20906934301E+01  0.27200206161E+01  0.00000000000E+00 0. -1.
</event>
<event>
 7    1  0.2530788E-009  0.4778727E+02  0.7816164E-02  0.1312668E+00
        -11   -1    0    0    0    0  0.00000000000E+00  0.00000000000E+00  0.45593999997E+02  0.45594000000E+02  0.51100000000E-03 0.  1.
         11   -1    0    0    0    0 -0.00000000000E+00 -0.00000000000E+00 -0.45593999997E+02  0.45594000000E+02  0.51100000000E-03 0. -1.
    9900012    2    1    2    0    0 -0.25289590927E+02 -0.13686731428E+02 -0.32507436884E+02  0.47787268679E+02  0.19999989216E+02 0.  0.
        -12    1    1    2    0    0  0.25289590927E+02  0.13686731428E+02  0.32507436884E+02  0.43400731321E+02  0.00000000000E+00 0.  1.
         11    1    3    3    0    0 -0.32751672604E+00 -0.11845848116E+01 -0.10500664674E+02  0.10572344453E+02  0.51100000000E-03 0. -1.
        -11    1    3    3    0    0 -0.23844239274E+02 -0.12100892007E+02 -0.23294703785E+02  0.35462974475E+02  0.51100000000E-03 0.  1.
         12    1    3    3    0    0 -0.11178349264E+01 -0.40125461023E+00  0.12879315757E+01  0.17519497505E+01  0.00000000000E+00 0. -1.
</event>
<event>
 7    1  0.2530788E-009  0.4778727E+02  0.7816164E-02  0.1312668E+00
        -11   -1    0    0    0    0  0.00000000000E+00  0.00000000000E+00  0.45593999997E+02  0.45594000000E+02  0.51100000000E-03 0.  1.
         11   -1    0    0    0    0 -0.00000000000E+00 -0.00000000000E+00 -0.45593999997E+02  0.45594000000E+02  0.51100000000E-03 0. -1.
    9900012    2    1    2    0    0 -0.42354792897E+02 -0.61030952382E+01 -0.72420454982E+01  0.47787268718E+02  0.19999989391E+02 0.  0.
        -12    1    1    2    0    0  0.42354792897E+02  0.61030952382E+01  0.72420454982E+01  0.43400731282E+02  0.00000000000E+00 0.  1.
         11    1    3    3    0    0 -0.24175871353E+00 -0.23293819616E+01 -0.42223085665E+01  0.48282872212E+01  0.51100000000E-03 0. -1.
        -11    1    3    3    0    0 -0.14242627439E+01 -0.55687991356E+00  0.11746096142E+01  0.19283017421E+01  0.51100000000E-03 0.  1.
         12    1    3    3    0    0 -0.40688771440E+02 -0.32168333630E+01 -0.41943465459E+01  0.41030679754E+02  0.00000000000E+00 0. -1.
</event>
<event>
 7    1  0.2530788E-009  0.4778727E+02  0.7816164E-02  0.1312668E+00
        -11   -1    0    0    0    0  0.00000000000E+00  0.00000000000E+00  0.45593999997E+02  0.45594000000E+02  0.51100000000E-03 0. -1.
         11   -1    0    0    0    0 -0.00000000000E+00 -0.00000000000E+00 -0.45593999997E+02  0.45594000000E+02  0.51100000000E-03 0.  1.
    9900012    2    1    2    0    0 -0.22464231875E+02 -0.33832209399E+02  0.15308934904E+02  0.47787267352E+02  0.19999983163E+02 0.  0.
        -12    1    1    2    0    0  0.22464231875E+02  0.33832209399E+02 -0.15308934904E+02  0.43400732648E+02  0.00000000000E+00 0.  1.
         11    1    3    3    0    0 -0.97894311566E+01 -0.17355971457E+02 -0.17523292800E+01  0.20003333866E+02  0.51100000000E-03 0. -1.
        -11    1    3    3    0    0 -0.11021675671E+02 -0.12370526546E+02  0.97124085809E+01  0.19205159263E+02  0.51100000000E-03 0.  1.
         12    1    3    3    0    0 -0.16531250470E+01 -0.41057113964E+01  0.73488556031E+01  0.85787742228E+01  0.00000000000E+00 0. -1.
</event>
<event>
 7    1  0.2530788E-009  0.4778727E+02  0.7816164E-02  0.1312668E+00
        -11   -1    0    0    0    0  0.00000000000E+00  0.00000000000E+00  0.45593999997E+02  0.45594000000E+02  0.51100000000E-03 0. -1.
         11   -1    0    0    0    0 -0.00000000000E+00 -0.00000000000E+00 -0.45593999997E+02  0.45594000000E+02  0.51100000000E-03 0.  1.
    9900012    2    1    2    0    0  0.12044793170E+02  0.40214685217E+02  0.11014768671E+02  0.47787273296E+02  0.20000010264E+02 0.  0.
        -12    1    1    2    0    0 -0.12044793170E+02 -0.40214685217E+02 -0.11014768671E+02  0.43400726704E+02  0.00000000000E+00 0.  1.
         11    1    3    3    0    0 -0.83072263393E+00  0.69892148196E+01 -0.36887188062E+01  0.79464376032E+01  0.51100000000E-03 0. -1.
        -11    1    3    3    0    0  0.64948819366E+01  0.27757765780E+02  0.99962401943E+01  0.30209301063E+02  0.51100000000E-03 0.  1.
        -12    1    3    3    0    0  0.63806338670E+01  0.54677046178E+01  0.47072472825E+01  0.96315346291E+01  0.00000000000E+00 0.  1.
</event>
<event>
 7    1  0.2530788E-009  0.4778726E+02  0.7816164E-02  0.1312668E+00
        -11   -1    0    0    0    0  0.00000000000E+00  0.00000000000E+00  0.45593999997E+02  0.45594000000E+02  0.51100000000E-03 0.  1.
         11   -1    0    0    0    0 -0.00000000000E+00 -0.00000000000E+00 -0.45593999997E+02  0.45594000000E+02  0.51100000000E-03 0. -1.
    9900012    2    1    2    0    0  0.67225687230E+01  0.18774445378E+01 -0.42835809558E+02  0.47787259123E+02  0.19999945644E+02 0.  0.
        -12    1    1    2    0    0 -0.67225687230E+01 -0.18774445378E+01  0.42835809558E+02  0.43400740877E+02  0.00000000000E+00 0.  1.
         11    1    3    3    0    0  0.22583932421E+01  0.97714890801E+01 -0.26807321081E+02  0.28621928703E+02  0.51100000000E-03 0. -1.
        -11    1    3    3    0    0  0.44286789469E+01 -0.58892376748E+01 -0.15386545456E+02  0.17059956006E+02  0.51100000000E-03 0.  1.
        -12    1    3    3    0    0  0.35496534025E-01 -0.20048068675E+01 -0.64194302096E+00  0.21053744138E+01  0.00000000000E+00 0.  1.
</event>
<event>
 7    1  0.3046598E-009  0.4778727E+02  0.7816164E-02  0.1312668E+00
        -11   -1    0    0    0    0  0.00000000000E+00  0.00000000000E+00  0.45593999997E+02  0.45594000000E+02  0.51100000000E-03 0.  1.
         11   -1    0    0    0    0 -0.00000000000E+00 -0.00000000000E+00 -0.45593999997E+02  0.45594000000E+02  0.51100000000E-03 0. -1.
    9900012    2    1    2    0    0  0.41855020589E+02  0.86410847386E+01 -0.75572412069E+01  0.47787274331E+02  0.20000014984E+02 0.  0.
        -12    1    1    2    0    0 -0.41855020589E+02 -0.86410847386E+01  0.75572412069E+01  0.43400725669E+02  0.00000000000E+00 0.  1.
         11    1    3    3    0    0  0.23769291163E+02  0.10232856202E+02 -0.37528134419E+01  0.26149075651E+02  0.51100000000E-03 0. -1.
        -11    1    3    3    0    0  0.89185766675E+01 -0.47043757250E+01  0.20985463137E+01  0.10299323164E+02  0.51100000000E-03 0.  1.
        -12    1    3    3    0    0  0.91671527588E+01  0.31126042610E+01 -0.59029740788E+01  0.11338875516E+02  0.00000000000E+00 0.  1.
</event>
<event>
 7    1  0.2530788E-009  0.4778727E+02  0.7816164E-02  0.1312668E+00
        -11   -1    0    0    0    0  0.00000000000E+00  0.00000000000E+00  0.45593999997E+02  0.45594000000E+02  0.51100000000E-03 0. -1.
         11   -1    0    0    0    0 -0.00000000000E+00 -0.00000000000E+00 -0.45593999997E+02  0.45594000000E+02  0.51100000000E-03 0.  1.
    9900012    2    1    2    0    0  0.30510414648E+02  0.14018026702E+02  0.27499693986E+02  0.47787266781E+02  0.19999980560E+02 0.  0.
        -12    1    1    2    0    0 -0.30510414648E+02 -0.14018026702E+02 -0.27499693986E+02  0.43400733219E+02  0.00000000000E+00 0.  1.
         11    1    3    3    0    0  0.19749081381E+02  0.49690146368E+01  0.14089050516E+02  0.24763252342E+02  0.51100000000E-03 0. -1.
        -11    1    3    3    0    0  0.31008753727E+01  0.10298169430E+02  0.94178929092E+01  0.14295608724E+02  0.51100000000E-03 0.  1.
        -12    1    3    3    0    0  0.76604578950E+01 -0.12491573647E+01  0.39927505609E+01  0.87284057149E+01  0.00000000000E+00 0.  1.
</event>
<event>
 7    1  0.2530788E-009  0.4778727E+02  0.7816164E-02  0.1312668E+00
        -11   -1    0    0    0    0  0.00000000000E+00  0.00000000000E+00  0.45593999997E+02  0.45594000000E+02  0.51100000000E-03 0.  1.
         11   -1    0    0    0    0 -0.00000000000E+00 -0.00000000000E+00 -0.45593999997E+02  0.45594000000E+02  0.51100000000E-03 0. -1.
    9900012    2    1    2    0    0  0.69991616107E+01 -0.62867411867E+01 -0.42368759756E+02  0.47787272112E+02  0.20000004866E+02 0.  0.
        -12    1    1    2    0    0 -0.69991616107E+01  0.62867411867E+01  0.42368759756E+02  0.43400727888E+02  0.00000000000E+00 0.  1.
         11    1    3    3    0    0  0.19026341005E+01  0.12030570147E+01 -0.24910712016E+01  0.33574988747E+01  0.51100000000E-03 0. -1.
        -11    1    3    3    0    0  0.50431987596E+01  0.27270040300E+01 -0.28778713775E+02  0.29344245969E+02  0.51100000000E-03 0.  1.
        -12    1    3    3    0    0  0.53328750623E-01 -0.10216802231E+02 -0.11098974780E+02  0.15085527268E+02  0.00000000000E+00 0.  1.
</event>
<event>
 7    1  0.2530788E-009  0.4778727E+02  0.7816164E-02  0.1312668E+00
        -11   -1    0    0    0    0  0.00000000000E+00  0.00000000000E+00  0.45593999997E+02  0.45594000000E+02  0.51100000000E-03 0.  1.
         11   -1    0    0    0    0 -0.00000000000E+00 -0.00000000000E+00 -0.45593999997E+02  0.45594000000E+02  0.51100000000E-03 0. -1.
    9900012    2    1    2    0    0 -0.37021076987E+02 -0.18511656750E+02 -0.13053027659E+02  0.47787272955E+02  0.20000008713E+02 0.  0.
        -12    1    1    2    0    0  0.37021076987E+02  0.18511656750E+02  0.13053027659E+02  0.43400727045E+02  0.00000000000E+00 0.  1.
         11    1    3    3    0    0 -0.33079955817E+02 -0.89072500400E+01 -0.99068577526E+01  0.35661862135E+02  0.51100000000E-03 0. -1.
        -11    1    3    3    0    0 -0.33052913922E+01 -0.79618076049E+01 -0.11706474002E+00  0.86214288803E+01  0.51100000000E-03 0.  1.
         12    1    3    3    0    0 -0.63582977805E+00 -0.16425991056E+01 -0.30291051665E+01  0.35039819403E+01  0.00000000000E+00 0. -1.
</event>
<event>
 7    1  0.2530788E-009  0.4778727E+02  0.7816164E-02  0.1312668E+00
        -11   -1    0    0    0    0  0.00000000000E+00  0.00000000000E+00  0.45593999997E+02  0.45594000000E+02  0.51100000000E-03 0.  1.
         11   -1    0    0    0    0 -0.00000000000E+00 -0.00000000000E+00 -0.45593999997E+02  0.45594000000E+02  0.51100000000E-03 0. -1.
    9900012    2    1    2    0    0 -0.78488670779E+01  0.41462936924E+02 -0.10141165470E+02  0.47787273165E+02  0.20000009667E+02 0.  0.
        -12    1    1    2    0    0  0.78488670779E+01 -0.41462936924E+02  0.10141165470E+02  0.43400726835E+02  0.00000000000E+00 0.  1.
         11    1    3    3    0    0 -0.92460039612E+01  0.18438932719E+02  0.13071244639E+01  0.20668609138E+02  0.51100000000E-03 0. -1.
        -11    1    3    3    0    0  0.17386015302E-01 -0.38761644662E+00 -0.16616398825E+01  0.17063399848E+01  0.51100000000E-03 0.  1.
         12    1    3    3    0    0  0.13797508680E+01  0.23411620652E+02 -0.97866500517E+01  0.25412324042E+02  0.00000000000E+00 0. -1.
</event>
<event>
 7    1  0.2530788E-009  0.4778727E+02  0.7816164E-02  0.1312668E+00
        -11   -1    0    0    0    0  0.00000000000E+00  0.00000000000E+00  0.45593999997E+02  0.45594000000E+02  0.51100000000E-03 0. -1.
         11   -1    0    0    0    0 -0.00000000000E+00 -0.00000000000E+00 -0.45593999997E+02  0.45594000000E+02  0.51100000000E-03 0.  1.
    9900012    2    1    2    0    0 -0.21673082753E+02 -0.18511209332E+02  0.32729741190E+02  0.47787270221E+02  0.19999996247E+02 0.  0.
        -12    1    1    2    0    0  0.21673082753E+02  0.18511209332E+02 -0.32729741190E+02  0.43400729779E+02  0.00000000000E+00 0.  1.
         11    1    3    3    0    0 -0.15266986832E+02 -0.14002423726E+02  0.34003366789E+02  0.39816801860E+02  0.51100000000E-03 0. -1.
        -11    1    3    3    0    0 -0.24246579756E+01 -0.21463936420E+01 -0.55822077869E+00  0.32859675385E+01  0.51100000000E-03 0.  1.
         12    1    3    3    0    0 -0.39814379450E+01 -0.23623919642E+01 -0.71540482003E+00  0.46845008228E+01  0.00000000000E+00 0. -1.
</event>
<event>
 7    1  0.2530788E-009  0.4778727E+02  0.7816164E-02  0.1312668E+00
        -11   -1    0    0    0    0  0.00000000000E+00  0.00000000000E+00  0.45593999997E+02  0.45594000000E+02  0.51100000000E-03 0.  1.
         11   -1    0    0    0    0 -0.00000000000E+00 -0.00000000000E+00 -0.45593999997E+02  0.45594000000E+02  0.51100000000E-03 0. -1.
    9900012    2    1    2    0    0 -0.32892467911E+02 -0.27930009218E+02 -0.46501199116E+01  0.47787268723E+02  0.19999989415E+02 0.  0.
        -12    1    1    2    0    0  0.32892467911E+02  0.27930009218E+02  0.46501199116E+01  0.43400731277E+02  0.00000000000E+00 0.  1.
         11    1    3    3    0    0 -0.26598619130E+02 -0.22518483199E+02 -0.65077944400E+01  0.35453067765E+02  0.51100000000E-03 0. -1.
        -11    1    3    3    0    0 -0.50401280874E+01 -0.12712191749E+00  0.40603445450E+01  0.64734418360E+01  0.51100000000E-03 0.  1.
         12    1    3    3    0    0 -0.12537206936E+01 -0.52844041009E+01 -0.22026700166E+01  0.58607591216E+01  0.00000000000E+00 0. -1.
</event>
<event>
 7    1  0.2530788E-009  0.4778727E+02  0.7816164E-02  0.1312668E+00
        -11   -1    0    0    0    0  0.00000000000E+00  0.00000000000E+00  0.45593999997E+02  0.45594000000E+02  0.51100000000E-03 0. -1.
         11   -1    0    0    0    0 -0.00000000000E+00 -0.00000000000E+00 -0.45593999997E+02  0.45594000000E+02  0.51100000000E-03 0.  1.
    9900012    2    1    2    0    0 -0.38844626281E+01 -0.80353957985E+01  0.42473127339E+02  0.47787272109E+02  0.20000004854E+02 0.  0.
        -12    1    1    2    0    0  0.38844626281E+01  0.80353957985E+01 -0.42473127339E+02  0.43400727891E+02  0.00000000000E+00 0.  1.
         11    1    3    3    0    0 -0.75662312374E+01 -0.12695847250E+02  0.35145646578E+02  0.38126747386E+02  0.51100000000E-03 0. -1.
        -11    1    3    3    0    0  0.32721866139E+01  0.25618255304E+01  0.49399558301E+01  0.64554875221E+01  0.51100000000E-03 0.  1.
         12    1    3    3    0    0  0.40958199544E+00  0.20986259214E+01  0.23875249302E+01  0.32050372012E+01  0.00000000000E+00 0. -1.
</event>
<event>
 7    1  0.2530788E-009  0.4778727E+02  0.7816164E-02  0.1312668E+00
        -11   -1    0    0    0    0  0.00000000000E+00  0.00000000000E+00  0.45593999997E+02  0.45594000000E+02  0.51100000000E-03 0.  1.
         11   -1    0    0    0    0 -0.00000000000E+00 -0.00000000000E+00 -0.45593999997E+02  0.45594000000E+02  0.51100000000E-03 0. -1.
    9900012    2    1    2    0    0  0.84531013564E+01  0.40056543892E+02 -0.14409774008E+02  0.47787271687E+02  0.20000002930E+02 0.  0.
        -12    1    1    2    0    0 -0.84531013564E+01 -0.40056543892E+02  0.14409774008E+02  0.43400728313E+02  0.00000000000E+00 0.  1.
         11    1    3    3    0    0  0.37494791264E+01  0.22038677618E+02 -0.12894957329E+02  0.25807786222E+02  0.51100000000E-03 0. -1.
        -11    1    3    3    0    0 -0.28719736232E+01  0.61427334755E+01  0.26662337593E+01  0.72863028872E+01  0.51100000000E-03 0.  1.
        -12    1    3    3    0    0  0.75755958531E+01  0.11875132799E+02 -0.41810504376E+01  0.14693182578E+02  0.00000000000E+00 0.  1.
</event>
<event>
 7    1  0.2530788E-009  0.4778727E+02  0.7816164E-02  0.1312668E+00
        -11   -1    0    0    0    0  0.00000000000E+00  0.00000000000E+00  0.45593999997E+02  0.45594000000E+02  0.51100000000E-03 0. -1.
         11   -1    0    0    0    0 -0.00000000000E+00 -0.00000000000E+00 -0.45593999997E+02  0.45594000000E+02  0.51100000000E-03 0.  1.
    9900012    2    1    2    0    0 -0.34831433390E+02  0.16163070888E+02  0.20227449146E+02  0.47787270611E+02  0.19999998024E+02 0.  0.
        -12    1    1    2    0    0  0.34831433390E+02 -0.16163070888E+02 -0.20227449146E+02  0.43400729389E+02  0.00000000000E+00 0.  1.
         11    1    3    3    0    0 -0.10687772755E+02  0.28584563922E+01  0.59929258813E+01  0.12582305842E+02  0.51100000000E-03 0. -1.
        -11    1    3    3    0    0 -0.20631700888E+02  0.17190387097E+02  0.10819580888E+02  0.28952371594E+02  0.51100000000E-03 0.  1.
        -12    1    3    3    0    0 -0.35119597463E+01 -0.38857726015E+01  0.34149423773E+01  0.62525931748E+01  0.00000000000E+00 0.  1.
</event>
<event>
 7    1  0.2530788E-009  0.4778722E+02  0.7816164E-02  0.1312668E+00
        -11   -1    0    0    0    0  0.00000000000E+00  0.00000000000E+00  0.45593999997E+02  0.45594000000E+02  0.51100000000E-03 0. -1.
         11   -1    0    0    0    0 -0.00000000000E+00 -0.00000000000E+00 -0.45593999997E+02  0.45594000000E+02  0.51100000000E-03 0.  1.
    9900012    2    1    2    0    0 -0.36594300495E+02  0.82952561286E+01  0.21809948410E+02  0.47787217143E+02  0.19999754241E+02 0.  0.
        -12    1    1    2    0    0  0.36594300495E+02 -0.82952561286E+01 -0.21809948410E+02  0.43400782857E+02  0.00000000000E+00 0.  1.
         11    1    3    3    0    0 -0.25938847774E+02 -0.18950937050E+01  0.86829738349E+01  0.27419140009E+02  0.51100000000E-03 0. -1.
        -11    1    3    3    0    0 -0.67913946151E+01  0.85135872122E+01  0.11538435144E+02  0.15866306875E+02  0.51100000000E-03 0.  1.
         12    1    3    3    0    0 -0.38640581060E+01  0.16767626214E+01  0.15885394314E+01  0.45017702585E+01  0.00000000000E+00 0. -1.
</event>
<event>
 7    1  0.2530788E-009  0.4778727E+02  0.7816164E-02  0.1312668E+00
        -11   -1    0    0    0    0  0.00000000000E+00  0.00000000000E+00  0.45593999997E+02  0.45594000000E+02  0.51100000000E-03 0.  1.
         11   -1    0    0    0    0 -0.00000000000E+00 -0.00000000000E+00 -0.45593999997E+02  0.45594000000E+02  0.51100000000E-03 0. -1.
    9900012    2    1    2    0    0 -0.34356794834E+02 -0.19432387624E+02 -0.18044831339E+02  0.47787274452E+02  0.20000015539E+02 0.  0.
        -12    1    1    2    0    0  0.34356794834E+02  0.19432387624E+02  0.18044831339E+02  0.43400725548E+02  0.00000000000E+00 0.  1.
         11    1    3    3    0    0 -0.16719985251E+02 -0.16591490980E+02 -0.11374672137E+02  0.26157573401E+02  0.51100000000E-03 0. -1.
        -11    1    3    3    0    0 -0.14518582104E+02  0.16442144749E+01 -0.69077369035E+01  0.16161976888E+02  0.51100000000E-03 0.  1.
         12    1    3    3    0    0 -0.31182274784E+01 -0.44851111196E+01  0.23757770225E+00  0.54677241634E+01  0.00000000000E+00 0. -1.
</event>
<event>
 7    1  0.2530788E-009  0.4778727E+02  0.7816164E-02  0.1312668E+00
        -11   -1    0    0    0    0  0.00000000000E+00  0.00000000000E+00  0.45593999997E+02  0.45594000000E+02  0.51100000000E-03 0. -1.
         11   -1    0    0    0    0 -0.00000000000E+00 -0.00000000000E+00 -0.45593999997E+02  0.45594000000E+02  0.51100000000E-03 0.  1.
    9900012    2    1    2    0    0  0.42448904859E+02  0.90306207401E+01  0.40199747337E+00  0.47787271473E+02  0.20000001954E+02 0.  0.
        -12    1    1    2    0    0 -0.42448904859E+02 -0.90306207401E+01 -0.40199747337E+00  0.43400728527E+02  0.00000000000E+00 0.  1.
         11    1    3    3    0    0  0.21217965378E+01  0.15931124757E+01  0.12147002208E+01  0.29181372133E+01  0.51100000000E-03 0. -1.
        -11    1    3    3    0    0  0.99406280786E+01  0.17188111937E+01  0.78229430444E+01  0.12765924826E+02  0.51100000000E-03 0.  1.
        -12    1    3    3    0    0  0.30386480243E+02  0.57186970707E+01 -0.86356457918E+01  0.32103209434E+02  0.00000000000E+00 0.  1.
</event>
<event>
 7    1  0.2530788E-009  0.4778727E+02  0.7816164E-02  0.1312668E+00
        -11   -1    0    0    0    0  0.00000000000E+00  0.00000000000E+00  0.45593999997E+02  0.45594000000E+02  0.51100000000E-03 0.  1.
         11   -1    0    0    0    0 -0.00000000000E+00 -0.00000000000E+00 -0.45593999997E+02  0.45594000000E+02  0.51100000000E-03 0. -1.
    9900012    2    1    2    0    0  0.32027996985E+01 -0.98451992901E+01 -0.42147805941E+02  0.47787269354E+02  0.19999992291E+02 0.  0.
        -12    1    1    2    0    0 -0.32027996985E+01  0.98451992901E+01  0.42147805941E+02  0.43400730646E+02  0.00000000000E+00 0.  1.
         11    1    3    3    0    0 -0.58401310788E+00 -0.61895338333E+01 -0.11026390425E+02  0.12658305039E+02  0.51100000000E-03 0. -1.
        -11    1    3    3    0    0 -0.34285723896E+01 -0.18963474504E+01 -0.25539755308E+02  0.25838543762E+02  0.51100000000E-03 0.  1.
        -12    1    3    3    0    0  0.72153851960E+01 -0.17593180065E+01 -0.55816602084E+01  0.92904205533E+01  0.00000000000E+00 0.  1.
</event>
<event>
 7    1  0.2530788E-009  0.4778726E+02  0.7816164E-02  0.1312668E+00
        -11   -1    0    0    0    0  0.00000000000E+00  0.00000000000E+00  0.45593999997E+02  0.45594000000E+02  0.51100000000E-03 0.  1.
         11   -1    0    0    0    0 -0.00000000000E+00 -0.00000000000E+00 -0.45593999997E+02  0.45594000000E+02  0.51100000000E-03 0. -1.
    9900012    2    1    2    0    0  0.13274481172E+02  0.32029809512E+02 -0.26105631186E+02  0.47787256603E+02  0.19999934156E+02 0.  0.
        -12    1    1    2    0    0 -0.13274481172E+02 -0.32029809512E+02  0.26105631186E+02  0.43400743397E+02  0.00000000000E+00 0.  1.
         11    1    3    3    0    0  0.15408634586E+02  0.26288536219E+02 -0.19276545909E+02  0.36056876997E+02  0.51100000000E-03 0. -1.
        -11    1    3    3    0    0  0.22262914614E+01  0.17397453621E+01 -0.18329107660E+00  0.28313748385E+01  0.51100000000E-03 0.  1.
         12    1    3    3    0    0 -0.43604448754E+01  0.40015279308E+01 -0.66457942005E+01  0.88990047672E+01  0.00000000000E+00 0. -1.
</event>
<event>
 7    1  0.2530788E-009  0.4778727E+02  0.7816164E-02  0.1312668E+00
        -11   -1    0    0    0    0  0.00000000000E+00  0.00000000000E+00  0.45593999997E+02  0.45594000000E+02  0.51100000000E-03 0.  1.
         11   -1    0    0    0    0 -0.00000000000E+00 -0.00000000000E+00 -0.45593999997E+02  0.45594000000E+02  0.51100000000E-03 0. -1.
    9900012    2    1    2    0    0  0.26731357536E+02  0.29115524238E+02 -0.17926069224E+02  0.47787272066E+02  0.20000004658E+02 0.  0.
        -12    1    1    2    0    0 -0.26731357536E+02 -0.29115524238E+02  0.17926069224E+02  0.43400727934E+02  0.00000000000E+00 0.  1.
         11    1    3    3    0    0  0.55984273547E+01  0.29598763154E+01 -0.15416877135E+01  0.65176727376E+01  0.51100000000E-03 0. -1.
        -11    1    3    3    0    0  0.19921100267E+02  0.13145459873E+02 -0.60820945610E+01  0.24630169013E+02  0.51100000000E-03 0.  1.
        -12    1    3    3    0    0  0.12118299148E+01  0.13010188049E+02 -0.10302286950E+02  0.16639430315E+02  0.00000000000E+00 0.  1.
</event>
<event>
 7    1  0.2530788E-009  0.4778724E+02  0.7816164E-02  0.1312668E+00
        -11   -1    0    0    0    0  0.00000000000E+00  0.00000000000E+00  0.45593999997E+02  0.45594000000E+02  0.51100000000E-03 0. -1.
         11   -1    0    0    0    0 -0.00000000000E+00 -0.00000000000E+00 -0.45593999997E+02  0.45594000000E+02  0.51100000000E-03 0.  1.
    9900012    2    1    2    0    0 -0.43364072208E+02  0.13104305855E+01 -0.12105997144E+01  0.47787244955E+02  0.19999881050E+02 0.  0.
        -12    1    1    2    0    0  0.43364072208E+02 -0.13104305855E+01  0.12105997144E+01  0.43400755045E+02  0.00000000000E+00 0.  1.
         11    1    3    3    0    0 -0.18288551558E+02  0.32171665086E+01  0.83509455949E+01  0.20360736014E+02  0.51100000000E-03 0. -1.
        -11    1    3    3    0    0 -0.86019133899E+01 -0.27104297069E+01 -0.50093085804E+01  0.10316613586E+02  0.51100000000E-03 0.  1.
         12    1    3    3    0    0 -0.16473607260E+02  0.80369378375E+00 -0.45522367289E+01  0.17109895356E+02  0.00000000000E+00 0. -1.
</event>
<event>
 7    1  0.2530788E-009  0.4778727E+02  0.7816164E-02  0.1312668E+00
        -11   -1    0    0    0    0  0.00000000000E+00  0.00000000000E+00  0.45593999997E+02  0.45594000000E+02  0.51100000000E-03 0.  1.
         11   -1    0    0    0    0 -0.00000000000E+00 -0.00000000000E+00 -0.45593999997E+02  0.45594000000E+02  0.51100000000E-03 0. -1.
    9900012    2    1    2    0    0 -0.96397520808E-01  0.16089570484E+02 -0.40308057177E+02  0.47787273690E+02  0.20000012062E+02 0.  0.
        -12    1    1    2    0    0  0.96397520808E-01 -0.16089570484E+02  0.40308057177E+02  0.43400726310E+02  0.00000000000E+00 0.  1.
         11    1    3    3    0    0 -0.92093180148E+00 -0.31140789822E+01 -0.16996944086E+01  0.36653191722E+01  0.51100000000E-03 0.  1.
        -11    1    3    3    0    0 -0.27361278555E+00  0.12620874612E+02 -0.15085144896E+02  0.19670356802E+02  0.51100000000E-03 0. -1.
        -12    1    3    3    0    0  0.10981470662E+01  0.65827748543E+01 -0.23523217873E+02  0.24451597716E+02  0.00000000000E+00 0.  1.
</event>
<event>
 7    1  0.2530788E-009  0.4778728E+02  0.7816164E-02  0.1312668E+00
        -11   -1    0    0    0    0  0.00000000000E+00  0.00000000000E+00  0.45593999997E+02  0.45594000000E+02  0.51100000000E-03 0. -1.
         11   -1    0    0    0    0 -0.00000000000E+00 -0.00000000000E+00 -0.45593999997E+02  0.45594000000E+02  0.51100000000E-03 0.  1.
    9900012    2    1    2    0    0 -0.32291737729E+02 -0.28893280033E+02  0.24586349500E+01  0.47787276015E+02  0.20000022662E+02 0.  0.
        -12    1    1    2    0    0  0.32291737729E+02  0.28893280033E+02 -0.24586349500E+01  0.43400723985E+02  0.00000000000E+00 0.  1.
         11    1    3    3    0    0 -0.24536060344E+02 -0.11020943035E+02  0.30013798842E+01  0.27064510416E+02  0.51100000000E-03 0. -1.
        -11    1    3    3    0    0 -0.70663814080E+01 -0.13113327610E+02 -0.31896428588E+01  0.15233743107E+02  0.51100000000E-03 0.  1.
         12    1    3    3    0    0 -0.68929597686E+00 -0.47590093874E+01  0.26468979247E+01  0.54890224919E+01  0.00000000000E+00 0. -1.
</event>
<event>
 7    1  0.2530788E-009  0.4778728E+02  0.7816164E-02  0.1312668E+00
        -11   -1    0    0    0    0  0.00000000000E+00  0.00000000000E+00  0.45593999997E+02  0.45594000000E+02  0.51100000000E-03 0.  1.
         11   -1    0    0    0    0 -0.00000000000E+00 -0.00000000000E+00 -0.45593999997E+02  0.45594000000E+02  0.51100000000E-03 0. -1.
    9900012    2    1    2    0    0 -0.13687093959E+02 -0.99954605482E+01 -0.39954686415E+02  0.47787277205E+02  0.20000028089E+02 0.  0.
        -12    1    1    2    0    0  0.13687093959E+02  0.99954605482E+01  0.39954686415E+02  0.43400722795E+02  0.00000000000E+00 0.  1.
         11    1    3    3    0    0 -0.15494072745E+02 -0.59614178137E+01 -0.24829728707E+02  0.29868381619E+02  0.51100000000E-03 0. -1.
        -11    1    3    3    0    0 -0.28336639803E+01  0.58371112874E+00 -0.31918343236E+01  0.43079202460E+01  0.51100000000E-03 0.  1.
         12    1    3    3    0    0  0.46406427665E+01 -0.46177538632E+01 -0.11933123384E+02  0.13610975340E+02  0.00000000000E+00 0. -1.
</event>
<event>
 7    1  0.2530788E-009  0.4778727E+02  0.7816164E-02  0.1312668E+00
        -11   -1    0    0    0    0  0.00000000000E+00  0.00000000000E+00  0.45593999997E+02  0.45594000000E+02  0.51100000000E-03 0.  1.
         11   -1    0    0    0    0 -0.00000000000E+00 -0.00000000000E+00 -0.45593999997E+02  0.45594000000E+02  0.51100000000E-03 0. -1.
    9900012    2    1    2    0    0 -0.36695546173E+02  0.20852007295E+02 -0.10112067719E+02  0.47787271542E+02  0.20000002267E+02 0.  0.
        -12    1    1    2    0    0  0.36695546173E+02 -0.20852007295E+02  0.10112067719E+02  0.43400728458E+02  0.00000000000E+00 0.  1.
         11    1    3    3    0    0 -0.16452432722E+02 -0.12062093523E+01 -0.24519681145E+01  0.16677818543E+02  0.51100000000E-03 0. -1.
        -11    1    3    3    0    0 -0.80050035581E+01  0.85544624277E+01 -0.48054913870E+01  0.12663003480E+02  0.51100000000E-03 0.  1.
         12    1    3    3    0    0 -0.12238109893E+02  0.13503754219E+02 -0.28546082179E+01  0.18446449519E+02  0.00000000000E+00 0. -1.
</event>
<event>
 7    1  0.2530788E-009  0.4778729E+02  0.7816164E-02  0.1312668E+00
        -11   -1    0    0    0    0  0.00000000000E+00  0.00000000000E+00  0.45593999997E+02  0.45594000000E+02  0.51100000000E-03 0.  1.
         11   -1    0    0    0    0 -0.00000000000E+00 -0.00000000000E+00 -0.45593999997E+02  0.45594000000E+02  0.51100000000E-03 0. -1.
    9900012    2    1    2    0    0 -0.42841726716E+02 -0.17597063714E+01  0.67165243824E+01  0.47787287860E+02  0.20000076668E+02 0.  0.
        -12    1    1    2    0    0  0.42841726716E+02  0.17597063714E+01 -0.67165243824E+01  0.43400712140E+02  0.00000000000E+00 0.  1.
         11    1    3    3    0    0 -0.18044439896E+02 -0.12912016312E+01 -0.13987425456E+01  0.18144572019E+02  0.51100000000E-03 0. -1.
        -11    1    3    3    0    0 -0.99429939004E+01 -0.21526500756E+01  0.10366721352E+02  0.14524666671E+02  0.51100000000E-03 0.  1.
        -12    1    3    3    0    0 -0.14854292920E+02  0.16841453354E+01 -0.22514544243E+01  0.15118049169E+02  0.00000000000E+00 0.  1.
</event>
<event>
 7    1  0.2530788E-009  0.4778729E+02  0.7816164E-02  0.1312668E+00
        -11   -1    0    0    0    0  0.00000000000E+00  0.00000000000E+00  0.45593999997E+02  0.45594000000E+02  0.51100000000E-03 0.  1.
         11   -1    0    0    0    0 -0.00000000000E+00 -0.00000000000E+00 -0.45593999997E+02  0.45594000000E+02  0.51100000000E-03 0. -1.
    9900012    2    1    2    0    0 -0.33889547648E+02  0.23415576974E+02 -0.13668616135E+02  0.47787288579E+02  0.20000079945E+02 0.  0.
        -12    1    1    2    0    0  0.33889547648E+02 -0.23415576974E+02  0.13668616135E+02  0.43400711421E+02  0.00000000000E+00 0.  1.
         11    1    3    3    0    0 -0.26805078153E+02  0.13408567933E+02 -0.11926558736E+02  0.32257475294E+02  0.51100000000E-03 0. -1.
        -11    1    3    3    0    0 -0.86583599855E+01  0.50670488459E+01 -0.23674125437E+01  0.10307610007E+02  0.51100000000E-03 0.  1.
         12    1    3    3    0    0  0.15738904908E+01  0.49399601956E+01  0.62535514450E+00  0.52222032772E+01  0.00000000000E+00 0. -1.
</event>
<event>
 7    1  0.2530788E-009  0.4778727E+02  0.7816164E-02  0.1312668E+00
        -11   -1    0    0    0    0  0.00000000000E+00  0.00000000000E+00  0.45593999997E+02  0.45594000000E+02  0.51100000000E-03 0. -1.
         11   -1    0    0    0    0 -0.00000000000E+00 -0.00000000000E+00 -0.45593999997E+02  0.45594000000E+02  0.51100000000E-03 0.  1.
    9900012    2    1    2    0    0 -0.24837092629E+02 -0.26472326793E+02 -0.23789870477E+02  0.47787271971E+02  0.20000004226E+02 0.  0.
        -12    1    1    2    0    0  0.24837092629E+02  0.26472326793E+02  0.23789870477E+02  0.43400728029E+02  0.00000000000E+00 0.  1.
         11    1    3    3    0    0 -0.15856889617E+02 -0.80996257118E+01 -0.17361444959E+02  0.24868949642E+02  0.51100000000E-03 0. -1.
        -11    1    3    3    0    0 -0.56120605756E+01 -0.99612963837E+01 -0.76774838173E+01  0.13771942767E+02  0.51100000000E-03 0.  1.
         12    1    3    3    0    0 -0.33681424367E+01 -0.84114046976E+01  0.12490582990E+01  0.91463795622E+01  0.00000000000E+00 0. -1.
</event>
<event>
 7    1  0.2530788E-009  0.4778727E+02  0.7816164E-02  0.1312668E+00
        -11   -1    0    0    0    0  0.00000000000E+00  0.00000000000E+00  0.45593999997E+02  0.45594000000E+02  0.51100000000E-03 0.  1.
         11   -1    0    0    0    0 -0.00000000000E+00 -0.00000000000E+00 -0.45593999997E+02  0.45594000000E+02  0.51100000000E-03 0. -1.
    9900012    2    1    2    0    0  0.32314772996E+02  0.20884813795E+02 -0.20079926747E+02  0.47787268909E+02  0.19999990266E+02 0.  0.
        -12    1    1    2    0    0 -0.32314772996E+02 -0.20884813795E+02  0.20079926747E+02  0.43400731091E+02  0.00000000000E+00 0.  1.
         11    1    3    3    0    0  0.23193920844E+02  0.46515325235E+01 -0.13136553139E+02  0.27058524490E+02  0.51100000000E-03 0. -1.
        -11    1    3    3    0    0  0.21997985873E+00 -0.51502002844E+00 -0.12502177122E+00  0.57381832695E+00  0.51100000000E-03 0.  1.
         12    1    3    3    0    0  0.89008722926E+01  0.16748301300E+02 -0.68183518368E+01  0.20154926092E+02  0.00000000000E+00 0. -1.
</event>
<event>
 7    1  0.2530788E-009  0.4778727E+02  0.7816164E-02  0.1312668E+00
        -11   -1    0    0    0    0  0.00000000000E+00  0.00000000000E+00  0.45593999997E+02  0.45594000000E+02  0.51100000000E-03 0. -1.
         11   -1    0    0    0    0 -0.00000000000E+00 -0.00000000000E+00 -0.45593999997E+02  0.45594000000E+02  0.51100000000E-03 0.  1.
    9900012    2    1    2    0    0  0.30109940135E+02  0.30234421025E+02 -0.79305902539E+01  0.47787274529E+02  0.20000015889E+02 0.  0.
        -12    1    1    2    0    0 -0.30109940135E+02 -0.30234421025E+02  0.79305902539E+01  0.43400725471E+02  0.00000000000E+00 0.  1.
         11    1    3    3    0    0 -0.21749432663E+01  0.51019790444E+01 -0.29032795313E+01  0.62601597966E+01  0.51100000000E-03 0. -1.
        -11    1    3    3    0    0  0.42626242139E+01  0.18645725962E+01 -0.16957497687E+01  0.49519858334E+01  0.51100000000E-03 0.  1.
         12    1    3    3    0    0  0.28022259187E+02  0.23267869384E+02 -0.33315609538E+01  0.36575128899E+02  0.00000000000E+00 0. -1.
</event>
<event>
 7    1  0.2530788E-009  0.4778727E+02  0.7816164E-02  0.1312668E+00
        -11   -1    0    0    0    0  0.00000000000E+00  0.00000000000E+00  0.45593999997E+02  0.45594000000E+02  0.51100000000E-03 0.  1.
         11   -1    0    0    0    0 -0.00000000000E+00 -0.00000000000E+00 -0.45593999997E+02  0.45594000000E+02  0.51100000000E-03 0. -1.
    9900012    2    1    2    0    0 -0.68573222957E+01 -0.29486350527E+02 -0.31099129384E+02  0.47787267462E+02  0.19999983665E+02 0.  0.
        -12    1    1    2    0    0  0.68573222957E+01  0.29486350527E+02  0.31099129384E+02  0.43400732538E+02  0.00000000000E+00 0.  1.
         11    1    3    3    0    0 -0.79684792018E+00 -0.20896430750E+02 -0.23201170510E+02  0.31234437693E+02  0.51100000000E-03 0. -1.
        -11    1    3    3    0    0 -0.83599220824E+01 -0.38347037364E+01 -0.57747655083E+01  0.10860072141E+02  0.51100000000E-03 0.  1.
        -12    1    3    3    0    0  0.22994477069E+01 -0.47552160397E+01 -0.21231933654E+01  0.56927576277E+01  0.00000000000E+00 0.  1.
</event>
<event>
 7    1  0.2530788E-009  0.4778727E+02  0.7816164E-02  0.1312668E+00
        -11   -1    0    0    0    0  0.00000000000E+00  0.00000000000E+00  0.45593999997E+02  0.45594000000E+02  0.51100000000E-03 0.  1.
         11   -1    0    0    0    0 -0.00000000000E+00 -0.00000000000E+00 -0.45593999997E+02  0.45594000000E+02  0.51100000000E-03 0. -1.
    9900012    2    1    2    0    0  0.12328357422E+02 -0.72694828783E+01 -0.40973037049E+02  0.47787267943E+02  0.19999985859E+02 0.  0.
        -12    1    1    2    0    0 -0.12328357422E+02  0.72694828783E+01  0.40973037049E+02  0.43400732057E+02  0.00000000000E+00 0.  1.
         11    1    3    3    0    0  0.12271550330E+02 -0.22678274331E+01 -0.36429534115E+02  0.38507725782E+02  0.51100000000E-03 0. -1.
        -11    1    3    3    0    0 -0.46116403586E+00 -0.60439791835E+01 -0.18376613436E+01  0.63339842211E+01  0.51100000000E-03 0.  1.
         12    1    3    3    0    0  0.51797112760E+00  0.10423237383E+01 -0.27058415906E+01  0.29455579400E+01  0.00000000000E+00 0. -1.
</event>
<event>
 7    1  0.2606304E-009  0.4778727E+02  0.7816164E-02  0.1312668E+00
        -11   -1    0    0    0    0  0.00000000000E+00  0.00000000000E+00  0.45593999997E+02  0.45594000000E+02  0.51100000000E-03 0. -1.
         11   -1    0    0    0    0 -0.00000000000E+00 -0.00000000000E+00 -0.45593999997E+02  0.45594000000E+02  0.51100000000E-03 0.  1.
    9900012    2    1    2    0    0 -0.14437194910E+02 -0.52438619081E+01  0.40591780538E+02  0.47787270377E+02  0.19999996958E+02 0.  0.
        -12    1    1    2    0    0  0.14437194910E+02  0.52438619081E+01 -0.40591780538E+02  0.43400729623E+02  0.00000000000E+00 0.  1.
         11    1    3    3    0    0 -0.76248837773E+01  0.26982833415E+01  0.20447340447E+02  0.21988936246E+02  0.51100000000E-03 0. -1.
        -11    1    3    3    0    0  0.18157852991E+01 -0.72187553350E+01  0.87599919898E+01  0.11495432343E+02  0.51100000000E-03 0.  1.
        -12    1    3    3    0    0 -0.86280964314E+01 -0.72338991470E+00  0.11384448101E+02  0.14302901788E+02  0.00000000000E+00 0.  1.
</event>
<event>
 7    1  0.2530788E-009  0.4778725E+02  0.7816164E-02  0.1312668E+00
        -11   -1    0    0    0    0  0.00000000000E+00  0.00000000000E+00  0.45593999997E+02  0.45594000000E+02  0.51100000000E-03 0. -1.
         11   -1    0    0    0    0 -0.00000000000E+00 -0.00000000000E+00 -0.45593999997E+02  0.45594000000E+02  0.51100000000E-03 0.  1.
    9900012    2    1    2    0    0 -0.36236310084E+02  0.11869266515E+02  0.20728608646E+02  0.47787252627E+02  0.19999916028E+02 0.  0.
        -12    1    1    2    0    0  0.36236310084E+02 -0.11869266515E+02 -0.20728608646E+02  0.43400747373E+02  0.00000000000E+00 0.  1.
         11    1    3    3    0    0 -0.23474743034E+02  0.60091028473E+01  0.17647927784E+02  0.29977028420E+02  0.51100000000E-03 0. -1.
        -11    1    3    3    0    0 -0.46369911391E+00 -0.11418482136E+01 -0.23491171905E+01  0.26527695050E+01  0.51100000000E-03 0.  1.
         12    1    3    3    0    0 -0.12297867936E+02  0.70020118813E+01  0.54297980520E+01  0.15157454702E+02  0.00000000000E+00 0. -1.
</event>
<event>
 7    1  0.2530788E-009  0.4778728E+02  0.7816164E-02  0.1312668E+00
        -11   -1    0    0    0    0  0.00000000000E+00  0.00000000000E+00  0.45593999997E+02  0.45594000000E+02  0.51100000000E-03 0. -1.
         11   -1    0    0    0    0 -0.00000000000E+00 -0.00000000000E+00 -0.45593999997E+02  0.45594000000E+02  0.51100000000E-03 0.  1.
    9900012    2    1    2    0    0 -0.13818327550E+02 -0.30860475728E+02  0.27208596628E+02  0.47787275709E+02  0.20000021270E+02 0.  0.
        -12    1    1    2    0    0  0.13818327550E+02  0.30860475728E+02 -0.27208596628E+02  0.43400724291E+02  0.00000000000E+00 0.  1.
         11    1    3    3    0    0  0.41420116852E+00 -0.21455603452E+02  0.14596105668E+02  0.25953049590E+02  0.51100000000E-03 0. -1.
        -11    1    3    3    0    0 -0.77437062371E+01 -0.31648277766E+01  0.36368642672E+01  0.91218366079E+01  0.51100000000E-03 0.  1.
         12    1    3    3    0    0 -0.64888224819E+01 -0.62400445001E+01  0.89756266927E+01  0.12712389511E+02  0.00000000000E+00 0. -1.
</event>
<event>
 7    1  0.2530788E-009  0.4778727E+02  0.7816164E-02  0.1312668E+00
        -11   -1    0    0    0    0  0.00000000000E+00  0.00000000000E+00  0.45593999997E+02  0.45594000000E+02  0.51100000000E-03 0. -1.
         11   -1    0    0    0    0 -0.00000000000E+00 -0.00000000000E+00 -0.45593999997E+02  0.45594000000E+02  0.51100000000E-03 0.  1.
    9900012    2    1    2    0    0  0.13835797229E+02  0.38153612172E+02  0.15378428436E+02  0.47787268810E+02  0.19999989810E+02 0.  0.
        -12    1    1    2    0    0 -0.13835797229E+02 -0.38153612172E+02 -0.15378428436E+02  0.43400731190E+02  0.00000000000E+00 0.  1.
         11    1    3    3    0    0  0.58309817828E+01  0.80417609934E+01  0.65769238822E+01  0.11913278157E+02  0.51100000000E-03 0. -1.
        -11    1    3    3    0    0  0.12001740520E+02  0.25098140981E+02  0.45733839619E+01  0.28193515165E+02  0.51100000000E-03 0.  1.
        -12    1    3    3    0    0 -0.39969250737E+01  0.50137101973E+01  0.42281205917E+01  0.76804754883E+01  0.00000000000E+00 0.  1.
</event>
<event>
 7    1  0.2530788E-009  0.4778727E+02  0.7816164E-02  0.1312668E+00
        -11   -1    0    0    0    0  0.00000000000E+00  0.00000000000E+00  0.45593999997E+02  0.45594000000E+02  0.51100000000E-03 0.  1.
         11   -1    0    0    0    0 -0.00000000000E+00 -0.00000000000E+00 -0.45593999997E+02  0.45594000000E+02  0.51100000000E-03 0. -1.
    9900012    2    1    2    0    0  0.70453418787E+00 -0.20333834858E+02 -0.38336175473E+02  0.47787267767E+02  0.19999985058E+02 0.  0.
        -12    1    1    2    0    0 -0.70453418787E+00  0.20333834858E+02  0.38336175473E+02  0.43400732233E+02  0.00000000000E+00 0.  1.
         11    1    3    3    0    0  0.69804865693E+01 -0.14602946944E+02 -0.20712310743E+02  0.26286366595E+02  0.51100000000E-03 0. -1.
        -11    1    3    3    0    0  0.90129334222E+00  0.13505495050E+00  0.57484400774E+00  0.10775042565E+01  0.51100000000E-03 0.  1.
         12    1    3    3    0    0 -0.71772457237E+01 -0.58659428644E+01 -0.18198708737E+02  0.20423396915E+02  0.00000000000E+00 0. -1.
</event>
<event>
 7    1  0.4045161E-009  0.4778728E+02  0.7816164E-02  0.1312668E+00
        -11   -1    0    0    0    0  0.00000000000E+00  0.00000000000E+00  0.45593999997E+02  0.45594000000E+02  0.51100000000E-03 0. -1.
         11   -1    0    0    0    0 -0.00000000000E+00 -0.00000000000E+00 -0.45593999997E+02  0.45594000000E+02  0.51100000000E-03 0.  1.
    9900012    2    1    2    0    0 -0.11701336121E+02  0.81081534490E+01  0.40999505746E+02  0.47787275458E+02  0.20000020122E+02 0.  0.
        -12    1    1    2    0    0  0.11701336121E+02 -0.81081534490E+01 -0.40999505746E+02  0.43400724542E+02  0.00000000000E+00 0.  1.
         11    1    3    3    0    0 -0.27770768211E+01  0.17453964738E+01  0.12592935142E+02  0.13013092648E+02  0.51100000000E-03 0. -1.
        -11    1    3    3    0    0 -0.56120228683E+01  0.93108144786E+00  0.27808285998E+02  0.28384194259E+02  0.51100000000E-03 0.  1.
        -12    1    3    3    0    0 -0.33122364315E+01  0.54316755273E+01  0.59828460703E+00  0.63899885511E+01  0.00000000000E+00 0.  1.
</event>
<event>
 7    1  0.2530788E-009  0.4778726E+02  0.7816164E-02  0.1312668E+00
        -11   -1    0    0    0    0  0.00000000000E+00  0.00000000000E+00  0.45593999997E+02  0.45594000000E+02  0.51100000000E-03 0.  1.
         11   -1    0    0    0    0 -0.00000000000E+00 -0.00000000000E+00 -0.45593999997E+02  0.45594000000E+02  0.51100000000E-03 0. -1.
    9900012    2    1    2    0    0 -0.14456298534E+02 -0.45995699129E+00 -0.40919778042E+02  0.47787258500E+02  0.19999942806E+02 0.  0.
        -12    1    1    2    0    0  0.14456298534E+02  0.45995699129E+00  0.40919778042E+02  0.43400741500E+02  0.00000000000E+00 0.  1.
         11    1    3    3    0    0 -0.41378386686E+01  0.75548693826E+01 -0.11775238099E+02  0.14589516537E+02  0.51100000000E-03 0. -1.
        -11    1    3    3    0    0  0.52013771602E+00 -0.43378418598E+01 -0.96250604471E+01  0.10570203599E+02  0.51100000000E-03 0.  1.
         12    1    3    3    0    0 -0.10838597582E+02 -0.36769845141E+01 -0.19519479496E+02  0.22627538364E+02  0.00000000000E+00 0. -1.
</event>
<event>
 7    1  0.2530788E-009  0.4778726E+02  0.7816164E-02  0.1312668E+00
        -11   -1    0    0    0    0  0.00000000000E+00  0.00000000000E+00  0.45593999997E+02  0.45594000000E+02  0.51100000000E-03 0.  1.
         11   -1    0    0    0    0 -0.00000000000E+00 -0.00000000000E+00 -0.45593999997E+02  0.45594000000E+02  0.51100000000E-03 0. -1.
    9900012    2    1    2    0    0  0.29116026101E+02 -0.31502301777E+02 -0.65943774642E+01  0.47787264899E+02  0.19999971979E+02 0.  0.
        -12    1    1    2    0    0 -0.29116026101E+02  0.31502301777E+02  0.65943774642E+01  0.43400735101E+02  0.00000000000E+00 0.  1.
         11    1    3    3    0    0  0.59031901750E+01 -0.28289307773E+01 -0.16700810744E+01  0.67557142214E+01  0.51100000000E-03 0. -1.
        -11    1    3    3    0    0  0.23962726060E+02 -0.24573521063E+02 -0.86992171169E+01  0.35408283725E+02  0.51100000000E-03 0.  1.
        -12    1    3    3    0    0 -0.74989013346E+00 -0.40998499369E+01  0.37749207272E+01  0.56232669520E+01  0.00000000000E+00 0.  1.
</event>
<event>
 7    1  0.2530788E-009  0.4778727E+02  0.7816164E-02  0.1312668E+00
        -11   -1    0    0    0    0  0.00000000000E+00  0.00000000000E+00  0.45593999997E+02  0.45594000000E+02  0.51100000000E-03 0.  1.
         11   -1    0    0    0    0 -0.00000000000E+00 -0.00000000000E+00 -0.45593999997E+02  0.45594000000E+02  0.51100000000E-03 0. -1.
    9900012    2    1    2    0    0 -0.42131760823E+02 -0.59302399951E+01 -0.85656461746E+01  0.47787270618E+02  0.19999998057E+02 0.  0.
        -12    1    1    2    0    0  0.42131760823E+02  0.59302399951E+01  0.85656461746E+01  0.43400729382E+02  0.00000000000E+00 0.  1.
         11    1    3    3    0    0 -0.98403561355E+01 -0.68466108630E+01  0.97816134448E+00  0.12027696748E+02  0.51100000000E-03 0. -1.
        -11    1    3    3    0    0 -0.18956139643E+02 -0.12066168355E+01 -0.11363767426E+02  0.22134280308E+02  0.51100000000E-03 0.  1.
        -12    1    3    3    0    0 -0.13335265045E+02  0.21229877035E+01  0.18199599074E+01  0.13625293563E+02  0.00000000000E+00 0.  1.
</event>
<event>
 7    1  0.2530788E-009  0.4778727E+02  0.7816164E-02  0.1312668E+00
        -11   -1    0    0    0    0  0.00000000000E+00  0.00000000000E+00  0.45593999997E+02  0.45594000000E+02  0.51100000000E-03 0.  1.
         11   -1    0    0    0    0 -0.00000000000E+00 -0.00000000000E+00 -0.45593999997E+02  0.45594000000E+02  0.51100000000E-03 0. -1.
    9900012    2    1    2    0    0  0.24218296163E+02 -0.25510224988E+02 -0.25422942538E+02  0.47787268955E+02  0.19999990473E+02 0.  0.
        -12    1    1    2    0    0 -0.24218296163E+02  0.25510224988E+02  0.25422942538E+02  0.43400731045E+02  0.00000000000E+00 0.  1.
         11    1    3    3    0    0  0.15611375096E+02 -0.15053987023E+02 -0.10396868659E+02  0.24050622358E+02  0.51100000000E-03 0. -1.
        -11    1    3    3    0    0 -0.80677890980E+00 -0.53796941742E+01 -0.11067781156E+02  0.12332387506E+02  0.51100000000E-03 0.  1.
         12    1    3    3    0    0  0.94136999774E+01 -0.50765437909E+01 -0.39582927232E+01  0.11404259091E+02  0.00000000000E+00 0. -1.
</event>
<event>
 7    1  0.2530788E-009  0.4778727E+02  0.7816164E-02  0.1312668E+00
        -11   -1    0    0    0    0  0.00000000000E+00  0.00000000000E+00  0.45593999997E+02  0.45594000000E+02  0.51100000000E-03 0. -1.
         11   -1    0    0    0    0 -0.00000000000E+00 -0.00000000000E+00 -0.45593999997E+02  0.45594000000E+02  0.51100000000E-03 0.  1.
    9900012    2    1    2    0    0 -0.33695529238E+02 -0.46932104717E+01 -0.26948247433E+02  0.47787274720E+02  0.20000016758E+02 0.  0.
        -12    1    1    2    0    0  0.33695529238E+02  0.46932104717E+01  0.26948247433E+02  0.43400725280E+02  0.00000000000E+00 0.  1.
         11    1    3    3    0    0 -0.24451281614E+01  0.13011945546E+01 -0.41524233514E-01  0.27701053261E+01  0.51100000000E-03 0. -1.
        -11    1    3    3    0    0 -0.22886932098E+02  0.15200867341E+01 -0.10745469641E+02  0.25329576440E+02  0.51100000000E-03 0.  1.
        -12    1    3    3    0    0 -0.83634689781E+01 -0.75144917604E+01 -0.16161253558E+02  0.19687592954E+02  0.00000000000E+00 0.  1.
</event>
<event>
 7    1  0.2530788E-009  0.4778726E+02  0.7816164E-02  0.1312668E+00
        -11   -1    0    0    0    0  0.00000000000E+00  0.00000000000E+00  0.45593999997E+02  0.45594000000E+02  0.51100000000E-03 0. -1.
         11   -1    0    0    0    0 -0.00000000000E+00 -0.00000000000E+00 -0.45593999997E+02  0.45594000000E+02  0.51100000000E-03 0.  1.
    9900012    2    1    2    0    0 -0.19736977659E+02  0.28469266370E+02  0.26145297422E+02  0.47787262771E+02  0.19999962278E+02 0.  0.
        -12    1    1    2    0    0  0.19736977659E+02 -0.28469266370E+02 -0.26145297422E+02  0.43400737229E+02  0.00000000000E+00 0.  1.
         11    1    3    3    0    0  0.60757388757E-01  0.29539909963E+01 -0.20836387604E+01  0.36154259793E+01  0.51100000000E-03 0. -1.
        -11    1    3    3    0    0 -0.79165744597E+01  0.98956391321E+01  0.46602978502E+01  0.13502377617E+02  0.51100000000E-03 0.  1.
         12    1    3    3    0    0 -0.11881160588E+02  0.15619636241E+02  0.23568638332E+02  0.30669459174E+02  0.00000000000E+00 0. -1.
</event>
<event>
 7    1  0.2530788E-009  0.4778728E+02  0.7816164E-02  0.1312668E+00
        -11   -1    0    0    0    0  0.00000000000E+00  0.00000000000E+00  0.45593999997E+02  0.45594000000E+02  0.51100000000E-03 0. -1.
         11   -1    0    0    0    0 -0.00000000000E+00 -0.00000000000E+00 -0.45593999997E+02  0.45594000000E+02  0.51100000000E-03 0.  1.
    9900012    2    1    2    0    0 -0.20687886878E+02 -0.10764893474E+02  0.36602613469E+02  0.47787275262E+02  0.20000019231E+02 0.  0.
        -12    1    1    2    0    0  0.20687886878E+02  0.10764893474E+02 -0.36602613469E+02  0.43400724738E+02  0.00000000000E+00 0.  1.
         11    1    3    3    0    0 -0.17457665108E+01 -0.32218411537E+01  0.11300172039E+02  0.11879471768E+02  0.51100000000E-03 0. -1.
        -11    1    3    3    0    0 -0.75389833869E+01 -0.43415306499E+01  0.85403546529E+00  0.87415408098E+01  0.51100000000E-03 0.  1.
        -12    1    3    3    0    0 -0.11403136981E+02 -0.32015216703E+01  0.24448405965E+02  0.27166262684E+02  0.00000000000E+00 0.  1.
</event>
<event>
 7    1  0.2530788E-009  0.4778728E+02  0.7816164E-02  0.1312668E+00
        -11   -1    0    0    0    0  0.00000000000E+00  0.00000000000E+00  0.45593999997E+02  0.45594000000E+02  0.51100000000E-03 0. -1.
         11   -1    0    0    0    0 -0.00000000000E+00 -0.00000000000E+00 -0.45593999997E+02  0.45594000000E+02  0.51100000000E-03 0.  1.
    9900012    2    1    2    0    0  0.81491923546E+01  0.29457503880E+02  0.30813444242E+02  0.47787283221E+02  0.20000055518E+02 0.  0.
        -12    1    1    2    0    0 -0.81491923546E+01 -0.29457503880E+02 -0.30813444242E+02  0.43400716779E+02  0.00000000000E+00 0.  1.
         11    1    3    3    0    0 -0.15129170327E+01  0.24197421573E+02  0.15527747505E+02  0.28790885217E+02  0.51100000000E-03 0. -1.
        -11    1    3    3    0    0  0.43633107182E+01  0.19129873085E+01  0.86063282449E+01  0.98370161628E+01  0.51100000000E-03 0.  1.
         12    1    3    3    0    0  0.52987986692E+01  0.33470949981E+01  0.66793684920E+01  0.91593818413E+01  0.00000000000E+00 0. -1.
</event>
<event>
 7    1  0.2530788E-009  0.4778728E+02  0.7816164E-02  0.1312668E+00
        -11   -1    0    0    0    0  0.00000000000E+00  0.00000000000E+00  0.45593999997E+02  0.45594000000E+02  0.51100000000E-03 0. -1.
         11   -1    0    0    0    0 -0.00000000000E+00 -0.00000000000E+00 -0.45593999997E+02  0.45594000000E+02  0.51100000000E-03 0.  1.
    9900012    2    1    2    0    0  0.42752434476E+02 -0.70478052377E+01  0.24859609558E+01  0.47787283253E+02  0.20000055664E+02 0.  0.
        -12    1    1    2    0    0 -0.42752434476E+02  0.70478052377E+01 -0.24859609558E+01  0.43400716747E+02  0.00000000000E+00 0.  1.
         11    1    3    3    0    0  0.24299954264E+02  0.41117308163E+01  0.33269380187E+01  0.24868908789E+02  0.51100000000E-03 0. -1.
        -11    1    3    3    0    0  0.16603465065E+02 -0.11216724963E+02  0.13116230018E+01  0.20080097764E+02  0.51100000000E-03 0.  1.
         12    1    3    3    0    0  0.18490151469E+01  0.57188909120E-01 -0.21526000647E+01  0.28382766996E+01  0.00000000000E+00 0. -1.
</event>
<event>
 7    1  0.2530788E-009  0.4778727E+02  0.7816164E-02  0.1312668E+00
        -11   -1    0    0    0    0  0.00000000000E+00  0.00000000000E+00  0.45593999997E+02  0.45594000000E+02  0.51100000000E-03 0. -1.
         11   -1    0    0    0    0 -0.00000000000E+00 -0.00000000000E+00 -0.45593999997E+02  0.45594000000E+02  0.51100000000E-03 0.  1.
    9900012    2    1    2    0    0 -0.28564342773E+02  0.11978089184E+02  0.30401098213E+02  0.47787273380E+02  0.20000010650E+02 0.  0.
        -12    1    1    2    0    0  0.28564342773E+02 -0.11978089184E+02 -0.30401098213E+02  0.43400726620E+02  0.00000000000E+00 0.  1.
         11    1    3    3    0    0 -0.23607696257E+02  0.14005777832E+02  0.23532020133E+02  0.36155789399E+02  0.51100000000E-03 0.  1.
        -11    1    3    3    0    0  0.58375340053E+00 -0.14177500485E+01  0.57441150022E+01  0.59452199835E+01  0.51100000000E-03 0. -1.
        -12    1    3    3    0    0 -0.55403999162E+01 -0.60993859928E+00  0.11249630779E+01  0.56862639978E+01  0.00000000000E+00 0.  1.
</event>
<event>
 7    1  0.2530788E-009  0.4778728E+02  0.7816164E-02  0.1312668E+00
        -11   -1    0    0    0    0  0.00000000000E+00  0.00000000000E+00  0.45593999997E+02  0.45594000000E+02  0.51100000000E-03 0. -1.
         11   -1    0    0    0    0 -0.00000000000E+00 -0.00000000000E+00 -0.45593999997E+02  0.45594000000E+02  0.51100000000E-03 0.  1.
    9900012    2    1    2    0    0 -0.16405022949E+02  0.85877498933E+01  0.39252368775E+02  0.47787277879E+02  0.20000031161E+02 0.  0.
        -12    1    1    2    0    0  0.16405022949E+02 -0.85877498933E+01 -0.39252368775E+02  0.43400722121E+02  0.00000000000E+00 0.  1.
         11    1    3    3    0    0 -0.47031782886E+01  0.42170429781E+01  0.24512895777E+02  0.25313739296E+02  0.51100000000E-03 0. -1.
        -11    1    3    3    0    0 -0.12576230785E+02  0.10729606964E+01  0.80675520896E+01  0.14979927316E+02  0.51100000000E-03 0.  1.
        -12    1    3    3    0    0  0.87438612451E+00  0.32977462188E+01  0.66719209083E+01  0.74936112672E+01  0.00000000000E+00 0.  1.
</event>
<event>
 7    1  0.2530788E-009  0.4778731E+02  0.7816164E-02  0.1312668E+00
        -11   -1    0    0    0    0  0.00000000000E+00  0.00000000000E+00  0.45593999997E+02  0.45594000000E+02  0.51100000000E-03 0.  1.
         11   -1    0    0    0    0 -0.00000000000E+00 -0.00000000000E+00 -0.45593999997E+02  0.45594000000E+02  0.51100000000E-03 0. -1.
    9900012    2    1    2    0    0  0.89944750180E+01  0.23149540835E+02 -0.35592393563E+02  0.47787305290E+02  0.20000156139E+02 0.  0.
        -12    1    1    2    0    0 -0.89944750180E+01 -0.23149540835E+02  0.35592393563E+02  0.43400694710E+02  0.00000000000E+00 0.  1.
         11    1    3    3    0    0  0.20248822502E+01  0.29376789700E+01 -0.77070669431E+01  0.84928786041E+01  0.51100000000E-03 0. -1.
        -11    1    3    3    0    0 -0.32574422581E+01 -0.15669516896E+01 -0.32975889784E+01  0.48928888189E+01  0.51100000000E-03 0.  1.
        -12    1    3    3    0    0  0.10227035026E+02  0.21778813555E+02 -0.24587737642E+02  0.34401537867E+02  0.00000000000E+00 0.  1.
</event>
<event>
 7    1  0.2530788E-009  0.4778727E+02  0.7816164E-02  0.1312668E+00
        -11   -1    0    0    0    0  0.00000000000E+00  0.00000000000E+00  0.45593999997E+02  0.45594000000E+02  0.51100000000E-03 0. -1.
         11   -1    0    0    0    0 -0.00000000000E+00 -0.00000000000E+00 -0.45593999997E+02  0.45594000000E+02  0.51100000000E-03 0.  1.
    9900012    2    1    2    0    0  0.25524249821E+02 -0.25024777407E+02  0.24614965157E+02  0.47787270480E+02  0.19999997426E+02 0.  0.
        -12    1    1    2    0    0 -0.25524249821E+02  0.25024777407E+02 -0.24614965157E+02  0.43400729520E+02  0.00000000000E+00 0.  1.
         11    1    3    3    0    0  0.22029121959E+02 -0.14264470484E+02  0.24712754550E+02  0.36048267229E+02  0.51100000000E-03 0. -1.
        -11    1    3    3    0    0  0.28017580492E+01 -0.10545534315E+02  0.29162350360E+00  0.10915273092E+02  0.51100000000E-03 0.  1.
         12    1    3    3    0    0  0.69336981288E+00 -0.21477260789E+00 -0.38941289655E+00  0.82373015880E+00  0.00000000000E+00 0. -1.
</event>
<event>
 7    1  0.2530788E-009  0.4778727E+02  0.7816164E-02  0.1312668E+00
        -11   -1    0    0    0    0  0.00000000000E+00  0.00000000000E+00  0.45593999997E+02  0.45594000000E+02  0.51100000000E-03 0.  1.
         11   -1    0    0    0    0 -0.00000000000E+00 -0.00000000000E+00 -0.45593999997E+02  0.45594000000E+02  0.51100000000E-03 0. -1.
    9900012    2    1    2    0    0  0.18107879340E+02  0.39408225461E+02 -0.16492522542E+01  0.47787267735E+02  0.19999984910E+02 0.  0.
        -12    1    1    2    0    0 -0.18107879340E+02 -0.39408225461E+02  0.16492522542E+01  0.43400732265E+02  0.00000000000E+00 0.  1.
         11    1    3    3    0    0  0.10222840494E+02  0.29881506982E+02 -0.20095985695E+01  0.31645685551E+02  0.51100000000E-03 0. -1.
        -11    1    3    3    0    0  0.81675873807E+01  0.54891694625E+01  0.40719918051E+01  0.10649956926E+02  0.51100000000E-03 0.  1.
         12    1    3    3    0    0 -0.28254853416E+00  0.40375490156E+01 -0.37116454899E+01  0.54916252577E+01  0.00000000000E+00 0. -1.
</event>
<event>
 7    1  0.2530788E-009  0.4778727E+02  0.7816164E-02  0.1312668E+00
        -11   -1    0    0    0    0  0.00000000000E+00  0.00000000000E+00  0.45593999997E+02  0.45594000000E+02  0.51100000000E-03 0. -1.
         11   -1    0    0    0    0 -0.00000000000E+00 -0.00000000000E+00 -0.45593999997E+02  0.45594000000E+02  0.51100000000E-03 0.  1.
    9900012    2    1    2    0    0 -0.42781264362E+02  0.35743056591E+00 -0.72978739637E+01  0.47787270728E+02  0.19999998555E+02 0.  0.
        -12    1    1    2    0    0  0.42781264362E+02 -0.35743056591E+00  0.72978739637E+01  0.43400729272E+02  0.00000000000E+00 0.  1.
         11    1    3    3    0    0 -0.11848930196E+02 -0.68904047793E+00 -0.94107798654E+01  0.15147102083E+02  0.51100000000E-03 0.  1.
        -11    1    3    3    0    0 -0.12811181910E+02  0.31377762454E+01 -0.33305850434E+01  0.13603853082E+02  0.51100000000E-03 0. -1.
         12    1    3    3    0    0 -0.18121152256E+02 -0.20913052015E+01  0.54434909451E+01  0.19036315562E+02  0.00000000000E+00 0. -1.
</event>
<event>
 7    1  0.2530788E-009  0.4778727E+02  0.7816164E-02  0.1312668E+00
        -11   -1    0    0    0    0  0.00000000000E+00  0.00000000000E+00  0.45593999997E+02  0.45594000000E+02  0.51100000000E-03 0.  1.
         11   -1    0    0    0    0 -0.00000000000E+00 -0.00000000000E+00 -0.45593999997E+02  0.45594000000E+02  0.51100000000E-03 0. -1.
    9900012    2    1    2    0    0 -0.17403046072E+02  0.84610440861E+01 -0.38848011690E+02  0.47787270837E+02  0.19999999054E+02 0.  0.
        -12    1    1    2    0    0  0.17403046072E+02 -0.84610440861E+01  0.38848011690E+02  0.43400729163E+02  0.00000000000E+00 0.  1.
         11    1    3    3    0    0 -0.16808514026E+02  0.54776664538E+01 -0.35326483243E+02  0.39503055478E+02  0.51100000000E-03 0. -1.
        -11    1    3    3    0    0  0.24393332407E+01 -0.56229675512E+00 -0.11375108879E+00  0.25058858456E+01  0.51100000000E-03 0.  1.
        -12    1    3    3    0    0 -0.30338652866E+01  0.35456743874E+01 -0.34077773584E+01  0.57783295132E+01  0.00000000000E+00 0.  1.
</event>
<event>
 7    1  0.2530788E-009  0.4778727E+02  0.7816164E-02  0.1312668E+00
        -11   -1    0    0    0    0  0.00000000000E+00  0.00000000000E+00  0.45593999997E+02  0.45594000000E+02  0.51100000000E-03 0.  1.
         11   -1    0    0    0    0 -0.00000000000E+00 -0.00000000000E+00 -0.45593999997E+02  0.45594000000E+02  0.51100000000E-03 0. -1.
    9900012    2    1    2    0    0 -0.17910991690E+02 -0.34905684948E+02 -0.18558359112E+02  0.47787272380E+02  0.20000006090E+02 0.  0.
        -12    1    1    2    0    0  0.17910991690E+02  0.34905684948E+02  0.18558359112E+02  0.43400727620E+02  0.00000000000E+00 0.  1.
         11    1    3    3    0    0 -0.11785267338E+02 -0.78075483773E+01 -0.27780609455E+01  0.14407219051E+02  0.51100000000E-03 0. -1.
        -11    1    3    3    0    0 -0.18413742113E+01 -0.10579290260E+01  0.73591339429E+00  0.22475412333E+01  0.51100000000E-03 0.  1.
         12    1    3    3    0    0 -0.42843501399E+01 -0.26040207545E+02 -0.16516211561E+02  0.31132512096E+02  0.00000000000E+00 0. -1.
</event>
<event>
 7    1  0.2530788E-009  0.4778729E+02  0.7816164E-02  0.1312668E+00
        -11   -1    0    0    0    0  0.00000000000E+00  0.00000000000E+00  0.45593999997E+02  0.45594000000E+02  0.51100000000E-03 0.  1.
         11   -1    0    0    0    0 -0.00000000000E+00 -0.00000000000E+00 -0.45593999997E+02  0.45594000000E+02  0.51100000000E-03 0. -1.
    9900012    2    1    2    0    0 -0.41913274733E+02 -0.13398197703E+01  0.11184995532E+02  0.47787287553E+02  0.20000075268E+02 0.  0.
        -12    1    1    2    0    0  0.41913274733E+02  0.13398197703E+01 -0.11184995532E+02  0.43400712447E+02  0.00000000000E+00 0.  1.
         11    1    3    3    0    0 -0.28146139320E+02 -0.29794316271E+01  0.43259224458E+01  0.28632076011E+02  0.51100000000E-03 0. -1.
        -11    1    3    3    0    0 -0.24620734744E+01 -0.35895540231E+01  0.48866180317E+01  0.65441378292E+01  0.51100000000E-03 0.  1.
         12    1    3    3    0    0 -0.11305061939E+02  0.52291658799E+01  0.19724550541E+01  0.12611073712E+02  0.00000000000E+00 0. -1.
</event>
<event>
 7    1  0.2530788E-009  0.4778727E+02  0.7816164E-02  0.1312668E+00
        -11   -1    0    0    0    0  0.00000000000E+00  0.00000000000E+00  0.45593999997E+02  0.45594000000E+02  0.51100000000E-03 0.  1.
         11   -1    0    0    0    0 -0.00000000000E+00 -0.00000000000E+00 -0.45593999997E+02  0.45594000000E+02  0.51100000000E-03 0. -1.
    9900012    2    1    2    0    0  0.39783498843E+01 -0.19504485562E+02 -0.38566450582E+02  0.47787270336E+02  0.19999996769E+02 0.  0.
        -12    1    1    2    0    0 -0.39783498843E+01  0.19504485562E+02  0.38566450582E+02  0.43400729664E+02  0.00000000000E+00 0.  1.
         11    1    3    3    0    0  0.32949570638E+00 -0.17813405884E+02 -0.24361064745E+02  0.30180912385E+02  0.51100000000E-03 0. -1.
        -11    1    3    3    0    0  0.60761925981E+01  0.11093026382E+01 -0.60384383542E+01  0.86379052351E+01  0.51100000000E-03 0.  1.
        -12    1    3    3    0    0 -0.24273384202E+01 -0.28003823168E+01 -0.81669474829E+01  0.89684527157E+01  0.00000000000E+00 0.  1.
</event>
<event>
 7    1  0.2530788E-009  0.4778727E+02  0.7816164E-02  0.1312668E+00
        -11   -1    0    0    0    0  0.00000000000E+00  0.00000000000E+00  0.45593999997E+02  0.45594000000E+02  0.51100000000E-03 0.  1.
         11   -1    0    0    0    0 -0.00000000000E+00 -0.00000000000E+00 -0.45593999997E+02  0.45594000000E+02  0.51100000000E-03 0. -1.
    9900012    2    1    2    0    0 -0.10196412190E+02  0.37320069552E+02 -0.19668987325E+02  0.47787268724E+02  0.19999989418E+02 0.  0.
        -12    1    1    2    0    0  0.10196412190E+02 -0.37320069552E+02  0.19668987325E+02  0.43400731276E+02  0.00000000000E+00 0.  1.
         11    1    3    3    0    0 -0.63046187379E+01  0.24942852027E+02 -0.40494443767E+01  0.26044041251E+02  0.51100000000E-03 0. -1.
        -11    1    3    3    0    0  0.12198993573E+01 -0.45351846368E+00 -0.11019787189E+01  0.17053418417E+01  0.51100000000E-03 0.  1.
         12    1    3    3    0    0 -0.51116928096E+01  0.12830735989E+02 -0.14517564229E+02  0.20037885631E+02  0.00000000000E+00 0. -1.
</event>
<event>
 7    1  0.2530788E-009  0.4778727E+02  0.7816164E-02  0.1312668E+00
        -11   -1    0    0    0    0  0.00000000000E+00  0.00000000000E+00  0.45593999997E+02  0.45594000000E+02  0.51100000000E-03 0. -1.
         11   -1    0    0    0    0 -0.00000000000E+00 -0.00000000000E+00 -0.45593999997E+02  0.45594000000E+02  0.51100000000E-03 0.  1.
    9900012    2    1    2    0    0  0.38790323312E+02  0.14556032688E+02  0.12925013276E+02  0.47787271453E+02  0.20000001862E+02 0.  0.
        -12    1    1    2    0    0 -0.38790323312E+02 -0.14556032688E+02 -0.12925013276E+02  0.43400728547E+02  0.00000000000E+00 0.  1.
         11    1    3    3    0    0  0.18733620955E+02  0.16852093036E+02  0.10030076547E+02  0.27120914984E+02  0.51100000000E-03 0. -1.
        -11    1    3    3    0    0  0.75539246916E+01 -0.25038497600E+01  0.11178422321E+01  0.80362064050E+01  0.51100000000E-03 0.  1.
         12    1    3    3    0    0  0.12502777665E+02  0.20778941229E+00  0.17770944972E+01  0.12630150064E+02  0.00000000000E+00 0. -1.
</event>
<event>
 7    1  0.2530788E-009  0.4778727E+02  0.7816164E-02  0.1312668E+00
        -11   -1    0    0    0    0  0.00000000000E+00  0.00000000000E+00  0.45593999997E+02  0.45594000000E+02  0.51100000000E-03 0. -1.
         11   -1    0    0    0    0 -0.00000000000E+00 -0.00000000000E+00 -0.45593999997E+02  0.45594000000E+02  0.51100000000E-03 0.  1.
    9900012    2    1    2    0    0  0.37198171347E+02 -0.22289749759E+02 -0.17568060123E+01  0.47787271166E+02  0.20000000556E+02 0.  0.
        -12    1    1    2    0    0 -0.37198171347E+02  0.22289749759E+02  0.17568060123E+01  0.43400728834E+02  0.00000000000E+00 0.  1.
         11    1    3    3    0    0  0.13946525231E+02 -0.10904300836E+02  0.82399081348E+01  0.19527043532E+02  0.51100000000E-03 0. -1.
        -11    1    3    3    0    0  0.12831535650E+01 -0.23520137264E+01 -0.10670546683E+01  0.28839309226E+01  0.51100000000E-03 0.  1.
         12    1    3    3    0    0  0.21968492551E+02 -0.90334351965E+01 -0.89296594788E+01  0.25376296712E+02  0.00000000000E+00 0. -1.
</event>
<event>
 7    1  0.2530788E-009  0.4778728E+02  0.7816164E-02  0.1312668E+00
        -11   -1    0    0    0    0  0.00000000000E+00  0.00000000000E+00  0.45593999997E+02  0.45594000000E+02  0.51100000000E-03 0. -1.
         11   -1    0    0    0    0 -0.00000000000E+00 -0.00000000000E+00 -0.45593999997E+02  0.45594000000E+02  0.51100000000E-03 0.  1.
    9900012    2    1    2    0    0  0.41349148269E+02 -0.75419475321E+01  0.10816184871E+02  0.47787275463E+02  0.20000020146E+02 0.  0.
        -12    1    1    2    0    0 -0.41349148269E+02  0.75419475321E+01 -0.10816184871E+02  0.43400724537E+02  0.00000000000E+00 0.  1.
         11    1    3    3    0    0  0.14863808998E+02  0.62801315726E+01  0.35245870650E+01  0.16516524596E+02  0.51100000000E-03 0. -1.
        -11    1    3    3    0    0  0.66974207976E+01 -0.11700127907E+01  0.47886799412E+00  0.68156943951E+01  0.51100000000E-03 0.  1.
         12    1    3    3    0    0  0.19787918474E+02 -0.12652066314E+02  0.68127298122E+01  0.24455056472E+02  0.00000000000E+00 0. -1.
</event>
<event>
 7    1  0.2530788E-009  0.4778727E+02  0.7816164E-02  0.1312668E+00
        -11   -1    0    0    0    0  0.00000000000E+00  0.00000000000E+00  0.45593999997E+02  0.45594000000E+02  0.51100000000E-03 0. -1.
         11   -1    0    0    0    0 -0.00000000000E+00 -0.00000000000E+00 -0.45593999997E+02  0.45594000000E+02  0.51100000000E-03 0.  1.
    9900012    2    1    2    0    0 -0.81227964428E+01 -0.42305761598E+02  0.52788395036E+01  0.47787269212E+02  0.19999991646E+02 0.  0.
        -12    1    1    2    0    0  0.81227964428E+01  0.42305761598E+02 -0.52788395036E+01  0.43400730788E+02  0.00000000000E+00 0.  1.
         11    1    3    3    0    0 -0.35701759815E+00 -0.76238352352E+01  0.28893440102E+01  0.81607986331E+01  0.51100000000E-03 0. -1.
        -11    1    3    3    0    0 -0.12421703633E+01 -0.23052252686E+02  0.89570527094E+01  0.24762433940E+02  0.51100000000E-03 0.  1.
        -12    1    3    3    0    0 -0.65236084814E+01 -0.11629673676E+02 -0.65675572160E+01  0.14864036640E+02  0.00000000000E+00 0.  1.
</event>
<event>
 7    1  0.2530788E-009  0.4778727E+02  0.7816164E-02  0.1312668E+00
        -11   -1    0    0    0    0  0.00000000000E+00  0.00000000000E+00  0.45593999997E+02  0.45594000000E+02  0.51100000000E-03 0. -1.
         11   -1    0    0    0    0 -0.00000000000E+00 -0.00000000000E+00 -0.45593999997E+02  0.45594000000E+02  0.51100000000E-03 0.  1.
    9900012    2    1    2    0    0 -0.11365479803E+02 -0.41879338587E+02  0.75517821367E+00  0.47787269295E+02  0.19999992022E+02 0.  0.
        -12    1    1    2    0    0  0.11365479803E+02  0.41879338587E+02 -0.75517821367E+00  0.43400730705E+02  0.00000000000E+00 0.  1.
         11    1    3    3    0    0 -0.84304940963E+01 -0.15329049236E+02  0.81267720273E+01  0.19289826465E+02  0.51100000000E-03 0. -1.
        -11    1    3    3    0    0 -0.19058025226E+01 -0.97409094929E+01 -0.60060936027E+01  0.11601317237E+02  0.51100000000E-03 0.  1.
         12    1    3    3    0    0 -0.10291831839E+01 -0.16809379858E+02 -0.13655002109E+01  0.16896125593E+02  0.00000000000E+00 0. -1.
</event>
<event>
 7    1  0.2530788E-009  0.4778728E+02  0.7816164E-02  0.1312668E+00
        -11   -1    0    0    0    0  0.00000000000E+00  0.00000000000E+00  0.45593999997E+02  0.45594000000E+02  0.51100000000E-03 0. -1.
         11   -1    0    0    0    0 -0.00000000000E+00 -0.00000000000E+00 -0.45593999997E+02  0.45594000000E+02  0.51100000000E-03 0.  1.
    9900012    2    1    2    0    0  0.29996756161E+02  0.31298689286E+02  0.20516678890E+01  0.47787277975E+02  0.20000031598E+02 0.  0.
        -12    1    1    2    0    0 -0.29996756161E+02 -0.31298689286E+02 -0.20516678890E+01  0.43400722025E+02  0.00000000000E+00 0.  1.
         11    1    3    3    0    0  0.66669868824E+00  0.99074266297E+01  0.51022848005E+01  0.11164000180E+02  0.51100000000E-03 0. -1.
        -11    1    3    3    0    0  0.27374524620E+02  0.19312709437E+02 -0.19289584231E+01  0.33556910240E+02  0.51100000000E-03 0.  1.
        -12    1    3    3    0    0  0.19555328529E+01  0.20785532183E+01 -0.11216584884E+01  0.30663675554E+01  0.00000000000E+00 0.  1.
</event>
<event>
 7    1  0.2530788E-009  0.4778727E+02  0.7816164E-02  0.1312668E+00
        -11   -1    0    0    0    0  0.00000000000E+00  0.00000000000E+00  0.45593999997E+02  0.45594000000E+02  0.51100000000E-03 0. -1.
         11   -1    0    0    0    0 -0.00000000000E+00 -0.00000000000E+00 -0.45593999997E+02  0.45594000000E+02  0.51100000000E-03 0.  1.
    9900012    2    1    2    0    0  0.30458560039E+02 -0.59497430780E+01  0.30339741694E+02  0.47787271338E+02  0.20000001338E+02 0.  0.
        -12    1    1    2    0    0 -0.30458560039E+02  0.59497430780E+01 -0.30339741694E+02  0.43400728662E+02  0.00000000000E+00 0.  1.
         11    1    3    3    0    0  0.20840573234E+02 -0.46875253031E+01  0.20415361904E+02  0.29548086031E+02  0.51100000000E-03 0. -1.
        -11    1    3    3    0    0  0.65261430529E+00  0.26827693497E+01 -0.15390778319E+01  0.31609994699E+01  0.51100000000E-03 0.  1.
         12    1    3    3    0    0  0.89653724996E+01 -0.39449871246E+01  0.11463457622E+02  0.15078185837E+02  0.00000000000E+00 0. -1.
</event>
<event>
 7    1  0.2530788E-009  0.4778727E+02  0.7816164E-02  0.1312668E+00
        -11   -1    0    0    0    0  0.00000000000E+00  0.00000000000E+00  0.45593999997E+02  0.45594000000E+02  0.51100000000E-03 0.  1.
         11   -1    0    0    0    0 -0.00000000000E+00 -0.00000000000E+00 -0.45593999997E+02  0.45594000000E+02  0.51100000000E-03 0. -1.
    9900012    2    1    2    0    0 -0.23866410715E+02  0.17216127457E+02 -0.31900196296E+02  0.47787272716E+02  0.20000007623E+02 0.  0.
        -12    1    1    2    0    0  0.23866410715E+02 -0.17216127457E+02  0.31900196296E+02  0.43400727284E+02  0.00000000000E+00 0.  1.
         11    1    3    3    0    0 -0.14961978246E+02  0.10929210225E+02 -0.10842273136E+02  0.21467727318E+02  0.51100000000E-03 0. -1.
        -11    1    3    3    0    0 -0.28588342471E+01  0.66778231248E+01 -0.41655046019E+01  0.83736302634E+01  0.51100000000E-03 0.  1.
         12    1    3    3    0    0 -0.60455982213E+01 -0.39090589367E+00 -0.16892418559E+02  0.17945915135E+02  0.00000000000E+00 0. -1.
</event>
<event>
 7    1  0.2530788E-009  0.4778727E+02  0.7816164E-02  0.1312668E+00
        -11   -1    0    0    0    0  0.00000000000E+00  0.00000000000E+00  0.45593999997E+02  0.45594000000E+02  0.51100000000E-03 0.  1.
         11   -1    0    0    0    0 -0.00000000000E+00 -0.00000000000E+00 -0.45593999997E+02  0.45594000000E+02  0.51100000000E-03 0. -1.
    9900012    2    1    2    0    0 -0.27728172640E+02  0.33245041780E+02  0.30884927373E+01  0.47787272491E+02  0.20000006596E+02 0.  0.
        -12    1    1    2    0    0  0.27728172640E+02 -0.33245041780E+02 -0.30884927373E+01  0.43400727509E+02  0.00000000000E+00 0.  1.
         11    1    3    3    0    0 -0.14327594901E+02  0.14527915884E+02 -0.33548420847E+01  0.20678377143E+02  0.51100000000E-03 0. -1.
        -11    1    3    3    0    0  0.21351768235E+01  0.13483231514E+01  0.23489119787E+01  0.34488176428E+01  0.51100000000E-03 0.  1.
        -12    1    3    3    0    0 -0.15535754563E+02  0.17368802744E+02  0.40944228432E+01  0.23660077705E+02  0.00000000000E+00 0.  1.
</event>
<event>
 7    1  0.2530788E-009  0.4778726E+02  0.7816164E-02  0.1312668E+00
        -11   -1    0    0    0    0  0.00000000000E+00  0.00000000000E+00  0.45593999997E+02  0.45594000000E+02  0.51100000000E-03 0. -1.
         11   -1    0    0    0    0 -0.00000000000E+00 -0.00000000000E+00 -0.45593999997E+02  0.45594000000E+02  0.51100000000E-03 0.  1.
    9900012    2    1    2    0    0 -0.26052026502E+02  0.12882356619E+02  0.32232914822E+02  0.47787262738E+02  0.19999962128E+02 0.  0.
        -12    1    1    2    0    0  0.26052026502E+02 -0.12882356619E+02 -0.32232914822E+02  0.43400737262E+02  0.00000000000E+00 0.  1.
         11    1    3    3    0    0 -0.25736758099E+02  0.15876240687E+02  0.24464866012E+02  0.38896855979E+02  0.51100000000E-03 0. -1.
        -11    1    3    3    0    0  0.12574248951E+01 -0.16227971807E+01  0.25703331629E+01  0.32895593757E+01  0.51100000000E-03 0.  1.
         12    1    3    3    0    0 -0.15726932986E+01 -0.13710868874E+01  0.51977156477E+01  0.56008473840E+01  0.00000000000E+00 0. -1.
</event>
<event>
 7    1  0.2530788E-009  0.4778727E+02  0.7816164E-02  0.1312668E+00
        -11   -1    0    0    0    0  0.00000000000E+00  0.00000000000E+00  0.45593999997E+02  0.45594000000E+02  0.51100000000E-03 0.  1.
         11   -1    0    0    0    0 -0.00000000000E+00 -0.00000000000E+00 -0.45593999997E+02  0.45594000000E+02  0.51100000000E-03 0. -1.
    9900012    2    1    2    0    0 -0.19332138847E+02  0.20942697271E+02 -0.32730644219E+02  0.47787271523E+02  0.20000002180E+02 0.  0.
        -12    1    1    2    0    0  0.19332138847E+02 -0.20942697271E+02  0.32730644219E+02  0.43400728477E+02  0.00000000000E+00 0.  1.
         11    1    3    3    0    0 -0.55153942728E+00  0.13397255066E+02 -0.11571916918E+02  0.17711575324E+02  0.51100000000E-03 0. -1.
        -11    1    3    3    0    0 -0.14565219383E+02  0.63013190336E+01 -0.11930235621E+02  0.19854036352E+02  0.51100000000E-03 0.  1.
         12    1    3    3    0    0 -0.42153800363E+01  0.12441231710E+01 -0.92284916807E+01  0.10221659846E+02  0.00000000000E+00 0. -1.
</event>
<event>
 7    1  0.2530788E-009  0.4778727E+02  0.7816164E-02  0.1312668E+00
        -11   -1    0    0    0    0  0.00000000000E+00  0.00000000000E+00  0.45593999997E+02  0.45594000000E+02  0.51100000000E-03 0.  1.
         11   -1    0    0    0    0 -0.00000000000E+00 -0.00000000000E+00 -0.45593999997E+02  0.45594000000E+02  0.51100000000E-03 0. -1.
    9900012    2    1    2    0    0 -0.89926685435E+01  0.27691143383E+02 -0.32186264959E+02  0.47787272340E+02  0.20000005909E+02 0.  0.
        -12    1    1    2    0    0  0.89926685435E+01 -0.27691143383E+02  0.32186264959E+02  0.43400727660E+02  0.00000000000E+00 0.  1.
         11    1    3    3    0    0 -0.27645162014E+01  0.13961297517E+02 -0.55467306704E+01  0.15275031901E+02  0.51100000000E-03 0. -1.
        -11    1    3    3    0    0  0.14202482055E+01  0.12559046586E+01 -0.10733945567E+02  0.10900091246E+02  0.51100000000E-03 0.  1.
        -12    1    3    3    0    0 -0.76484005476E+01  0.12473941207E+02 -0.15905588722E+02  0.21612149193E+02  0.00000000000E+00 0.  1.
</event>
<event>
 7    1  0.2530788E-009  0.4778726E+02  0.7816164E-02  0.1312668E+00
        -11   -1    0    0    0    0  0.00000000000E+00  0.00000000000E+00  0.45593999997E+02  0.45594000000E+02  0.51100000000E-03 0.  1.
         11   -1    0    0    0    0 -0.00000000000E+00 -0.00000000000E+00 -0.45593999997E+02  0.45594000000E+02  0.51100000000E-03 0. -1.
    9900012    2    1    2    0    0  0.90077512564E+01 -0.37506461763E+02 -0.19893456537E+02  0.47787264181E+02  0.19999968705E+02 0.  0.
        -12    1    1    2    0    0 -0.90077512564E+01  0.37506461763E+02  0.19893456537E+02  0.43400735819E+02  0.00000000000E+00 0.  1.
         11    1    3    3    0    0 -0.34805206715E+01 -0.12224836708E+02 -0.32143524944E+01  0.13110786357E+02  0.51100000000E-03 0. -1.
        -11    1    3    3    0    0  0.34423130027E+01 -0.16263576791E+02 -0.49761310233E+01  0.17352674983E+02  0.51100000000E-03 0.  1.
         12    1    3    3    0    0  0.90459589252E+01 -0.90180482642E+01 -0.11702973019E+02  0.17323802841E+02  0.00000000000E+00 0. -1.
</event>
<event>
 7    1  0.2530788E-009  0.4778727E+02  0.7816164E-02  0.1312668E+00
        -11   -1    0    0    0    0  0.00000000000E+00  0.00000000000E+00  0.45593999997E+02  0.45594000000E+02  0.51100000000E-03 0.  1.
         11   -1    0    0    0    0 -0.00000000000E+00 -0.00000000000E+00 -0.45593999997E+02  0.45594000000E+02  0.51100000000E-03 0. -1.
    9900012    2    1    2    0    0 -0.24130705876E+02 -0.34541305136E+02  0.10403387708E+02  0.47787271868E+02  0.20000003754E+02 0.  0.
        -12    1    1    2    0    0  0.24130705876E+02  0.34541305136E+02 -0.10403387708E+02  0.43400728132E+02  0.00000000000E+00 0.  1.
         11    1    3    3    0    0 -0.87995802869E+01 -0.12194212238E+02  0.28530419919E+01  0.15305922847E+02  0.51100000000E-03 0. -1.
        -11    1    3    3    0    0 -0.10851631319E+02 -0.98512031609E+01 -0.36602603941E+01  0.15106343449E+02  0.51100000000E-03 0.  1.
        -12    1    3    3    0    0 -0.44794942707E+01 -0.12495889737E+02  0.11210606110E+02  0.17375005571E+02  0.00000000000E+00 0.  1.
</event>
<event>
 7    1  0.2530788E-009  0.4778727E+02  0.7816164E-02  0.1312668E+00
        -11   -1    0    0    0    0  0.00000000000E+00  0.00000000000E+00  0.45593999997E+02  0.45594000000E+02  0.51100000000E-03 0. -1.
         11   -1    0    0    0    0 -0.00000000000E+00 -0.00000000000E+00 -0.45593999997E+02  0.45594000000E+02  0.51100000000E-03 0.  1.
    9900012    2    1    2    0    0 -0.20703173029E+02 -0.24065893951E+02  0.29594503496E+02  0.47787271178E+02  0.20000000608E+02 0.  0.
        -12    1    1    2    0    0  0.20703173029E+02  0.24065893951E+02 -0.29594503496E+02  0.43400728822E+02  0.00000000000E+00 0.  1.
         11    1    3    3    0    0 -0.14955777547E+02 -0.14651208133E+02  0.95348483438E+01  0.23005358398E+02  0.51100000000E-03 0. -1.
        -11    1    3    3    0    0 -0.49373030480E+01  0.12451408529E+00  0.77071278372E+01  0.91538125885E+01  0.51100000000E-03 0.  1.
         12    1    3    3    0    0 -0.81009243426E+00 -0.95391999030E+01  0.12352527315E+02  0.15628100192E+02  0.00000000000E+00 0. -1.
</event>
<event>
 7    1  0.2530788E-009  0.4778727E+02  0.7816164E-02  0.1312668E+00
        -11   -1    0    0    0    0  0.00000000000E+00  0.00000000000E+00  0.45593999997E+02  0.45594000000E+02  0.51100000000E-03 0.  1.
         11   -1    0    0    0    0 -0.00000000000E+00 -0.00000000000E+00 -0.45593999997E+02  0.45594000000E+02  0.51100000000E-03 0. -1.
    9900012    2    1    2    0    0 -0.14755939229E+02 -0.24220218247E+02 -0.32852193504E+02  0.47787270369E+02  0.19999996921E+02 0.  0.
        -12    1    1    2    0    0  0.14755939229E+02  0.24220218247E+02  0.32852193504E+02  0.43400729631E+02  0.00000000000E+00 0.  1.
         11    1    3    3    0    0  0.19879719664E+01 -0.73246175286E+01 -0.81985535040E+01  0.11172212596E+02  0.51100000000E-03 0. -1.
        -11    1    3    3    0    0 -0.10193125352E+02 -0.10820370736E+02 -0.61885635852E+01  0.16102128642E+02  0.51100000000E-03 0.  1.
        -12    1    3    3    0    0 -0.65507858436E+01 -0.60752299825E+01 -0.18465076415E+02  0.20512929131E+02  0.00000000000E+00 0.  1.
</event>
<event>
 7    1  0.2530788E-009  0.4778727E+02  0.7816164E-02  0.1312668E+00
        -11   -1    0    0    0    0  0.00000000000E+00  0.00000000000E+00  0.45593999997E+02  0.45594000000E+02  0.51100000000E-03 0.  1.
         11   -1    0    0    0    0 -0.00000000000E+00 -0.00000000000E+00 -0.45593999997E+02  0.45594000000E+02  0.51100000000E-03 0. -1.
    9900012    2    1    2    0    0  0.10397594442E+02 -0.37924626793E+02 -0.18363987623E+02  0.47787270410E+02  0.19999997107E+02 0.  0.
        -12    1    1    2    0    0 -0.10397594442E+02  0.37924626793E+02  0.18363987623E+02  0.43400729590E+02  0.00000000000E+00 0.  1.
         11    1    3    3    0    0  0.72974380630E+00 -0.12355680903E+02 -0.58696235838E+01  0.13698461880E+02  0.51100000000E-03 0. -1.
        -11    1    3    3    0    0  0.25254476621E+01 -0.16073656487E+02  0.75983813937E+00  0.16288574923E+02  0.51100000000E-03 0.  1.
        -12    1    3    3    0    0  0.71424029734E+01 -0.94952894018E+01 -0.13254202179E+02  0.17800233607E+02  0.00000000000E+00 0.  1.
</event>
<event>
 7    1  0.2530788E-009  0.4778727E+02  0.7816164E-02  0.1312668E+00
        -11   -1    0    0    0    0  0.00000000000E+00  0.00000000000E+00  0.45593999997E+02  0.45594000000E+02  0.51100000000E-03 0. -1.
         11   -1    0    0    0    0 -0.00000000000E+00 -0.00000000000E+00 -0.45593999997E+02  0.45594000000E+02  0.51100000000E-03 0.  1.
    9900012    2    1    2    0    0 -0.31052650285E+02 -0.23944994758E+02  0.18600906377E+02  0.47787267498E+02  0.19999983830E+02 0.  0.
        -12    1    1    2    0    0  0.31052650285E+02  0.23944994758E+02 -0.18600906377E+02  0.43400732502E+02  0.00000000000E+00 0.  1.
         11    1    3    3    0    0 -0.18390581454E+02 -0.12918144669E+02  0.10986334758E+02  0.25015824983E+02  0.51100000000E-03 0. -1.
        -11    1    3    3    0    0  0.91406532243E+00 -0.25680329642E+01 -0.26207209378E+01  0.37813340521E+01  0.51100000000E-03 0.  1.
        -12    1    3    3    0    0 -0.13576134153E+02 -0.84588171254E+01  0.10235292557E+02  0.18990108463E+02  0.00000000000E+00 0.  1.
</event>
<event>
 7    1  0.2530788E-009  0.4778727E+02  0.7816164E-02  0.1312668E+00
        -11   -1    0    0    0    0  0.00000000000E+00  0.00000000000E+00  0.45593999997E+02  0.45594000000E+02  0.51100000000E-03 0.  1.
         11   -1    0    0    0    0 -0.00000000000E+00 -0.00000000000E+00 -0.45593999997E+02  0.45594000000E+02  0.51100000000E-03 0. -1.
    9900012    2    1    2    0    0  0.30694000196E+02  0.85349752936E+01 -0.29472965122E+02  0.47787272767E+02  0.20000007853E+02 0.  0.
        -12    1    1    2    0    0 -0.30694000196E+02 -0.85349752936E+01  0.29472965122E+02  0.43400727233E+02  0.00000000000E+00 0.  1.
         11    1    3    3    0    0  0.52973690567E+01  0.15116153132E+01  0.11531317798E+01  0.56282157866E+01  0.51100000000E-03 0.  1.
        -11    1    3    3    0    0  0.23611624246E+02  0.20755396095E+01 -0.24624581303E+02  0.34178745864E+02  0.51100000000E-03 0. -1.
        -12    1    3    3    0    0  0.17850068928E+01  0.49478203708E+01 -0.60015155986E+01  0.79803111161E+01  0.00000000000E+00 0.  1.
</event>
<event>
 7    1  0.2530788E-009  0.4778727E+02  0.7816164E-02  0.1312668E+00
        -11   -1    0    0    0    0  0.00000000000E+00  0.00000000000E+00  0.45593999997E+02  0.45594000000E+02  0.51100000000E-03 0.  1.
         11   -1    0    0    0    0 -0.00000000000E+00 -0.00000000000E+00 -0.45593999997E+02  0.45594000000E+02  0.51100000000E-03 0. -1.
    9900012    2    1    2    0    0  0.17718419955E+02 -0.39582468225E+02  0.17056267705E+01  0.47787270062E+02  0.19999995521E+02 0.  0.
        -12    1    1    2    0    0 -0.17718419955E+02  0.39582468225E+02 -0.17056267705E+01  0.43400729938E+02  0.00000000000E+00 0.  1.
         11    1    3    3    0    0  0.97642742752E+00 -0.17860847547E+02 -0.53835191396E+01  0.18680084695E+02  0.51100000000E-03 0. -1.
        -11    1    3    3    0    0  0.11413404018E+02 -0.11666263566E+02  0.69166301958E+01  0.17725892655E+02  0.51100000000E-03 0.  1.
         12    1    3    3    0    0  0.53285885088E+01 -0.10055357111E+02  0.17251571429E+00  0.11381292712E+02  0.00000000000E+00 0. -1.
</event>
<event>
 7    1  0.2530788E-009  0.4778727E+02  0.7816164E-02  0.1312668E+00
        -11   -1    0    0    0    0  0.00000000000E+00  0.00000000000E+00  0.45593999997E+02  0.45594000000E+02  0.51100000000E-03 0.  1.
         11   -1    0    0    0    0 -0.00000000000E+00 -0.00000000000E+00 -0.45593999997E+02  0.45594000000E+02  0.51100000000E-03 0. -1.
    9900012    2    1    2    0    0 -0.12509183663E+02 -0.29785388101E+02 -0.28982308028E+02  0.47787271908E+02  0.20000003939E+02 0.  0.
        -12    1    1    2    0    0  0.12509183663E+02  0.29785388101E+02  0.28982308028E+02  0.43400728092E+02  0.00000000000E+00 0.  1.
         11    1    3    3    0    0 -0.13282904730E+02 -0.17110433825E+02 -0.21009001000E+02  0.30175828523E+02  0.51100000000E-03 0. -1.
        -11    1    3    3    0    0 -0.17856550812E+01 -0.12740393344E+02 -0.53116477497E+01  0.13918325643E+02  0.51100000000E-03 0.  1.
         12    1    3    3    0    0  0.25593761484E+01  0.65439068674E-01 -0.26616592784E+01  0.36931177418E+01  0.00000000000E+00 0. -1.
</event>
<event>
 7    1  0.2530788E-009  0.4778727E+02  0.7816164E-02  0.1312668E+00
        -11   -1    0    0    0    0  0.00000000000E+00  0.00000000000E+00  0.45593999997E+02  0.45594000000E+02  0.51100000000E-03 0.  1.
         11   -1    0    0    0    0 -0.00000000000E+00 -0.00000000000E+00 -0.45593999997E+02  0.45594000000E+02  0.51100000000E-03 0. -1.
    9900012    2    1    2    0    0  0.38087090259E+02 -0.20769376518E+02 -0.12766363123E+01  0.47787271370E+02  0.20000001486E+02 0.  0.
        -12    1    1    2    0    0 -0.38087090259E+02  0.20769376518E+02  0.12766363123E+01  0.43400728630E+02  0.00000000000E+00 0.  1.
         11    1    3    3    0    0  0.18191920252E+02 -0.61895627186E+01 -0.10300931316E+01  0.19243641579E+02  0.51100000000E-03 0. -1.
        -11    1    3    3    0    0  0.54066285809E+01 -0.11651486568E+02 -0.36940137728E+01  0.13365422173E+02  0.51100000000E-03 0.  1.
        -12    1    3    3    0    0  0.14488541426E+02 -0.29283272313E+01  0.34474705920E+01  0.15178207619E+02  0.00000000000E+00 0.  1.
</event>
<event>
 7    1  0.2530788E-009  0.4778727E+02  0.7816164E-02  0.1312668E+00
        -11   -1    0    0    0    0  0.00000000000E+00  0.00000000000E+00  0.45593999997E+02  0.45594000000E+02  0.51100000000E-03 0. -1.
         11   -1    0    0    0    0 -0.00000000000E+00 -0.00000000000E+00 -0.45593999997E+02  0.45594000000E+02  0.51100000000E-03 0.  1.
    9900012    2    1    2    0    0 -0.25234022349E+02  0.34239902825E+02 -0.86311214434E+01  0.47787273200E+02  0.20000009829E+02 0.  0.
        -12    1    1    2    0    0  0.25234022349E+02 -0.34239902825E+02  0.86311214434E+01  0.43400726800E+02  0.00000000000E+00 0.  1.
         11    1    3    3    0    0 -0.50539418013E+01  0.94696331315E+01 -0.46219511355E+01  0.11686689520E+02  0.51100000000E-03 0.  1.
        -11    1    3    3    0    0 -0.22612133197E+02  0.23685571661E+02 -0.52470867669E+01  0.33163938132E+02  0.51100000000E-03 0. -1.
        -12    1    3    3    0    0  0.24320526500E+01  0.10846980327E+01  0.12379164589E+01  0.29366455479E+01  0.00000000000E+00 0.  1.
</event>
<event>
 7    1  0.2530788E-009  0.4778727E+02  0.7816164E-02  0.1312668E+00
        -11   -1    0    0    0    0  0.00000000000E+00  0.00000000000E+00  0.45593999997E+02  0.45594000000E+02  0.51100000000E-03 0.  1.
         11   -1    0    0    0    0 -0.00000000000E+00 -0.00000000000E+00 -0.45593999997E+02  0.45594000000E+02  0.51100000000E-03 0. -1.
    9900012    2    1    2    0    0 -0.12751095770E+02  0.38706576211E+02 -0.14927624134E+02  0.47787269043E+02  0.19999990877E+02 0.  0.
        -12    1    1    2    0    0  0.12751095770E+02 -0.38706576211E+02  0.14927624134E+02  0.43400730957E+02  0.00000000000E+00 0.  1.
         11    1    3    3    0    0 -0.63298106013E+01  0.16656498321E+01 -0.23463500810E+01  0.69531468110E+01  0.51100000000E-03 0. -1.
        -11    1    3    3    0    0 -0.21417142369E+01  0.43355469930E+01  0.13621050993E+01  0.50238668537E+01  0.51100000000E-03 0.  1.
         12    1    3    3    0    0 -0.42795709316E+01  0.32705379386E+02 -0.13943379152E+02  0.35810255379E+02  0.00000000000E+00 0. -1.
</event>
<event>
 7    1  0.2530788E-009  0.4778727E+02  0.7816164E-02  0.1312668E+00
        -11   -1    0    0    0    0  0.00000000000E+00  0.00000000000E+00  0.45593999997E+02  0.45594000000E+02  0.51100000000E-03 0. -1.
         11   -1    0    0    0    0 -0.00000000000E+00 -0.00000000000E+00 -0.45593999997E+02  0.45594000000E+02  0.51100000000E-03 0.  1.
    9900012    2    1    2    0    0 -0.78572633362E+01  0.26935900389E+01  0.42598486744E+02  0.47787273194E+02  0.20000009800E+02 0.  0.
        -12    1    1    2    0    0  0.78572633362E+01 -0.26935900389E+01 -0.42598486744E+02  0.43400726806E+02  0.00000000000E+00 0.  1.
         11    1    3    3    0    0  0.15408714912E+01 -0.39268043740E+01  0.23271589101E+02  0.23650812609E+02  0.51100000000E-03 0. -1.
        -11    1    3    3    0    0 -0.45313419454E+01 -0.91220115578E+00  0.30052896644E+01  0.55133417274E+01  0.51100000000E-03 0.  1.
         12    1    3    3    0    0 -0.48667928820E+01  0.75325955686E+01  0.16321607979E+02  0.18623118857E+02  0.00000000000E+00 0. -1.
</event>
<event>
 7    1  0.2530788E-009  0.4778727E+02  0.7816164E-02  0.1312668E+00
        -11   -1    0    0    0    0  0.00000000000E+00  0.00000000000E+00  0.45593999997E+02  0.45594000000E+02  0.51100000000E-03 0. -1.
         11   -1    0    0    0    0 -0.00000000000E+00 -0.00000000000E+00 -0.45593999997E+02  0.45594000000E+02  0.51100000000E-03 0.  1.
    9900012    2    1    2    0    0 -0.28155165332E+02 -0.21583801971E+02  0.25000982652E+02  0.47787274476E+02  0.20000015648E+02 0.  0.
        -12    1    1    2    0    0  0.28155165332E+02  0.21583801971E+02 -0.25000982652E+02  0.43400725524E+02  0.00000000000E+00 0.  1.
         11    1    3    3    0    0 -0.39356627632E+01 -0.47194814731E+01  0.34127668050E+01  0.70292193227E+01  0.51100000000E-03 0. -1.
        -11    1    3    3    0    0  0.15028958406E+01 -0.50156837167E+01  0.14916382373E+00  0.52381322207E+01  0.51100000000E-03 0.  1.
        -12    1    3    3    0    0 -0.25722398410E+02 -0.11848636781E+02  0.21439052023E+02  0.35519922933E+02  0.00000000000E+00 0.  1.
</event>
<event>
 7    1  0.2530788E-009  0.4778725E+02  0.7816164E-02  0.1312668E+00
        -11   -1    0    0    0    0  0.00000000000E+00  0.00000000000E+00  0.45593999997E+02  0.45594000000E+02  0.51100000000E-03 0. -1.
         11   -1    0    0    0    0 -0.00000000000E+00 -0.00000000000E+00 -0.45593999997E+02  0.45594000000E+02  0.51100000000E-03 0.  1.
    9900012    2    1    2    0    0  0.12585609958E+02  0.37903457617E+02  0.16986914474E+02  0.47787251841E+02  0.19999912445E+02 0.  0.
        -12    1    1    2    0    0 -0.12585609958E+02 -0.37903457617E+02 -0.16986914474E+02  0.43400748159E+02  0.00000000000E+00 0.  1.
         11    1    3    3    0    0  0.15858193413E+01  0.21428753242E+02  0.15307784707E+02  0.26382466932E+02  0.51100000000E-03 0. -1.
        -11    1    3    3    0    0  0.78947554924E+01  0.16369143728E+02  0.86994705695E+00  0.18194307868E+02  0.51100000000E-03 0.  1.
        -12    1    3    3    0    0  0.31050351243E+01  0.10556064710E+00  0.80918271033E+00  0.32104770412E+01  0.00000000000E+00 0.  1.
</event>
<event>
 7    1  0.2530788E-009  0.4778727E+02  0.7816164E-02  0.1312668E+00
        -11   -1    0    0    0    0  0.00000000000E+00  0.00000000000E+00  0.45593999997E+02  0.45594000000E+02  0.51100000000E-03 0. -1.
         11   -1    0    0    0    0 -0.00000000000E+00 -0.00000000000E+00 -0.45593999997E+02  0.45594000000E+02  0.51100000000E-03 0.  1.
    9900012    2    1    2    0    0  0.78511935758E+01  0.42682405144E+02 -0.44074587271E+00  0.47787271822E+02  0.20000003546E+02 0.  0.
        -12    1    1    2    0    0 -0.78511935758E+01 -0.42682405144E+02  0.44074587271E+00  0.43400728178E+02  0.00000000000E+00 0.  1.
         11    1    3    3    0    0  0.94246167406E+01  0.21112834959E+02  0.61125966849E+01  0.23915247003E+02  0.51100000000E-03 0. -1.
        -11    1    3    3    0    0 -0.39485340393E+01  0.13338648019E+02 -0.16686901919E+01  0.14010531013E+02  0.51100000000E-03 0.  1.
        -12    1    3    3    0    0  0.23751108745E+01  0.82309221657E+01 -0.48846523657E+01  0.98614938066E+01  0.00000000000E+00 0.  1.
</event>
<event>
 7    1  0.2530788E-009  0.4778727E+02  0.7816164E-02  0.1312668E+00
        -11   -1    0    0    0    0  0.00000000000E+00  0.00000000000E+00  0.45593999997E+02  0.45594000000E+02  0.51100000000E-03 0. -1.
         11   -1    0    0    0    0 -0.00000000000E+00 -0.00000000000E+00 -0.45593999997E+02  0.45594000000E+02  0.51100000000E-03 0.  1.
    9900012    2    1    2    0    0  0.87034087534E+01 -0.41045208388E+02  0.11097970386E+02  0.47787269565E+02  0.19999993256E+02 0.  0.
        -12    1    1    2    0    0 -0.87034087534E+01  0.41045208388E+02 -0.11097970386E+02  0.43400730435E+02  0.00000000000E+00 0.  1.
         11    1    3    3    0    0  0.10443074192E+02 -0.17624262897E+02  0.44681282987E+01  0.20967513252E+02  0.51100000000E-03 0. -1.
        -11    1    3    3    0    0 -0.54618264436E+01 -0.93160867105E+01  0.72182519603E-02  0.10799123671E+02  0.51100000000E-03 0.  1.
         12    1    3    3    0    0  0.37221610051E+01 -0.14104858781E+02  0.66226238353E+01  0.16020632642E+02  0.00000000000E+00 0. -1.
</event>
<event>
 7    1  0.2530788E-009  0.4778727E+02  0.7816164E-02  0.1312668E+00
        -11   -1    0    0    0    0  0.00000000000E+00  0.00000000000E+00  0.45593999997E+02  0.45594000000E+02  0.51100000000E-03 0. -1.
         11   -1    0    0    0    0 -0.00000000000E+00 -0.00000000000E+00 -0.45593999997E+02  0.45594000000E+02  0.51100000000E-03 0.  1.
    9900012    2    1    2    0    0 -0.41221005083E+02  0.95811727397E+01 -0.96256504533E+01  0.47787270999E+02  0.19999999794E+02 0.  0.
        -12    1    1    2    0    0  0.41221005083E+02 -0.95811727397E+01  0.96256504533E+01  0.43400729001E+02  0.00000000000E+00 0.  1.
         11    1    3    3    0    0 -0.89941605400E+01  0.71831831046E+01  0.87245610536E+00  0.11543579308E+02  0.51100000000E-03 0. -1.
        -11    1    3    3    0    0 -0.10755085698E+02 -0.51446193369E+01 -0.40182538069E+01  0.12581150202E+02  0.51100000000E-03 0.  1.
        -12    1    3    3    0    0 -0.21471758845E+02  0.75426089720E+01 -0.64798527517E+01  0.23662541489E+02  0.00000000000E+00 0.  1.
</event>
<event>
 7    1  0.2530788E-009  0.4778727E+02  0.7816164E-02  0.1312668E+00
        -11   -1    0    0    0    0  0.00000000000E+00  0.00000000000E+00  0.45593999997E+02  0.45594000000E+02  0.51100000000E-03 0.  1.
         11   -1    0    0    0    0 -0.00000000000E+00 -0.00000000000E+00 -0.45593999997E+02  0.45594000000E+02  0.51100000000E-03 0. -1.
    9900012    2    1    2    0    0 -0.12442917553E+02 -0.36320419091E+02 -0.20239178943E+02  0.47787269540E+02  0.19999993139E+02 0.  0.
        -12    1    1    2    0    0  0.12442917553E+02  0.36320419091E+02  0.20239178943E+02  0.43400730460E+02  0.00000000000E+00 0.  1.
         11    1    3    3    0    0 -0.36761989053E+01 -0.77971066780E+01 -0.15343516133E+01  0.87557721575E+01  0.51100000000E-03 0. -1.
        -11    1    3    3    0    0 -0.72125347444E+01 -0.30685307397E+02 -0.17902305854E+02  0.36250535205E+02  0.51100000000E-03 0.  1.
        -12    1    3    3    0    0 -0.15541839030E+01  0.21619949835E+01 -0.80252147576E+00  0.27809621774E+01  0.00000000000E+00 0.  1.
</event>
<event>
 7    1  0.2530788E-009  0.4778728E+02  0.7816164E-02  0.1312668E+00
        -11   -1    0    0    0    0  0.00000000000E+00  0.00000000000E+00  0.45593999997E+02  0.45594000000E+02  0.51100000000E-03 0. -1.
         11   -1    0    0    0    0 -0.00000000000E+00 -0.00000000000E+00 -0.45593999997E+02  0.45594000000E+02  0.51100000000E-03 0.  1.
    9900012    2    1    2    0    0 -0.56701794936E+01 -0.28854083259E+02  0.31920430293E+02  0.47787275049E+02  0.20000018257E+02 0.  0.
        -12    1    1    2    0    0  0.56701794936E+01  0.28854083259E+02 -0.31920430293E+02  0.43400724951E+02  0.00000000000E+00 0.  1.
         11    1    3    3    0    0 -0.20393461453E+01 -0.20880707159E+02  0.14541935018E+02  0.25527058947E+02  0.51100000000E-03 0. -1.
        -11    1    3    3    0    0 -0.33201505599E+01 -0.27241374629E+01  0.16346792739E+02  0.16901537142E+02  0.51100000000E-03 0.  1.
        -12    1    3    3    0    0 -0.31068278845E+00 -0.52492386371E+01  0.10317025354E+01  0.53586789590E+01  0.00000000000E+00 0.  1.
</event>
<event>
 7    1  0.2530788E-009  0.4778729E+02  0.7816164E-02  0.1312668E+00
        -11   -1    0    0    0    0  0.00000000000E+00  0.00000000000E+00  0.45593999997E+02  0.45594000000E+02  0.51100000000E-03 0. -1.
         11   -1    0    0    0    0 -0.00000000000E+00 -0.00000000000E+00 -0.45593999997E+02  0.45594000000E+02  0.51100000000E-03 0.  1.
    9900012    2    1    2    0    0  0.40980781330E+02  0.10673521266E+02  0.95012318167E+01  0.47787286864E+02  0.20000072130E+02 0.  0.
        -12    1    1    2    0    0 -0.40980781330E+02 -0.10673521266E+02 -0.95012318167E+01  0.43400713136E+02  0.00000000000E+00 0.  1.
         11    1    3    3    0    0  0.11854583623E+02  0.37431826456E+01  0.77293172383E-01  0.12431755455E+02  0.51100000000E-03 0. -1.
        -11    1    3    3    0    0  0.22287826649E+02 -0.99794083472E+00  0.17583998117E+01  0.22379344780E+02  0.51100000000E-03 0.  1.
        -12    1    3    3    0    0  0.68383710585E+01  0.79282794549E+01  0.76655388326E+01  0.12976186629E+02  0.00000000000E+00 0.  1.
</event>
<event>
 7    1  0.2530788E-009  0.4778727E+02  0.7816164E-02  0.1312668E+00
        -11   -1    0    0    0    0  0.00000000000E+00  0.00000000000E+00  0.45593999997E+02  0.45594000000E+02  0.51100000000E-03 0. -1.
         11   -1    0    0    0    0 -0.00000000000E+00 -0.00000000000E+00 -0.45593999997E+02  0.45594000000E+02  0.51100000000E-03 0.  1.
    9900012    2    1    2    0    0 -0.30132250792E+02  0.28981134896E+02  0.11651811066E+02  0.47787269375E+02  0.19999992389E+02 0.  0.
        -12    1    1    2    0    0  0.30132250792E+02 -0.28981134896E+02 -0.11651811066E+02  0.43400730625E+02  0.00000000000E+00 0.  1.
         11    1    3    3    0    0 -0.23557232144E+02  0.11236715753E+02  0.10773931987E+02  0.28236228110E+02  0.51100000000E-03 0. -1.
        -11    1    3    3    0    0 -0.47096720683E+01  0.10774599079E+02 -0.17166779378E+01  0.11883601294E+02  0.51100000000E-03 0.  1.
        -12    1    3    3    0    0 -0.18653465798E+01  0.69698200643E+01  0.25945570169E+01  0.76674399707E+01  0.00000000000E+00 0.  1.
</event>
<event>
 7    1  0.2530788E-009  0.4778728E+02  0.7816164E-02  0.1312668E+00
        -11   -1    0    0    0    0  0.00000000000E+00  0.00000000000E+00  0.45593999997E+02  0.45594000000E+02  0.51100000000E-03 0. -1.
         11   -1    0    0    0    0 -0.00000000000E+00 -0.00000000000E+00 -0.45593999997E+02  0.45594000000E+02  0.51100000000E-03 0.  1.
    9900012    2    1    2    0    0 -0.35271465409E+02 -0.70713371672E+01  0.24280490030E+02  0.47787282523E+02  0.20000052336E+02 0.  0.
        -12    1    1    2    0    0  0.35271465409E+02  0.70713371672E+01 -0.24280490030E+02  0.43400717477E+02  0.00000000000E+00 0.  1.
         11    1    3    3    0    0 -0.94199956006E+01  0.25713976027E+01  0.97408806167E+01  0.13792503696E+02  0.51100000000E-03 0. -1.
        -11    1    3    3    0    0 -0.39410782129E+01 -0.70411637477E+01  0.10590799123E+01  0.81382882060E+01  0.51100000000E-03 0.  1.
        -12    1    3    3    0    0 -0.21910391595E+02 -0.26015710223E+01  0.13480529501E+02  0.25856490622E+02  0.00000000000E+00 0.  1.
</event>
<event>
 7    1  0.2530788E-009  0.4778726E+02  0.7816164E-02  0.1312668E+00
        -11   -1    0    0    0    0  0.00000000000E+00  0.00000000000E+00  0.45593999997E+02  0.45594000000E+02  0.51100000000E-03 0.  1.
         11   -1    0    0    0    0 -0.00000000000E+00 -0.00000000000E+00 -0.45593999997E+02  0.45594000000E+02  0.51100000000E-03 0. -1.
    9900012    2    1    2    0    0 -0.12735926092E+02 -0.24822588976E+02 -0.33245441279E+02  0.47787261495E+02  0.19999956462E+02 0.  0.
        -12    1    1    2    0    0  0.12735926092E+02  0.24822588976E+02  0.33245441279E+02  0.43400738505E+02  0.00000000000E+00 0.  1.
         11    1    3    3    0    0 -0.13646179929E+02 -0.22049515402E+02 -0.25051211465E+02  0.36054993444E+02  0.51100000000E-03 0. -1.
        -11    1    3    3    0    0  0.68521306222E+00  0.22420430796E+01 -0.56225382402E+01  0.60917329747E+01  0.51100000000E-03 0.  1.
        -12    1    3    3    0    0  0.22504077513E+00 -0.50151166535E+01 -0.25716915736E+01  0.56405350764E+01  0.00000000000E+00 0.  1.
</event>
<event>
 7    1  0.2530788E-009  0.4778727E+02  0.7816164E-02  0.1312668E+00
        -11   -1    0    0    0    0  0.00000000000E+00  0.00000000000E+00  0.45593999997E+02  0.45594000000E+02  0.51100000000E-03 0. -1.
         11   -1    0    0    0    0 -0.00000000000E+00 -0.00000000000E+00 -0.45593999997E+02  0.45594000000E+02  0.51100000000E-03 0.  1.
    9900012    2    1    2    0    0 -0.16945090304E+02  0.63085288929E+01  0.39454905315E+02  0.47787272177E+02  0.20000005162E+02 0.  0.
        -12    1    1    2    0    0  0.16945090304E+02 -0.63085288929E+01 -0.39454905315E+02  0.43400727823E+02  0.00000000000E+00 0.  1.
         11    1    3    3    0    0 -0.90526637789E+00 -0.17420591050E+01 -0.10050977652E+01  0.22055609080E+01  0.51100000000E-03 0. -1.
        -11    1    3    3    0    0 -0.59903658445E+01  0.90433729071E+01  0.19433989024E+02  0.22256392478E+02  0.51100000000E-03 0.  1.
         12    1    3    3    0    0 -0.10049458082E+02 -0.99278490916E+00  0.21026014056E+02  0.23325318791E+02  0.00000000000E+00 0. -1.
</event>
<event>
 7    1  0.2530788E-009  0.4778727E+02  0.7816164E-02  0.1312668E+00
        -11   -1    0    0    0    0  0.00000000000E+00  0.00000000000E+00  0.45593999997E+02  0.45594000000E+02  0.51100000000E-03 0. -1.
         11   -1    0    0    0    0 -0.00000000000E+00 -0.00000000000E+00 -0.45593999997E+02  0.45594000000E+02  0.51100000000E-03 0.  1.
    9900012    2    1    2    0    0 -0.13346643764E+02 -0.29366017230E+02  0.29036652074E+02  0.47787273838E+02  0.20000012739E+02 0.  0.
        -12    1    1    2    0    0  0.13346643764E+02  0.29366017230E+02 -0.29036652074E+02  0.43400726162E+02  0.00000000000E+00 0.  1.
         11    1    3    3    0    0 -0.46897961475E+01 -0.13560007589E+02  0.83259547466E+01  0.16588837103E+02  0.51100000000E-03 0. -1.
        -11    1    3    3    0    0 -0.11604048281E+02 -0.10303910307E+02  0.19360470899E+02  0.24812342449E+02  0.51100000000E-03 0.  1.
        -12    1    3    3    0    0  0.29472006643E+01 -0.55020993333E+01  0.13502264283E+01  0.63860942865E+01  0.00000000000E+00 0.  1.
</event>
<event>
 7    1  0.2530788E-009  0.4778728E+02  0.7816164E-02  0.1312668E+00
        -11   -1    0    0    0    0  0.00000000000E+00  0.00000000000E+00  0.45593999997E+02  0.45594000000E+02  0.51100000000E-03 0. -1.
         11   -1    0    0    0    0 -0.00000000000E+00 -0.00000000000E+00 -0.45593999997E+02  0.45594000000E+02  0.51100000000E-03 0.  1.
    9900012    2    1    2    0    0  0.14388391120E+02 -0.32253264304E+02  0.25225464285E+02  0.47787275286E+02  0.20000019339E+02 0.  0.
        -12    1    1    2    0    0 -0.14388391120E+02  0.32253264304E+02 -0.25225464285E+02  0.43400724714E+02  0.00000000000E+00 0.  1.
         11    1    3    3    0    0  0.55839282765E+01 -0.21140055790E+02  0.10203019516E+02  0.24128485682E+02  0.51100000000E-03 0. -1.
        -11    1    3    3    0    0  0.52082659748E+01  0.11119398290E+01  0.61268369217E+01  0.81179169479E+01  0.51100000000E-03 0.  1.
        -12    1    3    3    0    0  0.35961968686E+01 -0.12225148343E+02  0.88956078473E+01  0.15540872656E+02  0.00000000000E+00 0.  1.
</event>
<event>
 7    1  0.2530788E-009  0.4778727E+02  0.7816164E-02  0.1312668E+00
        -11   -1    0    0    0    0  0.00000000000E+00  0.00000000000E+00  0.45593999997E+02  0.45594000000E+02  0.51100000000E-03 0. -1.
         11   -1    0    0    0    0 -0.00000000000E+00 -0.00000000000E+00 -0.45593999997E+02  0.45594000000E+02  0.51100000000E-03 0.  1.
    9900012    2    1    2    0    0  0.34841455345E+02  0.25716975134E+02  0.28867136455E+01  0.47787274934E+02  0.20000017734E+02 0.  0.
        -12    1    1    2    0    0 -0.34841455345E+02 -0.25716975134E+02 -0.28867136455E+01  0.43400725066E+02  0.00000000000E+00 0.  1.
         11    1    3    3    0    0  0.26845112274E+01  0.22423876203E+01  0.37745754393E+01  0.51460978204E+01  0.51100000000E-03 0. -1.
        -11    1    3    3    0    0  0.16102969317E+02  0.20202917450E+02  0.23442810838E+01  0.25941456173E+02  0.51100000000E-03 0.  1.
        -12    1    3    3    0    0  0.16053974801E+02  0.32716700636E+01 -0.32321428776E+01  0.16699720941E+02  0.00000000000E+00 0.  1.
</event>
<event>
 7    1  0.2530788E-009  0.4778727E+02  0.7816164E-02  0.1312668E+00
        -11   -1    0    0    0    0  0.00000000000E+00  0.00000000000E+00  0.45593999997E+02  0.45594000000E+02  0.51100000000E-03 0.  1.
         11   -1    0    0    0    0 -0.00000000000E+00 -0.00000000000E+00 -0.45593999997E+02  0.45594000000E+02  0.51100000000E-03 0. -1.
    9900012    2    1    2    0    0 -0.89116459242E+01 -0.90091961058E+01 -0.41509520170E+02  0.47787270602E+02  0.19999997982E+02 0.  0.
        -12    1    1    2    0    0  0.89116459242E+01  0.90091961058E+01  0.41509520170E+02  0.43400729398E+02  0.00000000000E+00 0.  1.
         11    1    3    3    0    0 -0.41601811791E+01 -0.49818733643E+01 -0.11366132654E+02  0.13088741018E+02  0.51100000000E-03 0. -1.
        -11    1    3    3    0    0  0.61071284060E+00 -0.73163455065E+01 -0.26347905701E+02  0.27351673017E+02  0.51100000000E-03 0.  1.
        -12    1    3    3    0    0 -0.53621775857E+01  0.32890227650E+01 -0.37954818157E+01  0.73468565675E+01  0.00000000000E+00 0.  1.
</event>
<event>
 7    1  0.2530788E-009  0.4778727E+02  0.7816164E-02  0.1312668E+00
        -11   -1    0    0    0    0  0.00000000000E+00  0.00000000000E+00  0.45593999997E+02  0.45594000000E+02  0.51100000000E-03 0. -1.
         11   -1    0    0    0    0 -0.00000000000E+00 -0.00000000000E+00 -0.45593999997E+02  0.45594000000E+02  0.51100000000E-03 0.  1.
    9900012    2    1    2    0    0 -0.60096381394E+01  0.26503863065E+02  0.33838627637E+02  0.47787271569E+02  0.20000002391E+02 0.  0.
        -12    1    1    2    0    0  0.60096381394E+01 -0.26503863065E+02 -0.33838627637E+02  0.43400728431E+02  0.00000000000E+00 0.  1.
         11    1    3    3    0    0 -0.73436357308E+00  0.19261877065E+02  0.17516284733E+02  0.26045718055E+02  0.51100000000E-03 0. -1.
        -11    1    3    3    0    0 -0.61219233812E+01  0.35449534979E+01  0.16491801375E+02  0.17945031459E+02  0.51100000000E-03 0.  1.
        -12    1    3    3    0    0  0.84664881488E+00  0.36970325025E+01 -0.16945847039E+00  0.37965220549E+01  0.00000000000E+00 0.  1.
</event>
<event>
 7    1  0.2530788E-009  0.4778727E+02  0.7816164E-02  0.1312668E+00
        -11   -1    0    0    0    0  0.00000000000E+00  0.00000000000E+00  0.45593999997E+02  0.45594000000E+02  0.51100000000E-03 0. -1.
         11   -1    0    0    0    0 -0.00000000000E+00 -0.00000000000E+00 -0.45593999997E+02  0.45594000000E+02  0.51100000000E-03 0.  1.
    9900012    2    1    2    0    0 -0.66824090684E+01  0.31945199718E+02  0.28608967365E+02  0.47787269710E+02  0.19999993915E+02 0.  0.
        -12    1    1    2    0    0  0.66824090684E+01 -0.31945199718E+02 -0.28608967365E+02  0.43400730290E+02  0.00000000000E+00 0.  1.
         11    1    3    3    0    0  0.35835556992E-01  0.18388183919E+02  0.18163790317E+02  0.25846660731E+02  0.51100000000E-03 0. -1.
        -11    1    3    3    0    0  0.65231995815E+00  0.44001111135E+01 -0.19510452417E+01  0.48572705232E+01  0.51100000000E-03 0.  1.
        -12    1    3    3    0    0 -0.73705645835E+01  0.91569046859E+01  0.12396222290E+02  0.17083338455E+02  0.00000000000E+00 0.  1.
</event>
<event>
 7    1  0.2530788E-009  0.4778727E+02  0.7816164E-02  0.1312668E+00
        -11   -1    0    0    0    0  0.00000000000E+00  0.00000000000E+00  0.45593999997E+02  0.45594000000E+02  0.51100000000E-03 0.  1.
         11   -1    0    0    0    0 -0.00000000000E+00 -0.00000000000E+00 -0.45593999997E+02  0.45594000000E+02  0.51100000000E-03 0. -1.
    9900012    2    1    2    0    0 -0.34061113471E+02  0.26814308472E+02 -0.21110932705E+01  0.47787270692E+02  0.19999998392E+02 0.  0.
        -12    1    1    2    0    0  0.34061113471E+02 -0.26814308472E+02  0.21110932705E+01  0.43400729308E+02  0.00000000000E+00 0.  1.
         11    1    3    3    0    0 -0.15204598347E+02  0.50982999070E+01 -0.61841301916E+01  0.17187668234E+02  0.51100000000E-03 0. -1.
        -11    1    3    3    0    0 -0.14864548172E+02  0.12955351520E+02  0.63341831195E+01  0.20710330789E+02  0.51100000000E-03 0.  1.
         12    1    3    3    0    0 -0.39919669522E+01  0.87606570448E+01 -0.22611461984E+01  0.98892716686E+01  0.00000000000E+00 0. -1.
</event>
<event>
 7    1  0.2530788E-009  0.4778722E+02  0.7816164E-02  0.1312668E+00
        -11   -1    0    0    0    0  0.00000000000E+00  0.00000000000E+00  0.45593999997E+02  0.45594000000E+02  0.51100000000E-03 0. -1.
         11   -1    0    0    0    0 -0.00000000000E+00 -0.00000000000E+00 -0.45593999997E+02  0.45594000000E+02  0.51100000000E-03 0.  1.
    9900012    2    1    2    0    0  0.41087259467E+02 -0.13886936802E+02 -0.16179330637E+01  0.47787221071E+02  0.19999772148E+02 0.  0.
        -12    1    1    2    0    0 -0.41087259467E+02  0.13886936802E+02  0.16179330637E+01  0.43400778929E+02  0.00000000000E+00 0.  1.
         11    1    3    3    0    0  0.95129182098E+01 -0.53573666564E+01 -0.29525726525E+01  0.11309937042E+02  0.51100000000E-03 0. -1.
        -11    1    3    3    0    0  0.11883672994E+02 -0.70974706742E+00 -0.68846323582E+01  0.13752221191E+02  0.51100000000E-03 0.  1.
        -12    1    3    3    0    0  0.19690668264E+02 -0.78198230777E+01  0.82192719469E+01  0.22725062838E+02  0.00000000000E+00 0.  1.
</event>
<event>
 7    1  0.2530788E-009  0.4778727E+02  0.7816164E-02  0.1312668E+00
        -11   -1    0    0    0    0  0.00000000000E+00  0.00000000000E+00  0.45593999997E+02  0.45594000000E+02  0.51100000000E-03 0. -1.
         11   -1    0    0    0    0 -0.00000000000E+00 -0.00000000000E+00 -0.45593999997E+02  0.45594000000E+02  0.51100000000E-03 0.  1.
    9900012    2    1    2    0    0  0.19755940271E+02  0.75271918732E+01  0.37903395236E+02  0.47787272311E+02  0.20000005777E+02 0.  0.
        -12    1    1    2    0    0 -0.19755940271E+02 -0.75271918732E+01 -0.37903395236E+02  0.43400727689E+02  0.00000000000E+00 0.  1.
         11    1    3    3    0    0  0.44727632078E+01 -0.58041800318E+01  0.82216872737E+01  0.11013185663E+02  0.51100000000E-03 0. -1.
        -11    1    3    3    0    0  0.15401585438E+02  0.13907486820E+02  0.27135499543E+02  0.34160830777E+02  0.51100000000E-03 0.  1.
        -12    1    3    3    0    0 -0.11840837499E+00 -0.57611491465E+00  0.25462084193E+01  0.26132558720E+01  0.00000000000E+00 0.  1.
</event>
<event>
 7    1  0.2530788E-009  0.4778727E+02  0.7816164E-02  0.1312668E+00
        -11   -1    0    0    0    0  0.00000000000E+00  0.00000000000E+00  0.45593999997E+02  0.45594000000E+02  0.51100000000E-03 0. -1.
         11   -1    0    0    0    0 -0.00000000000E+00 -0.00000000000E+00 -0.45593999997E+02  0.45594000000E+02  0.51100000000E-03 0.  1.
    9900012    2    1    2    0    0  0.27646500104E+02 -0.24187577554E+02 -0.23113967615E+02  0.47787269881E+02  0.19999994695E+02 0.  0.
        -12    1    1    2    0    0 -0.27646500104E+02  0.24187577554E+02  0.23113967615E+02  0.43400730119E+02  0.00000000000E+00 0.  1.
         11    1    3    3    0    0  0.11130879190E+02 -0.16893182485E+02 -0.79645453053E+01  0.21741896610E+02  0.51100000000E-03 0. -1.
        -11    1    3    3    0    0  0.20968449339E+01  0.19919245988E+00 -0.80349136206E+01  0.83063995488E+01  0.51100000000E-03 0.  1.
         12    1    3    3    0    0  0.14418775980E+02 -0.74935875286E+01 -0.71145086894E+01  0.17738973722E+02  0.00000000000E+00 0. -1.
</event>
<event>
 7    1  0.2530788E-009  0.4778727E+02  0.7816164E-02  0.1312668E+00
        -11   -1    0    0    0    0  0.00000000000E+00  0.00000000000E+00  0.45593999997E+02  0.45594000000E+02  0.51100000000E-03 0.  1.
         11   -1    0    0    0    0 -0.00000000000E+00 -0.00000000000E+00 -0.45593999997E+02  0.45594000000E+02  0.51100000000E-03 0. -1.
    9900012    2    1    2    0    0 -0.68994252111E+01  0.41319752601E+02  0.11344572409E+02  0.47787270209E+02  0.19999996191E+02 0.  0.
        -12    1    1    2    0    0  0.68994252111E+01 -0.41319752601E+02 -0.11344572409E+02  0.43400729791E+02  0.00000000000E+00 0.  1.
         11    1    3    3    0    0  0.12928831048E+01  0.13200520099E+00  0.29983294379E+01  0.32678665479E+01  0.51100000000E-03 0.  1.
        -11    1    3    3    0    0 -0.93066615144E+01  0.30178379579E+02  0.10431428228E+02  0.33259032423E+02  0.51100000000E-03 0. -1.
        -12    1    3    3    0    0  0.11143531984E+01  0.11009367821E+02 -0.20851852571E+01  0.11260371239E+02  0.00000000000E+00 0.  1.
</event>
<event>
 7    1  0.2530788E-009  0.4778727E+02  0.7816164E-02  0.1312668E+00
        -11   -1    0    0    0    0  0.00000000000E+00  0.00000000000E+00  0.45593999997E+02  0.45594000000E+02  0.51100000000E-03 0. -1.
         11   -1    0    0    0    0 -0.00000000000E+00 -0.00000000000E+00 -0.45593999997E+02  0.45594000000E+02  0.51100000000E-03 0.  1.
    9900012    2    1    2    0    0 -0.34834021116E+02 -0.22676015569E+02  0.12490492630E+02  0.47787272871E+02  0.20000008326E+02 0.  0.
        -12    1    1    2    0    0  0.34834021116E+02  0.22676015569E+02 -0.12490492630E+02  0.43400727129E+02  0.00000000000E+00 0.  1.
         11    1    3    3    0    0 -0.55078557019E+01 -0.30094953848E+01  0.25456583438E+01  0.67730283898E+01  0.51100000000E-03 0. -1.
        -11    1    3    3    0    0  0.14104629782E+01 -0.57606151046E+01  0.26637502382E+01  0.65015119618E+01  0.51100000000E-03 0.  1.
        -12    1    3    3    0    0 -0.30736628392E+02 -0.13905905080E+02  0.72810840484E+01  0.34512732519E+02  0.00000000000E+00 0.  1.
</event>
<event>
 7    1  0.2530788E-009  0.4778727E+02  0.7816164E-02  0.1312668E+00
        -11   -1    0    0    0    0  0.00000000000E+00  0.00000000000E+00  0.45593999997E+02  0.45594000000E+02  0.51100000000E-03 0.  1.
         11   -1    0    0    0    0 -0.00000000000E+00 -0.00000000000E+00 -0.45593999997E+02  0.45594000000E+02  0.51100000000E-03 0. -1.
    9900012    2    1    2    0    0 -0.57119119120E+00 -0.28258596632E+02 -0.32935521535E+02  0.47787272797E+02  0.20000007989E+02 0.  0.
        -12    1    1    2    0    0  0.57119119120E+00  0.28258596632E+02  0.32935521535E+02  0.43400727203E+02  0.00000000000E+00 0.  1.
         11    1    3    3    0    0 -0.79034282721E+01 -0.76546565912E+01 -0.10924197438E+02  0.15504710120E+02  0.51100000000E-03 0. -1.
        -11    1    3    3    0    0  0.75140589242E+01 -0.78847552066E+01 -0.99102915022E+01  0.14725634930E+02  0.51100000000E-03 0.  1.
         12    1    3    3    0    0 -0.18182184331E+00 -0.12719184834E+02 -0.12101032595E+02  0.17556927746E+02  0.00000000000E+00 0. -1.
</event>
<event>
 7    1  0.2530788E-009  0.4778727E+02  0.7816164E-02  0.1312668E+00
        -11   -1    0    0    0    0  0.00000000000E+00  0.00000000000E+00  0.45593999997E+02  0.45594000000E+02  0.51100000000E-03 0.  1.
         11   -1    0    0    0    0 -0.00000000000E+00 -0.00000000000E+00 -0.45593999997E+02  0.45594000000E+02  0.51100000000E-03 0. -1.
    9900012    2    1    2    0    0 -0.89182807336E+01  0.28329042066E+02 -0.31647319840E+02  0.47787271796E+02  0.20000003428E+02 0.  0.
        -12    1    1    2    0    0  0.89182807336E+01 -0.28329042066E+02  0.31647319840E+02  0.43400728204E+02  0.00000000000E+00 0.  1.
         11    1    3    3    0    0 -0.70842077191E+01  0.88413569631E+01 -0.13324570487E+02  0.17489990591E+02  0.51100000000E-03 0. -1.
        -11    1    3    3    0    0  0.35821628833E+01 -0.12097648420E-01 -0.46658671066E+01  0.58823765090E+01  0.51100000000E-03 0.  1.
        -12    1    3    3    0    0 -0.54162358979E+01  0.19499782751E+02 -0.13656882246E+02  0.24414904696E+02  0.00000000000E+00 0.  1.
</event>
<event>
 7    1  0.2530788E-009  0.4778726E+02  0.7816164E-02  0.1312668E+00
        -11   -1    0    0    0    0  0.00000000000E+00  0.00000000000E+00  0.45593999997E+02  0.45594000000E+02  0.51100000000E-03 0.  1.
         11   -1    0    0    0    0 -0.00000000000E+00 -0.00000000000E+00 -0.45593999997E+02  0.45594000000E+02  0.51100000000E-03 0. -1.
    9900012    2    1    2    0    0 -0.43769079789E+01 -0.28398243530E+02 -0.32527016160E+02  0.47787258770E+02  0.19999944036E+02 0.  0.
        -12    1    1    2    0    0  0.43769079789E+01  0.28398243530E+02  0.32527016160E+02  0.43400741230E+02  0.00000000000E+00 0.  1.
         11    1    3    3    0    0  0.86662142341E+00 -0.55604960630E+01 -0.16574826104E+02  0.17504142647E+02  0.51100000000E-03 0.  1.
        -11    1    3    3    0    0 -0.15618843593E+01 -0.89996690079E+01 -0.12623934358E+02  0.15581952507E+02  0.51100000000E-03 0. -1.
         12    1    3    3    0    0 -0.36816450430E+01 -0.13838078459E+02 -0.33282556977E+01  0.14701163616E+02  0.00000000000E+00 0. -1.
</event>
<event>
 7    1  0.2530788E-009  0.4778727E+02  0.7816164E-02  0.1312668E+00
        -11   -1    0    0    0    0  0.00000000000E+00  0.00000000000E+00  0.45593999997E+02  0.45594000000E+02  0.51100000000E-03 0. -1.
         11   -1    0    0    0    0 -0.00000000000E+00 -0.00000000000E+00 -0.45593999997E+02  0.45594000000E+02  0.51100000000E-03 0.  1.
    9900012    2    1    2    0    0  0.13527442353E+01 -0.39419109360E+02  0.18108759475E+02  0.47787271096E+02  0.20000000234E+02 0.  0.
        -12    1    1    2    0    0 -0.13527442353E+01  0.39419109360E+02 -0.18108759475E+02  0.43400728904E+02  0.00000000000E+00 0.  1.
         11    1    3    3    0    0 -0.12828550251E+01 -0.36948160940E+02  0.13636605844E+02  0.39405194240E+02  0.51100000000E-03 0. -1.
        -11    1    3    3    0    0 -0.13027643721E+00  0.14676778854E+01  0.30113198738E+01  0.33524763935E+01  0.51100000000E-03 0.  1.
        -12    1    3    3    0    0  0.27658756976E+01 -0.39386263053E+01  0.14608337576E+01  0.50296004627E+01  0.00000000000E+00 0.  1.
</event>
<event>
 7    1  0.2530788E-009  0.4778727E+02  0.7816164E-02  0.1312668E+00
        -11   -1    0    0    0    0  0.00000000000E+00  0.00000000000E+00  0.45593999997E+02  0.45594000000E+02  0.51100000000E-03 0. -1.
         11   -1    0    0    0    0 -0.00000000000E+00 -0.00000000000E+00 -0.45593999997E+02  0.45594000000E+02  0.51100000000E-03 0.  1.
    9900012    2    1    2    0    0 -0.41287244522E+02 -0.12009676977E+02  0.58952664077E+01  0.47787273423E+02  0.20000010847E+02 0.  0.
        -12    1    1    2    0    0  0.41287244522E+02  0.12009676977E+02 -0.58952664077E+01  0.43400726577E+02  0.00000000000E+00 0.  1.
         11    1    3    3    0    0 -0.41623652178E+02 -0.12679658600E+02  0.50519056868E+01  0.43804382363E+02  0.51100000000E-03 0. -1.
        -11    1    3    3    0    0  0.19319210138E+01  0.11256276042E+00 -0.27738113537E+00  0.19549756351E+01  0.51100000000E-03 0.  1.
         12    1    3    3    0    0 -0.15955133580E+01  0.55741886265E+00  0.11207418562E+01  0.20279154253E+01  0.00000000000E+00 0. -1.
</event>
<event>
 7    1  0.2530788E-009  0.4778727E+02  0.7816164E-02  0.1312668E+00
        -11   -1    0    0    0    0  0.00000000000E+00  0.00000000000E+00  0.45593999997E+02  0.45594000000E+02  0.51100000000E-03 0. -1.
         11   -1    0    0    0    0 -0.00000000000E+00 -0.00000000000E+00 -0.45593999997E+02  0.45594000000E+02  0.51100000000E-03 0.  1.
    9900012    2    1    2    0    0 -0.42102057963E+02 -0.10388072683E+02 -0.17685835452E+01  0.47787271590E+02  0.20000002485E+02 0.  0.
        -12    1    1    2    0    0  0.42102057963E+02  0.10388072683E+02  0.17685835452E+01  0.43400728410E+02  0.00000000000E+00 0.  1.
         11    1    3    3    0    0 -0.33340412574E+02 -0.49997293402E+00  0.14326009546E+01  0.33374922162E+02  0.51100000000E-03 0. -1.
        -11    1    3    3    0    0 -0.58602172318E+01 -0.78782041473E+01 -0.26695832805E+00  0.98223985666E+01  0.51100000000E-03 0.  1.
         12    1    3    3    0    0 -0.29014281575E+01 -0.20098956018E+01 -0.29342261718E+01  0.45899508614E+01  0.00000000000E+00 0. -1.
</event>
<event>
 7    1  0.2530788E-009  0.4778727E+02  0.7816164E-02  0.1312668E+00
        -11   -1    0    0    0    0  0.00000000000E+00  0.00000000000E+00  0.45593999997E+02  0.45594000000E+02  0.51100000000E-03 0.  1.
         11   -1    0    0    0    0 -0.00000000000E+00 -0.00000000000E+00 -0.45593999997E+02  0.45594000000E+02  0.51100000000E-03 0. -1.
    9900012    2    1    2    0    0 -0.12295227767E+02 -0.35327572175E+02  0.22009394303E+02  0.47787269370E+02  0.19999992365E+02 0.  0.
        -12    1    1    2    0    0  0.12295227767E+02  0.35327572175E+02 -0.22009394303E+02  0.43400730630E+02  0.00000000000E+00 0.  1.
         11    1    3    3    0    0 -0.15860923504E+02 -0.17467987665E+02  0.14568341871E+02  0.27729696583E+02  0.51100000000E-03 0. -1.
        -11    1    3    3    0    0  0.35296011995E+01 -0.77452442470E+01  0.33470501296E+01  0.91460175980E+01  0.51100000000E-03 0.  1.
         12    1    3    3    0    0  0.36094537747E-01 -0.10114340263E+02  0.40940023025E+01  0.10911555189E+02  0.00000000000E+00 0. -1.
</event>
<event>
 7    1  0.2530788E-009  0.4778727E+02  0.7816164E-02  0.1312668E+00
        -11   -1    0    0    0    0  0.00000000000E+00  0.00000000000E+00  0.45593999997E+02  0.45594000000E+02  0.51100000000E-03 0.  1.
         11   -1    0    0    0    0 -0.00000000000E+00 -0.00000000000E+00 -0.45593999997E+02  0.45594000000E+02  0.51100000000E-03 0. -1.
    9900012    2    1    2    0    0 -0.15921069481E+02  0.36721262075E+02 -0.16783667884E+02  0.47787273630E+02  0.20000011787E+02 0.  0.
        -12    1    1    2    0    0  0.15921069481E+02 -0.36721262075E+02  0.16783667884E+02  0.43400726370E+02  0.00000000000E+00 0.  1.
         11    1    3    3    0    0 -0.87412770142E+01  0.14087585020E+02 -0.15623422001E+02  0.22780721912E+02  0.51100000000E-03 0. -1.
        -11    1    3    3    0    0 -0.58533569540E+01  0.22781465438E+02 -0.52213852499E+00  0.23527209440E+02  0.51100000000E-03 0.  1.
         12    1    3    3    0    0 -0.13264355131E+01 -0.14778838235E+00 -0.63810735746E+00  0.14793422782E+01  0.00000000000E+00 0. -1.
</event>
<event>
 7    1  0.2530788E-009  0.4778727E+02  0.7816164E-02  0.1312668E+00
        -11   -1    0    0    0    0  0.00000000000E+00  0.00000000000E+00  0.45593999997E+02  0.45594000000E+02  0.51100000000E-03 0.  1.
         11   -1    0    0    0    0 -0.00000000000E+00 -0.00000000000E+00 -0.45593999997E+02  0.45594000000E+02  0.51100000000E-03 0. -1.
    9900012    2    1    2    0    0  0.19939930347E+02 -0.16203147686E+02 -0.34978281801E+02  0.47787274028E+02  0.20000013601E+02 0.  0.
        -12    1    1    2    0    0 -0.19939930347E+02  0.16203147686E+02  0.34978281801E+02  0.43400725972E+02  0.00000000000E+00 0.  1.
         11    1    3    3    0    0  0.78142594509E+01 -0.15454557996E+02 -0.20482736634E+02  0.26822537425E+02  0.51100000000E-03 0. -1.
        -11    1    3    3    0    0  0.88014368834E-01 -0.71487722801E+00 -0.64403954059E+01  0.64805469851E+01  0.51100000000E-03 0.  1.
         12    1    3    3    0    0  0.12037656528E+02 -0.33712461249E-01 -0.80551497613E+01  0.14484189618E+02  0.00000000000E+00 0. -1.
</event>
<event>
 7    1  0.2530788E-009  0.4778728E+02  0.7816164E-02  0.1312668E+00
        -11   -1    0    0    0    0  0.00000000000E+00  0.00000000000E+00  0.45593999997E+02  0.45594000000E+02  0.51100000000E-03 0.  1.
         11   -1    0    0    0    0 -0.00000000000E+00 -0.00000000000E+00 -0.45593999997E+02  0.45594000000E+02  0.51100000000E-03 0. -1.
    9900012    2    1    2    0    0 -0.23925847600E+02 -0.24833086900E+02 -0.26353257757E+02  0.47787279006E+02  0.20000036301E+02 0.  0.
        -12    1    1    2    0    0  0.23925847600E+02  0.24833086900E+02  0.26353257757E+02  0.43400720994E+02  0.00000000000E+00 0.  1.
         11    1    3    3    0    0 -0.19651568725E+02 -0.11700926374E+02 -0.82902398541E+01  0.24327431193E+02  0.51100000000E-03 0. -1.
        -11    1    3    3    0    0 -0.31869185026E+01 -0.13455693531E+02 -0.16492139389E+02  0.21522146729E+02  0.51100000000E-03 0.  1.
         12    1    3    3    0    0 -0.10873603723E+01  0.32353300487E+00 -0.15708785144E+01  0.19377010842E+01  0.00000000000E+00 0. -1.
</event>
<event>
 7    1  0.2530788E-009  0.4778727E+02  0.7816164E-02  0.1312668E+00
        -11   -1    0    0    0    0  0.00000000000E+00  0.00000000000E+00  0.45593999997E+02  0.45594000000E+02  0.51100000000E-03 0.  1.
         11   -1    0    0    0    0 -0.00000000000E+00 -0.00000000000E+00 -0.45593999997E+02  0.45594000000E+02  0.51100000000E-03 0. -1.
    9900012    2    1    2    0    0 -0.32038206838E+01  0.17432036879E+01 -0.43247194766E+02  0.47787273264E+02  0.20000010119E+02 0.  0.
        -12    1    1    2    0    0  0.32038206838E+01 -0.17432036879E+01  0.43247194766E+02  0.43400726736E+02  0.00000000000E+00 0.  1.
         11    1    3    3    0    0 -0.29636918150E+01  0.79271784417E+01 -0.29851423109E+02  0.31027908230E+02  0.51100000000E-03 0. -1.
        -11    1    3    3    0    0 -0.13380933028E+01 -0.74113302154E+01 -0.74641543849E+01  0.10603391448E+02  0.51100000000E-03 0.  1.
        -12    1    3    3    0    0  0.10979644340E+01  0.12273554616E+01 -0.59316172724E+01  0.61559735862E+01  0.00000000000E+00 0.  1.
</event>
<event>
 7    1  0.2530788E-009  0.4778727E+02  0.7816164E-02  0.1312668E+00
        -11   -1    0    0    0    0  0.00000000000E+00  0.00000000000E+00  0.45593999997E+02  0.45594000000E+02  0.51100000000E-03 0. -1.
         11   -1    0    0    0    0 -0.00000000000E+00 -0.00000000000E+00 -0.45593999997E+02  0.45594000000E+02  0.51100000000E-03 0.  1.
    9900012    2    1    2    0    0 -0.30924574252E+02  0.86320801910E+01  0.29202426199E+02  0.47787265017E+02  0.19999972520E+02 0.  0.
        -12    1    1    2    0    0  0.30924574252E+02 -0.86320801910E+01 -0.29202426199E+02  0.43400734983E+02  0.00000000000E+00 0.  1.
         11    1    3    3    0    0 -0.12051230788E+02  0.64263840299E+01  0.18951506144E+01  0.13788479659E+02  0.51100000000E-03 0. -1.
        -11    1    3    3    0    0 -0.63716196027E+01 -0.82551521529E+00  0.46033913487E+01  0.79038107203E+01  0.51100000000E-03 0.  1.
         12    1    3    3    0    0 -0.12501723862E+02  0.30312113764E+01  0.22703884236E+02  0.26094974638E+02  0.00000000000E+00 0. -1.
</event>
<event>
 7    1  0.2530788E-009  0.4778727E+02  0.7816164E-02  0.1312668E+00
        -11   -1    0    0    0    0  0.00000000000E+00  0.00000000000E+00  0.45593999997E+02  0.45594000000E+02  0.51100000000E-03 0. -1.
         11   -1    0    0    0    0 -0.00000000000E+00 -0.00000000000E+00 -0.45593999997E+02  0.45594000000E+02  0.51100000000E-03 0.  1.
    9900012    2    1    2    0    0 -0.42039875244E+01 -0.19610602712E+02  0.38488621416E+02  0.47787271569E+02  0.20000002390E+02 0.  0.
        -12    1    1    2    0    0  0.42039875244E+01  0.19610602712E+02 -0.38488621416E+02  0.43400728431E+02  0.00000000000E+00 0.  1.
         11    1    3    3    0    0 -0.39870230546E+01  0.28607846097E-01  0.14156150424E+02  0.14706929195E+02  0.51100000000E-03 0. -1.
        -11    1    3    3    0    0  0.43515151025E+01 -0.58038015456E+01  0.11851983649E+02  0.13895658054E+02  0.51100000000E-03 0.  1.
         12    1    3    3    0    0 -0.45684795723E+01 -0.13835409013E+02  0.12480487343E+02  0.19184684321E+02  0.00000000000E+00 0. -1.
</event>
<event>
 7    1  0.2530788E-009  0.4778727E+02  0.7816164E-02  0.1312668E+00
        -11   -1    0    0    0    0  0.00000000000E+00  0.00000000000E+00  0.45593999997E+02  0.45594000000E+02  0.51100000000E-03 0.  1.
         11   -1    0    0    0    0 -0.00000000000E+00 -0.00000000000E+00 -0.45593999997E+02  0.45594000000E+02  0.51100000000E-03 0. -1.
    9900012    2    1    2    0    0  0.56818730708E+01 -0.29123967855E+02 -0.31672290636E+02  0.47787272133E+02  0.20000004963E+02 0.  0.
        -12    1    1    2    0    0 -0.56818730708E+01  0.29123967855E+02  0.31672290636E+02  0.43400727867E+02  0.00000000000E+00 0.  1.
         11    1    3    3    0    0 -0.14507614306E+01 -0.18802577843E+02 -0.10070485511E+02  0.21378875577E+02  0.51100000000E-03 0. -1.
        -11    1    3    3    0    0  0.47655735415E+01 -0.23123061025E+00 -0.57885472541E+01  0.75014290870E+01  0.51100000000E-03 0.  1.
        -12    1    3    3    0    0  0.23670609600E+01 -0.10090159402E+02 -0.15813257871E+02  0.18906967469E+02  0.00000000000E+00 0.  1.
</event>
<event>
 7    1  0.2530788E-009  0.4778727E+02  0.7816164E-02  0.1312668E+00
        -11   -1    0    0    0    0  0.00000000000E+00  0.00000000000E+00  0.45593999997E+02  0.45594000000E+02  0.51100000000E-03 0.  1.
         11   -1    0    0    0    0 -0.00000000000E+00 -0.00000000000E+00 -0.45593999997E+02  0.45594000000E+02  0.51100000000E-03 0. -1.
    9900012    2    1    2    0    0  0.24442046598E+02 -0.87131995669E+01 -0.34789221007E+02  0.47787269742E+02  0.19999994063E+02 0.  0.
        -12    1    1    2    0    0 -0.24442046598E+02  0.87131995669E+01  0.34789221007E+02  0.43400730258E+02  0.00000000000E+00 0.  1.
         11    1    3    3    0    0  0.22475114175E+01 -0.93669846687E+00 -0.11514135199E+01  0.26934113953E+01  0.51100000000E-03 0. -1.
        -11    1    3    3    0    0  0.54830775013E+01 -0.11562582149E+02 -0.16223983610E+02  0.20663375554E+02  0.51100000000E-03 0.  1.
        -12    1    3    3    0    0  0.16711457679E+02  0.37860810485E+01 -0.17413823877E+02  0.24430482793E+02  0.00000000000E+00 0.  1.
</event>
<event>
 7    1  0.2530788E-009  0.4778727E+02  0.7816164E-02  0.1312668E+00
        -11   -1    0    0    0    0  0.00000000000E+00  0.00000000000E+00  0.45593999997E+02  0.45594000000E+02  0.51100000000E-03 0.  1.
         11   -1    0    0    0    0 -0.00000000000E+00 -0.00000000000E+00 -0.45593999997E+02  0.45594000000E+02  0.51100000000E-03 0. -1.
    9900012    2    1    2    0    0  0.88893525515E+00  0.13772767323E+02 -0.41147828314E+02  0.47787273041E+02  0.20000009104E+02 0.  0.
        -12    1    1    2    0    0 -0.88893525515E+00 -0.13772767323E+02  0.41147828314E+02  0.43400726959E+02  0.00000000000E+00 0.  1.
         11    1    3    3    0    0  0.45312556709E+01  0.90587913803E+01 -0.13479330720E+02  0.16860792868E+02  0.51100000000E-03 0. -1.
        -11    1    3    3    0    0 -0.65699903448E+01  0.54930890723E+01 -0.26191588318E+02  0.27556090063E+02  0.51100000000E-03 0.  1.
        -12    1    3    3    0    0  0.29276699291E+01 -0.77911312997E+00 -0.14769092757E+01  0.33703901098E+01  0.00000000000E+00 0.  1.
</event>
<event>
 7    1  0.2530788E-009  0.4778727E+02  0.7816164E-02  0.1312668E+00
        -11   -1    0    0    0    0  0.00000000000E+00  0.00000000000E+00  0.45593999997E+02  0.45594000000E+02  0.51100000000E-03 0. -1.
         11   -1    0    0    0    0 -0.00000000000E+00 -0.00000000000E+00 -0.45593999997E+02  0.45594000000E+02  0.51100000000E-03 0.  1.
    9900012    2    1    2    0    0 -0.36848239469E+02  0.21504720979E+02 -0.79609877138E+01  0.47787273028E+02  0.20000009042E+02 0.  0.
        -12    1    1    2    0    0  0.36848239469E+02 -0.21504720979E+02  0.79609877138E+01  0.43400726972E+02  0.00000000000E+00 0.  1.
         11    1    3    3    0    0 -0.32818997388E+02  0.17023734219E+02 -0.14933187260E+01  0.37001677224E+02  0.51100000000E-03 0. -1.
        -11    1    3    3    0    0 -0.26321137642E+01  0.56294481875E+01 -0.64782480846E+01  0.89769932756E+01  0.51100000000E-03 0.  1.
         12    1    3    3    0    0 -0.13971283172E+01 -0.11484614281E+01  0.10579096847E-01  0.18086025279E+01  0.00000000000E+00 0. -1.
</event>
<event>
 7    1  0.2530788E-009  0.4778727E+02  0.7816164E-02  0.1312668E+00
        -11   -1    0    0    0    0  0.00000000000E+00  0.00000000000E+00  0.45593999997E+02  0.45594000000E+02  0.51100000000E-03 0.  1.
         11   -1    0    0    0    0 -0.00000000000E+00 -0.00000000000E+00 -0.45593999997E+02  0.45594000000E+02  0.51100000000E-03 0. -1.
    9900012    2    1    2    0    0 -0.37254287589E+02  0.99241804267E+01 -0.19931184800E+02  0.47787269263E+02  0.19999991879E+02 0.  0.
        -12    1    1    2    0    0  0.37254287589E+02 -0.99241804267E+01  0.19931184800E+02  0.43400730737E+02  0.00000000000E+00 0.  1.
         11    1    3    3    0    0 -0.16963089356E+02  0.75500267936E+01 -0.17148179678E+02  0.25274678467E+02  0.51100000000E-03 0. -1.
        -11    1    3    3    0    0 -0.14320549574E+02 -0.24365581636E+01 -0.30386337243E+01  0.14840763153E+02  0.51100000000E-03 0.  1.
         12    1    3    3    0    0 -0.59706486596E+01  0.48107117966E+01  0.25562860233E+00  0.76718276433E+01  0.00000000000E+00 0. -1.
</event>
<event>
 7    1  0.2530788E-009  0.4778727E+02  0.7816164E-02  0.1312668E+00
        -11   -1    0    0    0    0  0.00000000000E+00  0.00000000000E+00  0.45593999997E+02  0.45594000000E+02  0.51100000000E-03 0.  1.
         11   -1    0    0    0    0 -0.00000000000E+00 -0.00000000000E+00 -0.45593999997E+02  0.45594000000E+02  0.51100000000E-03 0. -1.
    9900012    2    1    2    0    0 -0.64249953551E+01 -0.72056735394E+01 -0.42313368182E+02  0.47787269322E+02  0.19999992146E+02 0.  0.
        -12    1    1    2    0    0  0.64249953551E+01  0.72056735394E+01  0.42313368182E+02  0.43400730678E+02  0.00000000000E+00 0.  1.
         11    1    3    3    0    0 -0.34176772464E+01 -0.13000079434E+02 -0.35397079678E+02  0.37863383803E+02  0.51100000000E-03 0. -1.
        -11    1    3    3    0    0 -0.30123594629E+01  0.41378915387E+01 -0.37316063027E+01  0.63341409662E+01  0.51100000000E-03 0.  1.
         12    1    3    3    0    0  0.50413542128E-02  0.16565143555E+01 -0.31846822019E+01  0.35897445526E+01  0.00000000000E+00 0. -1.
</event>
<event>
 7    1  0.2530788E-009  0.4778729E+02  0.7816164E-02  0.1312668E+00
        -11   -1    0    0    0    0  0.00000000000E+00  0.00000000000E+00  0.45593999997E+02  0.45594000000E+02  0.51100000000E-03 0.  1.
         11   -1    0    0    0    0 -0.00000000000E+00 -0.00000000000E+00 -0.45593999997E+02  0.45594000000E+02  0.51100000000E-03 0. -1.
    9900012    2    1    2    0    0  0.27654831572E+02  0.93145938474E+01 -0.32125846203E+02  0.47787293069E+02  0.20000100419E+02 0.  0.
        -12    1    1    2    0    0 -0.27654831572E+02 -0.93145938474E+01  0.32125846203E+02  0.43400706931E+02  0.00000000000E+00 0.  1.
         11    1    3    3    0    0  0.15643693519E+02 -0.64966847305E+00 -0.19342695831E+02  0.24885479668E+02  0.51100000000E-03 0. -1.
        -11    1    3    3    0    0 -0.14469656556E+01  0.75364458703E+00  0.66713797355E+00  0.17626012337E+01  0.51100000000E-03 0.  1.
         12    1    3    3    0    0  0.13458103709E+02  0.92106177334E+01 -0.13450288346E+02  0.21139212167E+02  0.00000000000E+00 0. -1.
</event>
<event>
 7    1  0.2530788E-009  0.4778727E+02  0.7816164E-02  0.1312668E+00
        -11   -1    0    0    0    0  0.00000000000E+00  0.00000000000E+00  0.45593999997E+02  0.45594000000E+02  0.51100000000E-03 0.  1.
         11   -1    0    0    0    0 -0.00000000000E+00 -0.00000000000E+00 -0.45593999997E+02  0.45594000000E+02  0.51100000000E-03 0. -1.
    9900012    2    1    2    0    0  0.13344963078E+02 -0.25433512610E+02 -0.32537229900E+02  0.47787274974E+02  0.20000017914E+02 0.  0.
        -12    1    1    2    0    0 -0.13344963078E+02  0.25433512610E+02  0.32537229900E+02  0.43400725026E+02  0.00000000000E+00 0.  1.
         11    1    3    3    0    0 -0.43499764524E+01 -0.25132901789E+01 -0.83106375489E+01  0.97111080413E+01  0.51100000000E-03 0. -1.
        -11    1    3    3    0    0  0.10563515327E+01 -0.41882451750E+01 -0.36528487254E+01  0.56569055391E+01  0.51100000000E-03 0.  1.
         12    1    3    3    0    0  0.16638587998E+02 -0.18731977256E+02 -0.20573743626E+02  0.32419261393E+02  0.00000000000E+00 0. -1.
</event>
<event>
 7    1  0.2530788E-009  0.4778727E+02  0.7816164E-02  0.1312668E+00
        -11   -1    0    0    0    0  0.00000000000E+00  0.00000000000E+00  0.45593999997E+02  0.45594000000E+02  0.51100000000E-03 0.  1.
         11   -1    0    0    0    0 -0.00000000000E+00 -0.00000000000E+00 -0.45593999997E+02  0.45594000000E+02  0.51100000000E-03 0. -1.
    9900012    2    1    2    0    0  0.36355339970E+02 -0.10029000165E+01 -0.23683474412E+02  0.47787268290E+02  0.19999987441E+02 0.  0.
        -12    1    1    2    0    0 -0.36355339970E+02  0.10029000165E+01  0.23683474412E+02  0.43400731710E+02  0.00000000000E+00 0.  1.
         11    1    3    3    0    0  0.28333779788E+02 -0.40402423308E+01 -0.20606808792E+02  0.35267083860E+02  0.51100000000E-03 0. -1.
        -11    1    3    3    0    0  0.67277915753E+01  0.57801670282E+01 -0.11917980188E+01  0.89495191565E+01  0.51100000000E-03 0.  1.
         12    1    3    3    0    0  0.12937686065E+01 -0.27428247139E+01 -0.18848676015E+01  0.35706652732E+01  0.00000000000E+00 0. -1.
</event>
<event>
 7    1  0.2530788E-009  0.4778727E+02  0.7816164E-02  0.1312668E+00
        -11   -1    0    0    0    0  0.00000000000E+00  0.00000000000E+00  0.45593999997E+02  0.45594000000E+02  0.51100000000E-03 0. -1.
         11   -1    0    0    0    0 -0.00000000000E+00 -0.00000000000E+00 -0.45593999997E+02  0.45594000000E+02  0.51100000000E-03 0.  1.
    9900012    2    1    2    0    0 -0.67316235802E+01 -0.42875482275E+02 -0.38791113085E-01  0.47787271422E+02  0.20000001720E+02 0.  0.
        -12    1    1    2    0    0  0.67316235802E+01  0.42875482275E+02  0.38791113085E-01  0.43400728578E+02  0.00000000000E+00 0.  1.
         11    1    3    3    0    0  0.41358347608E+01 -0.99667806629E+01  0.43779993409E+01  0.11645115905E+02  0.51100000000E-03 0. -1.
        -11    1    3    3    0    0 -0.51044781924E+01 -0.27123853263E+02 -0.22360855957E+01  0.27690416980E+02  0.51100000000E-03 0.  1.
         12    1    3    3    0    0 -0.57629801486E+01 -0.57848483492E+01 -0.21807048582E+01  0.84517385369E+01  0.00000000000E+00 0. -1.
</event>
<event>
 7    1  0.2530788E-009  0.4778729E+02  0.7816164E-02  0.1312668E+00
        -11   -1    0    0    0    0  0.00000000000E+00  0.00000000000E+00  0.45593999997E+02  0.45594000000E+02  0.51100000000E-03 0.  1.
         11   -1    0    0    0    0 -0.00000000000E+00 -0.00000000000E+00 -0.45593999997E+02  0.45594000000E+02  0.51100000000E-03 0. -1.
    9900012    2    1    2    0    0 -0.20974254451E+02  0.13328598103E+02 -0.35581602087E+02  0.47787293966E+02  0.20000104508E+02 0.  0.
        -12    1    1    2    0    0  0.20974254451E+02 -0.13328598103E+02  0.35581602087E+02  0.43400706034E+02  0.00000000000E+00 0.  1.
         11    1    3    3    0    0 -0.39482111407E+01  0.39954677954E+01 -0.18916944298E+02  0.19733294605E+02  0.51100000000E-03 0. -1.
        -11    1    3    3    0    0 -0.14775721630E+02  0.23910386190E+01 -0.89740088058E+01  0.17451986983E+02  0.51100000000E-03 0.  1.
        -12    1    3    3    0    0 -0.22503216801E+01  0.69420916887E+01 -0.76906489831E+01  0.10602012378E+02  0.00000000000E+00 0.  1.
</event>
<event>
 7    1  0.2530788E-009  0.4778725E+02  0.7816164E-02  0.1312668E+00
        -11   -1    0    0    0    0  0.00000000000E+00  0.00000000000E+00  0.45593999997E+02  0.45594000000E+02  0.51100000000E-03 0.  1.
         11   -1    0    0    0    0 -0.00000000000E+00 -0.00000000000E+00 -0.45593999997E+02  0.45594000000E+02  0.51100000000E-03 0. -1.
    9900012    2    1    2    0    0 -0.21939311482E+02  0.16982061007E+02 -0.33375158127E+02  0.47787251570E+02  0.19999911207E+02 0.  0.
        -12    1    1    2    0    0  0.21939311482E+02 -0.16982061007E+02  0.33375158127E+02  0.43400748430E+02  0.00000000000E+00 0.  1.
         11    1    3    3    0    0 -0.35372540337E+00  0.56704901249E+00  0.60623416781E+00  0.90232276426E+00  0.51100000000E-03 0. -1.
        -11    1    3    3    0    0 -0.13261160734E+02 -0.69027846210E+00 -0.13885608776E+02  0.19213146533E+02  0.51100000000E-03 0.  1.
        -12    1    3    3    0    0 -0.83244253449E+01  0.17105290456E+02 -0.20095783518E+02  0.27671782272E+02  0.00000000000E+00 0.  1.
</event>
<event>
 7    1  0.2530788E-009  0.4778727E+02  0.7816164E-02  0.1312668E+00
        -11   -1    0    0    0    0  0.00000000000E+00  0.00000000000E+00  0.45593999997E+02  0.45594000000E+02  0.51100000000E-03 0. -1.
         11   -1    0    0    0    0 -0.00000000000E+00 -0.00000000000E+00 -0.45593999997E+02  0.45594000000E+02  0.51100000000E-03 0.  1.
    9900012    2    1    2    0    0 -0.34009742119E+02  0.81389181268E+01  0.25704452713E+02  0.47787269171E+02  0.19999991456E+02 0.  0.
        -12    1    1    2    0    0  0.34009742119E+02 -0.81389181268E+01 -0.25704452713E+02  0.43400730829E+02  0.00000000000E+00 0.  1.
         11    1    3    3    0    0 -0.22661085636E+02  0.15620114919E+01  0.15084725252E+02  0.27267446127E+02  0.51100000000E-03 0. -1.
        -11    1    3    3    0    0  0.24006553936E+01  0.84945770029E+00  0.75989638168E+00  0.26574738899E+01  0.51100000000E-03 0.  1.
         12    1    3    3    0    0 -0.13749311877E+02  0.57274489346E+01  0.98598310786E+01  0.17862349153E+02  0.00000000000E+00 0. -1.
</event>
<event>
 7    1  0.2530788E-009  0.4778727E+02  0.7816164E-02  0.1312668E+00
        -11   -1    0    0    0    0  0.00000000000E+00  0.00000000000E+00  0.45593999997E+02  0.45594000000E+02  0.51100000000E-03 0.  1.
         11   -1    0    0    0    0 -0.00000000000E+00 -0.00000000000E+00 -0.45593999997E+02  0.45594000000E+02  0.51100000000E-03 0. -1.
    9900012    2    1    2    0    0  0.26707793957E+02 -0.28651281455E+02 -0.18692816048E+02  0.47787267761E+02  0.19999985031E+02 0.  0.
        -12    1    1    2    0    0 -0.26707793957E+02  0.28651281455E+02  0.18692816048E+02  0.43400732239E+02  0.00000000000E+00 0.  1.
         11    1    3    3    0    0  0.11788614509E+02 -0.18031675301E+02 -0.41205300702E+01  0.21933798452E+02  0.51100000000E-03 0. -1.
        -11    1    3    3    0    0  0.12969836236E+02 -0.30570266512E+01 -0.10937757375E+02  0.17239390958E+02  0.51100000000E-03 0.  1.
        -12    1    3    3    0    0  0.19493432120E+01 -0.75625795029E+01 -0.36345286023E+01  0.86140783521E+01  0.00000000000E+00 0.  1.
</event>
<event>
 7    1  0.2530788E-009  0.4778726E+02  0.7816164E-02  0.1312668E+00
        -11   -1    0    0    0    0  0.00000000000E+00  0.00000000000E+00  0.45593999997E+02  0.45594000000E+02  0.51100000000E-03 0.  1.
         11   -1    0    0    0    0 -0.00000000000E+00 -0.00000000000E+00 -0.45593999997E+02  0.45594000000E+02  0.51100000000E-03 0. -1.
    9900012    2    1    2    0    0  0.44731108301E+01 -0.33009467887E+02 -0.27820680171E+02  0.47787263418E+02  0.19999965226E+02 0.  0.
        -12    1    1    2    0    0 -0.44731108301E+01  0.33009467887E+02  0.27820680171E+02  0.43400736582E+02  0.00000000000E+00 0.  1.
         11    1    3    3    0    0  0.11603805971E+01 -0.25894963426E+02 -0.19276340481E+02  0.32302831402E+02  0.51100000000E-03 0. -1.
        -11    1    3    3    0    0  0.47217364917E+01 -0.27174104140E+01  0.35411606066E+00  0.54593509962E+01  0.51100000000E-03 0.  1.
         12    1    3    3    0    0 -0.14090062587E+01 -0.43970940469E+01 -0.88984557511E+01  0.10025081020E+02  0.00000000000E+00 0. -1.
</event>
<event>
 7    1  0.2530788E-009  0.4778727E+02  0.7816164E-02  0.1312668E+00
        -11   -1    0    0    0    0  0.00000000000E+00  0.00000000000E+00  0.45593999997E+02  0.45594000000E+02  0.51100000000E-03 0. -1.
         11   -1    0    0    0    0 -0.00000000000E+00 -0.00000000000E+00 -0.45593999997E+02  0.45594000000E+02  0.51100000000E-03 0.  1.
    9900012    2    1    2    0    0 -0.26668597123E+02  0.26402879153E+02  0.21801313393E+02  0.47787269986E+02  0.19999995175E+02 0.  0.
        -12    1    1    2    0    0  0.26668597123E+02 -0.26402879153E+02 -0.21801313393E+02  0.43400730014E+02  0.00000000000E+00 0.  1.
         11    1    3    3    0    0 -0.21938852775E+02  0.22689324049E+02  0.14896485849E+02  0.34900200254E+02  0.51100000000E-03 0. -1.
        -11    1    3    3    0    0  0.87575215171E+00 -0.23677199333E+01  0.95690736036E+00  0.26997613730E+01  0.51100000000E-03 0.  1.
        -12    1    3    3    0    0 -0.56054964995E+01  0.60812750373E+01  0.59479201835E+01  0.10187308359E+02  0.00000000000E+00 0.  1.
</event>
<event>
 7    1  0.2530788E-009  0.4778727E+02  0.7816164E-02  0.1312668E+00
        -11   -1    0    0    0    0  0.00000000000E+00  0.00000000000E+00  0.45593999997E+02  0.45594000000E+02  0.51100000000E-03 0.  1.
         11   -1    0    0    0    0 -0.00000000000E+00 -0.00000000000E+00 -0.45593999997E+02  0.45594000000E+02  0.51100000000E-03 0. -1.
    9900012    2    1    2    0    0  0.50360655469E+01  0.34645954425E+02 -0.25649937794E+02  0.47787269325E+02  0.19999992162E+02 0.  0.
        -12    1    1    2    0    0 -0.50360655469E+01 -0.34645954425E+02  0.25649937794E+02  0.43400730675E+02  0.00000000000E+00 0.  1.
         11    1    3    3    0    0 -0.81091939325E+00  0.37921593004E+01  0.20730631624E+01  0.43972324885E+01  0.51100000000E-03 0. -1.
        -11    1    3    3    0    0  0.72156233237E+01  0.19960327569E+02 -0.23396598991E+02  0.31589250406E+02  0.51100000000E-03 0.  1.
        -12    1    3    3    0    0 -0.13686383835E+01  0.10893467556E+02 -0.43264019656E+01  0.11800786431E+02  0.00000000000E+00 0.  1.
</event>
<event>
 7    1  0.2530788E-009  0.4778727E+02  0.7816164E-02  0.1312668E+00
        -11   -1    0    0    0    0  0.00000000000E+00  0.00000000000E+00  0.45593999997E+02  0.45594000000E+02  0.51100000000E-03 0.  1.
         11   -1    0    0    0    0 -0.00000000000E+00 -0.00000000000E+00 -0.45593999997E+02  0.45594000000E+02  0.51100000000E-03 0. -1.
    9900012    2    1    2    0    0 -0.37834653273E+01 -0.37207639503E+02  0.22020458036E+02  0.47787267064E+02  0.19999981852E+02 0.  0.
        -12    1    1    2    0    0  0.37834653273E+01  0.37207639503E+02 -0.22020458036E+02  0.43400732936E+02  0.00000000000E+00 0.  1.
         11    1    3    3    0    0 -0.42481030150E+01 -0.16193009273E+02  0.15203584742E+02  0.22614352032E+02  0.51100000000E-03 0. -1.
        -11    1    3    3    0    0 -0.16783213585E+01 -0.17658868807E+02  0.54854543221E+00  0.17746924029E+02  0.51100000000E-03 0.  1.
         12    1    3    3    0    0  0.21429590461E+01 -0.33557614222E+01  0.62683278624E+01  0.74259910037E+01  0.00000000000E+00 0. -1.
</event>
<event>
 7    1  0.2530788E-009  0.4778727E+02  0.7816164E-02  0.1312668E+00
        -11   -1    0    0    0    0  0.00000000000E+00  0.00000000000E+00  0.45593999997E+02  0.45594000000E+02  0.51100000000E-03 0.  1.
         11   -1    0    0    0    0 -0.00000000000E+00 -0.00000000000E+00 -0.45593999997E+02  0.45594000000E+02  0.51100000000E-03 0. -1.
    9900012    2    1    2    0    0 -0.39515314945E+02 -0.16448179397E+02 -0.71847565411E+01  0.47787269048E+02  0.19999990895E+02 0.  0.
        -12    1    1    2    0    0  0.39515314945E+02  0.16448179397E+02  0.71847565411E+01  0.43400730952E+02  0.00000000000E+00 0.  1.
         11    1    3    3    0    0 -0.15318286823E+02 -0.79742253960E+01 -0.67505038917E+00  0.17282762370E+02  0.51100000000E-03 0. -1.
        -11    1    3    3    0    0 -0.50245439436E+01  0.37591031160E+01 -0.44002745566E+01  0.76641577824E+01  0.51100000000E-03 0.  1.
        -12    1    3    3    0    0 -0.19172484178E+02 -0.12233057117E+02 -0.21094315953E+01  0.22840348895E+02  0.00000000000E+00 0.  1.
</event>
<event>
 7    1  0.2530788E-009  0.4778727E+02  0.7816164E-02  0.1312668E+00
        -11   -1    0    0    0    0  0.00000000000E+00  0.00000000000E+00  0.45593999997E+02  0.45594000000E+02  0.51100000000E-03 0. -1.
         11   -1    0    0    0    0 -0.00000000000E+00 -0.00000000000E+00 -0.45593999997E+02  0.45594000000E+02  0.51100000000E-03 0.  1.
    9900012    2    1    2    0    0 -0.28794072839E+02  0.24262762500E+02  0.21583401636E+02  0.47787268428E+02  0.19999988072E+02 0.  0.
        -12    1    1    2    0    0  0.28794072839E+02 -0.24262762500E+02 -0.21583401636E+02  0.43400731572E+02  0.00000000000E+00 0.  1.
         11    1    3    3    0    0 -0.45119433164E+01  0.93957397430E+01  0.11920991736E+02  0.15835011905E+02  0.51100000000E-03 0. -1.
        -11    1    3    3    0    0 -0.81270736812E+01  0.74308640849E+01 -0.12563707404E+01  0.11083570515E+02  0.51100000000E-03 0.  1.
        -12    1    3    3    0    0 -0.16155055841E+02  0.74361586726E+01  0.10918780640E+02  0.20868686008E+02  0.00000000000E+00 0.  1.
</event>
<event>
 7    1  0.2530788E-009  0.4778729E+02  0.7816164E-02  0.1312668E+00
        -11   -1    0    0    0    0  0.00000000000E+00  0.00000000000E+00  0.45593999997E+02  0.45594000000E+02  0.51100000000E-03 0.  1.
         11   -1    0    0    0    0 -0.00000000000E+00 -0.00000000000E+00 -0.45593999997E+02  0.45594000000E+02  0.51100000000E-03 0. -1.
    9900012    2    1    2    0    0 -0.29186033722E+02  0.36438372080E+01 -0.31914255262E+02  0.47787287990E+02  0.20000077263E+02 0.  0.
        -12    1    1    2    0    0  0.29186033722E+02 -0.36438372080E+01  0.31914255262E+02  0.43400712010E+02  0.00000000000E+00 0.  1.
         11    1    3    3    0    0 -0.20571153076E+02  0.59600015612E+01 -0.25659853969E+02  0.33423376004E+02  0.51100000000E-03 0. -1.
        -11    1    3    3    0    0 -0.72576406877E+01  0.11901700993E+01 -0.34859335836E+00  0.73628371439E+01  0.51100000000E-03 0.  1.
        -12    1    3    3    0    0 -0.13572399585E+01 -0.35063344526E+01 -0.59058079342E+01  0.70010748428E+01  0.00000000000E+00 0.  1.
</event>
<event>
 7    1  0.2530788E-009  0.4778728E+02  0.7816164E-02  0.1312668E+00
        -11   -1    0    0    0    0  0.00000000000E+00  0.00000000000E+00  0.45593999997E+02  0.45594000000E+02  0.51100000000E-03 0.  1.
         11   -1    0    0    0    0 -0.00000000000E+00 -0.00000000000E+00 -0.45593999997E+02  0.45594000000E+02  0.51100000000E-03 0. -1.
    9900012    2    1    2    0    0  0.12575366001E+02 -0.16161828768E+02 -0.38265889589E+02  0.47787275982E+02  0.20000022514E+02 0.  0.
        -12    1    1    2    0    0 -0.12575366001E+02  0.16161828768E+02  0.38265889589E+02  0.43400724018E+02  0.00000000000E+00 0.  1.
         11    1    3    3    0    0  0.34481725249E+01 -0.12293213775E+02 -0.29971904291E+02  0.32578030108E+02  0.51100000000E-03 0. -1.
        -11    1    3    3    0    0  0.32165776331E+01 -0.40637925960E+01 -0.20211368838E+00  0.51866783336E+01  0.51100000000E-03 0.  1.
         12    1    3    3    0    0  0.59106158435E+01  0.19517760242E+00 -0.80918716102E+01  0.10022567540E+02  0.00000000000E+00 0. -1.
</event>
<event>
 7    1  0.2530788E-009  0.4778725E+02  0.7816164E-02  0.1312668E+00
        -11   -1    0    0    0    0  0.00000000000E+00  0.00000000000E+00  0.45593999997E+02  0.45594000000E+02  0.51100000000E-03 0.  1.
         11   -1    0    0    0    0 -0.00000000000E+00 -0.00000000000E+00 -0.45593999997E+02  0.45594000000E+02  0.51100000000E-03 0. -1.
    9900012    2    1    2    0    0  0.20108557932E+02 -0.33625879014E+02 -0.18670055604E+02  0.47787253258E+02  0.19999918903E+02 0.  0.
        -12    1    1    2    0    0 -0.20108557932E+02  0.33625879014E+02  0.18670055604E+02  0.43400746742E+02  0.00000000000E+00 0.  1.
         11    1    3    3    0    0  0.11637024350E+02 -0.22845685211E+02 -0.55518172710E+01  0.26232962923E+02  0.51100000000E-03 0. -1.
        -11    1    3    3    0    0  0.59236040446E+01 -0.37182119424E+00 -0.24118499101E+01  0.64065869328E+01  0.51100000000E-03 0.  1.
         12    1    3    3    0    0  0.25479295379E+01 -0.10408372608E+02 -0.10706388423E+02  0.15147703402E+02  0.00000000000E+00 0. -1.
</event>
<event>
 7    1  0.2530788E-009  0.4778727E+02  0.7816164E-02  0.1312668E+00
        -11   -1    0    0    0    0  0.00000000000E+00  0.00000000000E+00  0.45593999997E+02  0.45594000000E+02  0.51100000000E-03 0.  1.
         11   -1    0    0    0    0 -0.00000000000E+00 -0.00000000000E+00 -0.45593999997E+02  0.45594000000E+02  0.51100000000E-03 0. -1.
    9900012    2    1    2    0    0 -0.29933266229E+02  0.20786484442E+02 -0.23570002560E+02  0.47787269784E+02  0.19999994254E+02 0.  0.
        -12    1    1    2    0    0  0.29933266229E+02 -0.20786484442E+02  0.23570002560E+02  0.43400730216E+02  0.00000000000E+00 0.  1.
         11    1    3    3    0    0 -0.14513224622E+02  0.47285896004E+01 -0.11771102682E+02  0.19275686944E+02  0.51100000000E-03 0. -1.
        -11    1    3    3    0    0 -0.12641652141E+02  0.16749764472E+02 -0.56553681068E+01  0.21733595364E+02  0.51100000000E-03 0.  1.
        -12    1    3    3    0    0 -0.27783894657E+01 -0.69186963113E+00 -0.61435317715E+01  0.67779874769E+01  0.00000000000E+00 0.  1.
</event>
<event>
 7    1  0.2530788E-009  0.4778727E+02  0.7816164E-02  0.1312668E+00
        -11   -1    0    0    0    0  0.00000000000E+00  0.00000000000E+00  0.45593999997E+02  0.45594000000E+02  0.51100000000E-03 0.  1.
         11   -1    0    0    0    0 -0.00000000000E+00 -0.00000000000E+00 -0.45593999997E+02  0.45594000000E+02  0.51100000000E-03 0. -1.
    9900012    2    1    2    0    0 -0.22361807833E+02 -0.23292933168E+02 -0.29000214535E+02  0.47787266962E+02  0.19999981387E+02 0.  0.
        -12    1    1    2    0    0  0.22361807833E+02  0.23292933168E+02  0.29000214535E+02  0.43400733038E+02  0.00000000000E+00 0.  1.
         11    1    3    3    0    0 -0.76616539959E+00 -0.32825511782E+01 -0.70087741742E+01  0.77772146263E+01  0.51100000000E-03 0. -1.
        -11    1    3    3    0    0 -0.58994420545E+01 -0.14778223968E+02 -0.60177900808E+01  0.17012146188E+02  0.51100000000E-03 0.  1.
        -12    1    3    3    0    0 -0.15696200379E+02 -0.52321580216E+01 -0.15973650280E+02  0.22997906148E+02  0.00000000000E+00 0.  1.
</event>
<event>
 7    1  0.2530788E-009  0.4778728E+02  0.7816164E-02  0.1312668E+00
        -11   -1    0    0    0    0  0.00000000000E+00  0.00000000000E+00  0.45593999997E+02  0.45594000000E+02  0.51100000000E-03 0.  1.
         11   -1    0    0    0    0 -0.00000000000E+00 -0.00000000000E+00 -0.45593999997E+02  0.45594000000E+02  0.51100000000E-03 0. -1.
    9900012    2    1    2    0    0  0.31586225276E+02 -0.45134233837E+01 -0.29420430670E+02  0.47787281588E+02  0.20000048074E+02 0.  0.
        -12    1    1    2    0    0 -0.31586225276E+02  0.45134233837E+01  0.29420430670E+02  0.43400718412E+02  0.00000000000E+00 0.  1.
         11    1    3    3    0    0  0.28058060031E+00  0.11094075432E+01  0.94181902233E+00  0.14820708155E+01  0.51100000000E-03 0.  1.
        -11    1    3    3    0    0  0.15492603396E+02 -0.10133810771E+02 -0.16472357220E+02  0.24780101561E+02  0.51100000000E-03 0. -1.
        -12    1    3    3    0    0  0.15813041280E+02  0.45109798446E+01 -0.13889892473E+02  0.21525109212E+02  0.00000000000E+00 0.  1.
</event>
<event>
 7    1  0.2530788E-009  0.4778727E+02  0.7816164E-02  0.1312668E+00
        -11   -1    0    0    0    0  0.00000000000E+00  0.00000000000E+00  0.45593999997E+02  0.45594000000E+02  0.51100000000E-03 0.  1.
         11   -1    0    0    0    0 -0.00000000000E+00 -0.00000000000E+00 -0.45593999997E+02  0.45594000000E+02  0.51100000000E-03 0. -1.
    9900012    2    1    2    0    0  0.23890317217E+02  0.10846727115E+02 -0.34572014763E+02  0.47787274769E+02  0.20000016981E+02 0.  0.
        -12    1    1    2    0    0 -0.23890317217E+02 -0.10846727115E+02  0.34572014763E+02  0.43400725231E+02  0.00000000000E+00 0.  1.
         11    1    3    3    0    0  0.13337156114E+02  0.13365890375E+02 -0.18731400806E+02  0.26596844458E+02  0.51100000000E-03 0. -1.
        -11    1    3    3    0    0  0.75652735437E+01 -0.45987031977E+01 -0.59916657921E+01  0.10690252294E+02  0.51100000000E-03 0.  1.
        -12    1    3    3    0    0  0.29878875586E+01  0.20795399377E+01 -0.98489481653E+01  0.10500178017E+02  0.00000000000E+00 0.  1.
</event>
<event>
 7    1  0.2530788E-009  0.4778727E+02  0.7816164E-02  0.1312668E+00
        -11   -1    0    0    0    0  0.00000000000E+00  0.00000000000E+00  0.45593999997E+02  0.45594000000E+02  0.51100000000E-03 0. -1.
         11   -1    0    0    0    0 -0.00000000000E+00 -0.00000000000E+00 -0.45593999997E+02  0.45594000000E+02  0.51100000000E-03 0.  1.
    9900012    2    1    2    0    0 -0.19481256036E+02  0.21026468020E+02  0.32588210950E+02  0.47787272045E+02  0.20000004560E+02 0.  0.
        -12    1    1    2    0    0  0.19481256036E+02 -0.21026468020E+02 -0.32588210950E+02  0.43400727955E+02  0.00000000000E+00 0.  1.
         11    1    3    3    0    0 -0.33439739960E+00  0.31202133444E+01  0.55088771026E+01  0.63399747734E+01  0.51100000000E-03 0.  1.
        -11    1    3    3    0    0 -0.78836253350E+01  0.17803616353E+02  0.21038390789E+02  0.28665906421E+02  0.51100000000E-03 0. -1.
        -12    1    3    3    0    0 -0.11263233302E+02  0.10263832234E+00  0.60409430580E+01  0.12781390850E+02  0.00000000000E+00 0.  1.
</event>
<event>
 7    1  0.2530788E-009  0.4778724E+02  0.7816164E-02  0.1312668E+00
        -11   -1    0    0    0    0  0.00000000000E+00  0.00000000000E+00  0.45593999997E+02  0.45594000000E+02  0.51100000000E-03 0.  1.
         11   -1    0    0    0    0 -0.00000000000E+00 -0.00000000000E+00 -0.45593999997E+02  0.45594000000E+02  0.51100000000E-03 0. -1.
    9900012    2    1    2    0    0 -0.39819348863E+02 -0.18522458297E+01 -0.17164332273E+02  0.47787243545E+02  0.19999874617E+02 0.  0.
        -12    1    1    2    0    0  0.39819348863E+02  0.18522458297E+01  0.17164332273E+02  0.43400756455E+02  0.00000000000E+00 0.  1.
         11    1    3    3    0    0  0.25910491426E+00 -0.40953552462E+01 -0.27077031491E+01  0.49163733131E+01  0.51100000000E-03 0. -1.
        -11    1    3    3    0    0 -0.19447373862E+02  0.65081631852E+00 -0.48300203719E+01  0.20048765774E+02  0.51100000000E-03 0.  1.
         12    1    3    3    0    0 -0.20631079916E+02  0.15922930980E+01 -0.96266087523E+01  0.22822104458E+02  0.00000000000E+00 0. -1.
</event>
<event>
 7    1  0.2530788E-009  0.4778725E+02  0.7816164E-02  0.1312668E+00
        -11   -1    0    0    0    0  0.00000000000E+00  0.00000000000E+00  0.45593999997E+02  0.45594000000E+02  0.51100000000E-03 0. -1.
         11   -1    0    0    0    0 -0.00000000000E+00 -0.00000000000E+00 -0.45593999997E+02  0.45594000000E+02  0.51100000000E-03 0.  1.
    9900012    2    1    2    0    0  0.30960461952E+02 -0.19914804631E+02  0.22988586943E+02  0.47787253723E+02  0.19999921025E+02 0.  0.
        -12    1    1    2    0    0 -0.30960461952E+02  0.19914804631E+02 -0.22988586943E+02  0.43400746277E+02  0.00000000000E+00 0.  1.
         11    1    3    3    0    0 -0.20633442555E+01 -0.10406830809E+01 -0.46732235552E+00  0.23577110164E+01  0.51100000000E-03 0.  1.
        -11    1    3    3    0    0  0.26908361553E+02 -0.18640643775E+02  0.18886660869E+02  0.37792055790E+02  0.51100000000E-03 0. -1.
        -12    1    3    3    0    0  0.61154446543E+01 -0.23347777513E+00  0.45692484297E+01  0.76374869168E+01  0.00000000000E+00 0.  1.
</event>
<event>
 7    1  0.2530788E-009  0.4778727E+02  0.7816164E-02  0.1312668E+00
        -11   -1    0    0    0    0  0.00000000000E+00  0.00000000000E+00  0.45593999997E+02  0.45594000000E+02  0.51100000000E-03 0.  1.
         11   -1    0    0    0    0 -0.00000000000E+00 -0.00000000000E+00 -0.45593999997E+02  0.45594000000E+02  0.51100000000E-03 0. -1.
    9900012    2    1    2    0    0 -0.19702591727E+02  0.72873329267E+01 -0.37977967471E+02  0.47787270108E+02  0.19999995730E+02 0.  0.
        -12    1    1    2    0    0  0.19702591727E+02 -0.72873329267E+01  0.37977967471E+02  0.43400729892E+02  0.00000000000E+00 0.  1.
         11    1    3    3    0    0 -0.84628767629E+00 -0.26365001835E+01 -0.14066680127E+02  0.14336625339E+02  0.51100000000E-03 0. -1.
        -11    1    3    3    0    0 -0.19260654383E+02  0.77796077534E+01 -0.23234048507E+02  0.31165944785E+02  0.51100000000E-03 0.  1.
        -12    1    3    3    0    0  0.40435033222E+00  0.21442253568E+01 -0.67723883604E+00  0.22846999832E+01  0.00000000000E+00 0.  1.
</event>
<event>
 7    1  0.2530788E-009  0.4778728E+02  0.7816164E-02  0.1312668E+00
        -11   -1    0    0    0    0  0.00000000000E+00  0.00000000000E+00  0.45593999997E+02  0.45594000000E+02  0.51100000000E-03 0.  1.
         11   -1    0    0    0    0 -0.00000000000E+00 -0.00000000000E+00 -0.45593999997E+02  0.45594000000E+02  0.51100000000E-03 0. -1.
    9900012    2    1    2    0    0 -0.72392466430E+01 -0.29973194514E+02 -0.30542164475E+02  0.47787275442E+02  0.20000020052E+02 0.  0.
        -12    1    1    2    0    0  0.72392466430E+01  0.29973194514E+02  0.30542164475E+02  0.43400724558E+02  0.00000000000E+00 0.  1.
         11    1    3    3    0    0 -0.76679651224E+00 -0.75203850430E+01 -0.76220744033E+01  0.10734998209E+02  0.51100000000E-03 0. -1.
        -11    1    3    3    0    0  0.34881872839E+01 -0.16066480523E+02 -0.88603593991E+01  0.18676327687E+02  0.51100000000E-03 0.  1.
        -12    1    3    3    0    0 -0.99606374146E+01 -0.63863289472E+01 -0.14059730673E+02  0.18375949546E+02  0.00000000000E+00 0.  1.
</event>
<event>
 7    1  0.2530788E-009  0.4778727E+02  0.7816164E-02  0.1312668E+00
        -11   -1    0    0    0    0  0.00000000000E+00  0.00000000000E+00  0.45593999997E+02  0.45594000000E+02  0.51100000000E-03 0.  1.
         11   -1    0    0    0    0 -0.00000000000E+00 -0.00000000000E+00 -0.45593999997E+02  0.45594000000E+02  0.51100000000E-03 0. -1.
    9900012    2    1    2    0    0  0.19566042958E+02  0.18332606277E+02 -0.34127829723E+02  0.47787271302E+02  0.20000001173E+02 0.  0.
        -12    1    1    2    0    0 -0.19566042958E+02 -0.18332606277E+02  0.34127829723E+02  0.43400728698E+02  0.00000000000E+00 0.  1.
         11    1    3    3    0    0  0.98122225963E+01  0.12496527249E+02 -0.92034688216E+01  0.18361556148E+02  0.51100000000E-03 0. -1.
        -11    1    3    3    0    0  0.90425003299E+01 -0.21302335542E+00 -0.11096576258E+02  0.14315942025E+02  0.51100000000E-03 0.  1.
         12    1    3    3    0    0  0.71132003144E+00  0.60491023828E+01 -0.13827784644E+02  0.15109773128E+02  0.00000000000E+00 0. -1.
</event>
<event>
 7    1  0.2530788E-009  0.4778727E+02  0.7816164E-02  0.1312668E+00
        -11   -1    0    0    0    0  0.00000000000E+00  0.00000000000E+00  0.45593999997E+02  0.45594000000E+02  0.51100000000E-03 0. -1.
         11   -1    0    0    0    0 -0.00000000000E+00 -0.00000000000E+00 -0.45593999997E+02  0.45594000000E+02  0.51100000000E-03 0.  1.
    9900012    2    1    2    0    0 -0.26110591379E+02 -0.74193917761E+01  0.33864622378E+02  0.47787274139E+02  0.20000014107E+02 0.  0.
        -12    1    1    2    0    0  0.26110591379E+02  0.74193917761E+01 -0.33864622378E+02  0.43400725861E+02  0.00000000000E+00 0.  1.
         11    1    3    3    0    0 -0.10423171334E+02  0.18652072033E+01  0.21711940699E+02  0.24156362883E+02  0.51100000000E-03 0. -1.
        -11    1    3    3    0    0 -0.14225277929E+02 -0.41686620774E+01  0.77637338146E+01  0.16733554275E+02  0.51100000000E-03 0.  1.
         12    1    3    3    0    0 -0.14621421156E+01 -0.51159369020E+01  0.43889478647E+01  0.68973569800E+01  0.00000000000E+00 0. -1.
</event>
<event>
 7    1  0.2530788E-009  0.4778727E+02  0.7816164E-02  0.1312668E+00
        -11   -1    0    0    0    0  0.00000000000E+00  0.00000000000E+00  0.45593999997E+02  0.45594000000E+02  0.51100000000E-03 0. -1.
         11   -1    0    0    0    0 -0.00000000000E+00 -0.00000000000E+00 -0.45593999997E+02  0.45594000000E+02  0.51100000000E-03 0.  1.
    9900012    2    1    2    0    0 -0.29256718158E+02 -0.18848899673E+02  0.25930424698E+02  0.47787268424E+02  0.19999988054E+02 0.  0.
        -12    1    1    2    0    0  0.29256718158E+02  0.18848899673E+02 -0.25930424698E+02  0.43400731576E+02  0.00000000000E+00 0.  1.
         11    1    3    3    0    0 -0.17342401152E+02 -0.94789686699E+01  0.56719894560E+01  0.20561643646E+02  0.51100000000E-03 0. -1.
        -11    1    3    3    0    0 -0.74659131650E+01 -0.20160968664E+01  0.15689977334E+02  0.17492281011E+02  0.51100000000E-03 0.  1.
         12    1    3    3    0    0 -0.44484038413E+01 -0.73538341363E+01  0.45684579083E+01  0.97333437677E+01  0.00000000000E+00 0. -1.
</event>
<event>
 7    1  0.2530788E-009  0.4778728E+02  0.7816164E-02  0.1312668E+00
        -11   -1    0    0    0    0  0.00000000000E+00  0.00000000000E+00  0.45593999997E+02  0.45594000000E+02  0.51100000000E-03 0.  1.
         11   -1    0    0    0    0 -0.00000000000E+00 -0.00000000000E+00 -0.45593999997E+02  0.45594000000E+02  0.51100000000E-03 0. -1.
    9900012    2    1    2    0    0 -0.25338629837E+02 -0.81963056749E+01 -0.34269479450E+02  0.47787276383E+02  0.20000024338E+02 0.  0.
        -12    1    1    2    0    0  0.25338629837E+02  0.81963056749E+01  0.34269479450E+02  0.43400723617E+02  0.00000000000E+00 0.  1.
         11    1    3    3    0    0 -0.16775839535E+02 -0.49705962527E+01 -0.84208514180E+01  0.19417681584E+02  0.51100000000E-03 0. -1.
        -11    1    3    3    0    0 -0.46136428257E+01  0.19823083248E+01 -0.13389863023E+02  0.14300478259E+02  0.51100000000E-03 0.  1.
         12    1    3    3    0    0 -0.39491474761E+01 -0.52080177470E+01 -0.12458765009E+02  0.14069116539E+02  0.00000000000E+00 0. -1.
</event>
<event>
 7    1  0.2530788E-009  0.4778726E+02  0.7816164E-02  0.1312668E+00
        -11   -1    0    0    0    0  0.00000000000E+00  0.00000000000E+00  0.45593999997E+02  0.45594000000E+02  0.51100000000E-03 0.  1.
         11   -1    0    0    0    0 -0.00000000000E+00 -0.00000000000E+00 -0.45593999997E+02  0.45594000000E+02  0.51100000000E-03 0. -1.
    9900012    2    1    2    0    0  0.21425161883E+02 -0.37663255941E+02  0.24628685618E+01  0.47787261166E+02  0.19999954958E+02 0.  0.
        -12    1    1    2    0    0 -0.21425161883E+02  0.37663255941E+02 -0.24628685618E+01  0.43400738834E+02  0.00000000000E+00 0.  1.
         11    1    3    3    0    0  0.14184949562E+02 -0.28773212014E+02 -0.44703263332E+01  0.32389725863E+02  0.51100000000E-03 0. -1.
        -11    1    3    3    0    0  0.39816548349E+01 -0.92350595990E+01  0.67571008393E+01  0.12116035368E+02  0.51100000000E-03 0.  1.
        -12    1    3    3    0    0  0.32585574862E+01  0.34501567185E+00  0.17609405571E+00  0.32814999347E+01  0.00000000000E+00 0.  1.
</event>
<event>
 7    1  0.2530788E-009  0.4778727E+02  0.7816164E-02  0.1312668E+00
        -11   -1    0    0    0    0  0.00000000000E+00  0.00000000000E+00  0.45593999997E+02  0.45594000000E+02  0.51100000000E-03 0. -1.
         11   -1    0    0    0    0 -0.00000000000E+00 -0.00000000000E+00 -0.45593999997E+02  0.45594000000E+02  0.51100000000E-03 0.  1.
    9900012    2    1    2    0    0 -0.42739546488E+02  0.33069890356E+01  0.67836617494E+01  0.47787273310E+02  0.20000010328E+02 0.  0.
        -12    1    1    2    0    0  0.42739546488E+02 -0.33069890356E+01 -0.67836617494E+01  0.43400726690E+02  0.00000000000E+00 0.  1.
         11    1    3    3    0    0 -0.10447423836E+02  0.12123447289E+01  0.63501383973E+00  0.10536682941E+02  0.51100000000E-03 0. -1.
        -11    1    3    3    0    0 -0.27841646158E+02 -0.40919964556E+01  0.12050951062E+01  0.28166539551E+02  0.51100000000E-03 0.  1.
        -12    1    3    3    0    0 -0.44504764941E+01  0.61866407624E+01  0.49435528034E+01  0.90840508182E+01  0.00000000000E+00 0.  1.
</event>
<event>
 7    1  0.2530788E-009  0.4778727E+02  0.7816164E-02  0.1312668E+00
        -11   -1    0    0    0    0  0.00000000000E+00  0.00000000000E+00  0.45593999997E+02  0.45594000000E+02  0.51100000000E-03 0. -1.
         11   -1    0    0    0    0 -0.00000000000E+00 -0.00000000000E+00 -0.45593999997E+02  0.45594000000E+02  0.51100000000E-03 0.  1.
    9900012    2    1    2    0    0  0.48182425359E+01  0.15169229487E+02  0.40377001327E+02  0.47787271659E+02  0.20000002804E+02 0.  0.
        -12    1    1    2    0    0 -0.48182425359E+01 -0.15169229487E+02 -0.40377001327E+02  0.43400728341E+02  0.00000000000E+00 0.  1.
         11    1    3    3    0    0 -0.36912725885E+01  0.35332527807E+01  0.16117161924E+02  0.16907757902E+02  0.51100000000E-03 0. -1.
        -11    1    3    3    0    0  0.48153629197E+01  0.42569061684E+00  0.12099166419E+01  0.49832550699E+01  0.51100000000E-03 0.  1.
        -12    1    3    3    0    0  0.36941522046E+01  0.11210286089E+02  0.23049922761E+02  0.25896258688E+02  0.00000000000E+00 0.  1.
</event>
<event>
 7    1  0.2530788E-009  0.4778727E+02  0.7816164E-02  0.1312668E+00
        -11   -1    0    0    0    0  0.00000000000E+00  0.00000000000E+00  0.45593999997E+02  0.45594000000E+02  0.51100000000E-03 0.  1.
         11   -1    0    0    0    0 -0.00000000000E+00 -0.00000000000E+00 -0.45593999997E+02  0.45594000000E+02  0.51100000000E-03 0. -1.
    9900012    2    1    2    0    0 -0.14699824653E+02  0.15169250359E+02 -0.37913480019E+02  0.47787274563E+02  0.20000016045E+02 0.  0.
        -12    1    1    2    0    0  0.14699824653E+02 -0.15169250359E+02  0.37913480019E+02  0.43400725437E+02  0.00000000000E+00 0.  1.
         11    1    3    3    0    0  0.65957561593E+00 -0.28088552512E+01 -0.10636736223E+02  0.11021109996E+02  0.51100000000E-03 0. -1.
        -11    1    3    3    0    0 -0.90304677222E+01  0.53172363166E+01 -0.10913058621E+02  0.15130009850E+02  0.51100000000E-03 0.  1.
         12    1    3    3    0    0 -0.63289325468E+01  0.12660869294E+02 -0.16363685175E+02  0.21636154717E+02  0.00000000000E+00 0. -1.
</event>
<event>
 7    1  0.2530788E-009  0.4778723E+02  0.7816164E-02  0.1312668E+00
        -11   -1    0    0    0    0  0.00000000000E+00  0.00000000000E+00  0.45593999997E+02  0.45594000000E+02  0.51100000000E-03 0.  1.
         11   -1    0    0    0    0 -0.00000000000E+00 -0.00000000000E+00 -0.45593999997E+02  0.45594000000E+02  0.51100000000E-03 0. -1.
    9900012    2    1    2    0    0 -0.33575292687E+02 -0.38095100283E+01 -0.27236269470E+02  0.47787227883E+02  0.19999803210E+02 0.  0.
        -12    1    1    2    0    0  0.33575292687E+02  0.38095100283E+01  0.27236269470E+02  0.43400772117E+02  0.00000000000E+00 0.  1.
         11    1    3    3    0    0 -0.10195328850E+02 -0.11426765684E+01 -0.20093393473E+02  0.22560915354E+02  0.51100000000E-03 0. -1.
        -11    1    3    3    0    0 -0.18054535539E+02  0.54974240503E-01 -0.65917045757E+01  0.19220297739E+02  0.51100000000E-03 0.  1.
         12    1    3    3    0    0 -0.53254282990E+01 -0.27218077004E+01 -0.55117142092E+00  0.60060147902E+01  0.00000000000E+00 0. -1.
</event>
<event>
 7    1  0.2530788E-009  0.4778727E+02  0.7816164E-02  0.1312668E+00
        -11   -1    0    0    0    0  0.00000000000E+00  0.00000000000E+00  0.45593999997E+02  0.45594000000E+02  0.51100000000E-03 0.  1.
         11   -1    0    0    0    0 -0.00000000000E+00 -0.00000000000E+00 -0.45593999997E+02  0.45594000000E+02  0.51100000000E-03 0. -1.
    9900012    2    1    2    0    0 -0.20364140459E+02 -0.11205049009E+02 -0.36652040858E+02  0.47787269142E+02  0.19999991326E+02 0.  0.
        -12    1    1    2    0    0  0.20364140459E+02  0.11205049009E+02  0.36652040858E+02  0.43400730858E+02  0.00000000000E+00 0.  1.
         11    1    3    3    0    0 -0.11766325861E+01 -0.36232803481E+01  0.10783741089E+01  0.39592317063E+01  0.51100000000E-03 0.  1.
        -11    1    3    3    0    0 -0.91072775275E+01  0.79447263278E+00 -0.14041368263E+02  0.16755110077E+02  0.51100000000E-03 0. -1.
         12    1    3    3    0    0 -0.10080230346E+02 -0.83762412933E+01 -0.23689046704E+02  0.27072927359E+02  0.00000000000E+00 0. -1.
</event>
<event>
 7    1  0.2530788E-009  0.4778727E+02  0.7816164E-02  0.1312668E+00
        -11   -1    0    0    0    0  0.00000000000E+00  0.00000000000E+00  0.45593999997E+02  0.45594000000E+02  0.51100000000E-03 0.  1.
         11   -1    0    0    0    0 -0.00000000000E+00 -0.00000000000E+00 -0.45593999997E+02  0.45594000000E+02  0.51100000000E-03 0. -1.
    9900012    2    1    2    0    0 -0.75905796562E+01  0.23853923841E+02 -0.35454150043E+02  0.47787270312E+02  0.19999996663E+02 0.  0.
        -12    1    1    2    0    0  0.75905796562E+01 -0.23853923841E+02  0.35454150043E+02  0.43400729688E+02  0.00000000000E+00 0.  1.
         11    1    3    3    0    0  0.28565041524E+01  0.29870195878E+01 -0.54667338222E+00  0.41690231516E+01  0.51100000000E-03 0. -1.
        -11    1    3    3    0    0 -0.87805854300E+01  0.63676173723E+01 -0.20024481907E+02  0.22773342034E+02  0.51100000000E-03 0.  1.
         12    1    3    3    0    0 -0.16664983786E+01  0.14499286881E+02 -0.14882994754E+02  0.20844905127E+02  0.00000000000E+00 0. -1.
</event>
<event>
 7    1  0.2530788E-009  0.4778727E+02  0.7816164E-02  0.1312668E+00
        -11   -1    0    0    0    0  0.00000000000E+00  0.00000000000E+00  0.45593999997E+02  0.45594000000E+02  0.51100000000E-03 0.  1.
         11   -1    0    0    0    0 -0.00000000000E+00 -0.00000000000E+00 -0.45593999997E+02  0.45594000000E+02  0.51100000000E-03 0. -1.
    9900012    2    1    2    0    0  0.26560898386E+02 -0.10757498229E+02 -0.32594759082E+02  0.47787269466E+02  0.19999992804E+02 0.  0.
        -12    1    1    2    0    0 -0.26560898386E+02  0.10757498229E+02  0.32594759082E+02  0.43400730534E+02  0.00000000000E+00 0.  1.
         11    1    3    3    0    0 -0.47988479557E+00  0.10504134091E+01  0.12488058882E+01  0.17009333187E+01  0.51100000000E-03 0.  1.
        -11    1    3    3    0    0  0.73645172011E+01  0.14271531222E+01 -0.94613814639E+01  0.12074378622E+02  0.51100000000E-03 0. -1.
         12    1    3    3    0    0  0.19676265981E+02 -0.13235064761E+02 -0.24382183507E+02  0.34011957526E+02  0.00000000000E+00 0. -1.
</event>
<event>
 7    1  0.2530788E-009  0.4778724E+02  0.7816164E-02  0.1312668E+00
        -11   -1    0    0    0    0  0.00000000000E+00  0.00000000000E+00  0.45593999997E+02  0.45594000000E+02  0.51100000000E-03 0.  1.
         11   -1    0    0    0    0 -0.00000000000E+00 -0.00000000000E+00 -0.45593999997E+02  0.45594000000E+02  0.51100000000E-03 0. -1.
    9900012    2    1    2    0    0 -0.32353941758E+02  0.16561327777E+02 -0.23718582316E+02  0.47787236503E+02  0.19999842509E+02 0.  0.
        -12    1    1    2    0    0  0.32353941758E+02 -0.16561327777E+02  0.23718582316E+02  0.43400763497E+02  0.00000000000E+00 0.  1.
         11    1    3    3    0    0 -0.18544944189E+02  0.17752618155E+02 -0.10230347647E+02  0.27635672953E+02  0.51100000000E-03 0. -1.
        -11    1    3    3    0    0 -0.26988093572E+01 -0.67990926479E+00 -0.63575137690E+01  0.69400165806E+01  0.51100000000E-03 0.  1.
         12    1    3    3    0    0 -0.11110188212E+02 -0.51138111288E+00 -0.71307209007E+01  0.13211546969E+02  0.00000000000E+00 0. -1.
</event>
<event>
 7    1  0.2530788E-009  0.4778727E+02  0.7816164E-02  0.1312668E+00
        -11   -1    0    0    0    0  0.00000000000E+00  0.00000000000E+00  0.45593999997E+02  0.45594000000E+02  0.51100000000E-03 0. -1.
         11   -1    0    0    0    0 -0.00000000000E+00 -0.00000000000E+00 -0.45593999997E+02  0.45594000000E+02  0.51100000000E-03 0.  1.
    9900012    2    1    2    0    0 -0.29970355077E+02  0.26471180568E+02  0.16872392994E+02  0.47787271556E+02  0.20000002334E+02 0.  0.
        -12    1    1    2    0    0  0.29970355077E+02 -0.26471180568E+02 -0.16872392994E+02  0.43400728444E+02  0.00000000000E+00 0.  1.
         11    1    3    3    0    0 -0.20617212869E+02  0.20684807224E+02  0.17517586910E+02  0.34055786113E+02  0.51100000000E-03 0. -1.
        -11    1    3    3    0    0 -0.74785827163E+01  0.64473225404E+01 -0.33036878425E+01  0.10412085334E+02  0.51100000000E-03 0.  1.
         12    1    3    3    0    0 -0.18745594915E+01 -0.66094919609E+00  0.26584939263E+01  0.33194001089E+01  0.00000000000E+00 0. -1.
</event>
<event>
 7    1  0.2530788E-009  0.4778727E+02  0.7816164E-02  0.1312668E+00
        -11   -1    0    0    0    0  0.00000000000E+00  0.00000000000E+00  0.45593999997E+02  0.45594000000E+02  0.51100000000E-03 0. -1.
         11   -1    0    0    0    0 -0.00000000000E+00 -0.00000000000E+00 -0.45593999997E+02  0.45594000000E+02  0.51100000000E-03 0.  1.
    9900012    2    1    2    0    0 -0.29655664778E+02 -0.15712742456E+02  0.27518619995E+02  0.47787272180E+02  0.20000005176E+02 0.  0.
        -12    1    1    2    0    0  0.29655664778E+02  0.15712742456E+02 -0.27518619995E+02  0.43400727820E+02  0.00000000000E+00 0.  1.
         11    1    3    3    0    0 -0.94187095790E+01 -0.83631407945E+01  0.12839128285E+02  0.17986034290E+02  0.51100000000E-03 0. -1.
        -11    1    3    3    0    0 -0.17570390709E+02  0.19837249292E+00  0.77151911305E+01  0.19190678877E+02  0.51100000000E-03 0.  1.
        -12    1    3    3    0    0 -0.26665644900E+01 -0.75479741541E+01  0.69643005793E+01  0.10610559013E+02  0.00000000000E+00 0.  1.
</event>
<event>
 7    1  0.2530788E-009  0.4778727E+02  0.7816164E-02  0.1312668E+00
        -11   -1    0    0    0    0  0.00000000000E+00  0.00000000000E+00  0.45593999997E+02  0.45594000000E+02  0.51100000000E-03 0. -1.
         11   -1    0    0    0    0 -0.00000000000E+00 -0.00000000000E+00 -0.45593999997E+02  0.45594000000E+02  0.51100000000E-03 0.  1.
    9900012    2    1    2    0    0 -0.18887593128E+02 -0.36815380676E+02  0.13096173354E+02  0.47787272068E+02  0.20000004667E+02 0.  0.
        -12    1    1    2    0    0  0.18887593128E+02  0.36815380676E+02 -0.13096173354E+02  0.43400727932E+02  0.00000000000E+00 0.  1.
         11    1    3    3    0    0 -0.11025393418E+02 -0.27961543624E+02  0.13013853195E+02  0.32753131103E+02  0.51100000000E-03 0. -1.
        -11    1    3    3    0    0 -0.85909769750E+01 -0.80764858891E+01  0.27964335071E+01  0.12118355925E+02  0.51100000000E-03 0.  1.
         12    1    3    3    0    0  0.72877726445E+00 -0.77735116332E+00 -0.27141133480E+01  0.29157850397E+01  0.00000000000E+00 0. -1.
</event>
<event>
 7    1  0.2530788E-009  0.4778727E+02  0.7816164E-02  0.1312668E+00
        -11   -1    0    0    0    0  0.00000000000E+00  0.00000000000E+00  0.45593999997E+02  0.45594000000E+02  0.51100000000E-03 0. -1.
         11   -1    0    0    0    0 -0.00000000000E+00 -0.00000000000E+00 -0.45593999997E+02  0.45594000000E+02  0.51100000000E-03 0.  1.
    9900012    2    1    2    0    0 -0.30126498291E+02 -0.22804616643E+02  0.21353383801E+02  0.47787269139E+02  0.19999991314E+02 0.  0.
        -12    1    1    2    0    0  0.30126498291E+02  0.22804616643E+02 -0.21353383801E+02  0.43400730861E+02  0.00000000000E+00 0.  1.
         11    1    3    3    0    0 -0.56208483505E+01 -0.15512525345E+01  0.11174863563E+02  0.12604677565E+02  0.51100000000E-03 0. -1.
        -11    1    3    3    0    0 -0.12858623526E+01  0.47996780249E+00 -0.73656383914E+00  0.15576705786E+01  0.51100000000E-03 0.  1.
         12    1    3    3    0    0 -0.23219787588E+02 -0.21733331911E+02  0.10915084077E+02  0.33624920996E+02  0.00000000000E+00 0. -1.
</event>
<event>
 7    1  0.2530788E-009  0.4778727E+02  0.7816164E-02  0.1312668E+00
        -11   -1    0    0    0    0  0.00000000000E+00  0.00000000000E+00  0.45593999997E+02  0.45594000000E+02  0.51100000000E-03 0.  1.
         11   -1    0    0    0    0 -0.00000000000E+00 -0.00000000000E+00 -0.45593999997E+02  0.45594000000E+02  0.51100000000E-03 0. -1.
    9900012    2    1    2    0    0  0.43394331567E+02 -0.25428097484E+00 -0.70043287016E+00  0.47787271007E+02  0.19999999829E+02 0.  0.
        -12    1    1    2    0    0 -0.43394331567E+02  0.25428097484E+00  0.70043287016E+00  0.43400728993E+02  0.00000000000E+00 0.  1.
         11    1    3    3    0    0  0.58598148080E+01  0.26776537592E+01 -0.50455516862E+01  0.81832054427E+01  0.51100000000E-03 0. -1.
        -11    1    3    3    0    0  0.21600763699E+02 -0.37617820227E+01  0.78127774643E+01  0.23276243003E+02  0.51100000000E-03 0.  1.
         12    1    3    3    0    0  0.15933753060E+02  0.82984728872E+00 -0.34676586483E+01  0.16327822561E+02  0.00000000000E+00 0. -1.
</event>
<event>
 7    1  0.2530788E-009  0.4778727E+02  0.7816164E-02  0.1312668E+00
        -11   -1    0    0    0    0  0.00000000000E+00  0.00000000000E+00  0.45593999997E+02  0.45594000000E+02  0.51100000000E-03 0.  1.
         11   -1    0    0    0    0 -0.00000000000E+00 -0.00000000000E+00 -0.45593999997E+02  0.45594000000E+02  0.51100000000E-03 0. -1.
    9900012    2    1    2    0    0  0.40369089144E+02  0.12998915360E+01  0.15883015764E+02  0.47787271134E+02  0.20000000409E+02 0.  0.
        -12    1    1    2    0    0 -0.40369089144E+02 -0.12998915360E+01 -0.15883015764E+02  0.43400728866E+02  0.00000000000E+00 0.  1.
         11    1    3    3    0    0  0.32555549832E+02  0.69792609300E+01  0.91192602743E+01  0.34521512368E+02  0.51100000000E-03 0. -1.
        -11    1    3    3    0    0  0.47175151213E+01 -0.61377360397E+01  0.28379078942E+01  0.82450272340E+01  0.51100000000E-03 0.  1.
         12    1    3    3    0    0  0.30960241907E+01  0.45836664566E+00  0.39258475954E+01  0.50207315317E+01  0.00000000000E+00 0. -1.
</event>
<event>
 7    1  0.2530788E-009  0.4778727E+02  0.7816164E-02  0.1312668E+00
        -11   -1    0    0    0    0  0.00000000000E+00  0.00000000000E+00  0.45593999997E+02  0.45594000000E+02  0.51100000000E-03 0.  1.
         11   -1    0    0    0    0 -0.00000000000E+00 -0.00000000000E+00 -0.45593999997E+02  0.45594000000E+02  0.51100000000E-03 0. -1.
    9900012    2    1    2    0    0 -0.28185233232E+02 -0.10476917826E+02 -0.31296164855E+02  0.47787272885E+02  0.20000008393E+02 0.  0.
        -12    1    1    2    0    0  0.28185233232E+02  0.10476917826E+02  0.31296164855E+02  0.43400727115E+02  0.00000000000E+00 0.  1.
         11    1    3    3    0    0 -0.18520576804E+02 -0.81663142587E+01 -0.13272069088E+02  0.24204302755E+02  0.51100000000E-03 0. -1.
        -11    1    3    3    0    0  0.31359811336E+00 -0.46132513371E+01 -0.80757212641E+01  0.93057888367E+01  0.51100000000E-03 0.  1.
        -12    1    3    3    0    0 -0.99782545418E+01  0.23026477693E+01 -0.99483745029E+01  0.14277181294E+02  0.00000000000E+00 0.  1.
</event>
<event>
 7    1  0.2530788E-009  0.4778727E+02  0.7816164E-02  0.1312668E+00
        -11   -1    0    0    0    0  0.00000000000E+00  0.00000000000E+00  0.45593999997E+02  0.45594000000E+02  0.51100000000E-03 0.  1.
         11   -1    0    0    0    0 -0.00000000000E+00 -0.00000000000E+00 -0.45593999997E+02  0.45594000000E+02  0.51100000000E-03 0. -1.
    9900012    2    1    2    0    0  0.34607516379E+02  0.18711418343E+02 -0.18325551094E+02  0.47787272020E+02  0.20000004447E+02 0.  0.
        -12    1    1    2    0    0 -0.34607516379E+02 -0.18711418343E+02  0.18325551094E+02  0.43400727980E+02  0.00000000000E+00 0.  1.
         11    1    3    3    0    0  0.18533217966E+02  0.50319580581E+01 -0.40508461004E+01  0.19626770607E+02  0.51100000000E-03 0. -1.
        -11    1    3    3    0    0  0.15283209902E+02  0.13807048514E+02 -0.16116143786E+02  0.26152269201E+02  0.51100000000E-03 0.  1.
        -12    1    3    3    0    0  0.79108851064E+00 -0.12758822852E+00  0.18414387930E+01  0.20082322117E+01  0.00000000000E+00 0.  1.
</event>
<event>
 7    1  0.2530788E-009  0.4778727E+02  0.7816164E-02  0.1312668E+00
        -11   -1    0    0    0    0  0.00000000000E+00  0.00000000000E+00  0.45593999997E+02  0.45594000000E+02  0.51100000000E-03 0.  1.
         11   -1    0    0    0    0 -0.00000000000E+00 -0.00000000000E+00 -0.45593999997E+02  0.45594000000E+02  0.51100000000E-03 0. -1.
    9900012    2    1    2    0    0  0.53150103741E+01  0.40898010482E+02 -0.13517655515E+02  0.47787267204E+02  0.19999982488E+02 0.  0.
        -12    1    1    2    0    0 -0.53150103741E+01 -0.40898010482E+02  0.13517655515E+02  0.43400732796E+02  0.00000000000E+00 0.  1.
         11    1    3    3    0    0 -0.32225202503E-01  0.22283282129E+02  0.12664434809E+01  0.22319264779E+02  0.51100000000E-03 0. -1.
        -11    1    3    3    0    0  0.57553250346E+01  0.90352327977E+01 -0.10380628389E+02  0.14916991787E+02  0.51100000000E-03 0.  1.
         12    1    3    3    0    0 -0.40808945807E+00  0.95794955552E+01 -0.44034706067E+01  0.10551010638E+02  0.00000000000E+00 0. -1.
</event>
<event>
 7    1  0.2530788E-009  0.4778727E+02  0.7816164E-02  0.1312668E+00
        -11   -1    0    0    0    0  0.00000000000E+00  0.00000000000E+00  0.45593999997E+02  0.45594000000E+02  0.51100000000E-03 0. -1.
         11   -1    0    0    0    0 -0.00000000000E+00 -0.00000000000E+00 -0.45593999997E+02  0.45594000000E+02  0.51100000000E-03 0.  1.
    9900012    2    1    2    0    0  0.27937838512E+01 -0.13240828143E+02  0.41237101896E+02  0.47787270388E+02  0.19999997006E+02 0.  0.
        -12    1    1    2    0    0 -0.27937838512E+01  0.13240828143E+02 -0.41237101896E+02  0.43400729612E+02  0.00000000000E+00 0.  1.
         11    1    3    3    0    0  0.94883793442E+00 -0.36263770265E+01  0.53618114077E+01  0.65421652071E+01  0.51100000000E-03 0. -1.
        -11    1    3    3    0    0  0.15078760700E+01 -0.10918120911E+02  0.37528146743E+02  0.39113180038E+02  0.51100000000E-03 0.  1.
        -12    1    3    3    0    0  0.33706984681E+00  0.13036697948E+01 -0.16528562548E+01  0.21319251428E+01  0.00000000000E+00 0.  1.
</event>
<event>
 7    1  0.2530788E-009  0.4778730E+02  0.7816164E-02  0.1312668E+00
        -11   -1    0    0    0    0  0.00000000000E+00  0.00000000000E+00  0.45593999997E+02  0.45594000000E+02  0.51100000000E-03 0. -1.
         11   -1    0    0    0    0 -0.00000000000E+00 -0.00000000000E+00 -0.45593999997E+02  0.45594000000E+02  0.51100000000E-03 0.  1.
    9900012    2    1    2    0    0 -0.27201371041E+02  0.59105958654E+01  0.33298216383E+02  0.47787297882E+02  0.20000122364E+02 0.  0.
        -12    1    1    2    0    0  0.27201371041E+02 -0.59105958654E+01 -0.33298216383E+02  0.43400702118E+02  0.00000000000E+00 0.  1.
         11    1    3    3    0    0 -0.47110647566E+01  0.25516970756E+01 -0.55219811366E+00  0.53861128956E+01  0.51100000000E-03 0. -1.
        -11    1    3    3    0    0 -0.99099968502E+01  0.42906434976E+01  0.24259472506E+02  0.26554466022E+02  0.51100000000E-03 0.  1.
         12    1    3    3    0    0 -0.12580309434E+02 -0.93174470779E+00  0.95909419915E+01  0.15846718965E+02  0.00000000000E+00 0. -1.
</event>
<event>
 7    1  0.2530788E-009  0.4778727E+02  0.7816164E-02  0.1312668E+00
        -11   -1    0    0    0    0  0.00000000000E+00  0.00000000000E+00  0.45593999997E+02  0.45594000000E+02  0.51100000000E-03 0.  1.
         11   -1    0    0    0    0 -0.00000000000E+00 -0.00000000000E+00 -0.45593999997E+02  0.45594000000E+02  0.51100000000E-03 0. -1.
    9900012    2    1    2    0    0  0.20269145774E+02  0.31378957238E+02 -0.22094029724E+02  0.47787269854E+02  0.19999994574E+02 0.  0.
        -12    1    1    2    0    0 -0.20269145774E+02 -0.31378957238E+02  0.22094029724E+02  0.43400730146E+02  0.00000000000E+00 0.  1.
         11    1    3    3    0    0  0.60235611715E+01  0.22493214628E+02 -0.19741010941E+02  0.30527618753E+02  0.51100000000E-03 0. -1.
        -11    1    3    3    0    0  0.49962170349E+01  0.13912863139E+01 -0.95206512570E+00  0.52729773877E+01  0.51100000000E-03 0.  1.
         12    1    3    3    0    0  0.92493675674E+01  0.74944562956E+01 -0.14009536568E+01  0.11986673713E+02  0.00000000000E+00 0. -1.
</event>
<event>
 7    1  0.2530788E-009  0.4778728E+02  0.7816164E-02  0.1312668E+00
        -11   -1    0    0    0    0  0.00000000000E+00  0.00000000000E+00  0.45593999997E+02  0.45594000000E+02  0.51100000000E-03 0.  1.
         11   -1    0    0    0    0 -0.00000000000E+00 -0.00000000000E+00 -0.45593999997E+02  0.45594000000E+02  0.51100000000E-03 0. -1.
    9900012    2    1    2    0    0  0.42143599545E+02 -0.74653977621E+01 -0.71977080022E+01  0.47787284029E+02  0.20000059201E+02 0.  0.
        -12    1    1    2    0    0 -0.42143599545E+02  0.74653977621E+01  0.71977080022E+01  0.43400715971E+02  0.00000000000E+00 0.  1.
         11    1    3    3    0    0  0.24687484135E+02 -0.13724439095E+01 -0.32723001413E+01  0.24941199323E+02  0.51100000000E-03 0.  1.
        -11    1    3    3    0    0  0.11953288268E+02 -0.79685828019E+01 -0.73101467552E+01  0.16118860324E+02  0.51100000000E-03 0. -1.
        -12    1    3    3    0    0  0.55028271418E+01  0.18756289494E+01  0.33847388943E+01  0.67272243824E+01  0.00000000000E+00 0.  1.
</event>
<event>
 7    1  0.2530788E-009  0.4778727E+02  0.7816164E-02  0.1312668E+00
        -11   -1    0    0    0    0  0.00000000000E+00  0.00000000000E+00  0.45593999997E+02  0.45594000000E+02  0.51100000000E-03 0.  1.
         11   -1    0    0    0    0 -0.00000000000E+00 -0.00000000000E+00 -0.45593999997E+02  0.45594000000E+02  0.51100000000E-03 0. -1.
    9900012    2    1    2    0    0 -0.42949697422E+02  0.61111264958E+01  0.12653590286E+01  0.47787268334E+02  0.19999987641E+02 0.  0.
        -12    1    1    2    0    0  0.42949697422E+02 -0.61111264958E+01 -0.12653590286E+01  0.43400731666E+02  0.00000000000E+00 0.  1.
         11    1    3    3    0    0 -0.17809708796E+02  0.78515908939E+01  0.18472259005E+01  0.19551098454E+02  0.51100000000E-03 0. -1.
        -11    1    3    3    0    0 -0.10744610105E+02  0.55091975466E+01  0.47217815065E+00  0.12083908986E+02  0.51100000000E-03 0.  1.
        -12    1    3    3    0    0 -0.14395378521E+02 -0.72496619447E+01 -0.10540450225E+01  0.16152260894E+02  0.00000000000E+00 0.  1.
</event>
<event>
 7    1  0.2530788E-009  0.4778727E+02  0.7816164E-02  0.1312668E+00
        -11   -1    0    0    0    0  0.00000000000E+00  0.00000000000E+00  0.45593999997E+02  0.45594000000E+02  0.51100000000E-03 0. -1.
         11   -1    0    0    0    0 -0.00000000000E+00 -0.00000000000E+00 -0.45593999997E+02  0.45594000000E+02  0.51100000000E-03 0.  1.
    9900012    2    1    2    0    0 -0.35508301607E+02  0.21411325242E+02 -0.12819468761E+02  0.47787272921E+02  0.20000008556E+02 0.  0.
        -12    1    1    2    0    0  0.35508301607E+02 -0.21411325242E+02  0.12819468761E+02  0.43400727079E+02  0.00000000000E+00 0.  1.
         11    1    3    3    0    0 -0.16307436615E+02  0.15674830886E+02 -0.13153143497E+02  0.26165588019E+02  0.51100000000E-03 0. -1.
        -11    1    3    3    0    0 -0.33050806468E+01  0.75764463653E+00 -0.31226341335E+01  0.46096016824E+01  0.51100000000E-03 0.  1.
         12    1    3    3    0    0 -0.15895784345E+02  0.49788497198E+01  0.34563088691E+01  0.17012083220E+02  0.00000000000E+00 0. -1.
</event>
<event>
 7    1  0.2530788E-009  0.4778724E+02  0.7816164E-02  0.1312668E+00
        -11   -1    0    0    0    0  0.00000000000E+00  0.00000000000E+00  0.45593999997E+02  0.45594000000E+02  0.51100000000E-03 0.  1.
         11   -1    0    0    0    0 -0.00000000000E+00 -0.00000000000E+00 -0.45593999997E+02  0.45594000000E+02  0.51100000000E-03 0. -1.
    9900012    2    1    2    0    0 -0.10256232558E+02  0.16553941693E+02 -0.38786627959E+02  0.47787241939E+02  0.19999867298E+02 0.  0.
        -12    1    1    2    0    0  0.10256232558E+02 -0.16553941693E+02  0.38786627959E+02  0.43400758061E+02  0.00000000000E+00 0.  1.
         11    1    3    3    0    0 -0.23375305574E+01  0.10786086024E+02 -0.27296853239E+02  0.29443537454E+02  0.51100000000E-03 0. -1.
        -11    1    3    3    0    0 -0.65239460822E+01  0.11049594016E+01 -0.88548143249E+00  0.66758434217E+01  0.51100000000E-03 0.  1.
        -12    1    3    3    0    0 -0.13947559184E+01  0.46628962669E+01 -0.10604293287E+02  0.11667861063E+02  0.00000000000E+00 0.  1.
</event>
<event>
 7    1  0.2530788E-009  0.4778722E+02  0.7816164E-02  0.1312668E+00
        -11   -1    0    0    0    0  0.00000000000E+00  0.00000000000E+00  0.45593999997E+02  0.45594000000E+02  0.51100000000E-03 0. -1.
         11   -1    0    0    0    0 -0.00000000000E+00 -0.00000000000E+00 -0.45593999997E+02  0.45594000000E+02  0.51100000000E-03 0.  1.
    9900012    2    1    2    0    0 -0.40699927032E+02 -0.12226466235E+02 -0.88123097061E+01  0.47787224208E+02  0.19999786452E+02 0.  0.
        -12    1    1    2    0    0  0.40699927032E+02  0.12226466235E+02  0.88123097061E+01  0.43400775792E+02  0.00000000000E+00 0.  1.
         11    1    3    3    0    0 -0.16443065605E+02 -0.23546679888E+01 -0.82147545963E+01  0.18531083648E+02  0.51100000000E-03 0. -1.
        -11    1    3    3    0    0 -0.17822682086E+02 -0.36218644058E+01  0.47710019085E+01  0.18802349800E+02  0.51100000000E-03 0.  1.
        -12    1    3    3    0    0 -0.64341793414E+01 -0.62499338404E+01 -0.53685570184E+01  0.10453790761E+02  0.00000000000E+00 0.  1.
</event>
<event>
 7    1  0.2530788E-009  0.4778727E+02  0.7816164E-02  0.1312668E+00
        -11   -1    0    0    0    0  0.00000000000E+00  0.00000000000E+00  0.45593999997E+02  0.45594000000E+02  0.51100000000E-03 0.  1.
         11   -1    0    0    0    0 -0.00000000000E+00 -0.00000000000E+00 -0.45593999997E+02  0.45594000000E+02  0.51100000000E-03 0. -1.
    9900012    2    1    2    0    0  0.16449350054E+02 -0.13625244770E+02 -0.37780886019E+02  0.47787265437E+02  0.19999974435E+02 0.  0.
        -12    1    1    2    0    0 -0.16449350054E+02  0.13625244770E+02  0.37780886019E+02  0.43400734563E+02  0.00000000000E+00 0.  1.
         11    1    3    3    0    0  0.12237979528E+02 -0.24351491017E+01 -0.11855322208E+02  0.17211820328E+02  0.51100000000E-03 0. -1.
        -11    1    3    3    0    0  0.26871901849E+01 -0.11100986348E+02 -0.26567965543E+02  0.28919019388E+02  0.51100000000E-03 0.  1.
        -12    1    3    3    0    0  0.15241803415E+01 -0.89109319845E-01  0.64240173305E+00  0.16564257215E+01  0.00000000000E+00 0.  1.
</event>
<event>
 7    1  0.2530788E-009  0.4778727E+02  0.7816164E-02  0.1312668E+00
        -11   -1    0    0    0    0  0.00000000000E+00  0.00000000000E+00  0.45593999997E+02  0.45594000000E+02  0.51100000000E-03 0.  1.
         11   -1    0    0    0    0 -0.00000000000E+00 -0.00000000000E+00 -0.45593999997E+02  0.45594000000E+02  0.51100000000E-03 0. -1.
    9900012    2    1    2    0    0 -0.17529288692E+02  0.30039425991E+02 -0.25961126278E+02  0.47787272431E+02  0.20000006320E+02 0.  0.
        -12    1    1    2    0    0  0.17529288692E+02 -0.30039425991E+02  0.25961126278E+02  0.43400727569E+02  0.00000000000E+00 0.  1.
         11    1    3    3    0    0 -0.94972079403E+01  0.21223392714E+01 -0.27369325884E+01  0.10109009986E+02  0.51100000000E-03 0. -1.
        -11    1    3    3    0    0 -0.23514470891E+01  0.10635790922E+02 -0.12423392647E+02  0.16522410147E+02  0.51100000000E-03 0.  1.
         12    1    3    3    0    0 -0.56806336623E+01  0.17281295797E+02 -0.10800801043E+02  0.21155852297E+02  0.00000000000E+00 0. -1.
</event>
<event>
 7    1  0.2530788E-009  0.4778727E+02  0.7816164E-02  0.1312668E+00
        -11   -1    0    0    0    0  0.00000000000E+00  0.00000000000E+00  0.45593999997E+02  0.45594000000E+02  0.51100000000E-03 0. -1.
         11   -1    0    0    0    0 -0.00000000000E+00 -0.00000000000E+00 -0.45593999997E+02  0.45594000000E+02  0.51100000000E-03 0.  1.
    9900012    2    1    2    0    0  0.34315193124E+02 -0.26277221543E+02 -0.39494768120E+01  0.47787271685E+02  0.20000002922E+02 0.  0.
        -12    1    1    2    0    0 -0.34315193124E+02  0.26277221543E+02  0.39494768120E+01  0.43400728315E+02  0.00000000000E+00 0.  1.
         11    1    3    3    0    0  0.10367505199E+02 -0.83139751255E+01 -0.38486244506E+01  0.13835434828E+02  0.51100000000E-03 0. -1.
        -11    1    3    3    0    0  0.80365498869E+01 -0.14557061056E+02 -0.42436664559E+01  0.17161085803E+02  0.51100000000E-03 0.  1.
        -12    1    3    3    0    0  0.15911138038E+02 -0.34061853613E+01  0.41428140944E+01  0.16790751055E+02  0.00000000000E+00 0.  1.
</event>
<event>
 7    1  0.2530788E-009  0.4778728E+02  0.7816164E-02  0.1312668E+00
        -11   -1    0    0    0    0  0.00000000000E+00  0.00000000000E+00  0.45593999997E+02  0.45594000000E+02  0.51100000000E-03 0. -1.
         11   -1    0    0    0    0 -0.00000000000E+00 -0.00000000000E+00 -0.45593999997E+02  0.45594000000E+02  0.51100000000E-03 0.  1.
    9900012    2    1    2    0    0 -0.35262194879E+02 -0.25081112540E+02 -0.33374086921E+01  0.47787275459E+02  0.20000020126E+02 0.  0.
        -12    1    1    2    0    0  0.35262194879E+02  0.25081112540E+02  0.33374086921E+01  0.43400724541E+02  0.00000000000E+00 0.  1.
         11    1    3    3    0    0 -0.16854379252E+02 -0.18375032408E+02  0.41842341748E+00  0.24937662168E+02  0.51100000000E-03 0. -1.
        -11    1    3    3    0    0 -0.13002527648E+02 -0.27480692737E+01 -0.74124816809E+01  0.15217177626E+02  0.51100000000E-03 0.  1.
         12    1    3    3    0    0 -0.54052879785E+01 -0.39580108585E+01  0.36566495714E+01  0.76324356647E+01  0.00000000000E+00 0. -1.
</event>
<event>
 7    1  0.2530788E-009  0.4778727E+02  0.7816164E-02  0.1312668E+00
        -11   -1    0    0    0    0  0.00000000000E+00  0.00000000000E+00  0.45593999997E+02  0.45594000000E+02  0.51100000000E-03 0.  1.
         11   -1    0    0    0    0 -0.00000000000E+00 -0.00000000000E+00 -0.45593999997E+02  0.45594000000E+02  0.51100000000E-03 0. -1.
    9900012    2    1    2    0    0 -0.23255530464E+02 -0.93096641027E+01 -0.35441981106E+02  0.47787267661E+02  0.19999984573E+02 0.  0.
        -12    1    1    2    0    0  0.23255530464E+02  0.93096641027E+01  0.35441981106E+02  0.43400732339E+02  0.00000000000E+00 0.  1.
         11    1    3    3    0    0 -0.59372126541E+01  0.16791850828E+01 -0.44180800182E+00  0.61858993860E+01  0.51100000000E-03 0. -1.
        -11    1    3    3    0    0 -0.36902397282E+01 -0.38955413331E+01 -0.31068093564E+01  0.62004335467E+01  0.51100000000E-03 0.  1.
         12    1    3    3    0    0 -0.13628078082E+02 -0.70933078524E+01 -0.31893363748E+02  0.35400934728E+02  0.00000000000E+00 0. -1.
</event>
<event>
 7    1  0.2530788E-009  0.4778727E+02  0.7816164E-02  0.1312668E+00
        -11   -1    0    0    0    0  0.00000000000E+00  0.00000000000E+00  0.45593999997E+02  0.45594000000E+02  0.51100000000E-03 0.  1.
         11   -1    0    0    0    0 -0.00000000000E+00 -0.00000000000E+00 -0.45593999997E+02  0.45594000000E+02  0.51100000000E-03 0. -1.
    9900012    2    1    2    0    0  0.36861356690E+02 -0.22479472179E+02 -0.44200939324E+01  0.47787268245E+02  0.19999987238E+02 0.  0.
        -12    1    1    2    0    0 -0.36861356690E+02  0.22479472179E+02  0.44200939324E+01  0.43400731755E+02  0.00000000000E+00 0.  1.
         11    1    3    3    0    0  0.13456630022E+02 -0.15490790646E+02 -0.29902481879E+01  0.20736129601E+02  0.51100000000E-03 0. -1.
        -11    1    3    3    0    0  0.74858179926E+01 -0.16355570296E+01  0.49087890930E+01  0.90999301336E+01  0.51100000000E-03 0.  1.
         12    1    3    3    0    0  0.15918908676E+02 -0.53531245039E+01 -0.63386348376E+01  0.17951208510E+02  0.00000000000E+00 0. -1.
</event>
<event>
 7    1  0.2530788E-009  0.4778731E+02  0.7816164E-02  0.1312668E+00
        -11   -1    0    0    0    0  0.00000000000E+00  0.00000000000E+00  0.45593999997E+02  0.45594000000E+02  0.51100000000E-03 0.  1.
         11   -1    0    0    0    0 -0.00000000000E+00 -0.00000000000E+00 -0.45593999997E+02  0.45594000000E+02  0.51100000000E-03 0. -1.
    9900012    2    1    2    0    0 -0.39755994084E+02 -0.16105627904E+02  0.66098194849E+01  0.47787308422E+02  0.20000170419E+02 0.  0.
        -12    1    1    2    0    0  0.39755994084E+02  0.16105627904E+02 -0.66098194849E+01  0.43400691578E+02  0.00000000000E+00 0.  1.
         11    1    3    3    0    0 -0.35902353540E+02 -0.98772872533E+01  0.71082151308E+01  0.37908660169E+02  0.51100000000E-03 0. -1.
        -11    1    3    3    0    0  0.14276014482E+01 -0.37878938708E+01 -0.17065244420E+00  0.40515809740E+01  0.51100000000E-03 0.  1.
         12    1    3    3    0    0 -0.52812419923E+01 -0.24404467803E+01 -0.32774320177E+00  0.58270672790E+01  0.00000000000E+00 0. -1.
</event>
<event>
 7    1  0.2530788E-009  0.4778727E+02  0.7816164E-02  0.1312668E+00
        -11   -1    0    0    0    0  0.00000000000E+00  0.00000000000E+00  0.45593999997E+02  0.45594000000E+02  0.51100000000E-03 0.  1.
         11   -1    0    0    0    0 -0.00000000000E+00 -0.00000000000E+00 -0.45593999997E+02  0.45594000000E+02  0.51100000000E-03 0. -1.
    9900012    2    1    2    0    0 -0.32242431643E+02 -0.28907028818E+02 -0.29038616733E+01  0.47787272749E+02  0.20000007770E+02 0.  0.
        -12    1    1    2    0    0  0.32242431643E+02  0.28907028818E+02  0.29038616733E+01  0.43400727251E+02  0.00000000000E+00 0.  1.
         11    1    3    3    0    0 -0.46386930742E+01 -0.14682036630E+02  0.89198787475E+00  0.15423207049E+02  0.51100000000E-03 0. -1.
        -11    1    3    3    0    0 -0.26012015405E+02 -0.10646666763E+02 -0.42325339810E+01  0.28423419970E+02  0.51100000000E-03 0.  1.
        -12    1    3    3    0    0 -0.15917231635E+01 -0.35783254251E+01  0.43668443294E+00  0.39406457302E+01  0.00000000000E+00 0.  1.
</event>
<event>
 7    1  0.2530788E-009  0.4778728E+02  0.7816164E-02  0.1312668E+00
        -11   -1    0    0    0    0  0.00000000000E+00  0.00000000000E+00  0.45593999997E+02  0.45594000000E+02  0.51100000000E-03 0. -1.
         11   -1    0    0    0    0 -0.00000000000E+00 -0.00000000000E+00 -0.45593999997E+02  0.45594000000E+02  0.51100000000E-03 0.  1.
    9900012    2    1    2    0    0  0.15767024475E+02  0.20039588862E+02  0.35120344416E+02  0.47787276798E+02  0.20000026234E+02 0.  0.
        -12    1    1    2    0    0 -0.15767024475E+02 -0.20039588862E+02 -0.35120344416E+02  0.43400723202E+02  0.00000000000E+00 0.  1.
         11    1    3    3    0    0  0.12137354479E+02  0.67862883934E+01  0.86330167018E+01  0.16367591806E+02  0.51100000000E-03 0. -1.
        -11    1    3    3    0    0  0.24962996494E+00  0.12159222272E+02  0.24491201618E+02  0.27344614795E+02  0.51100000000E-03 0.  1.
        -12    1    3    3    0    0  0.33800400313E+01  0.10940781965E+01  0.19961260966E+01  0.40750701966E+01  0.00000000000E+00 0.  1.
</event>
<event>
 7    1  0.2530788E-009  0.4778727E+02  0.7816164E-02  0.1312668E+00
        -11   -1    0    0    0    0  0.00000000000E+00  0.00000000000E+00  0.45593999997E+02  0.45594000000E+02  0.51100000000E-03 0. -1.
         11   -1    0    0    0    0 -0.00000000000E+00 -0.00000000000E+00 -0.45593999997E+02  0.45594000000E+02  0.51100000000E-03 0.  1.
    9900012    2    1    2    0    0 -0.19691160686E+02 -0.38550338982E+02  0.31229449662E+01  0.47787271549E+02  0.20000002302E+02 0.  0.
        -12    1    1    2    0    0  0.19691160686E+02  0.38550338982E+02 -0.31229449662E+01  0.43400728451E+02  0.00000000000E+00 0.  1.
         11    1    3    3    0    0 -0.10952182318E+02 -0.16416410977E+02  0.10504453594E+02  0.22356037047E+02  0.51100000000E-03 0. -1.
        -11    1    3    3    0    0 -0.38638062919E+01 -0.13041644495E+02 -0.65044901407E+01  0.15077197433E+02  0.51100000000E-03 0.  1.
         12    1    3    3    0    0 -0.48751720760E+01 -0.90922835109E+01 -0.87701848665E+00  0.10354037070E+02  0.00000000000E+00 0. -1.
</event>
<event>
 7    1  0.2530788E-009  0.4778727E+02  0.7816164E-02  0.1312668E+00
        -11   -1    0    0    0    0  0.00000000000E+00  0.00000000000E+00  0.45593999997E+02  0.45594000000E+02  0.51100000000E-03 0.  1.
         11   -1    0    0    0    0 -0.00000000000E+00 -0.00000000000E+00 -0.45593999997E+02  0.45594000000E+02  0.51100000000E-03 0. -1.
    9900012    2    1    2    0    0 -0.13236235518E+01 -0.41248549173E+02  0.13432378741E+02  0.47787267439E+02  0.19999983560E+02 0.  0.
        -12    1    1    2    0    0  0.13236235518E+01  0.41248549173E+02 -0.13432378741E+02  0.43400732561E+02  0.00000000000E+00 0.  1.
         11    1    3    3    0    0  0.12137745965E-01 -0.21102345486E+02  0.70576542135E+00  0.21114147802E+02  0.51100000000E-03 0. -1.
        -11    1    3    3    0    0 -0.20106163858E+01 -0.30390496326E+01  0.81865439914E+01  0.89609097588E+01  0.51100000000E-03 0.  1.
        -12    1    3    3    0    0  0.67485508803E+00 -0.17107154055E+02  0.45400693281E+01  0.17712209878E+02  0.00000000000E+00 0.  1.
</event>
<event>
 7    1  0.2530788E-009  0.4778727E+02  0.7816164E-02  0.1312668E+00
        -11   -1    0    0    0    0  0.00000000000E+00  0.00000000000E+00  0.45593999997E+02  0.45594000000E+02  0.51100000000E-03 0.  1.
         11   -1    0    0    0    0 -0.00000000000E+00 -0.00000000000E+00 -0.45593999997E+02  0.45594000000E+02  0.51100000000E-03 0. -1.
    9900012    2    1    2    0    0 -0.17586279107E+02  0.20469607366E+02 -0.33990307486E+02  0.47787273722E+02  0.20000012206E+02 0.  0.
        -12    1    1    2    0    0  0.17586279107E+02 -0.20469607366E+02  0.33990307486E+02  0.43400726278E+02  0.00000000000E+00 0.  1.
         11    1    3    3    0    0  0.12551334223E+01  0.39931585618E+01 -0.28412636888E+00  0.41954026341E+01  0.51100000000E-03 0.  1.
        -11    1    3    3    0    0 -0.18660223167E+02  0.12434371193E+02 -0.32275075004E+02  0.39300101557E+02  0.51100000000E-03 0. -1.
        -12    1    3    3    0    0 -0.18118936211E+00  0.40420776109E+01 -0.14311061125E+01  0.42917695305E+01  0.00000000000E+00 0.  1.
</event>
<event>
 7    1  0.2530788E-009  0.4778727E+02  0.7816164E-02  0.1312668E+00
        -11   -1    0    0    0    0  0.00000000000E+00  0.00000000000E+00  0.45593999997E+02  0.45594000000E+02  0.51100000000E-03 0.  1.
         11   -1    0    0    0    0 -0.00000000000E+00 -0.00000000000E+00 -0.45593999997E+02  0.45594000000E+02  0.51100000000E-03 0. -1.
    9900012    2    1    2    0    0  0.13423860176E+02 -0.31439832888E+02 -0.26738734509E+02  0.47787273771E+02  0.20000012432E+02 0.  0.
        -12    1    1    2    0    0 -0.13423860176E+02  0.31439832888E+02  0.26738734509E+02  0.43400726229E+02  0.00000000000E+00 0.  1.
         11    1    3    3    0    0  0.13918819956E+02 -0.31613788464E+02 -0.22456374721E+02  0.41200169125E+02  0.51100000000E-03 0. -1.
        -11    1    3    3    0    0 -0.21498967290E+01  0.11525473193E+01 -0.39403496197E+01  0.46343043334E+01  0.51100000000E-03 0.  1.
        -12    1    3    3    0    0  0.16549369495E+01 -0.97859174372E+00 -0.34201016756E+00  0.19528003130E+01  0.00000000000E+00 0.  1.
</event>
<event>
 7    1  0.2530788E-009  0.4778727E+02  0.7816164E-02  0.1312668E+00
        -11   -1    0    0    0    0  0.00000000000E+00  0.00000000000E+00  0.45593999997E+02  0.45594000000E+02  0.51100000000E-03 0.  1.
         11   -1    0    0    0    0 -0.00000000000E+00 -0.00000000000E+00 -0.45593999997E+02  0.45594000000E+02  0.51100000000E-03 0. -1.
    9900012    2    1    2    0    0 -0.42844503087E+02 -0.45235361937E+01 -0.52449733421E+01  0.47787267635E+02  0.19999984456E+02 0.  0.
        -12    1    1    2    0    0  0.42844503087E+02  0.45235361937E+01  0.52449733421E+01  0.43400732365E+02  0.00000000000E+00 0.  1.
         11    1    3    3    0    0 -0.40766890527E+02 -0.45166270057E+00 -0.51698865508E+01  0.41095876796E+02  0.51100000000E-03 0. -1.
        -11    1    3    3    0    0 -0.11603106953E+01 -0.39342325008E+01 -0.19934679335E+01  0.45605285815E+01  0.51100000000E-03 0.  1.
        -12    1    3    3    0    0 -0.91730186404E+00 -0.13764099237E+00  0.19183811422E+01  0.21308622573E+01  0.00000000000E+00 0.  1.
</event>
<event>
 7    1  0.2530788E-009  0.4778727E+02  0.7816164E-02  0.1312668E+00
        -11   -1    0    0    0    0  0.00000000000E+00  0.00000000000E+00  0.45593999997E+02  0.45594000000E+02  0.51100000000E-03 0.  1.
         11   -1    0    0    0    0 -0.00000000000E+00 -0.00000000000E+00 -0.45593999997E+02  0.45594000000E+02  0.51100000000E-03 0. -1.
    9900012    2    1    2    0    0 -0.62755580942E+01  0.23239488081E+02 -0.36113247929E+02  0.47787272914E+02  0.20000008523E+02 0.  0.
        -12    1    1    2    0    0  0.62755580942E+01 -0.23239488081E+02  0.36113247929E+02  0.43400727086E+02  0.00000000000E+00 0.  1.
         11    1    3    3    0    0 -0.26060602907E+01  0.17064750352E+02 -0.30034698715E+02  0.34642176346E+02  0.51100000000E-03 0. -1.
        -11    1    3    3    0    0  0.88534567311E+00  0.55383655132E+01 -0.10947448006E+00  0.56097517273E+01  0.51100000000E-03 0.  1.
        -12    1    3    3    0    0 -0.45548434766E+01  0.63637221609E+00 -0.59690747338E+01  0.75353448409E+01  0.00000000000E+00 0.  1.
</event>
<event>
 7    1  0.2530788E-009  0.4778726E+02  0.7816164E-02  0.1312668E+00
        -11   -1    0    0    0    0  0.00000000000E+00  0.00000000000E+00  0.45593999997E+02  0.45594000000E+02  0.51100000000E-03 0.  1.
         11   -1    0    0    0    0 -0.00000000000E+00 -0.00000000000E+00 -0.45593999997E+02  0.45594000000E+02  0.51100000000E-03 0. -1.
    9900012    2    1    2    0    0 -0.41983547021E+02  0.99909819294E+01  0.46029023931E+01  0.47787255181E+02  0.19999927673E+02 0.  0.
        -12    1    1    2    0    0  0.41983547021E+02 -0.99909819294E+01 -0.46029023931E+01  0.43400744819E+02  0.00000000000E+00 0.  1.
         11    1    3    3    0    0 -0.89863313182E+01  0.28243587164E+01 -0.99612665026E+00  0.94722447859E+01  0.51100000000E-03 0. -1.
        -11    1    3    3    0    0 -0.14569370525E+02  0.10267241585E+02 -0.24067744832E+01  0.17985421066E+02  0.51100000000E-03 0.  1.
        -12    1    3    3    0    0 -0.18427845178E+02 -0.31006183717E+01  0.80058035266E+01  0.20329589329E+02  0.00000000000E+00 0.  1.
</event>
<event>
 7    1  0.2530788E-009  0.4778727E+02  0.7816164E-02  0.1312668E+00
        -11   -1    0    0    0    0  0.00000000000E+00  0.00000000000E+00  0.45593999997E+02  0.45594000000E+02  0.51100000000E-03 0.  1.
         11   -1    0    0    0    0 -0.00000000000E+00 -0.00000000000E+00 -0.45593999997E+02  0.45594000000E+02  0.51100000000E-03 0. -1.
    9900012    2    1    2    0    0  0.53539541443E+01 -0.25636620636E+02 -0.34608123184E+02  0.47787270364E+02  0.19999996898E+02 0.  0.
        -12    1    1    2    0    0 -0.53539541443E+01  0.25636620636E+02  0.34608123184E+02  0.43400729636E+02  0.00000000000E+00 0.  1.
         11    1    3    3    0    0 -0.41280844120E+00 -0.48499737923E+01 -0.74598331585E+01  0.89073995986E+01  0.51100000000E-03 0. -1.
        -11    1    3    3    0    0  0.11341679137E+02 -0.11404183257E+02 -0.20662029250E+02  0.26184127528E+02  0.51100000000E-03 0.  1.
        -12    1    3    3    0    0 -0.55749165512E+01 -0.93824635872E+01 -0.64862607748E+01  0.12695743238E+02  0.00000000000E+00 0.  1.
</event>
<event>
 7    1  0.2530788E-009  0.4778727E+02  0.7816164E-02  0.1312668E+00
        -11   -1    0    0    0    0  0.00000000000E+00  0.00000000000E+00  0.45593999997E+02  0.45594000000E+02  0.51100000000E-03 0.  1.
         11   -1    0    0    0    0 -0.00000000000E+00 -0.00000000000E+00 -0.45593999997E+02  0.45594000000E+02  0.51100000000E-03 0. -1.
    9900012    2    1    2    0    0  0.20382665691E+02 -0.29956131212E+02 -0.23891424600E+02  0.47787273886E+02  0.20000012954E+02 0.  0.
        -12    1    1    2    0    0 -0.20382665691E+02  0.29956131212E+02  0.23891424600E+02  0.43400726114E+02  0.00000000000E+00 0.  1.
         11    1    3    3    0    0  0.95163443942E+01 -0.13171757058E+02 -0.17255801277E+02  0.23702714456E+02  0.51100000000E-03 0. -1.
        -11    1    3    3    0    0  0.55087570293E+01 -0.58255986266E+01  0.29783903777E+01  0.85530586850E+01  0.51100000000E-03 0.  1.
        -12    1    3    3    0    0  0.53575642675E+01 -0.10958775528E+02 -0.96140137004E+01  0.15531500745E+02  0.00000000000E+00 0.  1.
</event>
<event>
 7    1  0.2530788E-009  0.4778727E+02  0.7816164E-02  0.1312668E+00
        -11   -1    0    0    0    0  0.00000000000E+00  0.00000000000E+00  0.45593999997E+02  0.45594000000E+02  0.51100000000E-03 0.  1.
         11   -1    0    0    0    0 -0.00000000000E+00 -0.00000000000E+00 -0.45593999997E+02  0.45594000000E+02  0.51100000000E-03 0. -1.
    9900012    2    1    2    0    0  0.31097855227E+02  0.14725184754E+02 -0.26452135922E+02  0.47787272349E+02  0.20000005949E+02 0.  0.
        -12    1    1    2    0    0 -0.31097855227E+02 -0.14725184754E+02  0.26452135922E+02  0.43400727651E+02  0.00000000000E+00 0.  1.
         11    1    3    3    0    0  0.16546704904E+02  0.56382730142E+01 -0.12447152348E+02  0.21459617135E+02  0.51100000000E-03 0. -1.
        -11    1    3    3    0    0  0.45361556947E+01 -0.20610921015E+01  0.10429758687E+01  0.50904428158E+01  0.51100000000E-03 0.  1.
        -12    1    3    3    0    0  0.10014994629E+02  0.11148003842E+02 -0.15047959442E+02  0.21237212398E+02  0.00000000000E+00 0.  1.
</event>
<event>
 7    1  0.2530788E-009  0.4778725E+02  0.7816164E-02  0.1312668E+00
        -11   -1    0    0    0    0  0.00000000000E+00  0.00000000000E+00  0.45593999997E+02  0.45594000000E+02  0.51100000000E-03 0.  1.
         11   -1    0    0    0    0 -0.00000000000E+00 -0.00000000000E+00 -0.45593999997E+02  0.45594000000E+02  0.51100000000E-03 0. -1.
    9900012    2    1    2    0    0 -0.32576832679E+02  0.22860526591E+02 -0.17313895607E+02  0.47787254793E+02  0.19999925903E+02 0.  0.
        -12    1    1    2    0    0  0.32576832679E+02 -0.22860526591E+02  0.17313895607E+02  0.43400745207E+02  0.00000000000E+00 0.  1.
         11    1    3    3    0    0 -0.87411101410E+01  0.82869513028E+01 -0.69996478721E+01  0.13931103294E+02  0.51100000000E-03 0. -1.
        -11    1    3    3    0    0 -0.54808067769E-01 -0.20940133685E+00 -0.54273795737E+01  0.54316942239E+01  0.51100000000E-03 0.  1.
        -12    1    3    3    0    0 -0.23780914470E+02  0.14782976625E+02 -0.48868681612E+01  0.28424457275E+02  0.00000000000E+00 0.  1.
</event>
<event>
 7    1  0.2530788E-009  0.4778727E+02  0.7816164E-02  0.1312668E+00
        -11   -1    0    0    0    0  0.00000000000E+00  0.00000000000E+00  0.45593999997E+02  0.45594000000E+02  0.51100000000E-03 0.  1.
         11   -1    0    0    0    0 -0.00000000000E+00 -0.00000000000E+00 -0.45593999997E+02  0.45594000000E+02  0.51100000000E-03 0. -1.
    9900012    2    1    2    0    0 -0.26491907179E+01  0.43319657284E+02  0.11152909131E+00  0.47787270083E+02  0.19999995615E+02 0.  0.
        -12    1    1    2    0    0  0.26491907179E+01 -0.43319657284E+02 -0.11152909131E+00  0.43400729917E+02  0.00000000000E+00 0.  1.
         11    1    3    3    0    0  0.98574096873E+00  0.28452711137E+02  0.34952130162E+01  0.28683531348E+02  0.51100000000E-03 0. -1.
        -11    1    3    3    0    0 -0.15338718478E+01 -0.15341996715E+01  0.21950149284E+00  0.21805303584E+01  0.51100000000E-03 0.  1.
        -12    1    3    3    0    0 -0.21010598389E+01  0.16401145818E+02 -0.36031854177E+01  0.16923208376E+02  0.00000000000E+00 0.  1.
</event>
<event>
 7    1  0.2530788E-009  0.4778727E+02  0.7816164E-02  0.1312668E+00
        -11   -1    0    0    0    0  0.00000000000E+00  0.00000000000E+00  0.45593999997E+02  0.45594000000E+02  0.51100000000E-03 0.  1.
         11   -1    0    0    0    0 -0.00000000000E+00 -0.00000000000E+00 -0.45593999997E+02  0.45594000000E+02  0.51100000000E-03 0. -1.
    9900012    2    1    2    0    0  0.42815598002E+02  0.21108476177E+00 -0.70995401617E+01  0.47787268905E+02  0.19999990246E+02 0.  0.
        -12    1    1    2    0    0 -0.42815598002E+02 -0.21108476177E+00  0.70995401617E+01  0.43400731095E+02  0.00000000000E+00 0.  1.
         11    1    3    3    0    0  0.15498678658E+02 -0.58359342264E+01 -0.59003858046E+01  0.17580720160E+02  0.51100000000E-03 0. -1.
        -11    1    3    3    0    0  0.57598316275E+01 -0.33516528391E+01 -0.12632501164E+00  0.66652228321E+01  0.51100000000E-03 0.  1.
         12    1    3    3    0    0  0.21557087717E+02  0.93986718272E+01 -0.10728293455E+01  0.23541325913E+02  0.00000000000E+00 0. -1.
</event>
<event>
 7    1  0.2530788E-009  0.4778727E+02  0.7816164E-02  0.1312668E+00
        -11   -1    0    0    0    0  0.00000000000E+00  0.00000000000E+00  0.45593999997E+02  0.45594000000E+02  0.51100000000E-03 0. -1.
         11   -1    0    0    0    0 -0.00000000000E+00 -0.00000000000E+00 -0.45593999997E+02  0.45594000000E+02  0.51100000000E-03 0.  1.
    9900012    2    1    2    0    0 -0.24125328215E+02  0.16978705709E+02  0.31832620964E+02  0.47787266521E+02  0.19999979377E+02 0.  0.
        -12    1    1    2    0    0  0.24125328215E+02 -0.16978705709E+02 -0.31832620964E+02  0.43400733479E+02  0.00000000000E+00 0.  1.
         11    1    3    3    0    0 -0.11395704944E+02  0.50951083709E+01  0.11747539196E+02  0.17141379696E+02  0.51100000000E-03 0. -1.
        -11    1    3    3    0    0  0.17714780197E+01  0.78196480814E+01  0.81216610733E+01  0.11412554900E+02  0.51100000000E-03 0.  1.
        -12    1    3    3    0    0 -0.14501101291E+02  0.40639492566E+01  0.11963420695E+02  0.19233331925E+02  0.00000000000E+00 0.  1.
</event>
<event>
 7    1  0.2530788E-009  0.4778726E+02  0.7816164E-02  0.1312668E+00
        -11   -1    0    0    0    0  0.00000000000E+00  0.00000000000E+00  0.45593999997E+02  0.45594000000E+02  0.51100000000E-03 0.  1.
         11   -1    0    0    0    0 -0.00000000000E+00 -0.00000000000E+00 -0.45593999997E+02  0.45594000000E+02  0.51100000000E-03 0. -1.
    9900012    2    1    2    0    0  0.10079781330E+02  0.19004377618E+01 -0.42171202364E+02  0.47787263091E+02  0.19999963739E+02 0.  0.
        -12    1    1    2    0    0 -0.10079781330E+02 -0.19004377618E+01  0.42171202364E+02  0.43400736909E+02  0.00000000000E+00 0.  1.
         11    1    3    3    0    0  0.13359083704E+02  0.44114987025E+01 -0.39629432139E+02  0.42052566273E+02  0.51100000000E-03 0. -1.
        -11    1    3    3    0    0 -0.22443588690E+01 -0.29832216371E+01 -0.10875105443E+01  0.38883720904E+01  0.51100000000E-03 0.  1.
         12    1    3    3    0    0 -0.10349435051E+01  0.47216069636E+00 -0.14542596813E+01  0.18463247284E+01  0.00000000000E+00 0. -1.
</event>
<event>
 7    1  0.2530788E-009  0.4778727E+02  0.7816164E-02  0.1312668E+00
        -11   -1    0    0    0    0  0.00000000000E+00  0.00000000000E+00  0.45593999997E+02  0.45594000000E+02  0.51100000000E-03 0.  1.
         11   -1    0    0    0    0 -0.00000000000E+00 -0.00000000000E+00 -0.45593999997E+02  0.45594000000E+02  0.51100000000E-03 0. -1.
    9900012    2    1    2    0    0  0.19601383624E+02 -0.96633658327E+01 -0.37497047268E+02  0.47787269211E+02  0.19999991640E+02 0.  0.
        -12    1    1    2    0    0 -0.19601383624E+02  0.96633658327E+01  0.37497047268E+02  0.43400730789E+02  0.00000000000E+00 0.  1.
         11    1    3    3    0    0  0.45349189344E+01 -0.10039857871E+02 -0.23911965857E+02  0.26327672651E+02  0.51100000000E-03 0. -1.
        -11    1    3    3    0    0 -0.15492237460E+00  0.75602037648E+00 -0.25254174884E+01  0.26407009493E+01  0.51100000000E-03 0.  1.
         12    1    3    3    0    0  0.15221387064E+02 -0.37952833829E+00 -0.11059663923E+02  0.18818895610E+02  0.00000000000E+00 0. -1.
</event>
<event>
 7    1  0.2530788E-009  0.4778727E+02  0.7816164E-02  0.1312668E+00
        -11   -1    0    0    0    0  0.00000000000E+00  0.00000000000E+00  0.45593999997E+02  0.45594000000E+02  0.51100000000E-03 0.  1.
         11   -1    0    0    0    0 -0.00000000000E+00 -0.00000000000E+00 -0.45593999997E+02  0.45594000000E+02  0.51100000000E-03 0. -1.
    9900012    2    1    2    0    0 -0.12747075853E+02  0.18597957939E+02 -0.37084381023E+02  0.47787270765E+02  0.19999998726E+02 0.  0.
        -12    1    1    2    0    0  0.12747075853E+02 -0.18597957939E+02  0.37084381023E+02  0.43400729235E+02  0.00000000000E+00 0.  1.
         11    1    3    3    0    0 -0.11449773507E+02  0.74899382529E+01 -0.14150543609E+02  0.19683352689E+02  0.51100000000E-03 0. -1.
        -11    1    3    3    0    0  0.52410360028E+01  0.45897563635E+01 -0.10906622849E+02  0.12941744245E+02  0.51100000000E-03 0.  1.
        -12    1    3    3    0    0 -0.65383383485E+01  0.65182633222E+01 -0.12027214564E+02  0.15162173831E+02  0.00000000000E+00 0.  1.
</event>
<event>
 7    1  0.2530788E-009  0.4778728E+02  0.7816164E-02  0.1312668E+00
        -11   -1    0    0    0    0  0.00000000000E+00  0.00000000000E+00  0.45593999997E+02  0.45594000000E+02  0.51100000000E-03 0. -1.
         11   -1    0    0    0    0 -0.00000000000E+00 -0.00000000000E+00 -0.45593999997E+02  0.45594000000E+02  0.51100000000E-03 0.  1.
    9900012    2    1    2    0    0  0.33979811292E+02  0.23037707033E+02  0.14080443027E+02  0.47787281151E+02  0.20000046079E+02 0.  0.
        -12    1    1    2    0    0 -0.33979811292E+02 -0.23037707033E+02 -0.14080443027E+02  0.43400718849E+02  0.00000000000E+00 0.  1.
         11    1    3    3    0    0  0.12877433283E+02  0.14099460275E+02  0.51372714569E+01  0.19774089771E+02  0.51100000000E-03 0. -1.
        -11    1    3    3    0    0  0.16301699511E+02  0.95010327323E+00  0.21279130222E+01  0.16467425946E+02  0.51100000000E-03 0.  1.
        -12    1    3    3    0    0  0.48006784979E+01  0.79881434846E+01  0.68152585484E+01  0.11545765434E+02  0.00000000000E+00 0.  1.
</event>
<event>
 7    1  0.2530788E-009  0.4778727E+02  0.7816164E-02  0.1312668E+00
        -11   -1    0    0    0    0  0.00000000000E+00  0.00000000000E+00  0.45593999997E+02  0.45594000000E+02  0.51100000000E-03 0. -1.
         11   -1    0    0    0    0 -0.00000000000E+00 -0.00000000000E+00 -0.45593999997E+02  0.45594000000E+02  0.51100000000E-03 0.  1.
    9900012    2    1    2    0    0  0.21826170922E+02 -0.90087284933E+01  0.36415439459E+02  0.47787272389E+02  0.20000006131E+02 0.  0.
        -12    1    1    2    0    0 -0.21826170922E+02  0.90087284933E+01 -0.36415439459E+02  0.43400727611E+02  0.00000000000E+00 0.  1.
         11    1    3    3    0    0  0.62047635999E+01 -0.44096064913E+01  0.20343229473E+02  0.21720743689E+02  0.51100000000E-03 0. -1.
        -11    1    3    3    0    0  0.35494080595E+01  0.46681919965E+00  0.11744346696E+02  0.12277862082E+02  0.51100000000E-03 0.  1.
         12    1    3    3    0    0  0.12071999262E+02 -0.50659412016E+01  0.43278632899E+01  0.13788666618E+02  0.00000000000E+00 0. -1.
</event>
<event>
 7    1  0.2530788E-009  0.4778728E+02  0.7816164E-02  0.1312668E+00
        -11   -1    0    0    0    0  0.00000000000E+00  0.00000000000E+00  0.45593999997E+02  0.45594000000E+02  0.51100000000E-03 0.  1.
         11   -1    0    0    0    0 -0.00000000000E+00 -0.00000000000E+00 -0.45593999997E+02  0.45594000000E+02  0.51100000000E-03 0. -1.
    9900012    2    1    2    0    0  0.40456712392E+02  0.98392529652E+01  0.12250139572E+02  0.47787281158E+02  0.20000046112E+02 0.  0.
        -12    1    1    2    0    0 -0.40456712392E+02 -0.98392529652E+01 -0.12250139572E+02  0.43400718842E+02  0.00000000000E+00 0.  1.
         11    1    3    3    0    0  0.22546188774E+02  0.35461140638E+01  0.61921396743E+01  0.23648428006E+02  0.51100000000E-03 0. -1.
        -11    1    3    3    0    0  0.47483971909E+01  0.81954740069E+01  0.52169377899E+01  0.10813394945E+02  0.51100000000E-03 0.  1.
        -12    1    3    3    0    0  0.13162126427E+02 -0.19023351055E+01  0.84106210776E+00  0.13325458206E+02  0.00000000000E+00 0.  1.
</event>
<event>
 7    1  0.2530788E-009  0.4778727E+02  0.7816164E-02  0.1312668E+00
        -11   -1    0    0    0    0  0.00000000000E+00  0.00000000000E+00  0.45593999997E+02  0.45594000000E+02  0.51100000000E-03 0.  1.
         11   -1    0    0    0    0 -0.00000000000E+00 -0.00000000000E+00 -0.45593999997E+02  0.45594000000E+02  0.51100000000E-03 0. -1.
    9900012    2    1    2    0    0 -0.12266622955E+02 -0.13372664325E+02 -0.39424930952E+02  0.47787269932E+02  0.19999994929E+02 0.  0.
        -12    1    1    2    0    0  0.12266622955E+02  0.13372664325E+02  0.39424930952E+02  0.43400730068E+02  0.00000000000E+00 0.  1.
         11    1    3    3    0    0 -0.89375352332E+00 -0.49273821148E+01 -0.10862232247E+01  0.51242337008E+01  0.51100000000E-03 0.  1.
        -11    1    3    3    0    0 -0.11735528852E+02 -0.56525229090E+01 -0.37540096936E+02  0.39735784010E+02  0.51100000000E-03 0. -1.
         12    1    3    3    0    0  0.36265941990E+00 -0.27927593014E+01 -0.79861079060E+00  0.29272522210E+01  0.00000000000E+00 0. -1.
</event>
<event>
 7    1  0.2530788E-009  0.4778727E+02  0.7816164E-02  0.1312668E+00
        -11   -1    0    0    0    0  0.00000000000E+00  0.00000000000E+00  0.45593999997E+02  0.45594000000E+02  0.51100000000E-03 0. -1.
         11   -1    0    0    0    0 -0.00000000000E+00 -0.00000000000E+00 -0.45593999997E+02  0.45594000000E+02  0.51100000000E-03 0.  1.
    9900012    2    1    2    0    0  0.35296017104E+02 -0.25248937012E+02  0.55281702776E+00  0.47787271316E+02  0.20000001237E+02 0.  0.
        -12    1    1    2    0    0 -0.35296017104E+02  0.25248937012E+02 -0.55281702776E+00  0.43400728684E+02  0.00000000000E+00 0.  1.
         11    1    3    3    0    0  0.36454264968E+01 -0.55649696630E+01 -0.59877650232E+01  0.89504945074E+01  0.51100000000E-03 0.  1.
        -11    1    3    3    0    0  0.14534946063E+02 -0.13857920488E+02  0.49719397881E+01  0.20688808637E+02  0.51100000000E-03 0. -1.
        -12    1    3    3    0    0  0.17115644544E+02 -0.58260468614E+01  0.15686422628E+01  0.18147968171E+02  0.00000000000E+00 0.  1.
</event>
<event>
 7    1  0.2530788E-009  0.4778727E+02  0.7816164E-02  0.1312668E+00
        -11   -1    0    0    0    0  0.00000000000E+00  0.00000000000E+00  0.45593999997E+02  0.45594000000E+02  0.51100000000E-03 0.  1.
         11   -1    0    0    0    0 -0.00000000000E+00 -0.00000000000E+00 -0.45593999997E+02  0.45594000000E+02  0.51100000000E-03 0. -1.
    9900012    2    1    2    0    0  0.28076302278E+02  0.84396024382E+01 -0.32001837532E+02  0.47787271385E+02  0.20000001554E+02 0.  0.
        -12    1    1    2    0    0 -0.28076302278E+02 -0.84396024382E+01  0.32001837532E+02  0.43400728615E+02  0.00000000000E+00 0.  1.
         11    1    3    3    0    0  0.10614426026E+02  0.46107392263E+01 -0.18237600577E+02  0.21599422010E+02  0.51100000000E-03 0. -1.
        -11    1    3    3    0    0  0.70185710525E+01 -0.26016316244E+01  0.34519856484E+00  0.74931961831E+01  0.51100000000E-03 0.  1.
        -12    1    3    3    0    0  0.10443305199E+02  0.64304948362E+01 -0.14109435519E+02  0.18694653193E+02  0.00000000000E+00 0.  1.
</event>
<event>
 7    1  0.2530788E-009  0.4778727E+02  0.7816164E-02  0.1312668E+00
        -11   -1    0    0    0    0  0.00000000000E+00  0.00000000000E+00  0.45593999997E+02  0.45594000000E+02  0.51100000000E-03 0.  1.
         11   -1    0    0    0    0 -0.00000000000E+00 -0.00000000000E+00 -0.45593999997E+02  0.45594000000E+02  0.51100000000E-03 0. -1.
    9900012    2    1    2    0    0 -0.14734183136E+02  0.27752419865E+02 -0.29938775704E+02  0.47787271300E+02  0.20000001163E+02 0.  0.
        -12    1    1    2    0    0  0.14734183136E+02 -0.27752419865E+02  0.29938775704E+02  0.43400728700E+02  0.00000000000E+00 0.  1.
         11    1    3    3    0    0 -0.68557455792E+01  0.26034157359E+02 -0.20987890901E+02  0.34136053691E+02  0.51100000000E-03 0. -1.
        -11    1    3    3    0    0 -0.73390589887E+01 -0.81473684983E+00 -0.49659372894E+01  0.88986581234E+01  0.51100000000E-03 0.  1.
        -12    1    3    3    0    0 -0.53937856802E+00  0.25329993564E+01 -0.39849475133E+01  0.47525594855E+01  0.00000000000E+00 0.  1.
</event>
<event>
 7    1  0.2530788E-009  0.4778727E+02  0.7816164E-02  0.1312668E+00
        -11   -1    0    0    0    0  0.00000000000E+00  0.00000000000E+00  0.45593999997E+02  0.45594000000E+02  0.51100000000E-03 0.  1.
         11   -1    0    0    0    0 -0.00000000000E+00 -0.00000000000E+00 -0.45593999997E+02  0.45594000000E+02  0.51100000000E-03 0. -1.
    9900012    2    1    2    0    0 -0.13140213093E+02 -0.39256089237E+02 -0.13035257366E+02  0.47787266401E+02  0.19999978831E+02 0.  0.
        -12    1    1    2    0    0  0.13140213093E+02  0.39256089237E+02  0.13035257366E+02  0.43400733599E+02  0.00000000000E+00 0.  1.
         11    1    3    3    0    0 -0.99883262340E+00 -0.24399411834E+02 -0.43001715295E+01  0.24795572990E+02  0.51100000000E-03 0. -1.
        -11    1    3    3    0    0 -0.41538928713E+01  0.51342849527E-01 -0.30321569504E+01  0.51430961596E+01  0.51100000000E-03 0.  1.
         12    1    3    3    0    0 -0.79874875982E+01 -0.14908020252E+02 -0.57029288862E+01  0.17848597251E+02  0.00000000000E+00 0. -1.
</event>
<event>
 7    1  0.2530788E-009  0.4778727E+02  0.7816164E-02  0.1312668E+00
        -11   -1    0    0    0    0  0.00000000000E+00  0.00000000000E+00  0.45593999997E+02  0.45594000000E+02  0.51100000000E-03 0.  1.
         11   -1    0    0    0    0 -0.00000000000E+00 -0.00000000000E+00 -0.45593999997E+02  0.45594000000E+02  0.51100000000E-03 0. -1.
    9900012    2    1    2    0    0 -0.26428565611E+02 -0.34136052506E+02 -0.44591630185E+01  0.47787270792E+02  0.19999998850E+02 0.  0.
        -12    1    1    2    0    0  0.26428565611E+02  0.34136052506E+02  0.44591630185E+01  0.43400729208E+02  0.00000000000E+00 0.  1.
         11    1    3    3    0    0 -0.18391454195E+02 -0.27759153794E+02  0.43393272757E+01  0.33580440263E+02  0.51100000000E-03 0. -1.
        -11    1    3    3    0    0 -0.29212202186E+01 -0.19543857689E+01 -0.58606792854E+01  0.68337920107E+01  0.51100000000E-03 0.  1.
         12    1    3    3    0    0 -0.51158911978E+01 -0.44225129428E+01 -0.29378110088E+01  0.73730385188E+01  0.00000000000E+00 0. -1.
</event>
<event>
 7    1  0.2530788E-009  0.4778727E+02  0.7816164E-02  0.1312668E+00
        -11   -1    0    0    0    0  0.00000000000E+00  0.00000000000E+00  0.45593999997E+02  0.45594000000E+02  0.51100000000E-03 0.  1.
         11   -1    0    0    0    0 -0.00000000000E+00 -0.00000000000E+00 -0.45593999997E+02  0.45594000000E+02  0.51100000000E-03 0. -1.
    9900012    2    1    2    0    0 -0.27829075486E+02  0.14407359206E+02 -0.30026549298E+02  0.47787272996E+02  0.20000008899E+02 0.  0.
        -12    1    1    2    0    0  0.27829075486E+02 -0.14407359206E+02  0.30026549298E+02  0.43400727004E+02  0.00000000000E+00 0.  1.
         11    1    3    3    0    0 -0.19945380635E+02  0.73901671062E+00 -0.13192239711E+02  0.23924872899E+02  0.51100000000E-03 0. -1.
        -11    1    3    3    0    0 -0.11576019946E+01  0.77743209877E+01 -0.92309303110E+01  0.12123950836E+02  0.51100000000E-03 0.  1.
        -12    1    3    3    0    0 -0.67260928564E+01  0.58940215077E+01 -0.76033792756E+01  0.11738449261E+02  0.00000000000E+00 0.  1.
</event>
<event>
 7    1  0.2530788E-009  0.4778727E+02  0.7816164E-02  0.1312668E+00
        -11   -1    0    0    0    0  0.00000000000E+00  0.00000000000E+00  0.45593999997E+02  0.45594000000E+02  0.51100000000E-03 0.  1.
         11   -1    0    0    0    0 -0.00000000000E+00 -0.00000000000E+00 -0.45593999997E+02  0.45594000000E+02  0.51100000000E-03 0. -1.
    9900012    2    1    2    0    0  0.25587784258E+02 -0.13905627371E+01 -0.35027917228E+02  0.47787270129E+02  0.19999995827E+02 0.  0.
        -12    1    1    2    0    0 -0.25587784258E+02  0.13905627371E+01  0.35027917228E+02  0.43400729871E+02  0.00000000000E+00 0.  1.
         11    1    3    3    0    0  0.15693549064E+02  0.40874762043E+01 -0.12480637015E+02  0.20463656675E+02  0.51100000000E-03 0. -1.
        -11    1    3    3    0    0  0.83634815402E+01 -0.85614576726E+01 -0.16875115912E+02  0.20688545581E+02  0.51100000000E-03 0.  1.
         12    1    3    3    0    0  0.15307536543E+01  0.30834187313E+01 -0.56721643016E+01  0.66350678735E+01  0.00000000000E+00 0. -1.
</event>
<event>
 7    1  0.2530788E-009  0.4778727E+02  0.7816164E-02  0.1312668E+00
        -11   -1    0    0    0    0  0.00000000000E+00  0.00000000000E+00  0.45593999997E+02  0.45594000000E+02  0.51100000000E-03 0. -1.
         11   -1    0    0    0    0 -0.00000000000E+00 -0.00000000000E+00 -0.45593999997E+02  0.45594000000E+02  0.51100000000E-03 0.  1.
    9900012    2    1    2    0    0 -0.40611446136E+02  0.14813557311E+02  0.38590494218E+01  0.47787270744E+02  0.19999998632E+02 0.  0.
        -12    1    1    2    0    0  0.40611446136E+02 -0.14813557311E+02 -0.38590494218E+01  0.43400729256E+02  0.00000000000E+00 0.  1.
         11    1    3    3    0    0 -0.18277585135E+02  0.30693493739E+01  0.26388110595E+01  0.18720425957E+02  0.51100000000E-03 0. -1.
        -11    1    3    3    0    0 -0.99061920002E+01  0.12708917996E+02 -0.18774822593E+01  0.16222643942E+02  0.51100000000E-03 0.  1.
        -12    1    3    3    0    0 -0.12427669001E+02 -0.96471005942E+00  0.30977206216E+01  0.12844200845E+02  0.00000000000E+00 0.  1.
</event>
<event>
 7    1  0.2530788E-009  0.4778727E+02  0.7816164E-02  0.1312668E+00
        -11   -1    0    0    0    0  0.00000000000E+00  0.00000000000E+00  0.45593999997E+02  0.45594000000E+02  0.51100000000E-03 0. -1.
         11   -1    0    0    0    0 -0.00000000000E+00 -0.00000000000E+00 -0.45593999997E+02  0.45594000000E+02  0.51100000000E-03 0.  1.
    9900012    2    1    2    0    0 -0.21334153837E+02  0.26306135706E+02  0.27137873380E+02  0.47787273424E+02  0.20000010850E+02 0.  0.
        -12    1    1    2    0    0  0.21334153837E+02 -0.26306135706E+02 -0.27137873380E+02  0.43400726576E+02  0.00000000000E+00 0.  1.
         11    1    3    3    0    0 -0.11313685334E+02  0.16453400914E+02  0.23874357102E+02  0.31123926564E+02  0.51100000000E-03 0. -1.
        -11    1    3    3    0    0  0.45724579320E+00  0.31522435338E+01 -0.12654314019E+01  0.34273940401E+01  0.51100000000E-03 0.  1.
        -12    1    3    3    0    0 -0.10477714296E+02  0.67004912587E+01  0.45289476799E+01  0.13235952820E+02  0.00000000000E+00 0.  1.
</event>
<event>
 7    1  0.2530788E-009  0.4778727E+02  0.7816164E-02  0.1312668E+00
        -11   -1    0    0    0    0  0.00000000000E+00  0.00000000000E+00  0.45593999997E+02  0.45594000000E+02  0.51100000000E-03 0.  1.
         11   -1    0    0    0    0 -0.00000000000E+00 -0.00000000000E+00 -0.45593999997E+02  0.45594000000E+02  0.51100000000E-03 0. -1.
    9900012    2    1    2    0    0  0.30272212708E+02  0.27342112508E+02 -0.14819751593E+02  0.47787274016E+02  0.20000013548E+02 0.  0.
        -12    1    1    2    0    0 -0.30272212708E+02 -0.27342112508E+02  0.14819751593E+02  0.43400725984E+02  0.00000000000E+00 0.  1.
         11    1    3    3    0    0  0.25160855398E+02  0.18409147009E+02 -0.14158617222E+02  0.34240791169E+02  0.51100000000E-03 0. -1.
        -11    1    3    3    0    0  0.74071686459E+01  0.82772690031E+01 -0.91587819443E+00  0.11145320212E+02  0.51100000000E-03 0.  1.
         12    1    3    3    0    0 -0.22958113360E+01  0.65569649630E+00  0.25474382300E+00  0.24011626353E+01  0.00000000000E+00 0. -1.
</event>
<event>
 7    1  0.2530788E-009  0.4778726E+02  0.7816164E-02  0.1312668E+00
        -11   -1    0    0    0    0  0.00000000000E+00  0.00000000000E+00  0.45593999997E+02  0.45594000000E+02  0.51100000000E-03 0. -1.
         11   -1    0    0    0    0 -0.00000000000E+00 -0.00000000000E+00 -0.45593999997E+02  0.45594000000E+02  0.51100000000E-03 0.  1.
    9900012    2    1    2    0    0 -0.11922802656E+02 -0.23176939050E+01  0.41666520567E+02  0.47787264242E+02  0.19999968984E+02 0.  0.
        -12    1    1    2    0    0  0.11922802656E+02  0.23176939050E+01 -0.41666520567E+02  0.43400735758E+02  0.00000000000E+00 0.  1.
         11    1    3    3    0    0 -0.37983359735E+01  0.28495660766E+01  0.18548768488E+01  0.50978379121E+01  0.51100000000E-03 0. -1.
        -11    1    3    3    0    0 -0.97437550023E+00 -0.43172972462E+00 -0.70321360412E+00  0.12768350734E+01  0.51100000000E-03 0.  1.
         12    1    3    3    0    0 -0.71500911825E+01 -0.47355302569E+01  0.40514857322E+02  0.41412591256E+02  0.00000000000E+00 0. -1.
</event>
<event>
 7    1  0.2530788E-009  0.4778727E+02  0.7816164E-02  0.1312668E+00
        -11   -1    0    0    0    0  0.00000000000E+00  0.00000000000E+00  0.45593999997E+02  0.45594000000E+02  0.51100000000E-03 0. -1.
         11   -1    0    0    0    0 -0.00000000000E+00 -0.00000000000E+00 -0.45593999997E+02  0.45594000000E+02  0.51100000000E-03 0.  1.
    9900012    2    1    2    0    0 -0.22455254387E+02  0.31908396732E+02 -0.19006295190E+02  0.47787268573E+02  0.19999988729E+02 0.  0.
        -12    1    1    2    0    0  0.22455254387E+02 -0.31908396732E+02  0.19006295190E+02  0.43400731427E+02  0.00000000000E+00 0.  1.
         11    1    3    3    0    0 -0.97626175549E+00  0.78430899400E+01 -0.82236894677E+00  0.79462845259E+01  0.51100000000E-03 0. -1.
        -11    1    3    3    0    0 -0.35615423790E+01  0.13527267463E+02 -0.11176660694E+02  0.17905007503E+02  0.51100000000E-03 0.  1.
        -12    1    3    3    0    0 -0.17917450253E+02  0.10538039328E+02 -0.70072655490E+01  0.21935976544E+02  0.00000000000E+00 0.  1.
</event>
<event>
 7    1  0.2530788E-009  0.4778727E+02  0.7816164E-02  0.1312668E+00
        -11   -1    0    0    0    0  0.00000000000E+00  0.00000000000E+00  0.45593999997E+02  0.45594000000E+02  0.51100000000E-03 0. -1.
         11   -1    0    0    0    0 -0.00000000000E+00 -0.00000000000E+00 -0.45593999997E+02  0.45594000000E+02  0.51100000000E-03 0.  1.
    9900012    2    1    2    0    0 -0.12601446030E+01 -0.41568665779E+02 -0.12412951135E+02  0.47787270802E+02  0.19999998895E+02 0.  0.
        -12    1    1    2    0    0  0.12601446030E+01  0.41568665779E+02  0.12412951135E+02  0.43400729198E+02  0.00000000000E+00 0.  1.
         11    1    3    3    0    0 -0.25962296838E+01 -0.14368076535E+02 -0.10415910466E+02  0.17935250849E+02  0.51100000000E-03 0. -1.
        -11    1    3    3    0    0  0.82622416815E+00 -0.27740709928E+02 -0.33864095211E-01  0.27753031920E+02  0.51100000000E-03 0.  1.
        -12    1    3    3    0    0  0.50986091265E+00  0.54012068534E+00 -0.19631765740E+01  0.20989880337E+01  0.00000000000E+00 0.  1.
</event>
<event>
 7    1  0.2530788E-009  0.4778727E+02  0.7816164E-02  0.1312668E+00
        -11   -1    0    0    0    0  0.00000000000E+00  0.00000000000E+00  0.45593999997E+02  0.45594000000E+02  0.51100000000E-03 0.  1.
         11   -1    0    0    0    0 -0.00000000000E+00 -0.00000000000E+00 -0.45593999997E+02  0.45594000000E+02  0.51100000000E-03 0. -1.
    9900012    2    1    2    0    0 -0.16176107752E+01 -0.39546252395E+02 -0.17807313834E+02  0.47787272252E+02  0.20000005505E+02 0.  0.
        -12    1    1    2    0    0  0.16176107752E+01  0.39546252395E+02  0.17807313834E+02  0.43400727748E+02  0.00000000000E+00 0.  1.
         11    1    3    3    0    0 -0.49771316055E+01 -0.22907721289E+02 -0.67228660280E+01  0.24387137216E+02  0.51100000000E-03 0. -1.
        -11    1    3    3    0    0  0.42539216342E+01 -0.14401711239E+02 -0.13350141857E+02  0.20093069048E+02  0.51100000000E-03 0.  1.
        -12    1    3    3    0    0 -0.89440080388E+00 -0.22368198663E+01  0.22656940519E+01  0.33070659881E+01  0.00000000000E+00 0.  1.
</event>
<event>
 7    1  0.2530788E-009  0.4778727E+02  0.7816164E-02  0.1312668E+00
        -11   -1    0    0    0    0  0.00000000000E+00  0.00000000000E+00  0.45593999997E+02  0.45594000000E+02  0.51100000000E-03 0.  1.
         11   -1    0    0    0    0 -0.00000000000E+00 -0.00000000000E+00 -0.45593999997E+02  0.45594000000E+02  0.51100000000E-03 0. -1.
    9900012    2    1    2    0    0 -0.14041837190E+02  0.36280832403E+02 -0.19239320026E+02  0.47787269285E+02  0.19999991977E+02 0.  0.
        -12    1    1    2    0    0  0.14041837190E+02 -0.36280832403E+02  0.19239320026E+02  0.43400730715E+02  0.00000000000E+00 0.  1.
         11    1    3    3    0    0 -0.12885738428E+02  0.27339708503E+02 -0.20902387478E+02  0.36747948492E+02  0.51100000000E-03 0. -1.
        -11    1    3    3    0    0 -0.35610752147E+01  0.64547978831E+01  0.17587592697E+01  0.75788460088E+01  0.51100000000E-03 0.  1.
        -12    1    3    3    0    0  0.24049764528E+01  0.24863260175E+01 -0.95691817694E-01  0.34604747836E+01  0.00000000000E+00 0.  1.
</event>
<event>
 7    1  0.2530788E-009  0.4778727E+02  0.7816164E-02  0.1312668E+00
        -11   -1    0    0    0    0  0.00000000000E+00  0.00000000000E+00  0.45593999997E+02  0.45594000000E+02  0.51100000000E-03 0. -1.
         11   -1    0    0    0    0 -0.00000000000E+00 -0.00000000000E+00 -0.45593999997E+02  0.45594000000E+02  0.51100000000E-03 0.  1.
    9900012    2    1    2    0    0 -0.20369795917E+02  0.35688186604E+02  0.13965966704E+02  0.47787268730E+02  0.19999989447E+02 0.  0.
        -12    1    1    2    0    0  0.20369795917E+02 -0.35688186604E+02 -0.13965966704E+02  0.43400731270E+02  0.00000000000E+00 0.  1.
         11    1    3    3    0    0 -0.10696704873E+02  0.13522624186E+02  0.94697783166E+01  0.19671236912E+02  0.51100000000E-03 0. -1.
        -11    1    3    3    0    0  0.12583990404E+01  0.49745043438E+01 -0.35209057346E+01  0.62230249128E+01  0.51100000000E-03 0.  1.
        -12    1    3    3    0    0 -0.10931490085E+02  0.17191058075E+02  0.80170941216E+01  0.21893006905E+02  0.00000000000E+00 0.  1.
</event>
<event>
 7    1  0.2530788E-009  0.4778727E+02  0.7816164E-02  0.1312668E+00
        -11   -1    0    0    0    0  0.00000000000E+00  0.00000000000E+00  0.45593999997E+02  0.45594000000E+02  0.51100000000E-03 0.  1.
         11   -1    0    0    0    0 -0.00000000000E+00 -0.00000000000E+00 -0.45593999997E+02  0.45594000000E+02  0.51100000000E-03 0. -1.
    9900012    2    1    2    0    0  0.37050840837E+02 -0.16941744840E+02 -0.14961130072E+02  0.47787274914E+02  0.20000017643E+02 0.  0.
        -12    1    1    2    0    0 -0.37050840837E+02  0.16941744840E+02  0.14961130072E+02  0.43400725086E+02  0.00000000000E+00 0.  1.
         11    1    3    3    0    0  0.34319599801E+02 -0.20146750580E+02 -0.13642607361E+02  0.42069552236E+02  0.51100000000E-03 0. -1.
        -11    1    3    3    0    0 -0.24086364787E-02  0.13149440366E+01  0.10114176699E+01  0.16589302532E+01  0.51100000000E-03 0.  1.
        -12    1    3    3    0    0  0.27336496721E+01  0.18900617028E+01 -0.23299403814E+01  0.40587924252E+01  0.00000000000E+00 0.  1.
</event>
<event>
 7    1  0.2530788E-009  0.4778727E+02  0.7816164E-02  0.1312668E+00
        -11   -1    0    0    0    0  0.00000000000E+00  0.00000000000E+00  0.45593999997E+02  0.45594000000E+02  0.51100000000E-03 0. -1.
         11   -1    0    0    0    0 -0.00000000000E+00 -0.00000000000E+00 -0.45593999997E+02  0.45594000000E+02  0.51100000000E-03 0.  1.
    9900012    2    1    2    0    0  0.33499165976E+02  0.16284774434E+02  0.22276331542E+02  0.47787274817E+02  0.20000017201E+02 0.  0.
        -12    1    1    2    0    0 -0.33499165976E+02 -0.16284774434E+02 -0.22276331542E+02  0.43400725183E+02  0.00000000000E+00 0.  1.
         11    1    3    3    0    0 -0.10774857055E+01 -0.42182201046E-01  0.31081302247E+01  0.32898675563E+01  0.51100000000E-03 0. -1.
        -11    1    3    3    0    0  0.16220484650E+01  0.14534726101E+01  0.53761076456E+01  0.58005307973E+01  0.51100000000E-03 0.  1.
         12    1    3    3    0    0  0.32954603216E+02  0.14873484024E+02  0.13792093672E+02  0.38696876463E+02  0.00000000000E+00 0. -1.
</event>
<event>
 7    1  0.2530788E-009  0.4778727E+02  0.7816164E-02  0.1312668E+00
        -11   -1    0    0    0    0  0.00000000000E+00  0.00000000000E+00  0.45593999997E+02  0.45594000000E+02  0.51100000000E-03 0.  1.
         11   -1    0    0    0    0 -0.00000000000E+00 -0.00000000000E+00 -0.45593999997E+02  0.45594000000E+02  0.51100000000E-03 0. -1.
    9900012    2    1    2    0    0  0.21171029718E+02 -0.11031516045E+02 -0.36245224753E+02  0.47787272322E+02  0.20000005824E+02 0.  0.
        -12    1    1    2    0    0 -0.21171029718E+02  0.11031516045E+02  0.36245224753E+02  0.43400727678E+02  0.00000000000E+00 0.  1.
         11    1    3    3    0    0  0.83650277912E+00 -0.75141479544E+01 -0.64045038758E+01  0.99085733855E+01  0.51100000000E-03 0. -1.
        -11    1    3    3    0    0  0.20688865480E+02 -0.28701816029E+01 -0.23279911908E+02  0.31276531074E+02  0.51100000000E-03 0.  1.
         12    1    3    3    0    0 -0.35433854122E+00 -0.64718648811E+00 -0.65608089691E+01  0.66021678622E+01  0.00000000000E+00 0. -1.
</event>
<event>
 7    1  0.2530788E-009  0.4778727E+02  0.7816164E-02  0.1312668E+00
        -11   -1    0    0    0    0  0.00000000000E+00  0.00000000000E+00  0.45593999997E+02  0.45594000000E+02  0.51100000000E-03 0.  1.
         11   -1    0    0    0    0 -0.00000000000E+00 -0.00000000000E+00 -0.45593999997E+02  0.45594000000E+02  0.51100000000E-03 0. -1.
    9900012    2    1    2    0    0 -0.30051574453E+02 -0.83159588462E+01 -0.30188921735E+02  0.47787270811E+02  0.19999998935E+02 0.  0.
        -12    1    1    2    0    0  0.30051574453E+02  0.83159588462E+01  0.30188921735E+02  0.43400729189E+02  0.00000000000E+00 0.  1.
         11    1    3    3    0    0 -0.64388579977E+01  0.18394354969E+01 -0.53677910727E+01  0.85822838757E+01  0.51100000000E-03 0. -1.
        -11    1    3    3    0    0 -0.22681297122E+02 -0.84004885998E+01 -0.27004743207E+02  0.36252801323E+02  0.51100000000E-03 0.  1.
        -12    1    3    3    0    0 -0.93141933325E+00 -0.17549057433E+01  0.21836125447E+01  0.29521856120E+01  0.00000000000E+00 0.  1.
</event>
<event>
 7    1  0.2530788E-009  0.4778727E+02  0.7816164E-02  0.1312668E+00
        -11   -1    0    0    0    0  0.00000000000E+00  0.00000000000E+00  0.45593999997E+02  0.45594000000E+02  0.51100000000E-03 0.  1.
         11   -1    0    0    0    0 -0.00000000000E+00 -0.00000000000E+00 -0.45593999997E+02  0.45594000000E+02  0.51100000000E-03 0. -1.
    9900012    2    1    2    0    0  0.30264109457E+02  0.19656887866E+02 -0.24110449558E+02  0.47787270286E+02  0.19999996540E+02 0.  0.
        -12    1    1    2    0    0 -0.30264109457E+02 -0.19656887866E+02  0.24110449558E+02  0.43400729714E+02  0.00000000000E+00 0.  1.
         11    1    3    3    0    0  0.31527191343E+02  0.13960271138E+02 -0.22016776619E+02  0.40909551662E+02  0.51100000000E-03 0. -1.
        -11    1    3    3    0    0 -0.19558888853E+01  0.28965926298E+01 -0.36303423491E+00  0.35139072713E+01  0.51100000000E-03 0.  1.
         12    1    3    3    0    0  0.69280699991E+00  0.28000240986E+01 -0.17306387042E+01  0.33638113526E+01  0.00000000000E+00 0. -1.
</event>
<event>
 7    1  0.2530788E-009  0.4778727E+02  0.7816164E-02  0.1312668E+00
        -11   -1    0    0    0    0  0.00000000000E+00  0.00000000000E+00  0.45593999997E+02  0.45594000000E+02  0.51100000000E-03 0.  1.
         11   -1    0    0    0    0 -0.00000000000E+00 -0.00000000000E+00 -0.45593999997E+02  0.45594000000E+02  0.51100000000E-03 0. -1.
    9900012    2    1    2    0    0 -0.14755741049E+02  0.91786396979E+01 -0.39769887993E+02  0.47787270610E+02  0.19999998021E+02 0.  0.
        -12    1    1    2    0    0  0.14755741049E+02 -0.91786396979E+01  0.39769887993E+02  0.43400729390E+02  0.00000000000E+00 0.  1.
         11    1    3    3    0    0 -0.10407621259E+02  0.44508676406E+01 -0.20275215095E+02  0.23220963598E+02  0.51100000000E-03 0. -1.
        -11    1    3    3    0    0 -0.37301371443E+01  0.66929866869E+01 -0.34727595113E+01  0.84124938508E+01  0.51100000000E-03 0.  1.
        -12    1    3    3    0    0 -0.61798264525E+00 -0.19652146296E+01 -0.16021913386E+02  0.16153813161E+02  0.00000000000E+00 0.  1.
</event>
<event>
 7    1  0.2530788E-009  0.4778727E+02  0.7816164E-02  0.1312668E+00
        -11   -1    0    0    0    0  0.00000000000E+00  0.00000000000E+00  0.45593999997E+02  0.45594000000E+02  0.51100000000E-03 0.  1.
         11   -1    0    0    0    0 -0.00000000000E+00 -0.00000000000E+00 -0.45593999997E+02  0.45594000000E+02  0.51100000000E-03 0. -1.
    9900012    2    1    2    0    0 -0.16283739202E+02 -0.38217862822E+02  0.12564157313E+02  0.47787271318E+02  0.20000001249E+02 0.  0.
        -12    1    1    2    0    0  0.16283739202E+02  0.38217862822E+02 -0.12564157313E+02  0.43400728682E+02  0.00000000000E+00 0.  1.
         11    1    3    3    0    0  0.19088024802E+01 -0.59654955799E+01  0.66355990237E+01  0.91247925503E+01  0.51100000000E-03 0. -1.
        -11    1    3    3    0    0 -0.34187714246E+01 -0.53758721122E+01  0.47922685559E+01  0.79720660555E+01  0.51100000000E-03 0.  1.
         12    1    3    3    0    0 -0.14773770258E+02 -0.26876495130E+02  0.11362897332E+01  0.30690412713E+02  0.00000000000E+00 0. -1.
</event>
<event>
 7    1  0.2530788E-009  0.4778728E+02  0.7816164E-02  0.1312668E+00
        -11   -1    0    0    0    0  0.00000000000E+00  0.00000000000E+00  0.45593999997E+02  0.45594000000E+02  0.51100000000E-03 0. -1.
         11   -1    0    0    0    0 -0.00000000000E+00 -0.00000000000E+00 -0.45593999997E+02  0.45594000000E+02  0.51100000000E-03 0.  1.
    9900012    2    1    2    0    0  0.47320421826E+01 -0.33385108602E+02  0.27325168436E+02  0.47787279618E+02  0.20000039089E+02 0.  0.
        -12    1    1    2    0    0 -0.47320421826E+01  0.33385108602E+02 -0.27325168436E+02  0.43400720382E+02  0.00000000000E+00 0.  1.
         11    1    3    3    0    0  0.10002971321E+02 -0.14778514759E+02  0.13120183314E+02  0.22149563070E+02  0.51100000000E-03 0. -1.
        -11    1    3    3    0    0  0.18280742718E+01 -0.23025601826E+01  0.45111629866E+01  0.53846291135E+01  0.51100000000E-03 0.  1.
         12    1    3    3    0    0 -0.70990034100E+01 -0.16304033661E+02  0.96938221355E+01  0.20253087435E+02  0.00000000000E+00 0. -1.
</event>
<event>
 7    1  0.2530788E-009  0.4778727E+02  0.7816164E-02  0.1312668E+00
        -11   -1    0    0    0    0  0.00000000000E+00  0.00000000000E+00  0.45593999997E+02  0.45594000000E+02  0.51100000000E-03 0.  1.
         11   -1    0    0    0    0 -0.00000000000E+00 -0.00000000000E+00 -0.45593999997E+02  0.45594000000E+02  0.51100000000E-03 0. -1.
    9900012    2    1    2    0    0 -0.41743900783E+02 -0.92493441694E+01 -0.74511540873E+01  0.47787270543E+02  0.19999997715E+02 0.  0.
        -12    1    1    2    0    0  0.41743900783E+02  0.92493441694E+01  0.74511540873E+01  0.43400729457E+02  0.00000000000E+00 0.  1.
         11    1    3    3    0    0 -0.87918510866E+01 -0.21059940403E+01 -0.10730388884E-01  0.90405736449E+01  0.51100000000E-03 0. -1.
        -11    1    3    3    0    0 -0.23439691760E+02 -0.88064875921E+01 -0.12343516682E+02  0.27916586071E+02  0.51100000000E-03 0.  1.
        -12    1    3    3    0    0 -0.95123579363E+01  0.16631374630E+01  0.49030929835E+01  0.10830110827E+02  0.00000000000E+00 0.  1.
</event>
<event>
 7    1  0.2530788E-009  0.4778725E+02  0.7816164E-02  0.1312668E+00
        -11   -1    0    0    0    0  0.00000000000E+00  0.00000000000E+00  0.45593999997E+02  0.45594000000E+02  0.51100000000E-03 0.  1.
         11   -1    0    0    0    0 -0.00000000000E+00 -0.00000000000E+00 -0.45593999997E+02  0.45594000000E+02  0.51100000000E-03 0. -1.
    9900012    2    1    2    0    0  0.17572296510E+02 -0.25021309909E+02 -0.30802162008E+02  0.47787254170E+02  0.19999923064E+02 0.  0.
        -12    1    1    2    0    0 -0.17572296510E+02  0.25021309909E+02  0.30802162008E+02  0.43400745830E+02  0.00000000000E+00 0.  1.
         11    1    3    3    0    0  0.14509787945E+01 -0.22986109121E+00 -0.31064381406E+01  0.34362965188E+01  0.51100000000E-03 0. -1.
        -11    1    3    3    0    0  0.11749341770E+01  0.28267640290E+01 -0.12919377013E+01  0.33226748985E+01  0.51100000000E-03 0.  1.
        -12    1    3    3    0    0  0.14946383538E+02 -0.27618212847E+02 -0.26403786167E+02  0.41028282753E+02  0.00000000000E+00 0.  1.
</event>
<event>
 7    1  0.2530788E-009  0.4778727E+02  0.7816164E-02  0.1312668E+00
        -11   -1    0    0    0    0  0.00000000000E+00  0.00000000000E+00  0.45593999997E+02  0.45594000000E+02  0.51100000000E-03 0.  1.
         11   -1    0    0    0    0 -0.00000000000E+00 -0.00000000000E+00 -0.45593999997E+02  0.45594000000E+02  0.51100000000E-03 0. -1.
    9900012    2    1    2    0    0  0.12235104129E+02 -0.16414236760E+02 -0.38268768098E+02  0.47787267827E+02  0.19999985329E+02 0.  0.
        -12    1    1    2    0    0 -0.12235104129E+02  0.16414236760E+02  0.38268768098E+02  0.43400732173E+02  0.00000000000E+00 0.  1.
         11    1    3    3    0    0  0.27829376085E+01  0.14171235840E+00 -0.26888987994E+01  0.38723379424E+01  0.51100000000E-03 0.  1.
        -11    1    3    3    0    0  0.13434437163E+02 -0.14140878530E+02 -0.21237840479E+02  0.28835644885E+02  0.51100000000E-03 0. -1.
        -12    1    3    3    0    0 -0.39822706424E+01 -0.24150705882E+01 -0.14342028820E+02  0.15079284999E+02  0.00000000000E+00 0.  1.
</event>
<event>
 7    1  0.2530788E-009  0.4778727E+02  0.7816164E-02  0.1312668E+00
        -11   -1    0    0    0    0  0.00000000000E+00  0.00000000000E+00  0.45593999997E+02  0.45594000000E+02  0.51100000000E-03 0.  1.
         11   -1    0    0    0    0 -0.00000000000E+00 -0.00000000000E+00 -0.45593999997E+02  0.45594000000E+02  0.51100000000E-03 0. -1.
    9900012    2    1    2    0    0  0.37285140916E+02 -0.83312249518E+00 -0.22197919647E+02  0.47787268867E+02  0.19999990074E+02 0.  0.
        -12    1    1    2    0    0 -0.37285140916E+02  0.83312249518E+00  0.22197919647E+02  0.43400731133E+02  0.00000000000E+00 0.  1.
         11    1    3    3    0    0  0.67353843875E+01  0.22895081007E+01 -0.35110226182E+01  0.79331286563E+01  0.51100000000E-03 0. -1.
        -11    1    3    3    0    0  0.67870957063E+01  0.31029618415E+01 -0.12441386112E+02  0.14507967775E+02  0.51100000000E-03 0.  1.
        -12    1    3    3    0    0  0.23762660822E+02 -0.62255924374E+01 -0.62455109164E+01  0.25346172436E+02  0.00000000000E+00 0.  1.
</event>
<event>
 7    1  0.2530788E-009  0.4778726E+02  0.7816164E-02  0.1312668E+00
        -11   -1    0    0    0    0  0.00000000000E+00  0.00000000000E+00  0.45593999997E+02  0.45594000000E+02  0.51100000000E-03 0.  1.
         11   -1    0    0    0    0 -0.00000000000E+00 -0.00000000000E+00 -0.45593999997E+02  0.45594000000E+02  0.51100000000E-03 0. -1.
    9900012    2    1    2    0    0 -0.53013733749E+01  0.32974360073E+02  0.27716619805E+02  0.47787262733E+02  0.19999962106E+02 0.  0.
        -12    1    1    2    0    0  0.53013733749E+01 -0.32974360073E+02 -0.27716619805E+02  0.43400737267E+02  0.00000000000E+00 0.  1.
         11    1    3    3    0    0 -0.18042435503E+01  0.28404767212E+02  0.13300989306E+02  0.31416594531E+02  0.51100000000E-03 0. -1.
        -11    1    3    3    0    0 -0.43069640677E+01  0.15169468728E+01  0.92584497484E+01  0.10323272703E+02  0.51100000000E-03 0.  1.
        -12    1    3    3    0    0  0.80983424301E+00  0.30526459887E+01  0.51571807506E+01  0.60473954996E+01  0.00000000000E+00 0.  1.
</event>
<event>
 7    1  0.2530788E-009  0.4778727E+02  0.7816164E-02  0.1312668E+00
        -11   -1    0    0    0    0  0.00000000000E+00  0.00000000000E+00  0.45593999997E+02  0.45594000000E+02  0.51100000000E-03 0.  1.
         11   -1    0    0    0    0 -0.00000000000E+00 -0.00000000000E+00 -0.45593999997E+02  0.45594000000E+02  0.51100000000E-03 0. -1.
    9900012    2    1    2    0    0  0.14925605294E+01  0.41996510054E+02 -0.10848458405E+02  0.47787266787E+02  0.19999980589E+02 0.  0.
        -12    1    1    2    0    0 -0.14925605294E+01 -0.41996510054E+02  0.10848458405E+02  0.43400733213E+02  0.00000000000E+00 0.  1.
         11    1    3    3    0    0  0.21270262560E+01  0.23522785577E+01 -0.30553473118E+01  0.44037032783E+01  0.51100000000E-03 0. -1.
        -11    1    3    3    0    0  0.83293616715E+00  0.27405538686E+02 -0.12572196466E+02  0.30163180495E+02  0.51100000000E-03 0.  1.
        -12    1    3    3    0    0 -0.14674018937E+01  0.12238692811E+02  0.47790853731E+01  0.13220383014E+02  0.00000000000E+00 0.  1.
</event>
<event>
 7    1  0.2530788E-009  0.4778727E+02  0.7816164E-02  0.1312668E+00
        -11   -1    0    0    0    0  0.00000000000E+00  0.00000000000E+00  0.45593999997E+02  0.45594000000E+02  0.51100000000E-03 0. -1.
         11   -1    0    0    0    0 -0.00000000000E+00 -0.00000000000E+00 -0.45593999997E+02  0.45594000000E+02  0.51100000000E-03 0.  1.
    9900012    2    1    2    0    0  0.18332855319E+02  0.23631840964E+02  0.31449416967E+02  0.47787270524E+02  0.19999997626E+02 0.  0.
        -12    1    1    2    0    0 -0.18332855319E+02 -0.23631840964E+02 -0.31449416967E+02  0.43400729476E+02  0.00000000000E+00 0.  1.
         11    1    3    3    0    0  0.33739357538E+01  0.13599982829E+01  0.85037171402E+01  0.92491212157E+01  0.51100000000E-03 0. -1.
        -11    1    3    3    0    0 -0.54318530566E-01  0.67305096103E+01  0.13234448633E+02  0.14847671232E+02  0.51100000000E-03 0.  1.
        -12    1    3    3    0    0  0.15013238096E+02  0.15541333071E+02  0.97112511934E+01  0.23690478076E+02  0.00000000000E+00 0.  1.
</event>
<event>
 7    1  0.2530788E-009  0.4778725E+02  0.7816164E-02  0.1312668E+00
        -11   -1    0    0    0    0  0.00000000000E+00  0.00000000000E+00  0.45593999997E+02  0.45594000000E+02  0.51100000000E-03 0. -1.
         11   -1    0    0    0    0 -0.00000000000E+00 -0.00000000000E+00 -0.45593999997E+02  0.45594000000E+02  0.51100000000E-03 0.  1.
    9900012    2    1    2    0    0 -0.34556720819E+02 -0.30141474627E+01  0.26083965978E+02  0.47787247474E+02  0.19999892531E+02 0.  0.
        -12    1    1    2    0    0  0.34556720819E+02  0.30141474627E+01 -0.26083965978E+02  0.43400752526E+02  0.00000000000E+00 0.  1.
         11    1    3    3    0    0 -0.91354445485E+01 -0.57727973629E+01  0.16382726200E+02  0.19625882260E+02  0.51100000000E-03 0. -1.
        -11    1    3    3    0    0 -0.18680715939E+02 -0.73490696451E+00  0.55152173401E+01  0.19491712567E+02  0.51100000000E-03 0.  1.
         12    1    3    3    0    0 -0.67405603323E+01  0.34935568648E+01  0.41860224378E+01  0.86696526465E+01  0.00000000000E+00 0. -1.
</event>
<event>
 7    1  0.2530788E-009  0.4778727E+02  0.7816164E-02  0.1312668E+00
        -11   -1    0    0    0    0  0.00000000000E+00  0.00000000000E+00  0.45593999997E+02  0.45594000000E+02  0.51100000000E-03 0. -1.
         11   -1    0    0    0    0 -0.00000000000E+00 -0.00000000000E+00 -0.45593999997E+02  0.45594000000E+02  0.51100000000E-03 0.  1.
    9900012    2    1    2    0    0 -0.29621367656E+02  0.12050573599E+02  0.29342490522E+02  0.47787268486E+02  0.19999988336E+02 0.  0.
        -12    1    1    2    0    0  0.29621367656E+02 -0.12050573599E+02 -0.29342490522E+02  0.43400731514E+02  0.00000000000E+00 0.  1.
         11    1    3    3    0    0 -0.90659426227E+01  0.48797415676E+01  0.21751291073E+02  0.24064950800E+02  0.51100000000E-03 0. -1.
        -11    1    3    3    0    0 -0.17524797137E+01 -0.38259940280E-01  0.23172928116E+01  0.29055972202E+01  0.51100000000E-03 0.  1.
         12    1    3    3    0    0 -0.18802945319E+02  0.72090919718E+01  0.52739066378E+01  0.20816720466E+02  0.00000000000E+00 0. -1.
</event>
<event>
 7    1  0.2530788E-009  0.4778727E+02  0.7816164E-02  0.1312668E+00
        -11   -1    0    0    0    0  0.00000000000E+00  0.00000000000E+00  0.45593999997E+02  0.45594000000E+02  0.51100000000E-03 0.  1.
         11   -1    0    0    0    0 -0.00000000000E+00 -0.00000000000E+00 -0.45593999997E+02  0.45594000000E+02  0.51100000000E-03 0. -1.
    9900012    2    1    2    0    0  0.63149187985E+01  0.27797345790E+02 -0.32726940924E+02  0.47787270805E+02  0.19999998910E+02 0.  0.
        -12    1    1    2    0    0 -0.63149187985E+01 -0.27797345790E+02  0.32726940924E+02  0.43400729195E+02  0.00000000000E+00 0.  1.
         11    1    3    3    0    0 -0.21572281817E+01  0.24139744412E+02 -0.27092079330E+02  0.36350538598E+02  0.51100000000E-03 0. -1.
        -11    1    3    3    0    0  0.70737105569E+01  0.16356274497E+01 -0.52234055874E+01  0.89440832056E+01  0.51100000000E-03 0.  1.
         12    1    3    3    0    0  0.13984364232E+01  0.20219739288E+01 -0.41145600593E+00  0.24926490012E+01  0.00000000000E+00 0. -1.
</event>
<event>
 7    1  0.2530788E-009  0.4778726E+02  0.7816164E-02  0.1312668E+00
        -11   -1    0    0    0    0  0.00000000000E+00  0.00000000000E+00  0.45593999997E+02  0.45594000000E+02  0.51100000000E-03 0.  1.
         11   -1    0    0    0    0 -0.00000000000E+00 -0.00000000000E+00 -0.45593999997E+02  0.45594000000E+02  0.51100000000E-03 0. -1.
    9900012    2    1    2    0    0  0.76168929254E+01 -0.30465734804E+02 -0.29957399464E+02  0.47787264549E+02  0.19999970386E+02 0.  0.
        -12    1    1    2    0    0 -0.76168929254E+01  0.30465734804E+02  0.29957399464E+02  0.43400735451E+02  0.00000000000E+00 0.  1.
         11    1    3    3    0    0  0.15860984887E+00 -0.12654297796E+02 -0.10477125317E+02  0.16429442016E+02  0.51100000000E-03 0. -1.
        -11    1    3    3    0    0  0.11014590847E+02 -0.13071457595E+02 -0.18774334946E+02  0.25390152975E+02  0.51100000000E-03 0.  1.
        -12    1    3    3    0    0 -0.35563077704E+01 -0.47399794132E+01 -0.70593920096E+00  0.59676695578E+01  0.00000000000E+00 0.  1.
</event>
<event>
 7    1  0.2530788E-009  0.4778726E+02  0.7816164E-02  0.1312668E+00
        -11   -1    0    0    0    0  0.00000000000E+00  0.00000000000E+00  0.45593999997E+02  0.45594000000E+02  0.51100000000E-03 0. -1.
         11   -1    0    0    0    0 -0.00000000000E+00 -0.00000000000E+00 -0.45593999997E+02  0.45594000000E+02  0.51100000000E-03 0.  1.
    9900012    2    1    2    0    0  0.33912410089E+01 -0.33922900336E+02  0.26858152896E+02  0.47787261990E+02  0.19999958717E+02 0.  0.
        -12    1    1    2    0    0 -0.33912410089E+01  0.33922900336E+02 -0.26858152896E+02  0.43400738010E+02  0.00000000000E+00 0.  1.
         11    1    3    3    0    0  0.42976325716E+01 -0.14660176409E+02  0.20399492139E+02  0.25485872515E+02  0.51100000000E-03 0. -1.
        -11    1    3    3    0    0  0.19543560004E+01 -0.17646408827E+02  0.40046290949E+01  0.18200338082E+02  0.51100000000E-03 0.  1.
        -12    1    3    3    0    0 -0.28607475631E+01 -0.16163151007E+01  0.24540316627E+01  0.41010513927E+01  0.00000000000E+00 0.  1.
</event>
<event>
 7    1  0.2530788E-009  0.4778726E+02  0.7816164E-02  0.1312668E+00
        -11   -1    0    0    0    0  0.00000000000E+00  0.00000000000E+00  0.45593999997E+02  0.45594000000E+02  0.51100000000E-03 0. -1.
         11   -1    0    0    0    0 -0.00000000000E+00 -0.00000000000E+00 -0.45593999997E+02  0.45594000000E+02  0.51100000000E-03 0.  1.
    9900012    2    1    2    0    0  0.39141128736E+02  0.16229442956E+02  0.93915419480E+01  0.47787264550E+02  0.19999970390E+02 0.  0.
        -12    1    1    2    0    0 -0.39141128736E+02 -0.16229442956E+02 -0.93915419480E+01  0.43400735450E+02  0.00000000000E+00 0.  1.
         11    1    3    3    0    0  0.11929119917E+02  0.12514764627E+02  0.93712298508E+01  0.19665787165E+02  0.51100000000E-03 0. -1.
        -11    1    3    3    0    0  0.23387854444E+02  0.41336266569E+01  0.19260033766E+01  0.23828304474E+02  0.51100000000E-03 0.  1.
        -12    1    3    3    0    0  0.38241543762E+01 -0.41894832812E+00 -0.19056912794E+01  0.42931729114E+01  0.00000000000E+00 0.  1.
</event>
<event>
 7    1  0.2530788E-009  0.4778727E+02  0.7816164E-02  0.1312668E+00
        -11   -1    0    0    0    0  0.00000000000E+00  0.00000000000E+00  0.45593999997E+02  0.45594000000E+02  0.51100000000E-03 0.  1.
         11   -1    0    0    0    0 -0.00000000000E+00 -0.00000000000E+00 -0.45593999997E+02  0.45594000000E+02  0.51100000000E-03 0. -1.
    9900012    2    1    2    0    0  0.17246151739E+02 -0.26840369732E+01 -0.39736498617E+02  0.47787272741E+02  0.20000007735E+02 0.  0.
        -12    1    1    2    0    0 -0.17246151739E+02  0.26840369732E+01  0.39736498617E+02  0.43400727259E+02  0.00000000000E+00 0.  1.
         11    1    3    3    0    0  0.47921200244E+01 -0.33619393059E+01 -0.69069218314E+01  0.90538731861E+01  0.51100000000E-03 0. -1.
        -11    1    3    3    0    0  0.32716133796E+01 -0.56080829328E+01 -0.22956515954E+02  0.23856983742E+02  0.51100000000E-03 0.  1.
        -12    1    3    3    0    0  0.91824183354E+01  0.62859852655E+01 -0.98730608317E+01  0.14876415813E+02  0.00000000000E+00 0.  1.
</event>
<event>
 7    1  0.2530788E-009  0.4778727E+02  0.7816164E-02  0.1312668E+00
        -11   -1    0    0    0    0  0.00000000000E+00  0.00000000000E+00  0.45593999997E+02  0.45594000000E+02  0.51100000000E-03 0. -1.
         11   -1    0    0    0    0 -0.00000000000E+00 -0.00000000000E+00 -0.45593999997E+02  0.45594000000E+02  0.51100000000E-03 0.  1.
    9900012    2    1    2    0    0  0.12164453968E+02 -0.40437736845E+02 -0.10021903601E+02  0.47787273586E+02  0.20000011586E+02 0.  0.
        -12    1    1    2    0    0 -0.12164453968E+02  0.40437736845E+02  0.10021903601E+02  0.43400726414E+02  0.00000000000E+00 0.  1.
         11    1    3    3    0    0  0.97747898581E+01 -0.40559861277E+02 -0.13072079047E+02  0.43721026000E+02  0.51100000000E-03 0. -1.
        -11    1    3    3    0    0  0.16148650857E+01 -0.50165806968E+00  0.18218259006E+01  0.24856588537E+01  0.51100000000E-03 0.  1.
         12    1    3    3    0    0  0.77479902385E+00  0.62378250180E+00  0.12283495445E+01  0.15805887322E+01  0.00000000000E+00 0. -1.
</event>
<event>
 7    1  0.2530788E-009  0.4778727E+02  0.7816164E-02  0.1312668E+00
        -11   -1    0    0    0    0  0.00000000000E+00  0.00000000000E+00  0.45593999997E+02  0.45594000000E+02  0.51100000000E-03 0.  1.
         11   -1    0    0    0    0 -0.00000000000E+00 -0.00000000000E+00 -0.45593999997E+02  0.45594000000E+02  0.51100000000E-03 0. -1.
    9900012    2    1    2    0    0  0.37557082646E+02 -0.16524544211E+02 -0.14143139701E+02  0.47787269374E+02  0.19999992382E+02 0.  0.
        -12    1    1    2    0    0 -0.37557082646E+02  0.16524544211E+02  0.14143139701E+02  0.43400730626E+02  0.00000000000E+00 0.  1.
         11    1    3    3    0    0  0.12283178252E+02 -0.11620916336E+02 -0.12965521487E+02  0.21307907268E+02  0.51100000000E-03 0. -1.
        -11    1    3    3    0    0  0.12824324657E+02  0.51484623985E+00 -0.13078034471E+01  0.12901113118E+02  0.51100000000E-03 0.  1.
        -12    1    3    3    0    0  0.12449579738E+02 -0.54184741152E+01  0.13018523318E+00  0.13578248988E+02  0.00000000000E+00 0.  1.
</event>
<event>
 7    1  0.2530788E-009  0.4778728E+02  0.7816164E-02  0.1312668E+00
        -11   -1    0    0    0    0  0.00000000000E+00  0.00000000000E+00  0.45593999997E+02  0.45594000000E+02  0.51100000000E-03 0.  1.
         11   -1    0    0    0    0 -0.00000000000E+00 -0.00000000000E+00 -0.45593999997E+02  0.45594000000E+02  0.51100000000E-03 0. -1.
    9900012    2    1    2    0    0 -0.76824975434E+01  0.29405904908E+02 -0.30982168912E+02  0.47787276476E+02  0.20000024763E+02 0.  0.
        -12    1    1    2    0    0  0.76824975434E+01 -0.29405904908E+02  0.30982168912E+02  0.43400723524E+02  0.00000000000E+00 0.  1.
         11    1    3    3    0    0  0.27428587952E+01  0.12004314679E+02 -0.16213064881E+02  0.20359035301E+02  0.51100000000E-03 0. -1.
        -11    1    3    3    0    0 -0.89349284457E+01  0.17813746788E+02 -0.97690471397E+01  0.22194521919E+02  0.51100000000E-03 0.  1.
        -12    1    3    3    0    0 -0.14904278928E+01 -0.41215655866E+00 -0.50000568912E+01  0.52337192557E+01  0.00000000000E+00 0.  1.
</event>
<event>
 7    1  0.2530788E-009  0.4778727E+02  0.7816164E-02  0.1312668E+00
        -11   -1    0    0    0    0  0.00000000000E+00  0.00000000000E+00  0.45593999997E+02  0.45594000000E+02  0.51100000000E-03 0.  1.
         11   -1    0    0    0    0 -0.00000000000E+00 -0.00000000000E+00 -0.45593999997E+02  0.45594000000E+02  0.51100000000E-03 0. -1.
    9900012    2    1    2    0    0 -0.20857813579E+02  0.91265231853E+01 -0.36949716728E+02  0.47787269833E+02  0.19999994476E+02 0.  0.
        -12    1    1    2    0    0  0.20857813579E+02 -0.91265231853E+01  0.36949716728E+02  0.43400730167E+02  0.00000000000E+00 0.  1.
         11    1    3    3    0    0 -0.12128027869E+01 -0.34187062264E+01 -0.42642250227E+00  0.36524347049E+01  0.51100000000E-03 0. -1.
        -11    1    3    3    0    0 -0.16349588306E+02  0.64335959354E+01 -0.23105910080E+02  0.29027285015E+02  0.51100000000E-03 0.  1.
         12    1    3    3    0    0 -0.32954224861E+01  0.61116334763E+01 -0.13417384146E+02  0.15107550113E+02  0.00000000000E+00 0. -1.
</event>
<event>
 7    1  0.2530788E-009  0.4778727E+02  0.7816164E-02  0.1312668E+00
        -11   -1    0    0    0    0  0.00000000000E+00  0.00000000000E+00  0.45593999997E+02  0.45594000000E+02  0.51100000000E-03 0. -1.
         11   -1    0    0    0    0 -0.00000000000E+00 -0.00000000000E+00 -0.45593999997E+02  0.45594000000E+02  0.51100000000E-03 0.  1.
    9900012    2    1    2    0    0 -0.91177216164E+01 -0.37956035576E+02  0.18969179778E+02  0.47787271140E+02  0.20000000436E+02 0.  0.
        -12    1    1    2    0    0  0.91177216164E+01  0.37956035576E+02 -0.18969179778E+02  0.43400728860E+02  0.00000000000E+00 0.  1.
         11    1    3    3    0    0 -0.47970593905E+01 -0.25384873084E+02  0.82529501566E+01  0.27120375123E+02  0.51100000000E-03 0. -1.
        -11    1    3    3    0    0 -0.17434872930E+01 -0.43544033252E+00  0.76894680911E+01  0.78966623335E+01  0.51100000000E-03 0.  1.
        -12    1    3    3    0    0 -0.25771749329E+01 -0.12135722159E+02  0.30267615307E+01  0.12770233683E+02  0.00000000000E+00 0.  1.
</event>
<event>
 7    1  0.2530788E-009  0.4778726E+02  0.7816164E-02  0.1312668E+00
        -11   -1    0    0    0    0  0.00000000000E+00  0.00000000000E+00  0.45593999997E+02  0.45594000000E+02  0.51100000000E-03 0.  1.
         11   -1    0    0    0    0 -0.00000000000E+00 -0.00000000000E+00 -0.45593999997E+02  0.45594000000E+02  0.51100000000E-03 0. -1.
    9900012    2    1    2    0    0 -0.24378968332E+01  0.29130207912E+02 -0.32079768519E+02  0.47787263806E+02  0.19999966995E+02 0.  0.
        -12    1    1    2    0    0  0.24378968332E+01 -0.29130207912E+02  0.32079768519E+02  0.43400736194E+02  0.00000000000E+00 0.  1.
         11    1    3    3    0    0  0.42196338235E+01  0.31165560251E+01 -0.84066376902E+01  0.99090760709E+01  0.51100000000E-03 0. -1.
        -11    1    3    3    0    0 -0.78923255543E+01  0.13401875219E+02 -0.73191906261E+01  0.17189229585E+02  0.51100000000E-03 0.  1.
        -12    1    3    3    0    0  0.12347948976E+01  0.12611776668E+02 -0.16353940203E+02  0.20688958150E+02  0.00000000000E+00 0.  1.
</event>
<event>
 7    1  0.2530788E-009  0.4778727E+02  0.7816164E-02  0.1312668E+00
        -11   -1    0    0    0    0  0.00000000000E+00  0.00000000000E+00  0.45593999997E+02  0.45594000000E+02  0.51100000000E-03 0.  1.
         11   -1    0    0    0    0 -0.00000000000E+00 -0.00000000000E+00 -0.45593999997E+02  0.45594000000E+02  0.51100000000E-03 0. -1.
    9900012    2    1    2    0    0 -0.26832445452E+02 -0.19084731663E+02 -0.28273948590E+02  0.47787270969E+02  0.19999999655E+02 0.  0.
        -12    1    1    2    0    0  0.26832445452E+02  0.19084731663E+02  0.28273948590E+02  0.43400729031E+02  0.00000000000E+00 0.  1.
         11    1    3    3    0    0 -0.15197274980E+02 -0.58910248399E+01 -0.20056197294E+02  0.25844001057E+02  0.51100000000E-03 0. -1.
        -11    1    3    3    0    0 -0.58835121297E+01 -0.62161838191E+01  0.14775204729E+01  0.86856043694E+01  0.51100000000E-03 0.  1.
        -12    1    3    3    0    0 -0.57516583422E+01 -0.69775230046E+01 -0.96952717691E+01  0.13257665543E+02  0.00000000000E+00 0.  1.
</event>
<event>
 7    1  0.2530788E-009  0.4778727E+02  0.7816164E-02  0.1312668E+00
        -11   -1    0    0    0    0  0.00000000000E+00  0.00000000000E+00  0.45593999997E+02  0.45594000000E+02  0.51100000000E-03 0.  1.
         11   -1    0    0    0    0 -0.00000000000E+00 -0.00000000000E+00 -0.45593999997E+02  0.45594000000E+02  0.51100000000E-03 0. -1.
    9900012    2    1    2    0    0  0.31458806266E+02  0.57998174164E+01 -0.29331364483E+02  0.47787270557E+02  0.19999997776E+02 0.  0.
        -12    1    1    2    0    0 -0.31458806266E+02 -0.57998174164E+01  0.29331364483E+02  0.43400729443E+02  0.00000000000E+00 0.  1.
         11    1    3    3    0    0  0.26913044830E+02  0.56704947996E+01 -0.17830434596E+02  0.32777902487E+02  0.51100000000E-03 0. -1.
        -11    1    3    3    0    0 -0.16169918886E+01 -0.66690333271E+00  0.20025621561E+00  0.17605469706E+01  0.51100000000E-03 0.  1.
         12    1    3    3    0    0  0.61627533246E+01  0.79622594953E+00 -0.11701186103E+02  0.13248821099E+02  0.00000000000E+00 0. -1.
</event>
<event>
 7    1  0.2530788E-009  0.4778727E+02  0.7816164E-02  0.1312668E+00
        -11   -1    0    0    0    0  0.00000000000E+00  0.00000000000E+00  0.45593999997E+02  0.45594000000E+02  0.51100000000E-03 0.  1.
         11   -1    0    0    0    0 -0.00000000000E+00 -0.00000000000E+00 -0.45593999997E+02  0.45594000000E+02  0.51100000000E-03 0. -1.
    9900012    2    1    2    0    0  0.27301419174E+02  0.28580932480E+02 -0.17927249933E+02  0.47787268664E+02  0.19999989147E+02 0.  0.
        -12    1    1    2    0    0 -0.27301419174E+02 -0.28580932480E+02  0.17927249933E+02  0.43400731336E+02  0.00000000000E+00 0.  1.
         11    1    3    3    0    0  0.60366000876E+01  0.34410902902E+01 -0.15227489002E+01  0.71133963391E+01  0.51100000000E-03 0. -1.
        -11    1    3    3    0    0  0.43225633442E+01 -0.20219535399E+01 -0.15805997489E+00  0.47747076559E+01  0.51100000000E-03 0.  1.
        -12    1    3    3    0    0  0.16942255743E+02  0.27161795729E+02 -0.16246441058E+02  0.35899164669E+02  0.00000000000E+00 0.  1.
</event>
<event>
 7    1  0.2530788E-009  0.4778727E+02  0.7816164E-02  0.1312668E+00
        -11   -1    0    0    0    0  0.00000000000E+00  0.00000000000E+00  0.45593999997E+02  0.45594000000E+02  0.51100000000E-03 0.  1.
         11   -1    0    0    0    0 -0.00000000000E+00 -0.00000000000E+00 -0.45593999997E+02  0.45594000000E+02  0.51100000000E-03 0. -1.
    9900012    2    1    2    0    0 -0.38224331199E+02  0.16334352115E+02  0.12478495789E+02  0.47787269456E+02  0.19999992756E+02 0.  0.
        -12    1    1    2    0    0  0.38224331199E+02 -0.16334352115E+02 -0.12478495789E+02  0.43400730544E+02  0.00000000000E+00 0.  1.
         11    1    3    3    0    0 -0.23914740390E+02  0.15663783449E+02  0.83550044082E+01  0.29783804639E+02  0.51100000000E-03 0. -1.
        -11    1    3    3    0    0 -0.17680816199E+01 -0.25033523664E+01 -0.20315783284E+01  0.36769819759E+01  0.51100000000E-03 0.  1.
        -12    1    3    3    0    0 -0.12541509190E+02  0.31739210318E+01  0.61550697087E+01  0.14326482841E+02  0.00000000000E+00 0.  1.
</event>
<event>
 7    1  0.2530788E-009  0.4778727E+02  0.7816164E-02  0.1312668E+00
        -11   -1    0    0    0    0  0.00000000000E+00  0.00000000000E+00  0.45593999997E+02  0.45594000000E+02  0.51100000000E-03 0. -1.
         11   -1    0    0    0    0 -0.00000000000E+00 -0.00000000000E+00 -0.45593999997E+02  0.45594000000E+02  0.51100000000E-03 0.  1.
    9900012    2    1    2    0    0  0.38255565454E+02 -0.14146495468E+02  0.14832789804E+02  0.47787271025E+02  0.19999999910E+02 0.  0.
        -12    1    1    2    0    0 -0.38255565454E+02  0.14146495468E+02 -0.14832789804E+02  0.43400728975E+02  0.00000000000E+00 0.  1.
         11    1    3    3    0    0  0.13230594201E+02 -0.10067118984E+02  0.47659947933E+01  0.17294803097E+02  0.51100000000E-03 0. -1.
        -11    1    3    3    0    0  0.51716937755E+00  0.31277773210E+01  0.47559219353E+00  0.32057204074E+01  0.51100000000E-03 0.  1.
        -12    1    3    3    0    0  0.24507801876E+02 -0.72071538043E+01  0.95912028170E+01  0.27286747520E+02  0.00000000000E+00 0.  1.
</event>
<event>
 7    1  0.2530788E-009  0.4778727E+02  0.7816164E-02  0.1312668E+00
        -11   -1    0    0    0    0  0.00000000000E+00  0.00000000000E+00  0.45593999997E+02  0.45594000000E+02  0.51100000000E-03 0.  1.
         11   -1    0    0    0    0 -0.00000000000E+00 -0.00000000000E+00 -0.45593999997E+02  0.45594000000E+02  0.51100000000E-03 0. -1.
    9900012    2    1    2    0    0  0.37596534987E+02 -0.19071250130E+02 -0.10315590511E+02  0.47787269221E+02  0.19999991687E+02 0.  0.
        -12    1    1    2    0    0 -0.37596534987E+02  0.19071250130E+02  0.10315590511E+02  0.43400730779E+02  0.00000000000E+00 0.  1.
         11    1    3    3    0    0  0.25769371688E+01  0.66793883689E+00 -0.60299120723E+01  0.65914025308E+01  0.51100000000E-03 0.  1.
        -11    1    3    3    0    0  0.14169068974E+02 -0.11545901053E+02 -0.43717233447E+01  0.18793145346E+02  0.51100000000E-03 0. -1.
         12    1    3    3    0    0  0.20850528844E+02 -0.81932879133E+01  0.86044905692E-01  0.22402721345E+02  0.00000000000E+00 0. -1.
</event>
<event>
 7    1  0.2530788E-009  0.4778727E+02  0.7816164E-02  0.1312668E+00
        -11   -1    0    0    0    0  0.00000000000E+00  0.00000000000E+00  0.45593999997E+02  0.45594000000E+02  0.51100000000E-03 0. -1.
         11   -1    0    0    0    0 -0.00000000000E+00 -0.00000000000E+00 -0.45593999997E+02  0.45594000000E+02  0.51100000000E-03 0.  1.
    9900012    2    1    2    0    0 -0.20557913270E+02 -0.28082395474E+02  0.25930179429E+02  0.47787274905E+02  0.20000017602E+02 0.  0.
        -12    1    1    2    0    0  0.20557913270E+02  0.28082395474E+02 -0.25930179429E+02  0.43400725095E+02  0.00000000000E+00 0.  1.
         11    1    3    3    0    0 -0.77939171885E+01 -0.73264706801E+01  0.60993633606E+01  0.12313592142E+02  0.51100000000E-03 0. -1.
        -11    1    3    3    0    0 -0.13276652677E+02 -0.12730825923E+02  0.57736524283E+01  0.19278965159E+02  0.51100000000E-03 0.  1.
        -12    1    3    3    0    0  0.51265659551E+00 -0.80250988702E+01  0.14057163640E+02  0.16194717604E+02  0.00000000000E+00 0.  1.
</event>
<event>
 7    1  0.2530788E-009  0.4778727E+02  0.7816164E-02  0.1312668E+00
        -11   -1    0    0    0    0  0.00000000000E+00  0.00000000000E+00  0.45593999997E+02  0.45594000000E+02  0.51100000000E-03 0.  1.
         11   -1    0    0    0    0 -0.00000000000E+00 -0.00000000000E+00 -0.45593999997E+02  0.45594000000E+02  0.51100000000E-03 0. -1.
    9900012    2    1    2    0    0  0.83775770509E+01  0.76076173341E+01 -0.41899448943E+02  0.47787268895E+02  0.19999990199E+02 0.  0.
        -12    1    1    2    0    0 -0.83775770509E+01 -0.76076173341E+01  0.41899448943E+02  0.43400731105E+02  0.00000000000E+00 0.  1.
         11    1    3    3    0    0  0.23050974626E+01  0.41847062949E+01 -0.16545527896E+02  0.17221490490E+02  0.51100000000E-03 0. -1.
        -11    1    3    3    0    0  0.58111082003E+01 -0.54605896151E+01 -0.14395120510E+02  0.16456199811E+02  0.51100000000E-03 0.  1.
        -12    1    3    3    0    0  0.26137138804E+00  0.88835006543E+01 -0.10958800537E+02  0.14109578594E+02  0.00000000000E+00 0.  1.
</event>
<event>
 7    1  0.2530788E-009  0.4778727E+02  0.7816164E-02  0.1312668E+00
        -11   -1    0    0    0    0  0.00000000000E+00  0.00000000000E+00  0.45593999997E+02  0.45594000000E+02  0.51100000000E-03 0. -1.
         11   -1    0    0    0    0 -0.00000000000E+00 -0.00000000000E+00 -0.45593999997E+02  0.45594000000E+02  0.51100000000E-03 0.  1.
    9900012    2    1    2    0    0 -0.14129848992E+02 -0.81889194883E+01  0.40210847696E+02  0.47787270659E+02  0.19999998243E+02 0.  0.
        -12    1    1    2    0    0  0.14129848992E+02  0.81889194883E+01 -0.40210847696E+02  0.43400729341E+02  0.00000000000E+00 0.  1.
         11    1    3    3    0    0 -0.59333373195E+01 -0.67436450809E+01  0.62460005161E+01  0.10940464498E+02  0.51100000000E-03 0. -1.
        -11    1    3    3    0    0 -0.48047957991E+01  0.16771745084E+01  0.38505414706E+01  0.63816648988E+01  0.51100000000E-03 0.  1.
         12    1    3    3    0    0 -0.33917158738E+01 -0.31224489158E+01  0.30114305709E+02  0.30465141262E+02  0.00000000000E+00 0. -1.
</event>
<event>
 7    1  0.2530788E-009  0.4778727E+02  0.7816164E-02  0.1312668E+00
        -11   -1    0    0    0    0  0.00000000000E+00  0.00000000000E+00  0.45593999997E+02  0.45594000000E+02  0.51100000000E-03 0. -1.
         11   -1    0    0    0    0 -0.00000000000E+00 -0.00000000000E+00 -0.45593999997E+02  0.45594000000E+02  0.51100000000E-03 0.  1.
    9900012    2    1    2    0    0  0.19449532492E+02 -0.37008003728E+01  0.38621795825E+02  0.47787270164E+02  0.19999995986E+02 0.  0.
        -12    1    1    2    0    0 -0.19449532492E+02  0.37008003728E+01 -0.38621795825E+02  0.43400729836E+02  0.00000000000E+00 0.  1.
         11    1    3    3    0    0  0.79087865272E+01  0.13010648613E+01  0.40119070694E+01  0.89630950403E+01  0.51100000000E-03 0.  1.
        -11    1    3    3    0    0  0.84550024592E+01 -0.88552442821E+01  0.28122424539E+02  0.30672026019E+02  0.51100000000E-03 0. -1.
        -12    1    3    3    0    0  0.30857435061E+01  0.38533790480E+01  0.64874642163E+01  0.81521491050E+01  0.00000000000E+00 0.  1.
</event>
<event>
 7    1  0.2530788E-009  0.4778727E+02  0.7816164E-02  0.1312668E+00
        -11   -1    0    0    0    0  0.00000000000E+00  0.00000000000E+00  0.45593999997E+02  0.45594000000E+02  0.51100000000E-03 0.  1.
         11   -1    0    0    0    0 -0.00000000000E+00 -0.00000000000E+00 -0.45593999997E+02  0.45594000000E+02  0.51100000000E-03 0. -1.
    9900012    2    1    2    0    0 -0.17274120983E+02 -0.38718889147E+02  0.92776879164E+01  0.47787272753E+02  0.20000007789E+02 0.  0.
        -12    1    1    2    0    0  0.17274120983E+02  0.38718889147E+02 -0.92776879164E+01  0.43400727247E+02  0.00000000000E+00 0.  1.
         11    1    3    3    0    0 -0.17290978429E+01 -0.55399846788E+01 -0.51073947550E+00  0.58259818627E+01  0.51100000000E-03 0. -1.
        -11    1    3    3    0    0 -0.17978825863E+01 -0.29097530796E+01 -0.46035535744E+01  0.57351330021E+01  0.51100000000E-03 0.  1.
        -12    1    3    3    0    0 -0.13747140554E+02 -0.30269151389E+02  0.14391980966E+02  0.36226157888E+02  0.00000000000E+00 0.  1.
</event>
<event>
 7    1  0.2530788E-009  0.4778727E+02  0.7816164E-02  0.1312668E+00
        -11   -1    0    0    0    0  0.00000000000E+00  0.00000000000E+00  0.45593999997E+02  0.45594000000E+02  0.51100000000E-03 0.  1.
         11   -1    0    0    0    0 -0.00000000000E+00 -0.00000000000E+00 -0.45593999997E+02  0.45594000000E+02  0.51100000000E-03 0. -1.
    9900012    2    1    2    0    0 -0.13581648501E+02  0.41100908685E+02  0.31428268305E+01  0.47787271536E+02  0.20000002241E+02 0.  0.
        -12    1    1    2    0    0  0.13581648501E+02 -0.41100908685E+02 -0.31428268305E+01  0.43400728464E+02  0.00000000000E+00 0.  1.
         11    1    3    3    0    0 -0.85417638713E+01  0.17807650419E+02  0.43863406238E+01  0.20231513236E+02  0.51100000000E-03 0.  1.
        -11    1    3    3    0    0  0.36186743455E+01  0.14907728842E+02  0.64998667472E+00  0.15354402176E+02  0.51100000000E-03 0. -1.
        -12    1    3    3    0    0 -0.86585589751E+01  0.83855294234E+01 -0.18935004681E+01  0.12201356124E+02  0.00000000000E+00 0.  1.
</event>
<event>
 7    1  0.2530788E-009  0.4778727E+02  0.7816164E-02  0.1312668E+00
        -11   -1    0    0    0    0  0.00000000000E+00  0.00000000000E+00  0.45593999997E+02  0.45594000000E+02  0.51100000000E-03 0.  1.
         11   -1    0    0    0    0 -0.00000000000E+00 -0.00000000000E+00 -0.45593999997E+02  0.45594000000E+02  0.51100000000E-03 0. -1.
    9900012    2    1    2    0    0 -0.34801455053E+02  0.31914127091E+00 -0.25930292003E+02  0.47787272260E+02  0.20000005543E+02 0.  0.
        -12    1    1    2    0    0  0.34801455053E+02 -0.31914127091E+00  0.25930292003E+02  0.43400727740E+02  0.00000000000E+00 0.  1.
         11    1    3    3    0    0 -0.92890878869E+01 -0.27243409224E+01 -0.11344765125E+02  0.14913513444E+02  0.51100000000E-03 0. -1.
        -11    1    3    3    0    0 -0.24869013334E+02 -0.10630225080E+01 -0.14301019268E+02  0.28707437946E+02  0.51100000000E-03 0.  1.
        -12    1    3    3    0    0 -0.64335383237E+00  0.41065047013E+01 -0.28450761033E+00  0.41663208705E+01  0.00000000000E+00 0.  1.
</event>
<event>
 7    1  0.2530788E-009  0.4778727E+02  0.7816164E-02  0.1312668E+00
        -11   -1    0    0    0    0  0.00000000000E+00  0.00000000000E+00  0.45593999997E+02  0.45594000000E+02  0.51100000000E-03 0. -1.
         11   -1    0    0    0    0 -0.00000000000E+00 -0.00000000000E+00 -0.45593999997E+02  0.45594000000E+02  0.51100000000E-03 0.  1.
    9900012    2    1    2    0    0 -0.15848975237E+02  0.21785232216E+02  0.34027009883E+02  0.47787265440E+02  0.19999974447E+02 0.  0.
        -12    1    1    2    0    0  0.15848975237E+02 -0.21785232216E+02 -0.34027009883E+02  0.43400734560E+02  0.00000000000E+00 0.  1.
         11    1    3    3    0    0 -0.59452829548E+01  0.19386798922E+02  0.17543321409E+02  0.26813475869E+02  0.51100000000E-03 0. -1.
        -11    1    3    3    0    0  0.86766270575E+00  0.17857258164E+01  0.40600817966E+01  0.45195043665E+01  0.51100000000E-03 0.  1.
         12    1    3    3    0    0 -0.10771354988E+02  0.61270747805E+00  0.12423606677E+02  0.16454285205E+02  0.00000000000E+00 0. -1.
</event>
<event>
 7    1  0.2530788E-009  0.4778727E+02  0.7816164E-02  0.1312668E+00
        -11   -1    0    0    0    0  0.00000000000E+00  0.00000000000E+00  0.45593999997E+02  0.45594000000E+02  0.51100000000E-03 0.  1.
         11   -1    0    0    0    0 -0.00000000000E+00 -0.00000000000E+00 -0.45593999997E+02  0.45594000000E+02  0.51100000000E-03 0. -1.
    9900012    2    1    2    0    0 -0.15543589955E+02  0.29986413614E+02 -0.27254998659E+02  0.47787272564E+02  0.20000006929E+02 0.  0.
        -12    1    1    2    0    0  0.15543589955E+02 -0.29986413614E+02  0.27254998659E+02  0.43400727436E+02  0.00000000000E+00 0.  1.
         11    1    3    3    0    0 -0.38180753356E+01  0.63188754873E+01 -0.16159320370E+02  0.17765965265E+02  0.51100000000E-03 0. -1.
        -11    1    3    3    0    0  0.11511215241E+01  0.50924905857E+01 -0.29482293806E+01  0.59958817426E+01  0.51100000000E-03 0.  1.
         12    1    3    3    0    0 -0.12876636143E+02  0.18575047541E+02 -0.81474489077E+01  0.24025425557E+02  0.00000000000E+00 0. -1.
</event>
<event>
 7    1  0.2530788E-009  0.4778727E+02  0.7816164E-02  0.1312668E+00
        -11   -1    0    0    0    0  0.00000000000E+00  0.00000000000E+00  0.45593999997E+02  0.45594000000E+02  0.51100000000E-03 0.  1.
         11   -1    0    0    0    0 -0.00000000000E+00 -0.00000000000E+00 -0.45593999997E+02  0.45594000000E+02  0.51100000000E-03 0. -1.
    9900012    2    1    2    0    0 -0.34238402249E+02  0.23711082043E+02 -0.12212273215E+02  0.47787271696E+02  0.20000002971E+02 0.  0.
        -12    1    1    2    0    0  0.34238402249E+02 -0.23711082043E+02  0.12212273215E+02  0.43400728304E+02  0.00000000000E+00 0.  1.
         11    1    3    3    0    0 -0.16056259191E+01  0.62476485827E+01 -0.77945032513E+01  0.10117580175E+02  0.51100000000E-03 0. -1.
        -11    1    3    3    0    0 -0.10830878014E+02  0.38725949120E+01  0.49514900689E+00  0.11513039681E+02  0.51100000000E-03 0.  1.
         12    1    3    3    0    0 -0.21801898316E+02  0.13590838549E+02 -0.49129189703E+01  0.26156651840E+02  0.00000000000E+00 0. -1.
</event>
<event>
 7    1  0.2530788E-009  0.4778727E+02  0.7816164E-02  0.1312668E+00
        -11   -1    0    0    0    0  0.00000000000E+00  0.00000000000E+00  0.45593999997E+02  0.45594000000E+02  0.51100000000E-03 0.  1.
         11   -1    0    0    0    0 -0.00000000000E+00 -0.00000000000E+00 -0.45593999997E+02  0.45594000000E+02  0.51100000000E-03 0. -1.
    9900012    2    1    2    0    0  0.41096294106E+02 -0.10707922317E+02 -0.89475397171E+01  0.47787268939E+02  0.19999990402E+02 0.  0.
        -12    1    1    2    0    0 -0.41096294106E+02  0.10707922317E+02  0.89475397171E+01  0.43400731061E+02  0.00000000000E+00 0.  1.
         11    1    3    3    0    0  0.77278296063E+01 -0.61366856998E+01 -0.88162734938E-01  0.98684362860E+01  0.51100000000E-03 0. -1.
        -11    1    3    3    0    0  0.18924061717E+01 -0.56830208697E+00  0.33761635693E+01  0.39118600548E+01  0.51100000000E-03 0.  1.
        -12    1    3    3    0    0  0.31476058328E+02 -0.40029345303E+01 -0.12235540551E+02  0.34006972599E+02  0.00000000000E+00 0.  1.
</event>
<event>
 7    1  0.2530788E-009  0.4778727E+02  0.7816164E-02  0.1312668E+00
        -11   -1    0    0    0    0  0.00000000000E+00  0.00000000000E+00  0.45593999997E+02  0.45594000000E+02  0.51100000000E-03 0. -1.
         11   -1    0    0    0    0 -0.00000000000E+00 -0.00000000000E+00 -0.45593999997E+02  0.45594000000E+02  0.51100000000E-03 0.  1.
    9900012    2    1    2    0    0  0.24606511356E+02  0.10028587201E+02  0.34315740506E+02  0.47787274098E+02  0.20000013922E+02 0.  0.
        -12    1    1    2    0    0 -0.24606511356E+02 -0.10028587201E+02 -0.34315740506E+02  0.43400725902E+02  0.00000000000E+00 0.  1.
         11    1    3    3    0    0  0.63682528711E+01  0.12629908263E+00  0.21826269310E+01  0.67330867118E+01  0.51100000000E-03 0. -1.
        -11    1    3    3    0    0  0.20142690856E+02  0.77487359299E+01  0.23274252168E+02  0.31740537451E+02  0.51100000000E-03 0.  1.
        -12    1    3    3    0    0 -0.19044323710E+01  0.21535521886E+01  0.88588614074E+01  0.93136499354E+01  0.00000000000E+00 0.  1.
</event>
<event>
 7    1  0.2530788E-009  0.4778727E+02  0.7816164E-02  0.1312668E+00
        -11   -1    0    0    0    0  0.00000000000E+00  0.00000000000E+00  0.45593999997E+02  0.45594000000E+02  0.51100000000E-03 0.  1.
         11   -1    0    0    0    0 -0.00000000000E+00 -0.00000000000E+00 -0.45593999997E+02  0.45594000000E+02  0.51100000000E-03 0. -1.
    9900012    2    1    2    0    0  0.26067273375E+02 -0.11969952912E+02 -0.32570557995E+02  0.47787265421E+02  0.19999974360E+02 0.  0.
        -12    1    1    2    0    0 -0.26067273375E+02  0.11969952912E+02  0.32570557995E+02  0.43400734579E+02  0.00000000000E+00 0.  1.
         11    1    3    3    0    0  0.15138640165E+02 -0.65232927656E+01 -0.26976130092E+02  0.31613974277E+02  0.51100000000E-03 0. -1.
        -11    1    3    3    0    0  0.19532482613E+01  0.70761645582E+00 -0.48370288124E+01  0.52642898678E+01  0.51100000000E-03 0.  1.
         12    1    3    3    0    0  0.89753849479E+01 -0.61542766020E+01 -0.75739909014E+00  0.10909001276E+02  0.00000000000E+00 0. -1.
</event>
<event>
 7    1  0.2530788E-009  0.4778727E+02  0.7816164E-02  0.1312668E+00
        -11   -1    0    0    0    0  0.00000000000E+00  0.00000000000E+00  0.45593999997E+02  0.45594000000E+02  0.51100000000E-03 0.  1.
         11   -1    0    0    0    0 -0.00000000000E+00 -0.00000000000E+00 -0.45593999997E+02  0.45594000000E+02  0.51100000000E-03 0. -1.
    9900012    2    1    2    0    0  0.34561691522E+02  0.11019199674E+02 -0.23826252660E+02  0.47787267308E+02  0.19999982966E+02 0.  0.
        -12    1    1    2    0    0 -0.34561691522E+02 -0.11019199674E+02  0.23826252660E+02  0.43400732692E+02  0.00000000000E+00 0.  1.
         11    1    3    3    0    0  0.22449759802E+02 -0.18882722397E+01 -0.15787417767E+02  0.27509995406E+02  0.51100000000E-03 0. -1.
        -11    1    3    3    0    0  0.18197205807E+01  0.56171499384E+01 -0.35504895752E+01  0.68898282204E+01  0.51100000000E-03 0.  1.
        -12    1    3    3    0    0  0.10292211140E+02  0.72903219758E+01 -0.44883453181E+01  0.13387443682E+02  0.00000000000E+00 0.  1.
</event>
<event>
 7    1  0.2530788E-009  0.4778726E+02  0.7816164E-02  0.1312668E+00
        -11   -1    0    0    0    0  0.00000000000E+00  0.00000000000E+00  0.45593999997E+02  0.45594000000E+02  0.51100000000E-03 0.  1.
         11   -1    0    0    0    0 -0.00000000000E+00 -0.00000000000E+00 -0.45593999997E+02  0.45594000000E+02  0.51100000000E-03 0. -1.
    9900012    2    1    2    0    0  0.67850559428E+01 -0.13562219448E+02 -0.40665142843E+02  0.47787255502E+02  0.19999929138E+02 0.  0.
        -12    1    1    2    0    0 -0.67850559428E+01  0.13562219448E+02  0.40665142843E+02  0.43400744498E+02  0.00000000000E+00 0.  1.
         11    1    3    3    0    0  0.10710884102E+01 -0.11497185380E+02 -0.39065023178E+02  0.40735838498E+02  0.51100000000E-03 0. -1.
        -11    1    3    3    0    0  0.38194037866E+01 -0.20122963675E+01  0.35097124998E+00  0.43313234738E+01  0.51100000000E-03 0.  1.
        -12    1    3    3    0    0  0.18945637460E+01 -0.52737700631E-01 -0.19510909153E+01  0.27200935301E+01  0.00000000000E+00 0.  1.
</event>
<event>
 7    1  0.2530788E-009  0.4778727E+02  0.7816164E-02  0.1312668E+00
        -11   -1    0    0    0    0  0.00000000000E+00  0.00000000000E+00  0.45593999997E+02  0.45594000000E+02  0.51100000000E-03 0.  1.
         11   -1    0    0    0    0 -0.00000000000E+00 -0.00000000000E+00 -0.45593999997E+02  0.45594000000E+02  0.51100000000E-03 0. -1.
    9900012    2    1    2    0    0 -0.33293387651E+01  0.92766254864E+01 -0.42266808400E+02  0.47787269945E+02  0.19999994987E+02 0.  0.
        -12    1    1    2    0    0  0.33293387651E+01 -0.92766254864E+01  0.42266808400E+02  0.43400730055E+02  0.00000000000E+00 0.  1.
         11    1    3    3    0    0  0.63838066309E+00 -0.48542033956E+01 -0.22996844544E+02  0.23512245314E+02  0.51100000000E-03 0. -1.
        -11    1    3    3    0    0 -0.27483016524E+01  0.78141280994E+01 -0.98856246037E+01  0.12897260717E+02  0.51100000000E-03 0.  1.
         12    1    3    3    0    0 -0.12194177758E+01  0.63167007827E+01 -0.93843392521E+01  0.11377763914E+02  0.00000000000E+00 0. -1.
</event>
<event>
 7    1  0.2530788E-009  0.4778727E+02  0.7816164E-02  0.1312668E+00
        -11   -1    0    0    0    0  0.00000000000E+00  0.00000000000E+00  0.45593999997E+02  0.45594000000E+02  0.51100000000E-03 0. -1.
         11   -1    0    0    0    0 -0.00000000000E+00 -0.00000000000E+00 -0.45593999997E+02  0.45594000000E+02  0.51100000000E-03 0.  1.
    9900012    2    1    2    0    0  0.39842407595E+02 -0.32757061512E+01 -0.16896018324E+02  0.47787272714E+02  0.20000007613E+02 0.  0.
        -12    1    1    2    0    0 -0.39842407595E+02  0.32757061512E+01  0.16896018324E+02  0.43400727286E+02  0.00000000000E+00 0.  1.
         11    1    3    3    0    0  0.16079459606E+02  0.32576776255E+01  0.13831154043E+01  0.16464340048E+02  0.51100000000E-03 0. -1.
        -11    1    3    3    0    0  0.11936356056E+02 -0.30946284026E+01 -0.13014676834E+02  0.17928612166E+02  0.51100000000E-03 0.  1.
         12    1    3    3    0    0  0.11826591933E+02 -0.34387553741E+01 -0.52644568941E+01  0.13394320500E+02  0.00000000000E+00 0. -1.
</event>
<event>
 7    1  0.2530788E-009  0.4778727E+02  0.7816164E-02  0.1312668E+00
        -11   -1    0    0    0    0  0.00000000000E+00  0.00000000000E+00  0.45593999997E+02  0.45594000000E+02  0.51100000000E-03 0.  1.
         11   -1    0    0    0    0 -0.00000000000E+00 -0.00000000000E+00 -0.45593999997E+02  0.45594000000E+02  0.51100000000E-03 0. -1.
    9900012    2    1    2    0    0  0.34011903618E+02  0.89711300611E+01 -0.25423071148E+02  0.47787270641E+02  0.19999998160E+02 0.  0.
        -12    1    1    2    0    0 -0.34011903618E+02 -0.89711300611E+01  0.25423071148E+02  0.43400729359E+02  0.00000000000E+00 0.  1.
         11    1    3    3    0    0  0.19994015916E+02  0.92996082737E+01 -0.16412084805E+02  0.27488177720E+02  0.51100000000E-03 0. -1.
        -11    1    3    3    0    0  0.63562348414E+01 -0.33283325187E+01 -0.96741052445E+01  0.12044410789E+02  0.51100000000E-03 0.  1.
        -12    1    3    3    0    0  0.76616528609E+01  0.29998543060E+01  0.66311890072E+00  0.82546821316E+01  0.00000000000E+00 0.  1.
</event>
<event>
 7    1  0.2530788E-009  0.4778727E+02  0.7816164E-02  0.1312668E+00
        -11   -1    0    0    0    0  0.00000000000E+00  0.00000000000E+00  0.45593999997E+02  0.45594000000E+02  0.51100000000E-03 0.  1.
         11   -1    0    0    0    0 -0.00000000000E+00 -0.00000000000E+00 -0.45593999997E+02  0.45594000000E+02  0.51100000000E-03 0. -1.
    9900012    2    1    2    0    0  0.30935634091E+02  0.17917286390E+02 -0.24608549827E+02  0.47787270365E+02  0.19999996904E+02 0.  0.
        -12    1    1    2    0    0 -0.30935634091E+02 -0.17917286390E+02  0.24608549827E+02  0.43400729635E+02  0.00000000000E+00 0.  1.
         11    1    3    3    0    0  0.19136565205E+02  0.94443997098E+01 -0.16338220410E+02  0.26876425732E+02  0.51100000000E-03 0. -1.
        -11    1    3    3    0    0 -0.69887168224E+00 -0.21270952588E+01  0.54249569442E+00  0.23037486208E+01  0.51100000000E-03 0.  1.
        -12    1    3    3    0    0  0.12497940569E+02  0.10599981939E+02 -0.88128251120E+01  0.18607096012E+02  0.00000000000E+00 0.  1.
</event>
<event>
 7    1  0.2530788E-009  0.4778727E+02  0.7816164E-02  0.1312668E+00
        -11   -1    0    0    0    0  0.00000000000E+00  0.00000000000E+00  0.45593999997E+02  0.45594000000E+02  0.51100000000E-03 0. -1.
         11   -1    0    0    0    0 -0.00000000000E+00 -0.00000000000E+00 -0.45593999997E+02  0.45594000000E+02  0.51100000000E-03 0.  1.
    9900012    2    1    2    0    0  0.29420073225E+02  0.31420867719E+02  0.55508215306E+01  0.47787271245E+02  0.20000000913E+02 0.  0.
        -12    1    1    2    0    0 -0.29420073225E+02 -0.31420867719E+02 -0.55508215306E+01  0.43400728755E+02  0.00000000000E+00 0.  1.
         11    1    3    3    0    0  0.23315703861E+02  0.24138026844E+02  0.17871966602E+01  0.33607446476E+02  0.51100000000E-03 0. -1.
        -11    1    3    3    0    0 -0.12629465827E+01  0.85244175877E+00 -0.22369761537E+01  0.27066129380E+01  0.51100000000E-03 0.  1.
        -12    1    3    3    0    0  0.73673159472E+01  0.64303991165E+01  0.60006010241E+01  0.11473211831E+02  0.00000000000E+00 0.  1.
</event>
<event>
 7    1  0.2530788E-009  0.4778727E+02  0.7816164E-02  0.1312668E+00
        -11   -1    0    0    0    0  0.00000000000E+00  0.00000000000E+00  0.45593999997E+02  0.45594000000E+02  0.51100000000E-03 0. -1.
         11   -1    0    0    0    0 -0.00000000000E+00 -0.00000000000E+00 -0.45593999997E+02  0.45594000000E+02  0.51100000000E-03 0.  1.
    9900012    2    1    2    0    0 -0.24967734291E+02  0.28687239106E+02  0.20911193229E+02  0.47787269068E+02  0.19999990989E+02 0.  0.
        -12    1    1    2    0    0  0.24967734291E+02 -0.28687239106E+02 -0.20911193229E+02  0.43400730932E+02  0.00000000000E+00 0.  1.
         11    1    3    3    0    0 -0.58411825510E+01  0.14689657924E+02  0.90608225951E+01  0.18220976096E+02  0.51100000000E-03 0.  1.
        -11    1    3    3    0    0 -0.15130653914E+02  0.64676193757E+01  0.20578199723E+01  0.16583166511E+02  0.51100000000E-03 0. -1.
         12    1    3    3    0    0 -0.39958978269E+01  0.75299618064E+01  0.97925506614E+01  0.12983126461E+02  0.00000000000E+00 0. -1.
</event>
<event>
 7    1  0.2530788E-009  0.4778727E+02  0.7816164E-02  0.1312668E+00
        -11   -1    0    0    0    0  0.00000000000E+00  0.00000000000E+00  0.45593999997E+02  0.45594000000E+02  0.51100000000E-03 0. -1.
         11   -1    0    0    0    0 -0.00000000000E+00 -0.00000000000E+00 -0.45593999997E+02  0.45594000000E+02  0.51100000000E-03 0.  1.
    9900012    2    1    2    0    0 -0.17143552153E+02 -0.37955812168E+02  0.12209754514E+02  0.47787272321E+02  0.20000005822E+02 0.  0.
        -12    1    1    2    0    0  0.17143552153E+02  0.37955812168E+02 -0.12209754514E+02  0.43400727679E+02  0.00000000000E+00 0.  1.
         11    1    3    3    0    0 -0.69962602394E+01 -0.53426986270E+01 -0.34506452559E+01  0.94551064986E+01  0.51100000000E-03 0. -1.
        -11    1    3    3    0    0 -0.41905898699E+00 -0.20695525802E+01 -0.84817425445E+00  0.22755346940E+01  0.51100000000E-03 0.  1.
         12    1    3    3    0    0 -0.97282329269E+01 -0.30543560961E+02  0.16508574025E+02  0.36056631129E+02  0.00000000000E+00 0. -1.
</event>
<event>
 7    1  0.2530788E-009  0.4778728E+02  0.7816164E-02  0.1312668E+00
        -11   -1    0    0    0    0  0.00000000000E+00  0.00000000000E+00  0.45593999997E+02  0.45594000000E+02  0.51100000000E-03 0.  1.
         11   -1    0    0    0    0 -0.00000000000E+00 -0.00000000000E+00 -0.45593999997E+02  0.45594000000E+02  0.51100000000E-03 0. -1.
    9900012    2    1    2    0    0 -0.42373582473E+02  0.93433194152E+01  0.89674908928E+00  0.47787282630E+02  0.20000052825E+02 0.  0.
        -12    1    1    2    0    0  0.42373582473E+02 -0.93433194152E+01 -0.89674908928E+00  0.43400717370E+02  0.00000000000E+00 0.  1.
         11    1    3    3    0    0 -0.35389724442E+02  0.65580205143E+01  0.35507921061E+01  0.36166951129E+02  0.51100000000E-03 0. -1.
        -11    1    3    3    0    0 -0.73368371673E+01  0.49337813936E+01 -0.10241709757E+01  0.89005789086E+01  0.51100000000E-03 0.  1.
         12    1    3    3    0    0  0.35297913671E+00 -0.21484824928E+01 -0.16298720412E+01  0.27197525923E+01  0.00000000000E+00 0. -1.
</event>
<event>
 7    1  0.2530788E-009  0.4778727E+02  0.7816164E-02  0.1312668E+00
        -11   -1    0    0    0    0  0.00000000000E+00  0.00000000000E+00  0.45593999997E+02  0.45594000000E+02  0.51100000000E-03 0.  1.
         11   -1    0    0    0    0 -0.00000000000E+00 -0.00000000000E+00 -0.45593999997E+02  0.45594000000E+02  0.51100000000E-03 0. -1.
    9900012    2    1    2    0    0 -0.79116462729E+01  0.25748049572E+02 -0.34030385739E+02  0.47787270086E+02  0.19999995631E+02 0.  0.
        -12    1    1    2    0    0  0.79116462729E+01 -0.25748049572E+02  0.34030385739E+02  0.43400729914E+02  0.00000000000E+00 0.  1.
         11    1    3    3    0    0  0.19038135276E+01  0.53471585342E+01 -0.79004377770E+01  0.97279765454E+01  0.51100000000E-03 0. -1.
        -11    1    3    3    0    0 -0.63073513670E+01  0.20609202679E+02 -0.14667558743E+02  0.26070274184E+02  0.51100000000E-03 0.  1.
        -12    1    3    3    0    0 -0.35081084336E+01 -0.20831164081E+00 -0.11462389219E+02  0.11989019357E+02  0.00000000000E+00 0.  1.
</event>
<event>
 7    1  0.2530788E-009  0.4778727E+02  0.7816164E-02  0.1312668E+00
        -11   -1    0    0    0    0  0.00000000000E+00  0.00000000000E+00  0.45593999997E+02  0.45594000000E+02  0.51100000000E-03 0.  1.
         11   -1    0    0    0    0 -0.00000000000E+00 -0.00000000000E+00 -0.45593999997E+02  0.45594000000E+02  0.51100000000E-03 0. -1.
    9900012    2    1    2    0    0 -0.22459669214E+01  0.16693394920E+02 -0.39998868218E+02  0.47787271204E+02  0.20000000726E+02 0.  0.
        -12    1    1    2    0    0  0.22459669214E+01 -0.16693394920E+02  0.39998868218E+02  0.43400728796E+02  0.00000000000E+00 0.  1.
         11    1    3    3    0    0 -0.48763866112E+01 -0.21887490444E+01 -0.80733603527E+01  0.96824024089E+01  0.51100000000E-03 0. -1.
        -11    1    3    3    0    0  0.55027396575E+01  0.13039477690E+02 -0.23832531459E+02  0.27718183168E+02  0.51100000000E-03 0.  1.
         12    1    3    3    0    0 -0.28723199677E+01  0.58426662741E+01 -0.80929764065E+01  0.10386685626E+02  0.00000000000E+00 0. -1.
</event>
<event>
 7    1  0.2530788E-009  0.4778727E+02  0.7816164E-02  0.1312668E+00
        -11   -1    0    0    0    0  0.00000000000E+00  0.00000000000E+00  0.45593999997E+02  0.45594000000E+02  0.51100000000E-03 0.  1.
         11   -1    0    0    0    0 -0.00000000000E+00 -0.00000000000E+00 -0.45593999997E+02  0.45594000000E+02  0.51100000000E-03 0. -1.
    9900012    2    1    2    0    0  0.33229421836E+02  0.18283725917E+02 -0.21098203680E+02  0.47787270657E+02  0.19999998234E+02 0.  0.
        -12    1    1    2    0    0 -0.33229421836E+02 -0.18283725917E+02  0.21098203680E+02  0.43400729343E+02  0.00000000000E+00 0.  1.
         11    1    3    3    0    0  0.53046835622E+01  0.81817225413E+01 -0.70501539536E+00  0.97763642734E+01  0.51100000000E-03 0. -1.
        -11    1    3    3    0    0  0.21694752868E+02  0.92157310346E+01 -0.21155109136E+02  0.31672237738E+02  0.51100000000E-03 0.  1.
        -12    1    3    3    0    0  0.62299854053E+01  0.88627234156E+00  0.76192085114E+00  0.63386686455E+01  0.00000000000E+00 0.  1.
</event>
<event>
 7    1  0.2530788E-009  0.4778725E+02  0.7816164E-02  0.1312668E+00
        -11   -1    0    0    0    0  0.00000000000E+00  0.00000000000E+00  0.45593999997E+02  0.45594000000E+02  0.51100000000E-03 0.  1.
         11   -1    0    0    0    0 -0.00000000000E+00 -0.00000000000E+00 -0.45593999997E+02  0.45594000000E+02  0.51100000000E-03 0. -1.
    9900012    2    1    2    0    0 -0.47887055226E+01  0.23812138767E+02 -0.35967700080E+02  0.47787249980E+02  0.19999903959E+02 0.  0.
        -12    1    1    2    0    0  0.47887055226E+01 -0.23812138767E+02  0.35967700080E+02  0.43400750020E+02  0.00000000000E+00 0.  1.
         11    1    3    3    0    0 -0.63652071558E+01  0.17436538690E+02 -0.24833537571E+02  0.31004085734E+02  0.51100000000E-03 0. -1.
        -11    1    3    3    0    0 -0.23785009492E+01 -0.10950271309E+01  0.22032480361E+00  0.26277165873E+01  0.51100000000E-03 0.  1.
         12    1    3    3    0    0  0.39550025823E+01  0.74706272078E+01 -0.11354487313E+02  0.14155447659E+02  0.00000000000E+00 0. -1.
</event>
<event>
 7    1  0.2530788E-009  0.4778727E+02  0.7816164E-02  0.1312668E+00
        -11   -1    0    0    0    0  0.00000000000E+00  0.00000000000E+00  0.45593999997E+02  0.45594000000E+02  0.51100000000E-03 0.  1.
         11   -1    0    0    0    0 -0.00000000000E+00 -0.00000000000E+00 -0.45593999997E+02  0.45594000000E+02  0.51100000000E-03 0. -1.
    9900012    2    1    2    0    0  0.31555752661E+02 -0.10878624938E+01 -0.29777082278E+02  0.47787267290E+02  0.19999982881E+02 0.  0.
        -12    1    1    2    0    0 -0.31555752661E+02  0.10878624938E+01  0.29777082278E+02  0.43400732710E+02  0.00000000000E+00 0.  1.
         11    1    3    3    0    0  0.10921355064E+02 -0.71574855629E+01 -0.18526250400E+02  0.22665558677E+02  0.51100000000E-03 0.  1.
        -11    1    3    3    0    0  0.17444498746E+02  0.36770578787E+01 -0.11347920406E+02  0.21133068612E+02  0.51100000000E-03 0. -1.
        -12    1    3    3    0    0  0.31898988510E+01  0.23925651904E+01  0.97088528325E-01  0.39886400004E+01  0.00000000000E+00 0.  1.
</event>
<event>
 7    1  0.2530788E-009  0.4778728E+02  0.7816164E-02  0.1312668E+00
        -11   -1    0    0    0    0  0.00000000000E+00  0.00000000000E+00  0.45593999997E+02  0.45594000000E+02  0.51100000000E-03 0.  1.
         11   -1    0    0    0    0 -0.00000000000E+00 -0.00000000000E+00 -0.45593999997E+02  0.45594000000E+02  0.51100000000E-03 0. -1.
    9900012    2    1    2    0    0 -0.34800274926E+02 -0.14801954840E+02 -0.21294729669E+02  0.47787279802E+02  0.20000039928E+02 0.  0.
        -12    1    1    2    0    0  0.34800274926E+02  0.14801954840E+02  0.21294729669E+02  0.43400720198E+02  0.00000000000E+00 0.  1.
         11    1    3    3    0    0 -0.23813970974E+02 -0.53606659128E+01 -0.21531720751E+02  0.32549300320E+02  0.51100000000E-03 0. -1.
        -11    1    3    3    0    0 -0.62595236534E+01 -0.37954012562E+01  0.21513453902E+01  0.76298751177E+01  0.51100000000E-03 0.  1.
         12    1    3    3    0    0 -0.47267802989E+01 -0.56458876715E+01 -0.19143543083E+01  0.76081043638E+01  0.00000000000E+00 0. -1.
</event>
<event>
 7    1  0.2530788E-009  0.4778727E+02  0.7816164E-02  0.1312668E+00
        -11   -1    0    0    0    0  0.00000000000E+00  0.00000000000E+00  0.45593999997E+02  0.45594000000E+02  0.51100000000E-03 0.  1.
         11   -1    0    0    0    0 -0.00000000000E+00 -0.00000000000E+00 -0.45593999997E+02  0.45594000000E+02  0.51100000000E-03 0. -1.
    9900012    2    1    2    0    0  0.31941837754E+02  0.80254673957E+01 -0.28265423150E+02  0.47787271067E+02  0.20000000104E+02 0.  0.
        -12    1    1    2    0    0 -0.31941837754E+02 -0.80254673957E+01  0.28265423150E+02  0.43400728933E+02  0.00000000000E+00 0.  1.
         11    1    3    3    0    0  0.11587352855E+02  0.96276942792E+01 -0.60299660805E+01  0.16227129584E+02  0.51100000000E-03 0. -1.
        -11    1    3    3    0    0  0.73772242695E+01 -0.42108880652E+01 -0.51012967082E+01  0.99084935578E+01  0.51100000000E-03 0.  1.
         12    1    3    3    0    0  0.12977260629E+02  0.26086611817E+01 -0.17134160362E+02  0.21651647926E+02  0.00000000000E+00 0. -1.
</event>
<event>
 7    1  0.2530788E-009  0.4778728E+02  0.7816164E-02  0.1312668E+00
        -11   -1    0    0    0    0  0.00000000000E+00  0.00000000000E+00  0.45593999997E+02  0.45594000000E+02  0.51100000000E-03 0.  1.
         11   -1    0    0    0    0 -0.00000000000E+00 -0.00000000000E+00 -0.45593999997E+02  0.45594000000E+02  0.51100000000E-03 0. -1.
    9900012    2    1    2    0    0  0.14863076627E+02  0.25763575603E+02 -0.31606169343E+02  0.47787276328E+02  0.20000024091E+02 0.  0.
        -12    1    1    2    0    0 -0.14863076627E+02 -0.25763575603E+02  0.31606169343E+02  0.43400723672E+02  0.00000000000E+00 0.  1.
         11    1    3    3    0    0  0.13234424617E+02  0.14697610503E+02 -0.27780617081E+02  0.34101795188E+02  0.51100000000E-03 0. -1.
        -11    1    3    3    0    0  0.16907588547E+01  0.83789976502E+01  0.53342760874E+00  0.85645088827E+01  0.51100000000E-03 0.  1.
         12    1    3    3    0    0 -0.62106844283E-01  0.26869674503E+01 -0.43589798713E+01  0.51209722570E+01  0.00000000000E+00 0. -1.
</event>
<event>
 7    1  0.2530788E-009  0.4778727E+02  0.7816164E-02  0.1312668E+00
        -11   -1    0    0    0    0  0.00000000000E+00  0.00000000000E+00  0.45593999997E+02  0.45594000000E+02  0.51100000000E-03 0. -1.
         11   -1    0    0    0    0 -0.00000000000E+00 -0.00000000000E+00 -0.45593999997E+02  0.45594000000E+02  0.51100000000E-03 0.  1.
    9900012    2    1    2    0    0  0.21692100502E+02 -0.32601585050E+02 -0.18713978781E+02  0.47787267589E+02  0.19999984247E+02 0.  0.
        -12    1    1    2    0    0 -0.21692100502E+02  0.32601585050E+02  0.18713978781E+02  0.43400732411E+02  0.00000000000E+00 0.  1.
         11    1    3    3    0    0  0.13287484084E+02 -0.27260850343E+02 -0.17081209124E+02  0.34806305464E+02  0.51100000000E-03 0. -1.
        -11    1    3    3    0    0  0.80241145042E+01 -0.25449759643E+01  0.17272294824E+01  0.85934066691E+01  0.51100000000E-03 0.  1.
        -12    1    3    3    0    0  0.38050191360E+00 -0.27957587431E+01 -0.33599991402E+01  0.43875554558E+01  0.00000000000E+00 0.  1.
</event>
<event>
 7    1  0.2530788E-009  0.4778727E+02  0.7816164E-02  0.1312668E+00
        -11   -1    0    0    0    0  0.00000000000E+00  0.00000000000E+00  0.45593999997E+02  0.45594000000E+02  0.51100000000E-03 0.  1.
         11   -1    0    0    0    0 -0.00000000000E+00 -0.00000000000E+00 -0.45593999997E+02  0.45594000000E+02  0.51100000000E-03 0. -1.
    9900012    2    1    2    0    0 -0.85206634454E+01  0.27137402288E+02 -0.32780829224E+02  0.47787273357E+02  0.20000010545E+02 0.  0.
        -12    1    1    2    0    0  0.85206634454E+01 -0.27137402288E+02  0.32780829224E+02  0.43400726643E+02  0.00000000000E+00 0.  1.
         11    1    3    3    0    0  0.10918241766E+01  0.63602005172E+01 -0.11130648683E+02  0.12866062763E+02  0.51100000000E-03 0. -1.
        -11    1    3    3    0    0 -0.25300890213E+01  0.20074947876E+02 -0.16915441087E+02  0.26373036043E+02  0.51100000000E-03 0.  1.
        -12    1    3    3    0    0 -0.70823986006E+01  0.70225389509E+00 -0.47347394535E+01  0.85481745516E+01  0.00000000000E+00 0.  1.
</event>
<event>
 7    1  0.2530788E-009  0.4778727E+02  0.7816164E-02  0.1312668E+00
        -11   -1    0    0    0    0  0.00000000000E+00  0.00000000000E+00  0.45593999997E+02  0.45594000000E+02  0.51100000000E-03 0.  1.
         11   -1    0    0    0    0 -0.00000000000E+00 -0.00000000000E+00 -0.45593999997E+02  0.45594000000E+02  0.51100000000E-03 0. -1.
    9900012    2    1    2    0    0 -0.13850179498E+02 -0.11529777041E+02 -0.39482400524E+02  0.47787272104E+02  0.20000004831E+02 0.  0.
        -12    1    1    2    0    0  0.13850179498E+02  0.11529777041E+02  0.39482400524E+02  0.43400727896E+02  0.00000000000E+00 0.  1.
         11    1    3    3    0    0 -0.88337112457E+01 -0.81492444083E+01 -0.21714977270E+02  0.24819042626E+02  0.51100000000E-03 0. -1.
        -11    1    3    3    0    0  0.31201491889E+01  0.68100641733E+00 -0.21617767475E+00  0.32009113936E+01  0.51100000000E-03 0.  1.
        -12    1    3    3    0    0 -0.81366174416E+01 -0.40615390504E+01 -0.17551245579E+02  0.19767318084E+02  0.00000000000E+00 0.  1.
</event>
<event>
 7    1  0.2530788E-009  0.4778727E+02  0.7816164E-02  0.1312668E+00
        -11   -1    0    0    0    0  0.00000000000E+00  0.00000000000E+00  0.45593999997E+02  0.45594000000E+02  0.51100000000E-03 0.  1.
         11   -1    0    0    0    0 -0.00000000000E+00 -0.00000000000E+00 -0.45593999997E+02  0.45594000000E+02  0.51100000000E-03 0. -1.
    9900012    2    1    2    0    0 -0.22275373908E+02 -0.28751900858E+02 -0.23680353313E+02  0.47787271680E+02  0.20000002897E+02 0.  0.
        -12    1    1    2    0    0  0.22275373908E+02  0.28751900858E+02  0.23680353313E+02  0.43400728320E+02  0.00000000000E+00 0.  1.
         11    1    3    3    0    0 -0.14777445519E+02 -0.42008387407E+01 -0.66236570643E+01  0.16729996275E+02  0.51100000000E-03 0. -1.
        -11    1    3    3    0    0 -0.11037210761E+01 -0.22485691502E+01 -0.30861708784E+01  0.39747596642E+01  0.51100000000E-03 0.  1.
         12    1    3    3    0    0 -0.63942073125E+01 -0.22302492967E+02 -0.13970525371E+02  0.27082515740E+02  0.00000000000E+00 0. -1.
</event>
<event>
 7    1  0.2530788E-009  0.4778727E+02  0.7816164E-02  0.1312668E+00
        -11   -1    0    0    0    0  0.00000000000E+00  0.00000000000E+00  0.45593999997E+02  0.45594000000E+02  0.51100000000E-03 0. -1.
         11   -1    0    0    0    0 -0.00000000000E+00 -0.00000000000E+00 -0.45593999997E+02  0.45594000000E+02  0.51100000000E-03 0.  1.
    9900012    2    1    2    0    0 -0.13937948845E+01 -0.41037723033E+02  0.14056538879E+02  0.47787266582E+02  0.19999979656E+02 0.  0.
        -12    1    1    2    0    0  0.13937948845E+01  0.41037723033E+02 -0.14056538879E+02  0.43400733418E+02  0.00000000000E+00 0.  1.
         11    1    3    3    0    0  0.17790809050E+01 -0.21887833485E+02  0.15321749388E+02  0.26776825579E+02  0.51100000000E-03 0. -1.
        -11    1    3    3    0    0 -0.11758566109E+01 -0.10795233691E+02 -0.46034790987E+01  0.11794563548E+02  0.51100000000E-03 0.  1.
         12    1    3    3    0    0 -0.19970191786E+01 -0.83546558576E+01  0.33382685896E+01  0.92158774555E+01  0.00000000000E+00 0. -1.
</event>
<event>
 7    1  0.2530788E-009  0.4778729E+02  0.7816164E-02  0.1312668E+00
        -11   -1    0    0    0    0  0.00000000000E+00  0.00000000000E+00  0.45593999997E+02  0.45594000000E+02  0.51100000000E-03 0. -1.
         11   -1    0    0    0    0 -0.00000000000E+00 -0.00000000000E+00 -0.45593999997E+02  0.45594000000E+02  0.51100000000E-03 0.  1.
    9900012    2    1    2    0    0 -0.16034371958E+02 -0.24256623534E+01  0.40257127070E+02  0.47787294915E+02  0.20000108835E+02 0.  0.
        -12    1    1    2    0    0  0.16034371958E+02  0.24256623534E+01 -0.40257127070E+02  0.43400705085E+02  0.00000000000E+00 0.  1.
         11    1    3    3    0    0 -0.12608069869E+02  0.26533087567E+01  0.11899069590E+02  0.17538281858E+02  0.51100000000E-03 0. -1.
        -11    1    3    3    0    0 -0.23734377736E+00 -0.63802421040E+01  0.12675310000E+02  0.14192508772E+02  0.51100000000E-03 0.  1.
        -12    1    3    3    0    0 -0.31889583112E+01  0.13012709940E+01  0.15682747480E+02  0.16056504284E+02  0.00000000000E+00 0.  1.
</event>
<event>
 7    1  0.2530788E-009  0.4778726E+02  0.7816164E-02  0.1312668E+00
        -11   -1    0    0    0    0  0.00000000000E+00  0.00000000000E+00  0.45593999997E+02  0.45594000000E+02  0.51100000000E-03 0. -1.
         11   -1    0    0    0    0 -0.00000000000E+00 -0.00000000000E+00 -0.45593999997E+02  0.45594000000E+02  0.51100000000E-03 0.  1.
    9900012    2    1    2    0    0  0.20986696800E+02 -0.11248854676E+02  0.36285612617E+02  0.47787264326E+02  0.19999969366E+02 0.  0.
        -12    1    1    2    0    0 -0.20986696800E+02  0.11248854676E+02 -0.36285612617E+02  0.43400735674E+02  0.00000000000E+00 0.  1.
         11    1    3    3    0    0  0.26714955863E+01 -0.21817641712E+01  0.20458790990E+01  0.40103123463E+01  0.51100000000E-03 0. -1.
        -11    1    3    3    0    0  0.17455459163E+02 -0.36332358898E+00  0.28131468931E+02  0.33108980702E+02  0.51100000000E-03 0.  1.
        -12    1    3    3    0    0  0.85974205056E+00 -0.87037669154E+01  0.61082645866E+01  0.10667971277E+02  0.00000000000E+00 0.  1.
</event>
<event>
 7    1  0.2530788E-009  0.4778727E+02  0.7816164E-02  0.1312668E+00
        -11   -1    0    0    0    0  0.00000000000E+00  0.00000000000E+00  0.45593999997E+02  0.45594000000E+02  0.51100000000E-03 0. -1.
         11   -1    0    0    0    0 -0.00000000000E+00 -0.00000000000E+00 -0.45593999997E+02  0.45594000000E+02  0.51100000000E-03 0.  1.
    9900012    2    1    2    0    0 -0.10388005096E+02 -0.35387111371E+02  0.22879360829E+02  0.47787268981E+02  0.19999990590E+02 0.  0.
        -12    1    1    2    0    0  0.10388005096E+02  0.35387111371E+02 -0.22879360829E+02  0.43400731019E+02  0.00000000000E+00 0.  1.
         11    1    3    3    0    0 -0.15692700501E+01 -0.85113489833E+01 -0.38812161114E+00  0.86635044094E+01  0.51100000000E-03 0. -1.
        -11    1    3    3    0    0 -0.69610412289E+01 -0.13248371909E+02  0.20014077507E+02  0.24990773336E+02  0.51100000000E-03 0.  1.
        -12    1    3    3    0    0 -0.18576938169E+01 -0.13627390479E+02  0.32534049331E+01  0.14132991235E+02  0.00000000000E+00 0.  1.
</event>
<event>
 7    1  0.2530788E-009  0.4778727E+02  0.7816164E-02  0.1312668E+00
        -11   -1    0    0    0    0  0.00000000000E+00  0.00000000000E+00  0.45593999997E+02  0.45594000000E+02  0.51100000000E-03 0. -1.
         11   -1    0    0    0    0 -0.00000000000E+00 -0.00000000000E+00 -0.45593999997E+02  0.45594000000E+02  0.51100000000E-03 0.  1.
    9900012    2    1    2    0    0 -0.23472996783E+02  0.36184616101E+02 -0.48285968966E+01  0.47787269956E+02  0.19999995038E+02 0.  0.
        -12    1    1    2    0    0  0.23472996783E+02 -0.36184616101E+02  0.48285968966E+01  0.43400730044E+02  0.00000000000E+00 0.  1.
         11    1    3    3    0    0  0.26209466441E+01  0.44399598165E+01 -0.31337813199E+01  0.60335056232E+01  0.51100000000E-03 0. -1.
        -11    1    3    3    0    0  0.12425531468E+00 -0.61812755936E-01  0.45754440868E+00  0.47812900671E+00  0.51100000000E-03 0.  1.
         12    1    3    3    0    0 -0.26218198741E+02  0.31806469041E+02 -0.21523599854E+01  0.41275635326E+02  0.00000000000E+00 0. -1.
</event>
<event>
 7    1  0.2530788E-009  0.4778728E+02  0.7816164E-02  0.1312668E+00
        -11   -1    0    0    0    0  0.00000000000E+00  0.00000000000E+00  0.45593999997E+02  0.45594000000E+02  0.51100000000E-03 0.  1.
         11   -1    0    0    0    0 -0.00000000000E+00 -0.00000000000E+00 -0.45593999997E+02  0.45594000000E+02  0.51100000000E-03 0. -1.
    9900012    2    1    2    0    0 -0.20536885664E+02 -0.28460068332E+02 -0.25532007250E+02  0.47787279310E+02  0.20000037684E+02 0.  0.
        -12    1    1    2    0    0  0.20536885664E+02  0.28460068332E+02  0.25532007250E+02  0.43400720690E+02  0.00000000000E+00 0.  1.
         11    1    3    3    0    0 -0.78809783439E+01  0.89171746660E+00 -0.23899880860E+01  0.82835392804E+01  0.51100000000E-03 0.  1.
        -11    1    3    3    0    0 -0.70006019073E+01 -0.17623601033E+02 -0.12850297495E+02  0.22906983355E+02  0.51100000000E-03 0. -1.
        -12    1    3    3    0    0 -0.56553054127E+01 -0.11728184765E+02 -0.10291721669E+02  0.16596756675E+02  0.00000000000E+00 0.  1.
</event>
<event>
 7    1  0.2530788E-009  0.4778727E+02  0.7816164E-02  0.1312668E+00
        -11   -1    0    0    0    0  0.00000000000E+00  0.00000000000E+00  0.45593999997E+02  0.45594000000E+02  0.51100000000E-03 0.  1.
         11   -1    0    0    0    0 -0.00000000000E+00 -0.00000000000E+00 -0.45593999997E+02  0.45594000000E+02  0.51100000000E-03 0. -1.
    9900012    2    1    2    0    0  0.19497019227E+02  0.29868592307E+02 -0.24725633047E+02  0.47787268500E+02  0.19999988400E+02 0.  0.
        -12    1    1    2    0    0 -0.19497019227E+02 -0.29868592307E+02  0.24725633047E+02  0.43400731500E+02  0.00000000000E+00 0.  1.
         11    1    3    3    0    0 -0.55119179649E+00  0.12306347255E+02 -0.49986184122E+01  0.13294216090E+02  0.51100000000E-03 0. -1.
        -11    1    3    3    0    0  0.17094308636E+02  0.12933751875E+02 -0.10775829295E+02  0.23991994969E+02  0.51100000000E-03 0.  1.
        -12    1    3    3    0    0  0.29539023866E+01  0.46284931769E+01 -0.89511853398E+01  0.10501057441E+02  0.00000000000E+00 0.  1.
</event>
<event>
 7    1  0.2530788E-009  0.4778727E+02  0.7816164E-02  0.1312668E+00
        -11   -1    0    0    0    0  0.00000000000E+00  0.00000000000E+00  0.45593999997E+02  0.45594000000E+02  0.51100000000E-03 0.  1.
         11   -1    0    0    0    0 -0.00000000000E+00 -0.00000000000E+00 -0.45593999997E+02  0.45594000000E+02  0.51100000000E-03 0. -1.
    9900012    2    1    2    0    0  0.42409743756E+02  0.32856581678E+01 -0.86163288382E+01  0.47787273765E+02  0.20000012406E+02 0.  0.
        -12    1    1    2    0    0 -0.42409743756E+02 -0.32856581678E+01  0.86163288382E+01  0.43400726235E+02  0.00000000000E+00 0.  1.
         11    1    3    3    0    0  0.12695780527E+02 -0.21172721442E+01  0.37293084047E+01  0.13400500959E+02  0.51100000000E-03 0.  1.
        -11    1    3    3    0    0  0.27447678503E+02  0.78057455177E+01 -0.12324540509E+02  0.31083742009E+02  0.51100000000E-03 0. -1.
         12    1    3    3    0    0  0.22662847259E+01 -0.24028152057E+01 -0.21096733959E-01  0.33030307967E+01  0.00000000000E+00 0. -1.
</event>
<event>
 7    1  0.2530788E-009  0.4778727E+02  0.7816164E-02  0.1312668E+00
        -11   -1    0    0    0    0  0.00000000000E+00  0.00000000000E+00  0.45593999997E+02  0.45594000000E+02  0.51100000000E-03 0.  1.
         11   -1    0    0    0    0 -0.00000000000E+00 -0.00000000000E+00 -0.45593999997E+02  0.45594000000E+02  0.51100000000E-03 0. -1.
    9900012    2    1    2    0    0  0.94974618618E+01  0.40104009208E+02 -0.13604780482E+02  0.47787269726E+02  0.19999993988E+02 0.  0.
        -12    1    1    2    0    0 -0.94974618618E+01 -0.40104009208E+02  0.13604780482E+02  0.43400730274E+02  0.00000000000E+00 0.  1.
         11    1    3    3    0    0 -0.26274869385E+01  0.26391742417E+01 -0.26877230357E+01  0.45926880656E+01  0.51100000000E-03 0.  1.
        -11    1    3    3    0    0  0.77830266614E+01  0.35199016532E+02 -0.12326207771E+02  0.38098315804E+02  0.51100000000E-03 0. -1.
        -12    1    3    3    0    0  0.43419221388E+01  0.22658184344E+01  0.14091503251E+01  0.50962658561E+01  0.00000000000E+00 0.  1.
</event>
<event>
 7    1  0.2530788E-009  0.4778727E+02  0.7816164E-02  0.1312668E+00
        -11   -1    0    0    0    0  0.00000000000E+00  0.00000000000E+00  0.45593999997E+02  0.45594000000E+02  0.51100000000E-03 0. -1.
         11   -1    0    0    0    0 -0.00000000000E+00 -0.00000000000E+00 -0.45593999997E+02  0.45594000000E+02  0.51100000000E-03 0.  1.
    9900012    2    1    2    0    0  0.28605411365E+02  0.95734680918E+00  0.32625711061E+02  0.47787273110E+02  0.20000009420E+02 0.  0.
        -12    1    1    2    0    0 -0.28605411365E+02 -0.95734680918E+00 -0.32625711061E+02  0.43400726890E+02  0.00000000000E+00 0.  1.
         11    1    3    3    0    0  0.86233352019E+01  0.66660108480E+01  0.16267385714E+02  0.19581252484E+02  0.51100000000E-03 0. -1.
        -11    1    3    3    0    0  0.57017675850E+01 -0.65262758694E+01  0.58110888193E+01  0.10434135510E+02  0.51100000000E-03 0.  1.
        -12    1    3    3    0    0  0.14280308578E+02  0.81761183054E+00  0.10547236528E+02  0.17771885116E+02  0.00000000000E+00 0.  1.
</event>
<event>
 7    1  0.2530788E-009  0.4778727E+02  0.7816164E-02  0.1312668E+00
        -11   -1    0    0    0    0  0.00000000000E+00  0.00000000000E+00  0.45593999997E+02  0.45594000000E+02  0.51100000000E-03 0. -1.
         11   -1    0    0    0    0 -0.00000000000E+00 -0.00000000000E+00 -0.45593999997E+02  0.45594000000E+02  0.51100000000E-03 0.  1.
    9900012    2    1    2    0    0  0.22408168990E+02  0.35716284915E+02 -0.10288061971E+02  0.47787271150E+02  0.20000000482E+02 0.  0.
        -12    1    1    2    0    0 -0.22408168990E+02 -0.35716284915E+02  0.10288061971E+02  0.43400728850E+02  0.00000000000E+00 0.  1.
         11    1    3    3    0    0  0.76843462123E+01  0.75846814177E+01  0.30885901468E+01  0.11230136165E+02  0.51100000000E-03 0. -1.
        -11    1    3    3    0    0  0.11492758977E+02  0.18775934938E+02 -0.14843880609E+02  0.26551083471E+02  0.51100000000E-03 0.  1.
        -12    1    3    3    0    0  0.32310638008E+01  0.93556685592E+01  0.14672284906E+01  0.10006051515E+02  0.00000000000E+00 0.  1.
</event>
<event>
 7    1  0.2530788E-009  0.4778726E+02  0.7816164E-02  0.1312668E+00
        -11   -1    0    0    0    0  0.00000000000E+00  0.00000000000E+00  0.45593999997E+02  0.45594000000E+02  0.51100000000E-03 0.  1.
         11   -1    0    0    0    0 -0.00000000000E+00 -0.00000000000E+00 -0.45593999997E+02  0.45594000000E+02  0.51100000000E-03 0. -1.
    9900012    2    1    2    0    0  0.24876884165E+02  0.34470422238E+02 -0.87495736136E+01  0.47787257916E+02  0.19999940142E+02 0.  0.
        -12    1    1    2    0    0 -0.24876884165E+02 -0.34470422238E+02  0.87495736136E+01  0.43400742084E+02  0.00000000000E+00 0.  1.
         11    1    3    3    0    0  0.12417516813E+02  0.51542347324E+01  0.23336393272E+01  0.13645758764E+02  0.51100000000E-03 0. -1.
        -11    1    3    3    0    0  0.87102649618E+01  0.18883582779E+02 -0.97760600752E+01  0.22978898258E+02  0.51100000000E-03 0.  1.
         12    1    3    3    0    0  0.37491023902E+01  0.10432604726E+02 -0.13071528657E+01  0.11162600894E+02  0.00000000000E+00 0. -1.
</event>
<event>
 7    1  0.2530788E-009  0.4778727E+02  0.7816164E-02  0.1312668E+00
        -11   -1    0    0    0    0  0.00000000000E+00  0.00000000000E+00  0.45593999997E+02  0.45594000000E+02  0.51100000000E-03 0.  1.
         11   -1    0    0    0    0 -0.00000000000E+00 -0.00000000000E+00 -0.45593999997E+02  0.45594000000E+02  0.51100000000E-03 0. -1.
    9900012    2    1    2    0    0 -0.22941801568E+02  0.36174887507E+02  0.69767151064E+01  0.47787270754E+02  0.19999998678E+02 0.  0.
        -12    1    1    2    0    0  0.22941801568E+02 -0.36174887507E+02 -0.69767151064E+01  0.43400729246E+02  0.00000000000E+00 0.  1.
         11    1    3    3    0    0 -0.18224359987E+01  0.44887473093E+01 -0.14345236427E+01  0.50525225105E+01  0.51100000000E-03 0.  1.
        -11    1    3    3    0    0 -0.91574895809E+00  0.10939179590E+02 -0.33519958663E+01  0.11477810018E+02  0.51100000000E-03 0. -1.
        -12    1    3    3    0    0 -0.20203616611E+02  0.20746960608E+02  0.11763234615E+02  0.31256938226E+02  0.00000000000E+00 0.  1.
</event>
<event>
 7    1  0.2530788E-009  0.4778727E+02  0.7816164E-02  0.1312668E+00
        -11   -1    0    0    0    0  0.00000000000E+00  0.00000000000E+00  0.45593999997E+02  0.45594000000E+02  0.51100000000E-03 0.  1.
         11   -1    0    0    0    0 -0.00000000000E+00 -0.00000000000E+00 -0.45593999997E+02  0.45594000000E+02  0.51100000000E-03 0. -1.
    9900012    2    1    2    0    0 -0.14033259919E+02  0.20512067248E+02 -0.35580138001E+02  0.47787268360E+02  0.19999987760E+02 0.  0.
        -12    1    1    2    0    0  0.14033259919E+02 -0.20512067248E+02  0.35580138001E+02  0.43400731640E+02  0.00000000000E+00 0.  1.
         11    1    3    3    0    0 -0.18250978682E+02  0.17298036156E+02 -0.29786346200E+02  0.38981363469E+02  0.51100000000E-03 0. -1.
        -11    1    3    3    0    0  0.26806825176E+01 -0.29594262570E+00 -0.16483290620E+01  0.31607957472E+01  0.51100000000E-03 0.  1.
         12    1    3    3    0    0  0.15370362455E+01  0.35099737184E+01 -0.41454627383E+01  0.56451091432E+01  0.00000000000E+00 0. -1.
</event>
<event>
 7    1  0.2530788E-009  0.4778727E+02  0.7816164E-02  0.1312668E+00
        -11   -1    0    0    0    0  0.00000000000E+00  0.00000000000E+00  0.45593999997E+02  0.45594000000E+02  0.51100000000E-03 0. -1.
         11   -1    0    0    0    0 -0.00000000000E+00 -0.00000000000E+00 -0.45593999997E+02  0.45594000000E+02  0.51100000000E-03 0.  1.
    9900012    2    1    2    0    0  0.10578182645E+01 -0.43381982233E+02 -0.71255996101E+00  0.47787273006E+02  0.20000008942E+02 0.  0.
        -12    1    1    2    0    0 -0.10578182645E+01  0.43381982233E+02  0.71255996101E+00  0.43400726994E+02  0.00000000000E+00 0.  1.
         11    1    3    3    0    0  0.67934404750E+01 -0.16586662322E+02 -0.38708688973E+01  0.18337170631E+02  0.51100000000E-03 0. -1.
        -11    1    3    3    0    0  0.29622531682E+01 -0.88845186160E+01  0.78712638623E+00  0.93983606592E+01  0.51100000000E-03 0.  1.
         12    1    3    3    0    0 -0.86978753787E+01 -0.17910801295E+02  0.23711825501E+01  0.20051741716E+02  0.00000000000E+00 0. -1.
</event>
<event>
 7    1  0.2530788E-009  0.4778727E+02  0.7816164E-02  0.1312668E+00
        -11   -1    0    0    0    0  0.00000000000E+00  0.00000000000E+00  0.45593999997E+02  0.45594000000E+02  0.51100000000E-03 0. -1.
         11   -1    0    0    0    0 -0.00000000000E+00 -0.00000000000E+00 -0.45593999997E+02  0.45594000000E+02  0.51100000000E-03 0.  1.
    9900012    2    1    2    0    0 -0.32968861136E+02  0.25288058602E+02  0.12537607684E+02  0.47787270526E+02  0.19999997636E+02 0.  0.
        -12    1    1    2    0    0  0.32968861136E+02 -0.25288058602E+02 -0.12537607684E+02  0.43400729474E+02  0.00000000000E+00 0.  1.
         11    1    3    3    0    0 -0.24679919597E+02  0.22967524954E+02  0.10975791007E+02  0.35455234061E+02  0.51100000000E-03 0. -1.
        -11    1    3    3    0    0  0.15449035516E+01  0.11825446877E+01  0.14593336111E+01  0.24320349035E+01  0.51100000000E-03 0.  1.
         12    1    3    3    0    0 -0.98338450908E+01  0.11379889599E+01  0.10248306600E+00  0.99000015617E+01  0.00000000000E+00 0. -1.
</event>
<event>
 7    1  0.2530788E-009  0.4778725E+02  0.7816164E-02  0.1312668E+00
        -11   -1    0    0    0    0  0.00000000000E+00  0.00000000000E+00  0.45593999997E+02  0.45594000000E+02  0.51100000000E-03 0. -1.
         11   -1    0    0    0    0 -0.00000000000E+00 -0.00000000000E+00 -0.45593999997E+02  0.45594000000E+02  0.51100000000E-03 0.  1.
    9900012    2    1    2    0    0  0.25344864526E+02 -0.34754873845E+01  0.35059721238E+02  0.47787248582E+02  0.19999897584E+02 0.  0.
        -12    1    1    2    0    0 -0.25344864526E+02  0.34754873845E+01 -0.35059721238E+02  0.43400751418E+02  0.00000000000E+00 0.  1.
         11    1    3    3    0    0  0.19571568377E+02  0.24784375100E+01  0.13773262809E+02  0.24060168534E+02  0.51100000000E-03 0. -1.
        -11    1    3    3    0    0 -0.77669416199E+00 -0.33388090369E+01  0.68289335838E+01  0.76410230833E+01  0.51100000000E-03 0.  1.
         12    1    3    3    0    0  0.65499903114E+01 -0.26151158576E+01  0.14457524845E+02  0.16086056965E+02  0.00000000000E+00 0. -1.
</event>
<event>
 7    1  0.2530788E-009  0.4778728E+02  0.7816164E-02  0.1312668E+00
        -11   -1    0    0    0    0  0.00000000000E+00  0.00000000000E+00  0.45593999997E+02  0.45594000000E+02  0.51100000000E-03 0.  1.
         11   -1    0    0    0    0 -0.00000000000E+00 -0.00000000000E+00 -0.45593999997E+02  0.45594000000E+02  0.51100000000E-03 0. -1.
    9900012    2    1    2    0    0  0.36773768392E+02 -0.23041699615E+02  0.62682364377E+00  0.47787275688E+02  0.20000021173E+02 0.  0.
        -12    1    1    2    0    0 -0.36773768392E+02  0.23041699615E+02 -0.62682364377E+00  0.43400724312E+02  0.00000000000E+00 0.  1.
         11    1    3    3    0    0  0.22052571371E+02 -0.24109683935E+02 -0.33405877636E+00  0.32675745730E+02  0.51100000000E-03 0. -1.
        -11    1    3    3    0    0  0.10133696690E+02  0.14310776432E+01  0.19148559876E+01  0.10411842562E+02  0.51100000000E-03 0.  1.
         12    1    3    3    0    0  0.45875003312E+01 -0.36309332328E+00 -0.95397356752E+00  0.46996873957E+01  0.00000000000E+00 0. -1.
</event>
<event>
 7    1  0.2530788E-009  0.4778727E+02  0.7816164E-02  0.1312668E+00
        -11   -1    0    0    0    0  0.00000000000E+00  0.00000000000E+00  0.45593999997E+02  0.45594000000E+02  0.51100000000E-03 0. -1.
         11   -1    0    0    0    0 -0.00000000000E+00 -0.00000000000E+00 -0.45593999997E+02  0.45594000000E+02  0.51100000000E-03 0.  1.
    9900012    2    1    2    0    0 -0.11384862345E+02  0.28898901796E+02 -0.30312735059E+02  0.47787268182E+02  0.19999986948E+02 0.  0.
        -12    1    1    2    0    0  0.11384862345E+02 -0.28898901796E+02  0.30312735059E+02  0.43400731818E+02  0.00000000000E+00 0.  1.
         11    1    3    3    0    0 -0.16996319953E+01  0.19725190630E+02 -0.24235665443E+02  0.31294398445E+02  0.51100000000E-03 0. -1.
        -11    1    3    3    0    0 -0.75450392191E+01  0.27536647639E+01 -0.54289562362E+01  0.96945269367E+01  0.51100000000E-03 0.  1.
         12    1    3    3    0    0 -0.21401911305E+01  0.64200464017E+01 -0.64811337987E+00  0.67983428001E+01  0.00000000000E+00 0. -1.
</event>
<event>
 7    1  0.2530788E-009  0.4778728E+02  0.7816164E-02  0.1312668E+00
        -11   -1    0    0    0    0  0.00000000000E+00  0.00000000000E+00  0.45593999997E+02  0.45594000000E+02  0.51100000000E-03 0. -1.
         11   -1    0    0    0    0 -0.00000000000E+00 -0.00000000000E+00 -0.45593999997E+02  0.45594000000E+02  0.51100000000E-03 0.  1.
    9900012    2    1    2    0    0  0.31243504413E+02  0.94954999163E+01  0.28588489611E+02  0.47787276217E+02  0.20000023585E+02 0.  0.
        -12    1    1    2    0    0 -0.31243504413E+02 -0.94954999163E+01 -0.28588489611E+02  0.43400723783E+02  0.00000000000E+00 0.  1.
         11    1    3    3    0    0  0.10967591614E+02  0.68742349948E+01  0.20495675153E+01  0.13105109684E+02  0.51100000000E-03 0. -1.
        -11    1    3    3    0    0  0.18002660613E+02 -0.22367265498E+00  0.24801415777E+02  0.30647284438E+02  0.51100000000E-03 0.  1.
         12    1    3    3    0    0  0.22732521859E+01  0.28449375765E+01  0.17375063180E+01  0.40348820950E+01  0.00000000000E+00 0. -1.
</event>
<event>
 7    1  0.2530788E-009  0.4778727E+02  0.7816164E-02  0.1312668E+00
        -11   -1    0    0    0    0  0.00000000000E+00  0.00000000000E+00  0.45593999997E+02  0.45594000000E+02  0.51100000000E-03 0.  1.
         11   -1    0    0    0    0 -0.00000000000E+00 -0.00000000000E+00 -0.45593999997E+02  0.45594000000E+02  0.51100000000E-03 0. -1.
    9900012    2    1    2    0    0 -0.85533892968E+01 -0.42004925619E+02  0.67859508062E+01  0.47787269902E+02  0.19999994789E+02 0.  0.
        -12    1    1    2    0    0  0.85533892968E+01  0.42004925619E+02 -0.67859508062E+01  0.43400730098E+02  0.00000000000E+00 0.  1.
         11    1    3    3    0    0 -0.10007637991E+02 -0.25675387168E+02  0.21432448642E+01  0.27640040217E+02  0.51100000000E-03 0. -1.
        -11    1    3    3    0    0  0.57142373461E+01 -0.12320151632E+02  0.44598158933E+01  0.14294355625E+02  0.51100000000E-03 0.  1.
        -12    1    3    3    0    0 -0.42599886523E+01 -0.40093868192E+01  0.18289004870E+00  0.58528740592E+01  0.00000000000E+00 0.  1.
</event>
<event>
 7    1  0.2530788E-009  0.4778728E+02  0.7816164E-02  0.1312668E+00
        -11   -1    0    0    0    0  0.00000000000E+00  0.00000000000E+00  0.45593999997E+02  0.45594000000E+02  0.51100000000E-03 0. -1.
         11   -1    0    0    0    0 -0.00000000000E+00 -0.00000000000E+00 -0.45593999997E+02  0.45594000000E+02  0.51100000000E-03 0.  1.
    9900012    2    1    2    0    0  0.37503572723E+02 -0.21588133528E+02  0.33252281816E+01  0.47787278593E+02  0.20000034416E+02 0.  0.
        -12    1    1    2    0    0 -0.37503572723E+02  0.21588133528E+02 -0.33252281816E+01  0.43400721407E+02  0.00000000000E+00 0.  1.
         11    1    3    3    0    0  0.24849315913E+02 -0.16934954667E+02 -0.68279522439E+01  0.30836700910E+02  0.51100000000E-03 0. -1.
        -11    1    3    3    0    0  0.59165433410E+01 -0.17299929024E+01  0.54595967937E+01  0.82344130306E+01  0.51100000000E-03 0.  1.
         12    1    3    3    0    0  0.67377134684E+01 -0.29231859592E+01  0.46935836317E+01  0.87161646521E+01  0.00000000000E+00 0. -1.
</event>
<event>
 7    1  0.2530788E-009  0.4778727E+02  0.7816164E-02  0.1312668E+00
        -11   -1    0    0    0    0  0.00000000000E+00  0.00000000000E+00  0.45593999997E+02  0.45594000000E+02  0.51100000000E-03 0. -1.
         11   -1    0    0    0    0 -0.00000000000E+00 -0.00000000000E+00 -0.45593999997E+02  0.45594000000E+02  0.51100000000E-03 0.  1.
    9900012    2    1    2    0    0  0.75008193448E+01 -0.26737632974E+02  0.33353561980E+02  0.47787269538E+02  0.19999993131E+02 0.  0.
        -12    1    1    2    0    0 -0.75008193448E+01  0.26737632974E+02 -0.33353561980E+02  0.43400730462E+02  0.00000000000E+00 0.  1.
         11    1    3    3    0    0  0.55762280193E+01 -0.11063647242E+02  0.47341930128E+01  0.13263151698E+02  0.51100000000E-03 0. -1.
        -11    1    3    3    0    0  0.69690393187E+00 -0.37132853846E+01  0.33824321537E+00  0.37932271447E+01  0.51100000000E-03 0.  1.
         12    1    3    3    0    0  0.12276873937E+01 -0.11960700348E+02  0.28281125752E+02  0.30730890696E+02  0.00000000000E+00 0. -1.
</event>
<event>
 7    1  0.2530788E-009  0.4778727E+02  0.7816164E-02  0.1312668E+00
        -11   -1    0    0    0    0  0.00000000000E+00  0.00000000000E+00  0.45593999997E+02  0.45594000000E+02  0.51100000000E-03 0.  1.
         11   -1    0    0    0    0 -0.00000000000E+00 -0.00000000000E+00 -0.45593999997E+02  0.45594000000E+02  0.51100000000E-03 0. -1.
    9900012    2    1    2    0    0 -0.22919515218E+02 -0.40926909566E+01 -0.36627433519E+02  0.47787272088E+02  0.20000004760E+02 0.  0.
        -12    1    1    2    0    0  0.22919515218E+02  0.40926909566E+01  0.36627433519E+02  0.43400727912E+02  0.00000000000E+00 0.  1.
         11    1    3    3    0    0 -0.16956381458E+02 -0.37920006907E+01 -0.28702440083E+02  0.33551873395E+02  0.51100000000E-03 0. -1.
        -11    1    3    3    0    0  0.26108702464E+01  0.48026467453E+00 -0.18982819858E+00  0.26614531007E+01  0.51100000000E-03 0.  1.
        -12    1    3    3    0    0 -0.85740040061E+01 -0.78095494048E+00 -0.77351652378E+01  0.11573945592E+02  0.00000000000E+00 0.  1.
</event>
<event>
 7    1  0.2530788E-009  0.4778727E+02  0.7816164E-02  0.1312668E+00
        -11   -1    0    0    0    0  0.00000000000E+00  0.00000000000E+00  0.45593999997E+02  0.45594000000E+02  0.51100000000E-03 0. -1.
         11   -1    0    0    0    0 -0.00000000000E+00 -0.00000000000E+00 -0.45593999997E+02  0.45594000000E+02  0.51100000000E-03 0.  1.
    9900012    2    1    2    0    0 -0.92918383656E+01 -0.13938653755E+02  0.40037470280E+02  0.47787270108E+02  0.19999995733E+02 0.  0.
        -12    1    1    2    0    0  0.92918383656E+01  0.13938653755E+02 -0.40037470280E+02  0.43400729892E+02  0.00000000000E+00 0.  1.
         11    1    3    3    0    0 -0.96299683973E+01 -0.15515591775E+02  0.27000822733E+02  0.32596231500E+02  0.51100000000E-03 0. -1.
        -11    1    3    3    0    0 -0.14799850639E+01  0.36324149028E+01  0.11255838374E+02  0.11919676656E+02  0.51100000000E-03 0.  1.
         12    1    3    3    0    0  0.18181150955E+01 -0.20554768832E+01  0.17808091723E+01  0.32713619527E+01  0.00000000000E+00 0. -1.
</event>
<event>
 7    1  0.2530788E-009  0.4778727E+02  0.7816164E-02  0.1312668E+00
        -11   -1    0    0    0    0  0.00000000000E+00  0.00000000000E+00  0.45593999997E+02  0.45594000000E+02  0.51100000000E-03 0. -1.
         11   -1    0    0    0    0 -0.00000000000E+00 -0.00000000000E+00 -0.45593999997E+02  0.45594000000E+02  0.51100000000E-03 0.  1.
    9900012    2    1    2    0    0 -0.12003947647E+02  0.41677738600E+02  0.15794514163E+01  0.47787270505E+02  0.19999997539E+02 0.  0.
        -12    1    1    2    0    0  0.12003947647E+02 -0.41677738600E+02 -0.15794514163E+01  0.43400729495E+02  0.00000000000E+00 0.  1.
         11    1    3    3    0    0 -0.31633817277E+01  0.65218350803E+01 -0.15003650879E+01  0.74021897049E+01  0.51100000000E-03 0. -1.
        -11    1    3    3    0    0 -0.97056189246E+01  0.66913272481E+01  0.76714093875E+00  0.11813610986E+02  0.51100000000E-03 0.  1.
        -12    1    3    3    0    0  0.86505300525E+00  0.28464576272E+02  0.23126755655E+01  0.28571469814E+02  0.00000000000E+00 0.  1.
</event>
<event>
 7    1  0.2530788E-009  0.4778727E+02  0.7816164E-02  0.1312668E+00
        -11   -1    0    0    0    0  0.00000000000E+00  0.00000000000E+00  0.45593999997E+02  0.45594000000E+02  0.51100000000E-03 0.  1.
         11   -1    0    0    0    0 -0.00000000000E+00 -0.00000000000E+00 -0.45593999997E+02  0.45594000000E+02  0.51100000000E-03 0. -1.
    9900012    2    1    2    0    0  0.49441892546E+01  0.23023088197E+02 -0.36457037807E+02  0.47787271859E+02  0.20000003712E+02 0.  0.
        -12    1    1    2    0    0 -0.49441892546E+01 -0.23023088197E+02  0.36457037807E+02  0.43400728141E+02  0.00000000000E+00 0.  1.
         11    1    3    3    0    0  0.38640343502E+01  0.12321070058E+02 -0.23896472284E+02  0.27162122831E+02  0.51100000000E-03 0. -1.
        -11    1    3    3    0    0 -0.50138587767E+00 -0.27522509613E+01 -0.24893203578E+01  0.37447281954E+01  0.51100000000E-03 0.  1.
         12    1    3    3    0    0  0.15815407820E+01  0.13454269101E+02 -0.10071245166E+02  0.16880420832E+02  0.00000000000E+00 0. -1.
</event>
<event>
 7    1  0.2530788E-009  0.4778726E+02  0.7816164E-02  0.1312668E+00
        -11   -1    0    0    0    0  0.00000000000E+00  0.00000000000E+00  0.45593999997E+02  0.45594000000E+02  0.51100000000E-03 0. -1.
         11   -1    0    0    0    0 -0.00000000000E+00 -0.00000000000E+00 -0.45593999997E+02  0.45594000000E+02  0.51100000000E-03 0.  1.
    9900012    2    1    2    0    0  0.36143880342E+02 -0.12578481210E+02  0.20470125689E+02  0.47787258976E+02  0.19999944974E+02 0.  0.
        -12    1    1    2    0    0 -0.36143880342E+02  0.12578481210E+02 -0.20470125689E+02  0.43400741024E+02  0.00000000000E+00 0.  1.
         11    1    3    3    0    0  0.59686542423E+01 -0.56443745289E+01 -0.77813829667E+00  0.82516238860E+01  0.51100000000E-03 0.  1.
        -11    1    3    3    0    0  0.14890702721E+02 -0.46941732830E+01  0.17856889923E+02  0.23719966449E+02  0.51100000000E-03 0. -1.
        -12    1    3    3    0    0  0.15284523378E+02 -0.22399333984E+01  0.33913740626E+01  0.15815668641E+02  0.00000000000E+00 0.  1.
</event>
<event>
 7    1  0.2530788E-009  0.4778727E+02  0.7816164E-02  0.1312668E+00
        -11   -1    0    0    0    0  0.00000000000E+00  0.00000000000E+00  0.45593999997E+02  0.45594000000E+02  0.51100000000E-03 0. -1.
         11   -1    0    0    0    0 -0.00000000000E+00 -0.00000000000E+00 -0.45593999997E+02  0.45594000000E+02  0.51100000000E-03 0.  1.
    9900012    2    1    2    0    0 -0.40011248714E+02 -0.70124197265E+01  0.15282323182E+02  0.47787268947E+02  0.19999990439E+02 0.  0.
        -12    1    1    2    0    0  0.40011248714E+02  0.70124197265E+01 -0.15282323182E+02  0.43400731053E+02  0.00000000000E+00 0.  1.
         11    1    3    3    0    0 -0.70620045407E+01 -0.55711093213E+01  0.60338570203E+00  0.90151673179E+01  0.51100000000E-03 0. -1.
        -11    1    3    3    0    0 -0.14891324626E+02  0.49277310089E+01  0.11290557859E+02  0.19326426960E+02  0.51100000000E-03 0.  1.
        -12    1    3    3    0    0 -0.18057919547E+02 -0.63690414140E+01  0.33883796216E+01  0.19445674670E+02  0.00000000000E+00 0.  1.
</event>
<event>
 7    1  0.2530788E-009  0.4778727E+02  0.7816164E-02  0.1312668E+00
        -11   -1    0    0    0    0  0.00000000000E+00  0.00000000000E+00  0.45593999997E+02  0.45594000000E+02  0.51100000000E-03 0. -1.
         11   -1    0    0    0    0 -0.00000000000E+00 -0.00000000000E+00 -0.45593999997E+02  0.45594000000E+02  0.51100000000E-03 0.  1.
    9900012    2    1    2    0    0 -0.10916770014E+02 -0.25404152012E+02  0.33452603924E+02  0.47787268252E+02  0.19999987267E+02 0.  0.
        -12    1    1    2    0    0  0.10916770014E+02  0.25404152012E+02 -0.33452603924E+02  0.43400731748E+02  0.00000000000E+00 0.  1.
         11    1    3    3    0    0 -0.57565106106E+01 -0.18399722129E+02  0.27154740189E+02  0.33302659110E+02  0.51100000000E-03 0. -1.
        -11    1    3    3    0    0 -0.48072585554E+01  0.10866609286E+01  0.20316428494E+01  0.53308666951E+01  0.51100000000E-03 0.  1.
        -12    1    3    3    0    0 -0.35300084793E+00 -0.80910908124E+01  0.42662208858E+01  0.91537424466E+01  0.00000000000E+00 0.  1.
</event>
<event>
 7    1  0.2530788E-009  0.4778728E+02  0.7816164E-02  0.1312668E+00
        -11   -1    0    0    0    0  0.00000000000E+00  0.00000000000E+00  0.45593999997E+02  0.45594000000E+02  0.51100000000E-03 0. -1.
         11   -1    0    0    0    0 -0.00000000000E+00 -0.00000000000E+00 -0.45593999997E+02  0.45594000000E+02  0.51100000000E-03 0.  1.
    9900012    2    1    2    0    0  0.14322773269E+02 -0.40704550185E+02  0.46497338486E+01  0.47787282671E+02  0.20000053008E+02 0.  0.
        -12    1    1    2    0    0 -0.14322773269E+02  0.40704550185E+02 -0.46497338486E+01  0.43400717329E+02  0.00000000000E+00 0.  1.
         11    1    3    3    0    0  0.12003672142E+02 -0.28622119050E+02 -0.20402339912E+01  0.31104282644E+02  0.51100000000E-03 0. -1.
        -11    1    3    3    0    0  0.34702805985E+01 -0.54038402905E+01 -0.92568131482E+00  0.64885455593E+01  0.51100000000E-03 0.  1.
         12    1    3    3    0    0 -0.11511794713E+01 -0.66785908436E+01  0.76156491546E+01  0.10194454467E+02  0.00000000000E+00 0. -1.
</event>
<event>
 7    1  0.2530788E-009  0.4778727E+02  0.7816164E-02  0.1312668E+00
        -11   -1    0    0    0    0  0.00000000000E+00  0.00000000000E+00  0.45593999997E+02  0.45594000000E+02  0.51100000000E-03 0. -1.
         11   -1    0    0    0    0 -0.00000000000E+00 -0.00000000000E+00 -0.45593999997E+02  0.45594000000E+02  0.51100000000E-03 0.  1.
    9900012    2    1    2    0    0  0.35075506595E+00  0.34849090022E+02 -0.25865831273E+02  0.47787270376E+02  0.19999996952E+02 0.  0.
        -12    1    1    2    0    0 -0.35075506595E+00 -0.34849090022E+02  0.25865831273E+02  0.43400729624E+02  0.00000000000E+00 0.  1.
         11    1    3    3    0    0 -0.25869027007E+01  0.16687757142E+01 -0.34315303616E+01  0.46100193981E+01  0.51100000000E-03 0. -1.
        -11    1    3    3    0    0 -0.84346243056E+00 -0.51238746007E+00  0.14149242609E+01  0.17251031001E+01  0.51100000000E-03 0.  1.
        -12    1    3    3    0    0  0.37811201973E+01  0.33692701768E+02 -0.23849225172E+02  0.41452147878E+02  0.00000000000E+00 0.  1.
</event>
<event>
 7    1  0.2530788E-009  0.4778728E+02  0.7816164E-02  0.1312668E+00
        -11   -1    0    0    0    0  0.00000000000E+00  0.00000000000E+00  0.45593999997E+02  0.45594000000E+02  0.51100000000E-03 0.  1.
         11   -1    0    0    0    0 -0.00000000000E+00 -0.00000000000E+00 -0.45593999997E+02  0.45594000000E+02  0.51100000000E-03 0. -1.
    9900012    2    1    2    0    0  0.25926898900E+02  0.18684698711E+02 -0.29364951676E+02  0.47787280658E+02  0.20000043831E+02 0.  0.
        -12    1    1    2    0    0 -0.25926898900E+02 -0.18684698711E+02  0.29364951676E+02  0.43400719342E+02  0.00000000000E+00 0.  1.
         11    1    3    3    0    0  0.11172395847E+02  0.55326397433E+01 -0.16202187584E+02  0.20443664404E+02  0.51100000000E-03 0. -1.
        -11    1    3    3    0    0  0.84621586555E+01  0.15104893905E+02 -0.10417053895E+02  0.20205963503E+02  0.51100000000E-03 0.  1.
        -12    1    3    3    0    0  0.62923443972E+01 -0.19528349369E+01 -0.27457101969E+01  0.71376527506E+01  0.00000000000E+00 0.  1.
</event>
<event>
 7    1  0.2530788E-009  0.4778727E+02  0.7816164E-02  0.1312668E+00
        -11   -1    0    0    0    0  0.00000000000E+00  0.00000000000E+00  0.45593999997E+02  0.45594000000E+02  0.51100000000E-03 0.  1.
         11   -1    0    0    0    0 -0.00000000000E+00 -0.00000000000E+00 -0.45593999997E+02  0.45594000000E+02  0.51100000000E-03 0. -1.
    9900012    2    1    2    0    0  0.30411629876E+02  0.29009287270E+02 -0.10826690405E+02  0.47787271841E+02  0.20000003632E+02 0.  0.
        -12    1    1    2    0    0 -0.30411629876E+02 -0.29009287270E+02  0.10826690405E+02  0.43400728159E+02  0.00000000000E+00 0.  1.
         11    1    3    3    0    0  0.16912899071E+01 -0.23119396078E+01  0.12959464764E+01  0.31440425937E+01  0.51100000000E-03 0.  1.
        -11    1    3    3    0    0  0.18522345541E+02  0.22706756158E+02 -0.10793456197E+02  0.31227756187E+02  0.51100000000E-03 0. -1.
         12    1    3    3    0    0  0.10197994428E+02  0.86144707193E+01 -0.13291806849E+01  0.13415473060E+02  0.00000000000E+00 0. -1.
</event>
<event>
 7    1  0.2530788E-009  0.4778727E+02  0.7816164E-02  0.1312668E+00
        -11   -1    0    0    0    0  0.00000000000E+00  0.00000000000E+00  0.45593999997E+02  0.45594000000E+02  0.51100000000E-03 0.  1.
         11   -1    0    0    0    0 -0.00000000000E+00 -0.00000000000E+00 -0.45593999997E+02  0.45594000000E+02  0.51100000000E-03 0. -1.
    9900012    2    1    2    0    0 -0.27066119389E+02  0.24828124164E+02 -0.23121696393E+02  0.47787269449E+02  0.19999992725E+02 0.  0.
        -12    1    1    2    0    0  0.27066119389E+02 -0.24828124164E+02  0.23121696393E+02  0.43400730551E+02  0.00000000000E+00 0.  1.
         11    1    3    3    0    0 -0.19468984969E+02  0.69767239855E+01 -0.10042944356E+02  0.22990797831E+02  0.51100000000E-03 0. -1.
        -11    1    3    3    0    0 -0.88457856981E+01  0.16975925480E+02 -0.13221945695E+02  0.23264776353E+02  0.51100000000E-03 0.  1.
        -12    1    3    3    0    0  0.12486512783E+01  0.87547469845E+00  0.14319365791E+00  0.15316952654E+01  0.00000000000E+00 0.  1.
</event>
<event>
 7    1  0.2530788E-009  0.4778727E+02  0.7816164E-02  0.1312668E+00
        -11   -1    0    0    0    0  0.00000000000E+00  0.00000000000E+00  0.45593999997E+02  0.45594000000E+02  0.51100000000E-03 0. -1.
         11   -1    0    0    0    0 -0.00000000000E+00 -0.00000000000E+00 -0.45593999997E+02  0.45594000000E+02  0.51100000000E-03 0.  1.
    9900012    2    1    2    0    0  0.28265790718E+02  0.32928758154E+02 -0.60427387726E+00  0.47787272064E+02  0.20000004648E+02 0.  0.
        -12    1    1    2    0    0 -0.28265790718E+02 -0.32928758154E+02  0.60427387726E+00  0.43400727936E+02  0.00000000000E+00 0.  1.
         11    1    3    3    0    0  0.15994592364E+02  0.15063080927E+02 -0.41401811300E+01  0.22357649518E+02  0.51100000000E-03 0. -1.
        -11    1    3    3    0    0 -0.15062343492E+01 -0.99951545146E+00  0.47799468802E+00  0.18698267929E+01  0.51100000000E-03 0.  1.
        -12    1    3    3    0    0  0.13777432703E+02  0.18865192678E+02  0.30579125647E+01  0.23559795753E+02  0.00000000000E+00 0.  1.
</event>
<event>
 7    1  0.2530788E-009  0.4778727E+02  0.7816164E-02  0.1312668E+00
        -11   -1    0    0    0    0  0.00000000000E+00  0.00000000000E+00  0.45593999997E+02  0.45594000000E+02  0.51100000000E-03 0.  1.
         11   -1    0    0    0    0 -0.00000000000E+00 -0.00000000000E+00 -0.45593999997E+02  0.45594000000E+02  0.51100000000E-03 0. -1.
    9900012    2    1    2    0    0 -0.70468505976E+01 -0.31567040729E+02 -0.28939368480E+02  0.47787271760E+02  0.20000003261E+02 0.  0.
        -12    1    1    2    0    0  0.70468505976E+01  0.31567040729E+02  0.28939368480E+02  0.43400728240E+02  0.00000000000E+00 0.  1.
         11    1    3    3    0    0 -0.73278022269E+01 -0.25804421450E+02 -0.17139069653E+02  0.31832570752E+02  0.51100000000E-03 0. -1.
        -11    1    3    3    0    0 -0.21580137905E+01  0.17803569280E+01 -0.34286521551E+01  0.44251949305E+01  0.51100000000E-03 0.  1.
        -12    1    3    3    0    0  0.24389654198E+01 -0.75429762071E+01 -0.83716466722E+01  0.11529506077E+02  0.00000000000E+00 0.  1.
</event>
<event>
 7    1  0.2530788E-009  0.4778727E+02  0.7816164E-02  0.1312668E+00
        -11   -1    0    0    0    0  0.00000000000E+00  0.00000000000E+00  0.45593999997E+02  0.45594000000E+02  0.51100000000E-03 0.  1.
         11   -1    0    0    0    0 -0.00000000000E+00 -0.00000000000E+00 -0.45593999997E+02  0.45594000000E+02  0.51100000000E-03 0. -1.
    9900012    2    1    2    0    0  0.87272341679E+01  0.16721140171E+02 -0.39087876004E+02  0.47787271949E+02  0.20000004124E+02 0.  0.
        -12    1    1    2    0    0 -0.87272341679E+01 -0.16721140171E+02  0.39087876004E+02  0.43400728051E+02  0.00000000000E+00 0.  1.
         11    1    3    3    0    0  0.13242278982E+00  0.96626834706E+01 -0.20105276421E+02  0.22307109358E+02  0.51100000000E-03 0. -1.
        -11    1    3    3    0    0  0.12591991096E+01  0.27706362393E+01  0.14353103046E+01  0.33648363258E+01  0.51100000000E-03 0.  1.
        -12    1    3    3    0    0  0.73356122685E+01  0.42878204607E+01 -0.20417909888E+02  0.22115326266E+02  0.00000000000E+00 0.  1.
</event>
<event>
 7    1  0.2530788E-009  0.4778727E+02  0.7816164E-02  0.1312668E+00
        -11   -1    0    0    0    0  0.00000000000E+00  0.00000000000E+00  0.45593999997E+02  0.45594000000E+02  0.51100000000E-03 0.  1.
         11   -1    0    0    0    0 -0.00000000000E+00 -0.00000000000E+00 -0.45593999997E+02  0.45594000000E+02  0.51100000000E-03 0. -1.
    9900012    2    1    2    0    0  0.29797828344E+02 -0.23764138231E+01 -0.31465310495E+02  0.47787266352E+02  0.19999978603E+02 0.  0.
        -12    1    1    2    0    0 -0.29797828344E+02  0.23764138231E+01  0.31465310495E+02  0.43400733648E+02  0.00000000000E+00 0.  1.
         11    1    3    3    0    0  0.23961749792E+02  0.32538823402E+01 -0.18047441533E+02  0.30173885224E+02  0.51100000000E-03 0. -1.
        -11    1    3    3    0    0  0.64531694450E+00 -0.51097916415E+01 -0.29950667457E+01  0.59579215882E+01  0.51100000000E-03 0.  1.
         12    1    3    3    0    0  0.51907616070E+01 -0.52050452177E+00 -0.10422802217E+02  0.11655459539E+02  0.00000000000E+00 0. -1.
</event>
<event>
 7    1  0.2530788E-009  0.4778727E+02  0.7816164E-02  0.1312668E+00
        -11   -1    0    0    0    0  0.00000000000E+00  0.00000000000E+00  0.45593999997E+02  0.45594000000E+02  0.51100000000E-03 0. -1.
         11   -1    0    0    0    0 -0.00000000000E+00 -0.00000000000E+00 -0.45593999997E+02  0.45594000000E+02  0.51100000000E-03 0.  1.
    9900012    2    1    2    0    0 -0.62311905592E+01 -0.13224795250E+02  0.40864414900E+02  0.47787270164E+02  0.19999995984E+02 0.  0.
        -12    1    1    2    0    0  0.62311905592E+01  0.13224795250E+02 -0.40864414900E+02  0.43400729836E+02  0.00000000000E+00 0.  1.
         11    1    3    3    0    0 -0.57262426649E+00 -0.13180275080E+02  0.15982559540E+02  0.20724134709E+02  0.51100000000E-03 0. -1.
        -11    1    3    3    0    0 -0.42028924741E+01  0.62250217300E-01  0.25217533248E+02  0.25565448630E+02  0.51100000000E-03 0.  1.
        -12    1    3    3    0    0 -0.14556738186E+01 -0.10677038720E+00 -0.33567788790E+00  0.14976868251E+01  0.00000000000E+00 0.  1.
</event>
<event>
 7    1  0.2530788E-009  0.4778727E+02  0.7816164E-02  0.1312668E+00
        -11   -1    0    0    0    0  0.00000000000E+00  0.00000000000E+00  0.45593999997E+02  0.45594000000E+02  0.51100000000E-03 0.  1.
         11   -1    0    0    0    0 -0.00000000000E+00 -0.00000000000E+00 -0.45593999997E+02  0.45594000000E+02  0.51100000000E-03 0. -1.
    9900012    2    1    2    0    0  0.29741289601E+02  0.12017030969E+02 -0.29234737936E+02  0.47787271405E+02  0.20000001642E+02 0.  0.
        -12    1    1    2    0    0 -0.29741289601E+02 -0.12017030969E+02  0.29234737936E+02  0.43400728595E+02  0.00000000000E+00 0.  1.
         11    1    3    3    0    0  0.18197808527E+02  0.11847691248E+02 -0.12431746415E+02  0.25021517586E+02  0.51100000000E-03 0. -1.
        -11    1    3    3    0    0  0.59627585950E+01  0.48671639311E+01 -0.61386417466E+01  0.98451357303E+01  0.51100000000E-03 0.  1.
         12    1    3    3    0    0  0.55807224793E+01 -0.46978242102E+01 -0.10664349774E+02  0.12920618089E+02  0.00000000000E+00 0. -1.
</event>
<event>
 7    1  0.2530788E-009  0.4778728E+02  0.7816164E-02  0.1312668E+00
        -11   -1    0    0    0    0  0.00000000000E+00  0.00000000000E+00  0.45593999997E+02  0.45594000000E+02  0.51100000000E-03 0.  1.
         11   -1    0    0    0    0 -0.00000000000E+00 -0.00000000000E+00 -0.45593999997E+02  0.45594000000E+02  0.51100000000E-03 0. -1.
    9900012    2    1    2    0    0 -0.36963398711E+02  0.14139261267E+02 -0.17816039326E+02  0.47787276380E+02  0.20000024328E+02 0.  0.
        -12    1    1    2    0    0  0.36963398711E+02 -0.14139261267E+02  0.17816039326E+02  0.43400723620E+02  0.00000000000E+00 0.  1.
         11    1    3    3    0    0 -0.63994806787E+01  0.68961944276E+01 -0.11878701890E+02  0.15153033010E+02  0.51100000000E-03 0. -1.
        -11    1    3    3    0    0 -0.10714756199E+02  0.47677520401E+01  0.14006551453E+00  0.11728472984E+02  0.51100000000E-03 0.  1.
         12    1    3    3    0    0 -0.19849161833E+02  0.24753147994E+01 -0.60774029510E+01  0.20905770387E+02  0.00000000000E+00 0. -1.
</event>
<event>
 7    1  0.2530788E-009  0.4778727E+02  0.7816164E-02  0.1312668E+00
        -11   -1    0    0    0    0  0.00000000000E+00  0.00000000000E+00  0.45593999997E+02  0.45594000000E+02  0.51100000000E-03 0.  1.
         11   -1    0    0    0    0 -0.00000000000E+00 -0.00000000000E+00 -0.45593999997E+02  0.45594000000E+02  0.51100000000E-03 0. -1.
    9900012    2    1    2    0    0  0.39113578917E+02  0.51286410729E+01 -0.18095533038E+02  0.47787270388E+02  0.19999997008E+02 0.  0.
        -12    1    1    2    0    0 -0.39113578917E+02 -0.51286410729E+01  0.18095533038E+02  0.43400729612E+02  0.00000000000E+00 0.  1.
         11    1    3    3    0    0  0.46379385241E+01  0.37832429414E+01 -0.77720742280E+01  0.98096146190E+01  0.51100000000E-03 0. -1.
        -11    1    3    3    0    0  0.23387122477E+02  0.42966086902E+01 -0.21211462099E+01  0.23872947147E+02  0.51100000000E-03 0.  1.
        -12    1    3    3    0    0  0.11088517916E+02 -0.29512105587E+01 -0.82023125996E+01  0.14104708622E+02  0.00000000000E+00 0.  1.
</event>
<event>
 7    1  0.2530788E-009  0.4778727E+02  0.7816164E-02  0.1312668E+00
        -11   -1    0    0    0    0  0.00000000000E+00  0.00000000000E+00  0.45593999997E+02  0.45594000000E+02  0.51100000000E-03 0.  1.
         11   -1    0    0    0    0 -0.00000000000E+00 -0.00000000000E+00 -0.45593999997E+02  0.45594000000E+02  0.51100000000E-03 0. -1.
    9900012    2    1    2    0    0  0.97769390740E+01  0.32360952999E+02 -0.27217704975E+02  0.47787270965E+02  0.19999999637E+02 0.  0.
        -12    1    1    2    0    0 -0.97769390740E+01 -0.32360952999E+02  0.27217704975E+02  0.43400729035E+02  0.00000000000E+00 0.  1.
         11    1    3    3    0    0  0.71331115397E-01  0.92123890979E+01 -0.48669452943E+01  0.10419230191E+02  0.51100000000E-03 0.  1.
        -11    1    3    3    0    0  0.78412474182E+01  0.14249050828E+02 -0.37901628593E+01  0.16699878602E+02  0.51100000000E-03 0. -1.
        -12    1    3    3    0    0  0.18643605404E+01  0.88995130734E+01 -0.18560596821E+02  0.20668162171E+02  0.00000000000E+00 0.  1.
</event>
<event>
 7    1  0.2530788E-009  0.4778727E+02  0.7816164E-02  0.1312668E+00
        -11   -1    0    0    0    0  0.00000000000E+00  0.00000000000E+00  0.45593999997E+02  0.45594000000E+02  0.51100000000E-03 0. -1.
         11   -1    0    0    0    0 -0.00000000000E+00 -0.00000000000E+00 -0.45593999997E+02  0.45594000000E+02  0.51100000000E-03 0.  1.
    9900012    2    1    2    0    0  0.26885757750E+02  0.24230828235E+02  0.23950918924E+02  0.47787268162E+02  0.19999986858E+02 0.  0.
        -12    1    1    2    0    0 -0.26885757750E+02 -0.24230828235E+02 -0.23950918924E+02  0.43400731838E+02  0.00000000000E+00 0.  1.
         11    1    3    3    0    0  0.25856765575E+02  0.21360331838E+02  0.18798621663E+02  0.38447682361E+02  0.51100000000E-03 0. -1.
        -11    1    3    3    0    0  0.40691151721E+01  0.14684426211E+01  0.20981847932E+01  0.48079519239E+01  0.51100000000E-03 0.  1.
         12    1    3    3    0    0 -0.30401229970E+01  0.14020537753E+01  0.30541124683E+01  0.45316338770E+01  0.00000000000E+00 0. -1.
</event>
<event>
 7    1  0.2530788E-009  0.4778727E+02  0.7816164E-02  0.1312668E+00
        -11   -1    0    0    0    0  0.00000000000E+00  0.00000000000E+00  0.45593999997E+02  0.45594000000E+02  0.51100000000E-03 0.  1.
         11   -1    0    0    0    0 -0.00000000000E+00 -0.00000000000E+00 -0.45593999997E+02  0.45594000000E+02  0.51100000000E-03 0. -1.
    9900012    2    1    2    0    0 -0.27864091397E+02  0.15100074635E+01 -0.33240572393E+02  0.47787269995E+02  0.19999995217E+02 0.  0.
        -12    1    1    2    0    0  0.27864091397E+02 -0.15100074635E+01  0.33240572393E+02  0.43400730005E+02  0.00000000000E+00 0.  1.
         11    1    3    3    0    0  0.19543894576E-01 -0.30674605032E+01 -0.20838313971E+01  0.37083755817E+01  0.51100000000E-03 0.  1.
        -11    1    3    3    0    0 -0.17895130122E+02  0.85109862339E+01 -0.15809772587E+02  0.25349979847E+02  0.51100000000E-03 0. -1.
        -12    1    3    3    0    0 -0.99885051697E+01 -0.39335182672E+01 -0.15346968409E+02  0.18728914566E+02  0.00000000000E+00 0.  1.
</event>
<event>
 7    1  0.2530788E-009  0.4778727E+02  0.7816164E-02  0.1312668E+00
        -11   -1    0    0    0    0  0.00000000000E+00  0.00000000000E+00  0.45593999997E+02  0.45594000000E+02  0.51100000000E-03 0. -1.
         11   -1    0    0    0    0 -0.00000000000E+00 -0.00000000000E+00 -0.45593999997E+02  0.45594000000E+02  0.51100000000E-03 0.  1.
    9900012    2    1    2    0    0 -0.26809465312E+02 -0.29818231535E+02 -0.16605698399E+02  0.47787267501E+02  0.19999983842E+02 0.  0.
        -12    1    1    2    0    0  0.26809465312E+02  0.29818231535E+02  0.16605698399E+02  0.43400732499E+02  0.00000000000E+00 0.  1.
         11    1    3    3    0    0 -0.12069582756E+02 -0.14088831209E+02  0.91469975013E+00  0.18574355134E+02  0.51100000000E-03 0. -1.
        -11    1    3    3    0    0 -0.13804406643E+02 -0.16934303471E+02 -0.16270111648E+02  0.27240572866E+02  0.51100000000E-03 0.  1.
        -12    1    3    3    0    0 -0.93547591263E+00  0.12049031444E+01 -0.12502865010E+01  0.19723395005E+01  0.00000000000E+00 0.  1.
</event>
<event>
 7    1  0.2530788E-009  0.4778726E+02  0.7816164E-02  0.1312668E+00
        -11   -1    0    0    0    0  0.00000000000E+00  0.00000000000E+00  0.45593999997E+02  0.45594000000E+02  0.51100000000E-03 0. -1.
         11   -1    0    0    0    0 -0.00000000000E+00 -0.00000000000E+00 -0.45593999997E+02  0.45594000000E+02  0.51100000000E-03 0.  1.
    9900012    2    1    2    0    0 -0.87999585950E+01  0.37090427125E+02 -0.20748128009E+02  0.47787264160E+02  0.19999968611E+02 0.  0.
        -12    1    1    2    0    0  0.87999585950E+01 -0.37090427125E+02  0.20748128009E+02  0.43400735840E+02  0.00000000000E+00 0.  1.
         11    1    3    3    0    0  0.45265534264E+01  0.14951198889E+02 -0.96814596091E+01  0.18378212496E+02  0.51100000000E-03 0.  1.
        -11    1    3    3    0    0 -0.11440288447E+02  0.13752736107E+02 -0.41208075754E+01  0.18357532664E+02  0.51100000000E-03 0. -1.
         12    1    3    3    0    0 -0.18862235743E+01  0.83864921288E+01 -0.69458608248E+01  0.11051518999E+02  0.00000000000E+00 0. -1.
</event>
<event>
 7    1  0.2530788E-009  0.4778726E+02  0.7816164E-02  0.1312668E+00
        -11   -1    0    0    0    0  0.00000000000E+00  0.00000000000E+00  0.45593999997E+02  0.45594000000E+02  0.51100000000E-03 0.  1.
         11   -1    0    0    0    0 -0.00000000000E+00 -0.00000000000E+00 -0.45593999997E+02  0.45594000000E+02  0.51100000000E-03 0. -1.
    9900012    2    1    2    0    0 -0.22827215543E+02  0.34817346080E+02 -0.12259497828E+02  0.47787255254E+02  0.19999928004E+02 0.  0.
        -12    1    1    2    0    0  0.22827215543E+02 -0.34817346080E+02  0.12259497828E+02  0.43400744746E+02  0.00000000000E+00 0.  1.
         11    1    3    3    0    0 -0.21156213698E+02  0.28957891323E+02 -0.65404486405E+01  0.36454386795E+02  0.51100000000E-03 0. -1.
        -11    1    3    3    0    0 -0.88600078788E-01  0.74286990703E+01 -0.51282654753E+01  0.90273211362E+01  0.51100000000E-03 0.  1.
         12    1    3    3    0    0 -0.15824017665E+01 -0.15692443127E+01 -0.59078371268E+00  0.23055473230E+01  0.00000000000E+00 0. -1.
</event>
<event>
 7    1  0.2530788E-009  0.4778724E+02  0.7816164E-02  0.1312668E+00
        -11   -1    0    0    0    0  0.00000000000E+00  0.00000000000E+00  0.45593999997E+02  0.45594000000E+02  0.51100000000E-03 0.  1.
         11   -1    0    0    0    0 -0.00000000000E+00 -0.00000000000E+00 -0.45593999997E+02  0.45594000000E+02  0.51100000000E-03 0. -1.
    9900012    2    1    2    0    0  0.35087451321E+01  0.13272697614E+02 -0.41172196373E+02  0.47787244839E+02  0.19999880520E+02 0.  0.
        -12    1    1    2    0    0 -0.35087451321E+01 -0.13272697614E+02  0.41172196373E+02  0.43400755161E+02  0.00000000000E+00 0.  1.
         11    1    3    3    0    0 -0.59913700407E+01  0.78968111993E+01 -0.27080529423E+02  0.28837670089E+02  0.51100000000E-03 0. -1.
        -11    1    3    3    0    0  0.84213787893E+01  0.14028487742E+01 -0.99333175468E+01  0.13098030506E+02  0.51100000000E-03 0.  1.
         12    1    3    3    0    0  0.10787363834E+01  0.39730376407E+01 -0.41583494031E+01  0.58515442438E+01  0.00000000000E+00 0. -1.
</event>
<event>
 7    1  0.2530788E-009  0.4778727E+02  0.7816164E-02  0.1312668E+00
        -11   -1    0    0    0    0  0.00000000000E+00  0.00000000000E+00  0.45593999997E+02  0.45594000000E+02  0.51100000000E-03 0. -1.
         11   -1    0    0    0    0 -0.00000000000E+00 -0.00000000000E+00 -0.45593999997E+02  0.45594000000E+02  0.51100000000E-03 0.  1.
    9900012    2    1    2    0    0  0.24820036985E+02  0.13517810036E+02  0.32937184606E+02  0.47787267819E+02  0.19999985292E+02 0.  0.
        -12    1    1    2    0    0 -0.24820036985E+02 -0.13517810036E+02 -0.32937184606E+02  0.43400732181E+02  0.00000000000E+00 0.  1.
         11    1    3    3    0    0  0.20781313032E+02  0.70965677792E+01  0.25234039748E+02  0.33451173490E+02  0.51100000000E-03 0. -1.
        -11    1    3    3    0    0  0.20869302623E+01 -0.14983377260E+01 -0.66152258317E+00  0.26529052471E+01  0.51100000000E-03 0.  1.
         12    1    3    3    0    0  0.19517936907E+01  0.79195799829E+01  0.83646674416E+01  0.11683189082E+02  0.00000000000E+00 0. -1.
</event>
<event>
 7    1  0.2530788E-009  0.4778728E+02  0.7816164E-02  0.1312668E+00
        -11   -1    0    0    0    0  0.00000000000E+00  0.00000000000E+00  0.45593999997E+02  0.45594000000E+02  0.51100000000E-03 0. -1.
         11   -1    0    0    0    0 -0.00000000000E+00 -0.00000000000E+00 -0.45593999997E+02  0.45594000000E+02  0.51100000000E-03 0.  1.
    9900012    2    1    2    0    0  0.20498909274E+02  0.37860782859E+02 -0.54752825661E+01  0.47787275591E+02  0.20000020727E+02 0.  0.
        -12    1    1    2    0    0 -0.20498909274E+02 -0.37860782859E+02  0.54752825661E+01  0.43400724409E+02  0.00000000000E+00 0.  1.
         11    1    3    3    0    0 -0.31307894629E+01  0.67825239019E+01 -0.79885295115E+00  0.75128316525E+01  0.51100000000E-03 0.  1.
        -11    1    3    3    0    0  0.68351968227E+01  0.75315960234E+01 -0.50373338268E+01  0.11349871656E+02  0.51100000000E-03 0. -1.
         12    1    3    3    0    0  0.16794501914E+02  0.23546662933E+02  0.36090421188E+00  0.28924572282E+02  0.00000000000E+00 0. -1.
</event>
<event>
 7    1  0.2530788E-009  0.4778727E+02  0.7816164E-02  0.1312668E+00
        -11   -1    0    0    0    0  0.00000000000E+00  0.00000000000E+00  0.45593999997E+02  0.45594000000E+02  0.51100000000E-03 0.  1.
         11   -1    0    0    0    0 -0.00000000000E+00 -0.00000000000E+00 -0.45593999997E+02  0.45594000000E+02  0.51100000000E-03 0. -1.
    9900012    2    1    2    0    0  0.76756907445E+01  0.53018464935E+01 -0.42386291369E+02  0.47787268431E+02  0.19999988086E+02 0.  0.
        -12    1    1    2    0    0 -0.76756907445E+01 -0.53018464935E+01  0.42386291369E+02  0.43400731569E+02  0.00000000000E+00 0.  1.
         11    1    3    3    0    0 -0.23181651927E+01  0.32266240782E+01 -0.21838659129E+02  0.22197117507E+02  0.51100000000E-03 0. -1.
        -11    1    3    3    0    0 -0.38062376958E+00  0.43962231894E+01 -0.80716490611E+01  0.91990853682E+01  0.51100000000E-03 0.  1.
         12    1    3    3    0    0  0.10374479707E+02 -0.23210007740E+01 -0.12475983179E+02  0.16391065556E+02  0.00000000000E+00 0. -1.
</event>
<event>
 7    1  0.2530788E-009  0.4778727E+02  0.7816164E-02  0.1312668E+00
        -11   -1    0    0    0    0  0.00000000000E+00  0.00000000000E+00  0.45593999997E+02  0.45594000000E+02  0.51100000000E-03 0.  1.
         11   -1    0    0    0    0 -0.00000000000E+00 -0.00000000000E+00 -0.45593999997E+02  0.45594000000E+02  0.51100000000E-03 0. -1.
    9900012    2    1    2    0    0  0.16538014467E+02 -0.13524300641E+02 -0.37778443523E+02  0.47787269299E+02  0.19999992042E+02 0.  0.
        -12    1    1    2    0    0 -0.16538014467E+02  0.13524300641E+02  0.37778443523E+02  0.43400730701E+02  0.00000000000E+00 0.  1.
         11    1    3    3    0    0  0.17293577343E+02 -0.13962508106E+02 -0.23619626667E+02  0.32433103676E+02  0.51100000000E-03 0. -1.
        -11    1    3    3    0    0 -0.26234123439E+01 -0.79359149066E+00 -0.34100136205E+01  0.43749597637E+01  0.51100000000E-03 0.  1.
         12    1    3    3    0    0  0.18678494675E+01  0.12317989551E+01 -0.10748803236E+02  0.10979205859E+02  0.00000000000E+00 0. -1.
</event>
<event>
 7    1  0.2530788E-009  0.4778727E+02  0.7816164E-02  0.1312668E+00
        -11   -1    0    0    0    0  0.00000000000E+00  0.00000000000E+00  0.45593999997E+02  0.45594000000E+02  0.51100000000E-03 0. -1.
         11   -1    0    0    0    0 -0.00000000000E+00 -0.00000000000E+00 -0.45593999997E+02  0.45594000000E+02  0.51100000000E-03 0.  1.
    9900012    2    1    2    0    0 -0.30857493544E+02  0.24779094445E+02  0.17816704457E+02  0.47787269741E+02  0.19999994057E+02 0.  0.
        -12    1    1    2    0    0  0.30857493544E+02 -0.24779094445E+02 -0.17816704457E+02  0.43400730259E+02  0.00000000000E+00 0.  1.
         11    1    3    3    0    0 -0.22205423776E+02  0.17828103695E+02  0.16906074462E+02  0.33117027047E+02  0.51100000000E-03 0. -1.
        -11    1    3    3    0    0 -0.18482040763E+01  0.73314458731E+01  0.18697663638E+01  0.77885803208E+01  0.51100000000E-03 0.  1.
         12    1    3    3    0    0 -0.68038656913E+01 -0.38045512333E+00 -0.95913636915E+00  0.68816623733E+01  0.00000000000E+00 0. -1.
</event>
<event>
 7    1  0.2530788E-009  0.4778727E+02  0.7816164E-02  0.1312668E+00
        -11   -1    0    0    0    0  0.00000000000E+00  0.00000000000E+00  0.45593999997E+02  0.45594000000E+02  0.51100000000E-03 0. -1.
         11   -1    0    0    0    0 -0.00000000000E+00 -0.00000000000E+00 -0.45593999997E+02  0.45594000000E+02  0.51100000000E-03 0.  1.
    9900012    2    1    2    0    0 -0.17907822751E+00 -0.37902403569E+02  0.21142353467E+02  0.47787269875E+02  0.19999994668E+02 0.  0.
        -12    1    1    2    0    0  0.17907822751E+00  0.37902403569E+02 -0.21142353467E+02  0.43400730125E+02  0.00000000000E+00 0.  1.
         11    1    3    3    0    0  0.61779551008E+01 -0.24497584119E+02  0.14918336255E+02  0.29340339361E+02  0.51100000000E-03 0. -1.
        -11    1    3    3    0    0 -0.36907385281E+01 -0.10935244363E+02  0.83420868759E+01  0.14240489243E+02  0.51100000000E-03 0.  1.
         12    1    3    3    0    0 -0.26662948003E+01 -0.24695750860E+01 -0.21180696646E+01  0.42064412716E+01  0.00000000000E+00 0. -1.
</event>
<event>
 7    1  0.2530788E-009  0.4778727E+02  0.7816164E-02  0.1312668E+00
        -11   -1    0    0    0    0  0.00000000000E+00  0.00000000000E+00  0.45593999997E+02  0.45594000000E+02  0.51100000000E-03 0. -1.
         11   -1    0    0    0    0 -0.00000000000E+00 -0.00000000000E+00 -0.45593999997E+02  0.45594000000E+02  0.51100000000E-03 0.  1.
    9900012    2    1    2    0    0  0.36279065467E+02  0.61121150523E+01  0.23023786191E+02  0.47787271064E+02  0.20000000090E+02 0.  0.
        -12    1    1    2    0    0 -0.36279065467E+02 -0.61121150523E+01 -0.23023786191E+02  0.43400728936E+02  0.00000000000E+00 0.  1.
         11    1    3    3    0    0  0.63507047665E+01  0.94065656888E+00  0.11584740714E+02  0.13244716059E+02  0.51100000000E-03 0.  1.
        -11    1    3    3    0    0  0.30038667910E+02  0.39674715279E+01  0.86614310246E+01  0.31513216081E+02  0.51100000000E-03 0. -1.
         12    1    3    3    0    0 -0.11030720895E+00  0.12039869555E+01  0.27776144530E+01  0.30293389244E+01  0.00000000000E+00 0. -1.
</event>
<event>
 7    1  0.2530788E-009  0.4778728E+02  0.7816164E-02  0.1312668E+00
        -11   -1    0    0    0    0  0.00000000000E+00  0.00000000000E+00  0.45593999997E+02  0.45594000000E+02  0.51100000000E-03 0. -1.
         11   -1    0    0    0    0 -0.00000000000E+00 -0.00000000000E+00 -0.45593999997E+02  0.45594000000E+02  0.51100000000E-03 0.  1.
    9900012    2    1    2    0    0  0.79849869100E+01 -0.34553251858E+02  0.25018704199E+02  0.47787276622E+02  0.20000025433E+02 0.  0.
        -12    1    1    2    0    0 -0.79849869100E+01  0.34553251858E+02 -0.25018704199E+02  0.43400723378E+02  0.00000000000E+00 0.  1.
         11    1    3    3    0    0  0.83317358597E+01 -0.26588097866E+02  0.24769231808E+02  0.37280821010E+02  0.51100000000E-03 0. -1.
        -11    1    3    3    0    0 -0.27961439984E+01 -0.79494573830E+00 -0.21728840178E+00  0.29150599475E+01  0.51100000000E-03 0.  1.
        -12    1    3    3    0    0  0.24493950487E+01 -0.71702082533E+01  0.46676079258E+00  0.75913956647E+01  0.00000000000E+00 0.  1.
</event>
<event>
 7    1  0.2530788E-009  0.4778727E+02  0.7816164E-02  0.1312668E+00
        -11   -1    0    0    0    0  0.00000000000E+00  0.00000000000E+00  0.45593999997E+02  0.45594000000E+02  0.51100000000E-03 0.  1.
         11   -1    0    0    0    0 -0.00000000000E+00 -0.00000000000E+00 -0.45593999997E+02  0.45594000000E+02  0.51100000000E-03 0. -1.
    9900012    2    1    2    0    0 -0.43301145538E+02 -0.12575532638E+01 -0.26557301401E+01  0.47787267890E+02  0.19999985617E+02 0.  0.
        -12    1    1    2    0    0  0.43301145538E+02  0.12575532638E+01  0.26557301401E+01  0.43400732110E+02  0.00000000000E+00 0.  1.
         11    1    3    3    0    0 -0.26460116702E+02 -0.89607183845E+00  0.24958276308E+01  0.26592665839E+02  0.51100000000E-03 0. -1.
        -11    1    3    3    0    0  0.11410043086E+00  0.88018032057E+00 -0.40634853843E+01  0.41592847985E+01  0.51100000000E-03 0.  1.
        -12    1    3    3    0    0 -0.16955129267E+02 -0.12416617460E+01 -0.10880723865E+01  0.17035317252E+02  0.00000000000E+00 0.  1.
</event>
<event>
 7    1  0.2530788E-009  0.4778727E+02  0.7816164E-02  0.1312668E+00
        -11   -1    0    0    0    0  0.00000000000E+00  0.00000000000E+00  0.45593999997E+02  0.45594000000E+02  0.51100000000E-03 0.  1.
         11   -1    0    0    0    0 -0.00000000000E+00 -0.00000000000E+00 -0.45593999997E+02  0.45594000000E+02  0.51100000000E-03 0. -1.
    9900012    2    1    2    0    0 -0.19671661901E+02 -0.29538995952E+02 -0.24981931532E+02  0.47787268821E+02  0.19999989862E+02 0.  0.
        -12    1    1    2    0    0  0.19671661901E+02  0.29538995952E+02  0.24981931532E+02  0.43400731179E+02  0.00000000000E+00 0.  1.
         11    1    3    3    0    0  0.13672444224E+01 -0.78447263792E+01 -0.37589127210E+01  0.88055956289E+01  0.51100000000E-03 0. -1.
        -11    1    3    3    0    0 -0.12198246740E+02 -0.51746824927E+01 -0.12855109778E+02  0.18461538671E+02  0.51100000000E-03 0.  1.
        -12    1    3    3    0    0 -0.88406595829E+01 -0.16519587080E+02 -0.83679090331E+01  0.20520134521E+02  0.00000000000E+00 0.  1.
</event>
<event>
 7    1  0.2530788E-009  0.4778727E+02  0.7816164E-02  0.1312668E+00
        -11   -1    0    0    0    0  0.00000000000E+00  0.00000000000E+00  0.45593999997E+02  0.45594000000E+02  0.51100000000E-03 0.  1.
         11   -1    0    0    0    0 -0.00000000000E+00 -0.00000000000E+00 -0.45593999997E+02  0.45594000000E+02  0.51100000000E-03 0. -1.
    9900012    2    1    2    0    0  0.21431103583E+02 -0.11544689476E+02 -0.35931201279E+02  0.47787270960E+02  0.19999999614E+02 0.  0.
        -12    1    1    2    0    0 -0.21431103583E+02  0.11544689476E+02  0.35931201279E+02  0.43400729040E+02  0.00000000000E+00 0.  1.
         11    1    3    3    0    0  0.16972332582E+00 -0.65594502170E+01 -0.85006661089E+01  0.10738552869E+02  0.51100000000E-03 0. -1.
        -11    1    3    3    0    0  0.19894978375E+02 -0.65016373824E+01 -0.18649781976E+02  0.28033833509E+02  0.51100000000E-03 0.  1.
        -12    1    3    3    0    0  0.13664018821E+01  0.15163981238E+01 -0.87807531942E+01  0.90148845822E+01  0.00000000000E+00 0.  1.
</event>
<event>
 7    1  0.2530788E-009  0.4778727E+02  0.7816164E-02  0.1312668E+00
        -11   -1    0    0    0    0  0.00000000000E+00  0.00000000000E+00  0.45593999997E+02  0.45594000000E+02  0.51100000000E-03 0.  1.
         11   -1    0    0    0    0 -0.00000000000E+00 -0.00000000000E+00 -0.45593999997E+02  0.45594000000E+02  0.51100000000E-03 0. -1.
    9900012    2    1    2    0    0  0.18257306632E+02 -0.11054665849E+02 -0.37790052818E+02  0.47787274494E+02  0.20000015727E+02 0.  0.
        -12    1    1    2    0    0 -0.18257306632E+02  0.11054665849E+02  0.37790052818E+02  0.43400725506E+02  0.00000000000E+00 0.  1.
         11    1    3    3    0    0  0.86294441533E+00  0.75310066486E+00 -0.15776047077E+02  0.15817569197E+02  0.51100000000E-03 0. -1.
        -11    1    3    3    0    0 -0.36416287059E+00 -0.22624482685E+01 -0.25446434928E+00  0.23056537316E+01  0.51100000000E-03 0.  1.
         12    1    3    3    0    0  0.17758525087E+02 -0.95453182452E+01 -0.21759541392E+02  0.29664051565E+02  0.00000000000E+00 0. -1.
</event>
<event>
 7    1  0.2530788E-009  0.4778727E+02  0.7816164E-02  0.1312668E+00
        -11   -1    0    0    0    0  0.00000000000E+00  0.00000000000E+00  0.45593999997E+02  0.45594000000E+02  0.51100000000E-03 0. -1.
         11   -1    0    0    0    0 -0.00000000000E+00 -0.00000000000E+00 -0.45593999997E+02  0.45594000000E+02  0.51100000000E-03 0.  1.
    9900012    2    1    2    0    0  0.14519128089E+02  0.39249275357E+02  0.11502719951E+02  0.47787271172E+02  0.20000000581E+02 0.  0.
        -12    1    1    2    0    0 -0.14519128089E+02 -0.39249275357E+02 -0.11502719951E+02  0.43400728828E+02  0.00000000000E+00 0.  1.
         11    1    3    3    0    0  0.10936995209E+01  0.77243989976E+01 -0.43398759928E+01  0.89273200016E+01  0.51100000000E-03 0.  1.
        -11    1    3    3    0    0  0.41888912179E+01  0.20574744141E+02  0.11223086762E+02  0.23808078100E+02  0.51100000000E-03 0. -1.
        -12    1    3    3    0    0  0.92365373503E+01  0.10950132219E+02  0.46195091822E+01  0.15051873070E+02  0.00000000000E+00 0.  1.
</event>
<event>
 7    1  0.2530788E-009  0.4778727E+02  0.7816164E-02  0.1312668E+00
        -11   -1    0    0    0    0  0.00000000000E+00  0.00000000000E+00  0.45593999997E+02  0.45594000000E+02  0.51100000000E-03 0.  1.
         11   -1    0    0    0    0 -0.00000000000E+00 -0.00000000000E+00 -0.45593999997E+02  0.45594000000E+02  0.51100000000E-03 0. -1.
    9900012    2    1    2    0    0 -0.20091476277E+02  0.20795214368E+02 -0.32365332952E+02  0.47787272624E+02  0.20000007203E+02 0.  0.
        -12    1    1    2    0    0  0.20091476277E+02 -0.20795214368E+02  0.32365332952E+02  0.43400727376E+02  0.00000000000E+00 0.  1.
         11    1    3    3    0    0 -0.99721092273E+01  0.77374733367E+01 -0.26018855935E+02  0.28918719206E+02  0.51100000000E-03 0. -1.
        -11    1    3    3    0    0 -0.12306787963E+01  0.78731580451E+00  0.12468272706E+01  0.19206808635E+01  0.51100000000E-03 0.  1.
         12    1    3    3    0    0 -0.88886882538E+01  0.12270425227E+02 -0.75933042877E+01  0.16947872555E+02  0.00000000000E+00 0. -1.
</event>
<event>
 7    1  0.2530788E-009  0.4778727E+02  0.7816164E-02  0.1312668E+00
        -11   -1    0    0    0    0  0.00000000000E+00  0.00000000000E+00  0.45593999997E+02  0.45594000000E+02  0.51100000000E-03 0. -1.
         11   -1    0    0    0    0 -0.00000000000E+00 -0.00000000000E+00 -0.45593999997E+02  0.45594000000E+02  0.51100000000E-03 0.  1.
    9900012    2    1    2    0    0 -0.74734531930E+01  0.14188383511E+02  0.40329400446E+02  0.47787271093E+02  0.20000000222E+02 0.  0.
        -12    1    1    2    0    0  0.74734531930E+01 -0.14188383511E+02 -0.40329400446E+02  0.43400728907E+02  0.00000000000E+00 0.  1.
         11    1    3    3    0    0 -0.36223894899E+00 -0.30460146199E+00  0.51253080557E+01  0.51471139519E+01  0.51100000000E-03 0. -1.
        -11    1    3    3    0    0 -0.16586802597E+01  0.72606397052E+01  0.32271587829E+02  0.33119835301E+02  0.51100000000E-03 0.  1.
        -12    1    3    3    0    0 -0.54525339843E+01  0.72323452683E+01  0.29325045616E+01  0.95203218398E+01  0.00000000000E+00 0.  1.
</event>
<event>
 7    1  0.2530788E-009  0.4778727E+02  0.7816164E-02  0.1312668E+00
        -11   -1    0    0    0    0  0.00000000000E+00  0.00000000000E+00  0.45593999997E+02  0.45594000000E+02  0.51100000000E-03 0. -1.
         11   -1    0    0    0    0 -0.00000000000E+00 -0.00000000000E+00 -0.45593999997E+02  0.45594000000E+02  0.51100000000E-03 0.  1.
    9900012    2    1    2    0    0  0.11493202561E+02 -0.15180954606E+02  0.39000873753E+02  0.47787271419E+02  0.20000001707E+02 0.  0.
        -12    1    1    2    0    0 -0.11493202561E+02  0.15180954606E+02 -0.39000873753E+02  0.43400728581E+02  0.00000000000E+00 0.  1.
         11    1    3    3    0    0  0.37134513869E-01 -0.32819181160E+01  0.42701151316E+01  0.53857449800E+01  0.51100000000E-03 0. -1.
        -11    1    3    3    0    0  0.14690284141E+02 -0.14037080599E+02  0.30645353391E+02  0.36769304652E+02  0.51100000000E-03 0.  1.
        -12    1    3    3    0    0 -0.32342160940E+01  0.21380441087E+01  0.40854052309E+01  0.56322217867E+01  0.00000000000E+00 0.  1.
</event>
<event>
 7    1  0.2530788E-009  0.4778727E+02  0.7816164E-02  0.1312668E+00
        -11   -1    0    0    0    0  0.00000000000E+00  0.00000000000E+00  0.45593999997E+02  0.45594000000E+02  0.51100000000E-03 0. -1.
         11   -1    0    0    0    0 -0.00000000000E+00 -0.00000000000E+00 -0.45593999997E+02  0.45594000000E+02  0.51100000000E-03 0.  1.
    9900012    2    1    2    0    0 -0.37614983389E+02 -0.70092094029E+01  0.20484316092E+02  0.47787271923E+02  0.20000004008E+02 0.  0.
        -12    1    1    2    0    0  0.37614983389E+02  0.70092094029E+01 -0.20484316092E+02  0.43400728077E+02  0.00000000000E+00 0.  1.
         11    1    3    3    0    0 -0.26307109609E+02 -0.37726454056E+01  0.51464508127E+01  0.27069961684E+02  0.51100000000E-03 0. -1.
        -11    1    3    3    0    0 -0.62863120793E+01 -0.50108475221E+01  0.11959825789E+02  0.14410542864E+02  0.51100000000E-03 0.  1.
        -12    1    3    3    0    0 -0.50215617008E+01  0.17742835247E+01  0.33780394900E+01  0.63067673762E+01  0.00000000000E+00 0.  1.
</event>
<event>
 7    1  0.2530788E-009  0.4778727E+02  0.7816164E-02  0.1312668E+00
        -11   -1    0    0    0    0  0.00000000000E+00  0.00000000000E+00  0.45593999997E+02  0.45594000000E+02  0.51100000000E-03 0.  1.
         11   -1    0    0    0    0 -0.00000000000E+00 -0.00000000000E+00 -0.45593999997E+02  0.45594000000E+02  0.51100000000E-03 0. -1.
    9900012    2    1    2    0    0 -0.77395044233E+01  0.17686513952E+02 -0.38870439348E+02  0.47787265448E+02  0.19999974485E+02 0.  0.
        -12    1    1    2    0    0  0.77395044233E+01 -0.17686513952E+02  0.38870439348E+02  0.43400734552E+02  0.00000000000E+00 0.  1.
         11    1    3    3    0    0 -0.10627352309E+02  0.12487537914E+02 -0.12703701722E+02  0.20742788095E+02  0.51100000000E-03 0. -1.
        -11    1    3    3    0    0  0.23332756924E+01  0.42988903314E+01 -0.13961093028E+02  0.14793131931E+02  0.51100000000E-03 0.  1.
         12    1    3    3    0    0  0.55457219291E+00  0.90008570693E+00 -0.12205644599E+02  0.12251345423E+02  0.00000000000E+00 0. -1.
</event>
<event>
 7    1  0.2530788E-009  0.4778727E+02  0.7816164E-02  0.1312668E+00
        -11   -1    0    0    0    0  0.00000000000E+00  0.00000000000E+00  0.45593999997E+02  0.45594000000E+02  0.51100000000E-03 0. -1.
         11   -1    0    0    0    0 -0.00000000000E+00 -0.00000000000E+00 -0.45593999997E+02  0.45594000000E+02  0.51100000000E-03 0.  1.
    9900012    2    1    2    0    0 -0.18871024522E+02 -0.38409256999E+02  0.72275291262E+01  0.47787265364E+02  0.19999974099E+02 0.  0.
        -12    1    1    2    0    0  0.18871024522E+02  0.38409256999E+02 -0.72275291262E+01  0.43400734636E+02  0.00000000000E+00 0.  1.
         11    1    3    3    0    0 -0.43728953902E+01 -0.12050363224E+02  0.32370447603E+01  0.13221646152E+02  0.51100000000E-03 0. -1.
        -11    1    3    3    0    0 -0.16781245693E+02 -0.26968883088E+02  0.46736213799E+01  0.32105663038E+02  0.51100000000E-03 0.  1.
        -12    1    3    3    0    0  0.22831165614E+01  0.60998931391E+00 -0.68313701399E+00  0.24599561735E+01  0.00000000000E+00 0.  1.
</event>
<event>
 7    1  0.2530788E-009  0.4778727E+02  0.7816164E-02  0.1312668E+00
        -11   -1    0    0    0    0  0.00000000000E+00  0.00000000000E+00  0.45593999997E+02  0.45594000000E+02  0.51100000000E-03 0. -1.
         11   -1    0    0    0    0 -0.00000000000E+00 -0.00000000000E+00 -0.45593999997E+02  0.45594000000E+02  0.51100000000E-03 0.  1.
    9900012    2    1    2    0    0 -0.27987199815E+02  0.28067733312E+02  0.17678861188E+02  0.47787272591E+02  0.20000007050E+02 0.  0.
        -12    1    1    2    0    0  0.27987199815E+02 -0.28067733312E+02 -0.17678861188E+02  0.43400727409E+02  0.00000000000E+00 0.  1.
         11    1    3    3    0    0 -0.64305387593E+01  0.15840267552E+01 -0.19716741656E+01  0.69100266839E+01  0.51100000000E-03 0. -1.
        -11    1    3    3    0    0 -0.20398176142E+02  0.22134544985E+02  0.20333973419E+02  0.36324842007E+02  0.51100000000E-03 0.  1.
        -12    1    3    3    0    0 -0.11584849136E+01  0.43491615723E+01 -0.68343806500E+00  0.45524038996E+01  0.00000000000E+00 0.  1.
</event>
<event>
 7    1  0.2530788E-009  0.4778727E+02  0.7816164E-02  0.1312668E+00
        -11   -1    0    0    0    0  0.00000000000E+00  0.00000000000E+00  0.45593999997E+02  0.45594000000E+02  0.51100000000E-03 0.  1.
         11   -1    0    0    0    0 -0.00000000000E+00 -0.00000000000E+00 -0.45593999997E+02  0.45594000000E+02  0.51100000000E-03 0. -1.
    9900012    2    1    2    0    0 -0.27672412822E+02  0.16958744297E+02 -0.28814262708E+02  0.47787272184E+02  0.20000005196E+02 0.  0.
        -12    1    1    2    0    0  0.27672412822E+02 -0.16958744297E+02  0.28814262708E+02  0.43400727816E+02  0.00000000000E+00 0.  1.
         11    1    3    3    0    0 -0.28170923360E+00 -0.48616051920E+00 -0.81743591397E+01  0.81936475240E+01  0.51100000000E-03 0. -1.
        -11    1    3    3    0    0  0.34692665630E+00  0.19331613099E+01 -0.16996542171E+01  0.25973631771E+01  0.51100000000E-03 0.  1.
         12    1    3    3    0    0 -0.27737630245E+02  0.15511743506E+02 -0.18940249352E+02  0.36996261483E+02  0.00000000000E+00 0. -1.
</event>
<event>
 7    1  0.2530788E-009  0.4778727E+02  0.7816164E-02  0.1312668E+00
        -11   -1    0    0    0    0  0.00000000000E+00  0.00000000000E+00  0.45593999997E+02  0.45594000000E+02  0.51100000000E-03 0.  1.
         11   -1    0    0    0    0 -0.00000000000E+00 -0.00000000000E+00 -0.45593999997E+02  0.45594000000E+02  0.51100000000E-03 0. -1.
    9900012    2    1    2    0    0 -0.25173959161E+01 -0.38926868709E+02 -0.19025902389E+02  0.47787270152E+02  0.19999995930E+02 0.  0.
        -12    1    1    2    0    0  0.25173959161E+01  0.38926868709E+02  0.19025902389E+02  0.43400729848E+02  0.00000000000E+00 0.  1.
         11    1    3    3    0    0  0.10225301579E+01 -0.27586073509E+02 -0.82181537789E+01  0.28802344893E+02  0.51100000000E-03 0. -1.
        -11    1    3    3    0    0 -0.19632005686E+01 -0.43441704021E+01 -0.10808200162E+02  0.11812838945E+02  0.51100000000E-03 0.  1.
        -12    1    3    3    0    0 -0.15767255053E+01 -0.69966247977E+01  0.45155171440E-03  0.71720863132E+01  0.00000000000E+00 0.  1.
</event>
<event>
 7    1  0.2530788E-009  0.4778727E+02  0.7816164E-02  0.1312668E+00
        -11   -1    0    0    0    0  0.00000000000E+00  0.00000000000E+00  0.45593999997E+02  0.45594000000E+02  0.51100000000E-03 0. -1.
         11   -1    0    0    0    0 -0.00000000000E+00 -0.00000000000E+00 -0.45593999997E+02  0.45594000000E+02  0.51100000000E-03 0.  1.
    9900012    2    1    2    0    0 -0.41068507536E+01 -0.26317983173E+01  0.43125753127E+02  0.47787272261E+02  0.20000005547E+02 0.  0.
        -12    1    1    2    0    0  0.41068507536E+01  0.26317983173E+01 -0.43125753127E+02  0.43400727739E+02  0.00000000000E+00 0.  1.
         11    1    3    3    0    0 -0.21278616631E+01 -0.94258155417E+01  0.17999617181E+02  0.20429390906E+02  0.51100000000E-03 0. -1.
        -11    1    3    3    0    0  0.14156980505E+01  0.40177161981E+01  0.20675182725E+02  0.21109462935E+02  0.51100000000E-03 0.  1.
         12    1    3    3    0    0 -0.33946871410E+01  0.27763010263E+01  0.44509532206E+01  0.62484184196E+01  0.00000000000E+00 0. -1.
</event>
<event>
 7    1  0.2530788E-009  0.4778727E+02  0.7816164E-02  0.1312668E+00
        -11   -1    0    0    0    0  0.00000000000E+00  0.00000000000E+00  0.45593999997E+02  0.45594000000E+02  0.51100000000E-03 0.  1.
         11   -1    0    0    0    0 -0.00000000000E+00 -0.00000000000E+00 -0.45593999997E+02  0.45594000000E+02  0.51100000000E-03 0. -1.
    9900012    2    1    2    0    0  0.33367121428E+02 -0.20859163397E+02 -0.18307219886E+02  0.47787265099E+02  0.19999972891E+02 0.  0.
        -12    1    1    2    0    0 -0.33367121428E+02  0.20859163397E+02  0.18307219886E+02  0.43400734901E+02  0.00000000000E+00 0.  1.
         11    1    3    3    0    0  0.15911542946E+02 -0.16835963412E+02 -0.59520634219E+01  0.23917648759E+02  0.51100000000E-03 0. -1.
        -11    1    3    3    0    0  0.25953496609E+01  0.18870500207E+01  0.62903904124E+00  0.32699370054E+01  0.51100000000E-03 0.  1.
         12    1    3    3    0    0  0.14860228821E+02 -0.59102500062E+01 -0.12984195505E+02  0.20599679334E+02  0.00000000000E+00 0. -1.
</event>
<event>
 7    1  0.2530788E-009  0.4778727E+02  0.7816164E-02  0.1312668E+00
        -11   -1    0    0    0    0  0.00000000000E+00  0.00000000000E+00  0.45593999997E+02  0.45594000000E+02  0.51100000000E-03 0. -1.
         11   -1    0    0    0    0 -0.00000000000E+00 -0.00000000000E+00 -0.45593999997E+02  0.45594000000E+02  0.51100000000E-03 0.  1.
    9900012    2    1    2    0    0 -0.42625538056E+02 -0.20092559113E+01 -0.79151348416E+01  0.47787274620E+02  0.20000016304E+02 0.  0.
        -12    1    1    2    0    0  0.42625538056E+02  0.20092559113E+01  0.79151348416E+01  0.43400725380E+02  0.00000000000E+00 0.  1.
         11    1    3    3    0    0 -0.13592488125E+02 -0.47134233900E+01 -0.96112566271E+00  0.14418594116E+02  0.51100000000E-03 0. -1.
        -11    1    3    3    0    0 -0.35416406037E+01  0.31719659649E+01 -0.62635547162E+01  0.78636317432E+01  0.51100000000E-03 0.  1.
        -12    1    3    3    0    0 -0.25491409328E+02 -0.46779848621E+00 -0.69045446265E+00  0.25505048762E+02  0.00000000000E+00 0.  1.
</event>
<event>
 7    1  0.2530788E-009  0.4778727E+02  0.7816164E-02  0.1312668E+00
        -11   -1    0    0    0    0  0.00000000000E+00  0.00000000000E+00  0.45593999997E+02  0.45594000000E+02  0.51100000000E-03 0.  1.
         11   -1    0    0    0    0 -0.00000000000E+00 -0.00000000000E+00 -0.45593999997E+02  0.45594000000E+02  0.51100000000E-03 0. -1.
    9900012    2    1    2    0    0  0.67475007466E+01  0.36815698417E+02 -0.21970403870E+02  0.47787273480E+02  0.20000011106E+02 0.  0.
        -12    1    1    2    0    0 -0.67475007466E+01 -0.36815698417E+02  0.21970403870E+02  0.43400726520E+02  0.00000000000E+00 0.  1.
         11    1    3    3    0    0  0.96678461090E+01  0.29084217814E+02 -0.10182818629E+02  0.32296265570E+02  0.51100000000E-03 0. -1.
        -11    1    3    3    0    0  0.15477223160E+01  0.75141076228E+00 -0.15178661987E+01  0.22943366273E+01  0.51100000000E-03 0.  1.
         12    1    3    3    0    0 -0.44680676784E+01  0.69800698398E+01 -0.10269719042E+02  0.13196671283E+02  0.00000000000E+00 0. -1.
</event>
<event>
 7    1  0.2530788E-009  0.4778727E+02  0.7816164E-02  0.1312668E+00
        -11   -1    0    0    0    0  0.00000000000E+00  0.00000000000E+00  0.45593999997E+02  0.45594000000E+02  0.51100000000E-03 0. -1.
         11   -1    0    0    0    0 -0.00000000000E+00 -0.00000000000E+00 -0.45593999997E+02  0.45594000000E+02  0.51100000000E-03 0.  1.
    9900012    2    1    2    0    0  0.14332697767E+02 -0.35368117166E+02  0.20671078092E+02  0.47787269515E+02  0.19999993027E+02 0.  0.
        -12    1    1    2    0    0 -0.14332697767E+02  0.35368117166E+02 -0.20671078092E+02  0.43400730485E+02  0.00000000000E+00 0.  1.
         11    1    3    3    0    0  0.11525500676E+02 -0.10982728243E+02  0.19094216830E+01  0.16034443456E+02  0.51100000000E-03 0. -1.
        -11    1    3    3    0    0 -0.67093527196E+00 -0.20000661235E+02  0.14317816953E+02  0.24606431812E+02  0.51100000000E-03 0.  1.
         12    1    3    3    0    0  0.34781323622E+01 -0.43847276881E+01  0.44438394553E+01  0.71463942469E+01  0.00000000000E+00 0. -1.
</event>
<event>
 7    1  0.2530788E-009  0.4778727E+02  0.7816164E-02  0.1312668E+00
        -11   -1    0    0    0    0  0.00000000000E+00  0.00000000000E+00  0.45593999997E+02  0.45594000000E+02  0.51100000000E-03 0.  1.
         11   -1    0    0    0    0 -0.00000000000E+00 -0.00000000000E+00 -0.45593999997E+02  0.45594000000E+02  0.51100000000E-03 0. -1.
    9900012    2    1    2    0    0  0.37124711844E+02  0.21871842687E+02 -0.51963219435E+01  0.47787268511E+02  0.19999988450E+02 0.  0.
        -12    1    1    2    0    0 -0.37124711844E+02 -0.21871842687E+02  0.51963219435E+01  0.43400731489E+02  0.00000000000E+00 0.  1.
         11    1    3    3    0    0  0.17444862746E+01  0.13820919677E+00 -0.26376708449E+00  0.17697196050E+01  0.51100000000E-03 0. -1.
        -11    1    3    3    0    0  0.75108170515E-01  0.76843440293E+01  0.11756103294E+00  0.76856102721E+01  0.51100000000E-03 0.  1.
        -12    1    3    3    0    0  0.35305117399E+02  0.14049289461E+02 -0.50501158919E+01  0.38331938634E+02  0.00000000000E+00 0.  1.
</event>
<event>
 7    1  0.2530788E-009  0.4778727E+02  0.7816164E-02  0.1312668E+00
        -11   -1    0    0    0    0  0.00000000000E+00  0.00000000000E+00  0.45593999997E+02  0.45594000000E+02  0.51100000000E-03 0.  1.
         11   -1    0    0    0    0 -0.00000000000E+00 -0.00000000000E+00 -0.45593999997E+02  0.45594000000E+02  0.51100000000E-03 0. -1.
    9900012    2    1    2    0    0  0.16471541223E+02 -0.77466543061E+01 -0.39399250900E+02  0.47787270804E+02  0.19999998904E+02 0.  0.
        -12    1    1    2    0    0 -0.16471541223E+02  0.77466543061E+01  0.39399250900E+02  0.43400729196E+02  0.00000000000E+00 0.  1.
         11    1    3    3    0    0  0.11169728673E+02  0.97371134645E+00 -0.21713390827E+02  0.24437313557E+02  0.51100000000E-03 0. -1.
        -11    1    3    3    0    0  0.22408349808E+01 -0.91633965277E+01 -0.58124516533E+01  0.11080332658E+02  0.51100000000E-03 0.  1.
         12    1    3    3    0    0  0.30609775691E+01  0.44303087519E+00 -0.11873408420E+02  0.12269624589E+02  0.00000000000E+00 0. -1.
</event>
<event>
 7    1  0.2530788E-009  0.4778727E+02  0.7816164E-02  0.1312668E+00
        -11   -1    0    0    0    0  0.00000000000E+00  0.00000000000E+00  0.45593999997E+02  0.45594000000E+02  0.51100000000E-03 0.  1.
         11   -1    0    0    0    0 -0.00000000000E+00 -0.00000000000E+00 -0.45593999997E+02  0.45594000000E+02  0.51100000000E-03 0. -1.
    9900012    2    1    2    0    0 -0.24267971115E+02  0.19207463491E+02 -0.30426339330E+02  0.47787271886E+02  0.20000003837E+02 0.  0.
        -12    1    1    2    0    0  0.24267971115E+02 -0.19207463491E+02  0.30426339330E+02  0.43400728114E+02  0.00000000000E+00 0.  1.
         11    1    3    3    0    0 -0.14432400403E+02  0.19713615822E+01 -0.97342425859E+01  0.17519586949E+02  0.51100000000E-03 0.  1.
        -11    1    3    3    0    0 -0.57791833175E+01  0.12149277280E+02 -0.71313693958E+01  0.15226960562E+02  0.51100000000E-03 0. -1.
         12    1    3    3    0    0 -0.40563873951E+01  0.50868246285E+01 -0.13560727348E+02  0.15040724375E+02  0.00000000000E+00 0. -1.
</event>
<event>
 7    1  0.2530788E-009  0.4778727E+02  0.7816164E-02  0.1312668E+00
        -11   -1    0    0    0    0  0.00000000000E+00  0.00000000000E+00  0.45593999997E+02  0.45594000000E+02  0.51100000000E-03 0. -1.
         11   -1    0    0    0    0 -0.00000000000E+00 -0.00000000000E+00 -0.45593999997E+02  0.45594000000E+02  0.51100000000E-03 0.  1.
    9900012    2    1    2    0    0  0.27169686483E+02  0.32540973308E+02  0.93014238901E+01  0.47787270815E+02  0.19999998952E+02 0.  0.
        -12    1    1    2    0    0 -0.27169686483E+02 -0.32540973308E+02 -0.93014238901E+01  0.43400729185E+02  0.00000000000E+00 0.  1.
         11    1    3    3    0    0 -0.17215165483E+01  0.87657176388E+01  0.39206360712E+01  0.97556554066E+01  0.51100000000E-03 0. -1.
        -11    1    3    3    0    0  0.20546657491E+02  0.15238596130E+02  0.51369655516E+01  0.26091538119E+02  0.51100000000E-03 0.  1.
         12    1    3    3    0    0  0.83445455411E+01  0.85366595393E+01  0.24382226731E+00  0.11940077289E+02  0.00000000000E+00 0. -1.
</event>
<event>
 7    1  0.2530788E-009  0.4778727E+02  0.7816164E-02  0.1312668E+00
        -11   -1    0    0    0    0  0.00000000000E+00  0.00000000000E+00  0.45593999997E+02  0.45594000000E+02  0.51100000000E-03 0. -1.
         11   -1    0    0    0    0 -0.00000000000E+00 -0.00000000000E+00 -0.45593999997E+02  0.45594000000E+02  0.51100000000E-03 0.  1.
    9900012    2    1    2    0    0 -0.25515186855E+02  0.30893149115E+02  0.16679696448E+02  0.47787266180E+02  0.19999977823E+02 0.  0.
        -12    1    1    2    0    0  0.25515186855E+02 -0.30893149115E+02 -0.16679696448E+02  0.43400733820E+02  0.00000000000E+00 0.  1.
         11    1    3    3    0    0 -0.23425754639E+01  0.41280364140E+01  0.23958819061E+01  0.53168218711E+01  0.51100000000E-03 0. -1.
        -11    1    3    3    0    0 -0.40795408759E+01  0.14460569555E+02  0.12747554738E+02  0.19704082766E+02  0.51100000000E-03 0.  1.
        -12    1    3    3    0    0 -0.19093070515E+02  0.12304543146E+02  0.15362598043E+01  0.22766361543E+02  0.00000000000E+00 0.  1.
</event>
<event>
 7    1 -0.2530788E-009  0.4778727E+02  0.7816164E-02  0.1312668E+00
        -11   -1    0    0    0    0  0.00000000000E+00  0.00000000000E+00  0.45593999997E+02  0.45594000000E+02  0.51100000000E-03 0. -1.
         11   -1    0    0    0    0 -0.00000000000E+00 -0.00000000000E+00 -0.45593999997E+02  0.45594000000E+02  0.51100000000E-03 0.  1.
    9900012    2    1    2    0    0 -0.60061041799E+01 -0.21781923599E+02  0.37055334745E+02  0.47787270557E+02  0.19999997778E+02 0.  0.
        -12    1    1    2    0    0  0.60061041799E+01  0.21781923599E+02 -0.37055334745E+02  0.43400729443E+02  0.00000000000E+00 0.  1.
         11    1    3    3    0    0 -0.36262724152E+01 -0.23523689454E+02  0.33526596726E+02  0.41116255976E+02  0.51100000000E-03 0. -1.
        -11    1    3    3    0    0  0.13738207479E+01 -0.18079307286E+00  0.47756709644E+00  0.14656534977E+01  0.51100000000E-03 0.  1.
         12    1    3    3    0    0 -0.37536525126E+01  0.19225589272E+01  0.30511709224E+01  0.52053610837E+01  0.00000000000E+00 0. -1.
</event>
<event>
 7    1  0.2530788E-009  0.4778728E+02  0.7816164E-02  0.1312668E+00
        -11   -1    0    0    0    0  0.00000000000E+00  0.00000000000E+00  0.45593999997E+02  0.45594000000E+02  0.51100000000E-03 0. -1.
         11   -1    0    0    0    0 -0.00000000000E+00 -0.00000000000E+00 -0.45593999997E+02  0.45594000000E+02  0.51100000000E-03 0.  1.
    9900012    2    1    2    0    0  0.13596322101E+02 -0.36889564472E+02  0.18382673553E+02  0.47787278479E+02  0.20000033897E+02 0.  0.
        -12    1    1    2    0    0 -0.13596322101E+02  0.36889564472E+02 -0.18382673553E+02  0.43400721521E+02  0.00000000000E+00 0.  1.
         11    1    3    3    0    0  0.75321562483E+01 -0.32212997040E+02  0.11459014244E+02  0.35010277973E+02  0.51100000000E-03 0. -1.
        -11    1    3    3    0    0  0.48891344970E+01 -0.33699389184E+00  0.48587557699E+00  0.49247615526E+01  0.51100000000E-03 0.  1.
         12    1    3    3    0    0  0.11750313560E+01 -0.43395735400E+01  0.64377837327E+01  0.78522389537E+01  0.00000000000E+00 0. -1.
</event>
<event>
 7    1  0.2530788E-009  0.4778728E+02  0.7816164E-02  0.1312668E+00
        -11   -1    0    0    0    0  0.00000000000E+00  0.00000000000E+00  0.45593999997E+02  0.45594000000E+02  0.51100000000E-03 0.  1.
         11   -1    0    0    0    0 -0.00000000000E+00 -0.00000000000E+00 -0.45593999997E+02  0.45594000000E+02  0.51100000000E-03 0. -1.
    9900012    2    1    2    0    0  0.42990053202E+01  0.16198087630E+02 -0.40034526261E+02  0.47787276705E+02  0.20000025808E+02 0.  0.
        -12    1    1    2    0    0 -0.42990053202E+01 -0.16198087630E+02  0.40034526261E+02  0.43400723295E+02  0.00000000000E+00 0.  1.
         11    1    3    3    0    0  0.42745773611E+01  0.29541256448E+01 -0.65873238352E+01  0.83899764905E+01  0.51100000000E-03 0. -1.
        -11    1    3    3    0    0  0.47715312520E+01  0.67021910937E+01 -0.45720905977E+01  0.94122732982E+01  0.51100000000E-03 0.  1.
        -12    1    3    3    0    0 -0.47471032929E+01  0.65417708911E+01 -0.28875111828E+02  0.29985026916E+02  0.00000000000E+00 0.  1.
</event>
<event>
 7    1  0.2530788E-009  0.4778730E+02  0.7816164E-02  0.1312668E+00
        -11   -1    0    0    0    0  0.00000000000E+00  0.00000000000E+00  0.45593999997E+02  0.45594000000E+02  0.51100000000E-03 0. -1.
         11   -1    0    0    0    0 -0.00000000000E+00 -0.00000000000E+00 -0.45593999997E+02  0.45594000000E+02  0.51100000000E-03 0.  1.
    9900012    2    1    2    0    0 -0.14325242669E+02  0.39996916905E+02  0.88687369311E+01  0.47787303759E+02  0.20000149158E+02 0.  0.
        -12    1    1    2    0    0  0.14325242669E+02 -0.39996916905E+02 -0.88687369311E+01  0.43400696241E+02  0.00000000000E+00 0.  1.
         11    1    3    3    0    0  0.35916636853E+00  0.22226497282E+02  0.53485522029E+01  0.22863796553E+02  0.51100000000E-03 0. -1.
        -11    1    3    3    0    0 -0.29728342058E+01  0.54710217286E+01 -0.27670478445E+01  0.68136903367E+01  0.51100000000E-03 0.  1.
         12    1    3    3    0    0 -0.11711574832E+02  0.12299397895E+02  0.62872325727E+01  0.18109816869E+02  0.00000000000E+00 0. -1.
</event>
<event>
 7    1  0.2530788E-009  0.4778727E+02  0.7816164E-02  0.1312668E+00
        -11   -1    0    0    0    0  0.00000000000E+00  0.00000000000E+00  0.45593999997E+02  0.45594000000E+02  0.51100000000E-03 0. -1.
         11   -1    0    0    0    0 -0.00000000000E+00 -0.00000000000E+00 -0.45593999997E+02  0.45594000000E+02  0.51100000000E-03 0.  1.
    9900012    2    1    2    0    0  0.34602255405E+02 -0.34459572458E+01  0.25969840056E+02  0.47787270824E+02  0.19999998995E+02 0.  0.
        -12    1    1    2    0    0 -0.34602255405E+02  0.34459572458E+01 -0.25969840056E+02  0.43400729176E+02  0.00000000000E+00 0.  1.
         11    1    3    3    0    0  0.16964306071E+02 -0.18350840638E+01  0.13218086213E+02  0.21584091767E+02  0.51100000000E-03 0. -1.
        -11    1    3    3    0    0 -0.16757357250E+01  0.26202354471E+01  0.14842784586E+01  0.34462743394E+01  0.51100000000E-03 0.  1.
        -12    1    3    3    0    0  0.19313685059E+02 -0.42311086291E+01  0.11267475384E+02  0.22756904718E+02  0.00000000000E+00 0.  1.
</event>
<event>
 7    1  0.2530788E-009  0.4778728E+02  0.7816164E-02  0.1312668E+00
        -11   -1    0    0    0    0  0.00000000000E+00  0.00000000000E+00  0.45593999997E+02  0.45594000000E+02  0.51100000000E-03 0. -1.
         11   -1    0    0    0    0 -0.00000000000E+00 -0.00000000000E+00 -0.45593999997E+02  0.45594000000E+02  0.51100000000E-03 0.  1.
    9900012    2    1    2    0    0 -0.31726593953E+02 -0.20983125012E+02  0.20898672196E+02  0.47787276519E+02  0.20000024960E+02 0.  0.
        -12    1    1    2    0    0  0.31726593953E+02  0.20983125012E+02 -0.20898672196E+02  0.43400723481E+02  0.00000000000E+00 0.  1.
         11    1    3    3    0    0 -0.85425940452E+01 -0.88226294617E+01  0.12691976415E+02  0.17660718254E+02  0.51100000000E-03 0. -1.
        -11    1    3    3    0    0 -0.19879253719E+02 -0.41429227690E+01  0.54077265708E+01  0.21014091568E+02  0.51100000000E-03 0.  1.
        -12    1    3    3    0    0 -0.33047461889E+01 -0.80175727810E+01  0.27989692096E+01  0.91124666972E+01  0.00000000000E+00 0.  1.
</event>
<event>
 7    1  0.2669419E-009  0.4778727E+02  0.7816164E-02  0.1312668E+00
        -11   -1    0    0    0    0  0.00000000000E+00  0.00000000000E+00  0.45593999997E+02  0.45594000000E+02  0.51100000000E-03 0. -1.
         11   -1    0    0    0    0 -0.00000000000E+00 -0.00000000000E+00 -0.45593999997E+02  0.45594000000E+02  0.51100000000E-03 0.  1.
    9900012    2    1    2    0    0 -0.33904051009E+02  0.19551722338E+02  0.18758164493E+02  0.47787271246E+02  0.20000000920E+02 0.  0.
        -12    1    1    2    0    0  0.33904051009E+02 -0.19551722338E+02 -0.18758164493E+02  0.43400728754E+02  0.00000000000E+00 0.  1.
         11    1    3    3    0    0 -0.65210557682E+01  0.11038492706E+01  0.24127299035E+01  0.70401645856E+01  0.51100000000E-03 0. -1.
        -11    1    3    3    0    0 -0.28422215371E+02  0.12935832062E+02  0.16097619683E+02  0.35132484077E+02  0.51100000000E-03 0.  1.
        -12    1    3    3    0    0  0.10392201301E+01  0.55120410054E+01  0.24781490641E+00  0.56146225832E+01  0.00000000000E+00 0.  1.
</event>
<event>
 7    1  0.2530788E-009  0.4778727E+02  0.7816164E-02  0.1312668E+00
        -11   -1    0    0    0    0  0.00000000000E+00  0.00000000000E+00  0.45593999997E+02  0.45594000000E+02  0.51100000000E-03 0. -1.
         11   -1    0    0    0    0 -0.00000000000E+00 -0.00000000000E+00 -0.45593999997E+02  0.45594000000E+02  0.51100000000E-03 0.  1.
    9900012    2    1    2    0    0 -0.16992619249E+01 -0.18354012754E+02  0.39292060862E+02  0.47787270489E+02  0.19999997468E+02 0.  0.
        -12    1    1    2    0    0  0.16992619249E+01  0.18354012754E+02 -0.39292060862E+02  0.43400729511E+02  0.00000000000E+00 0.  1.
         11    1    3    3    0    0 -0.19789474130E+01 -0.13383812158E+02  0.11333258085E+02  0.17648948972E+02  0.51100000000E-03 0.  1.
        -11    1    3    3    0    0  0.45444067040E+01 -0.51800877144E+01  0.19078147586E+02  0.20284493008E+02  0.51100000000E-03 0. -1.
         12    1    3    3    0    0 -0.42647212158E+01  0.20988711834E+00  0.88806551915E+01  0.98538285088E+01  0.00000000000E+00 0. -1.
</event>
<event>
 7    1  0.2530788E-009  0.4778727E+02  0.7816164E-02  0.1312668E+00
        -11   -1    0    0    0    0  0.00000000000E+00  0.00000000000E+00  0.45593999997E+02  0.45594000000E+02  0.51100000000E-03 0.  1.
         11   -1    0    0    0    0 -0.00000000000E+00 -0.00000000000E+00 -0.45593999997E+02  0.45594000000E+02  0.51100000000E-03 0. -1.
    9900012    2    1    2    0    0 -0.10597055472E+02  0.42058550194E+02 -0.15505023552E+01  0.47787270898E+02  0.19999999330E+02 0.  0.
        -12    1    1    2    0    0  0.10597055472E+02 -0.42058550194E+02  0.15505023552E+01  0.43400729102E+02  0.00000000000E+00 0.  1.
         11    1    3    3    0    0 -0.82789205964E+01  0.12104314744E+02 -0.76313339601E+01  0.16531552254E+02  0.51100000000E-03 0.  1.
        -11    1    3    3    0    0 -0.39286737201E+01  0.27057913985E+02  0.52901863672E+01  0.27848720949E+02  0.51100000000E-03 0. -1.
        -12    1    3    3    0    0  0.16105388450E+01  0.28963214643E+01  0.79064523768E+00  0.34069976941E+01  0.00000000000E+00 0.  1.
</event>
<event>
 7    1  0.2530788E-009  0.4778727E+02  0.7816164E-02  0.1312668E+00
        -11   -1    0    0    0    0  0.00000000000E+00  0.00000000000E+00  0.45593999997E+02  0.45594000000E+02  0.51100000000E-03 0.  1.
         11   -1    0    0    0    0 -0.00000000000E+00 -0.00000000000E+00 -0.45593999997E+02  0.45594000000E+02  0.51100000000E-03 0. -1.
    9900012    2    1    2    0    0 -0.41385336772E+02 -0.75101628412E+00  0.13050408061E+02  0.47787271023E+02  0.19999999900E+02 0.  0.
        -12    1    1    2    0    0  0.41385336772E+02  0.75101628412E+00 -0.13050408061E+02  0.43400728977E+02  0.00000000000E+00 0.  1.
         11    1    3    3    0    0 -0.11793132751E+02 -0.26294935747E+01  0.12938219040E+02  0.17702816971E+02  0.51100000000E-03 0. -1.
        -11    1    3    3    0    0 -0.49307408597E+00  0.71697627786E+00 -0.39989669910E+00  0.95765059826E+00  0.51100000000E-03 0.  1.
         12    1    3    3    0    0 -0.29099129936E+02  0.11615010127E+01  0.51208572034E+00  0.29126803453E+02  0.00000000000E+00 0. -1.
</event>
<event>
 7    1  0.2530788E-009  0.4778728E+02  0.7816164E-02  0.1312668E+00
        -11   -1    0    0    0    0  0.00000000000E+00  0.00000000000E+00  0.45593999997E+02  0.45594000000E+02  0.51100000000E-03 0. -1.
         11   -1    0    0    0    0 -0.00000000000E+00 -0.00000000000E+00 -0.45593999997E+02  0.45594000000E+02  0.51100000000E-03 0.  1.
    9900012    2    1    2    0    0 -0.36517593035E+02 -0.16535675089E+02  0.16633090375E+02  0.47787275961E+02  0.20000022416E+02 0.  0.
        -12    1    1    2    0    0  0.36517593035E+02  0.16535675089E+02 -0.16633090375E+02  0.43400724039E+02  0.00000000000E+00 0.  1.
         11    1    3    3    0    0 -0.10174318600E+02  0.35688075075E-01  0.12654782951E+02  0.16237658834E+02  0.51100000000E-03 0. -1.
        -11    1    3    3    0    0 -0.21986789702E+02 -0.14338845269E+02  0.44799508093E+01  0.26628769491E+02  0.51100000000E-03 0.  1.
         12    1    3    3    0    0 -0.43564847326E+01 -0.22325178944E+01 -0.50164338545E+00  0.49208476364E+01  0.00000000000E+00 0. -1.
</event>
<event>
 7    1  0.2530788E-009  0.4778727E+02  0.7816164E-02  0.1312668E+00
        -11   -1    0    0    0    0  0.00000000000E+00  0.00000000000E+00  0.45593999997E+02  0.45594000000E+02  0.51100000000E-03 0.  1.
         11   -1    0    0    0    0 -0.00000000000E+00 -0.00000000000E+00 -0.45593999997E+02  0.45594000000E+02  0.51100000000E-03 0. -1.
    9900012    2    1    2    0    0 -0.16368654124E+02  0.27855089349E+02 -0.28979037935E+02  0.47787268668E+02  0.19999989167E+02 0.  0.
        -12    1    1    2    0    0  0.16368654124E+02 -0.27855089349E+02  0.28979037935E+02  0.43400731332E+02  0.00000000000E+00 0.  1.
         11    1    3    3    0    0 -0.10774888456E+02  0.69990288649E+01 -0.78104661357E+01  0.15036223190E+02  0.51100000000E-03 0. -1.
        -11    1    3    3    0    0  0.61877608286E+00  0.17689070599E+02 -0.12720081841E+02  0.21796481019E+02  0.51100000000E-03 0.  1.
        -12    1    3    3    0    0 -0.62125417506E+01  0.31669898857E+01 -0.84484899584E+01  0.10954564460E+02  0.00000000000E+00 0.  1.
</event>
<event>
 7    1  0.2530788E-009  0.4778727E+02  0.7816164E-02  0.1312668E+00
        -11   -1    0    0    0    0  0.00000000000E+00  0.00000000000E+00  0.45593999997E+02  0.45594000000E+02  0.51100000000E-03 0. -1.
         11   -1    0    0    0    0 -0.00000000000E+00 -0.00000000000E+00 -0.45593999997E+02  0.45594000000E+02  0.51100000000E-03 0.  1.
    9900012    2    1    2    0    0 -0.35736079331E+02  0.24560457513E+02  0.18275596613E+01  0.47787269435E+02  0.19999992664E+02 0.  0.
        -12    1    1    2    0    0  0.35736079331E+02 -0.24560457513E+02 -0.18275596613E+01  0.43400730565E+02  0.00000000000E+00 0.  1.
         11    1    3    3    0    0 -0.22381405569E+02  0.18733329949E+02  0.74209092658E+01  0.30115359218E+02  0.51100000000E-03 0. -1.
        -11    1    3    3    0    0 -0.61734158401E+00 -0.46442477752E+00  0.15787997111E+01  0.17576716969E+01  0.51100000000E-03 0.  1.
         12    1    3    3    0    0 -0.12737332178E+02  0.62915523415E+01 -0.71721493156E+01  0.15914238521E+02  0.00000000000E+00 0. -1.
</event>
<event>
 7    1  0.2530788E-009  0.4778727E+02  0.7816164E-02  0.1312668E+00
        -11   -1    0    0    0    0  0.00000000000E+00  0.00000000000E+00  0.45593999997E+02  0.45594000000E+02  0.51100000000E-03 0. -1.
         11   -1    0    0    0    0 -0.00000000000E+00 -0.00000000000E+00 -0.45593999997E+02  0.45594000000E+02  0.51100000000E-03 0.  1.
    9900012    2    1    2    0    0 -0.23572236108E+02  0.15778548337E+02 -0.32848296894E+02  0.47787268306E+02  0.19999987513E+02 0.  0.
        -12    1    1    2    0    0  0.23572236108E+02 -0.15778548337E+02  0.32848296894E+02  0.43400731694E+02  0.00000000000E+00 0.  1.
         11    1    3    3    0    0 -0.20000359529E+02  0.17438487831E+02 -0.17202452371E+02  0.31623402837E+02  0.51100000000E-03 0. -1.
        -11    1    3    3    0    0 -0.31731498381E+01 -0.16165626314E+01 -0.12664815559E+02  0.13155976134E+02  0.51100000000E-03 0.  1.
         12    1    3    3    0    0 -0.39872674083E+00 -0.43376862590E-01 -0.29810289639E+01  0.30078893347E+01  0.00000000000E+00 0. -1.
</event>
<event>
 7    1  0.2530788E-009  0.4778727E+02  0.7816164E-02  0.1312668E+00
        -11   -1    0    0    0    0  0.00000000000E+00  0.00000000000E+00  0.45593999997E+02  0.45594000000E+02  0.51100000000E-03 0. -1.
         11   -1    0    0    0    0 -0.00000000000E+00 -0.00000000000E+00 -0.45593999997E+02  0.45594000000E+02  0.51100000000E-03 0.  1.
    9900012    2    1    2    0    0 -0.31697863841E+02  0.27790261797E+02  0.10323293936E+02  0.47787267051E+02  0.19999981791E+02 0.  0.
        -12    1    1    2    0    0  0.31697863841E+02 -0.27790261797E+02 -0.10323293936E+02  0.43400732949E+02  0.00000000000E+00 0.  1.
         11    1    3    3    0    0 -0.44644337965E+01 -0.19827999018E+01 -0.97860851632E+00  0.49820015519E+01  0.51100000000E-03 0. -1.
        -11    1    3    3    0    0  0.11470917834E-01 -0.38833571963E+00  0.69996781933E+00  0.80055694508E+00  0.51100000000E-03 0.  1.
         12    1    3    3    0    0 -0.27244900962E+02  0.30161397419E+02  0.10601934633E+02  0.42004708554E+02  0.00000000000E+00 0. -1.
</event>
<event>
 7    1  0.2530788E-009  0.4778727E+02  0.7816164E-02  0.1312668E+00
        -11   -1    0    0    0    0  0.00000000000E+00  0.00000000000E+00  0.45593999997E+02  0.45594000000E+02  0.51100000000E-03 0. -1.
         11   -1    0    0    0    0 -0.00000000000E+00 -0.00000000000E+00 -0.45593999997E+02  0.45594000000E+02  0.51100000000E-03 0.  1.
    9900012    2    1    2    0    0 -0.25116128060E+02  0.34367465714E+02  0.84664492571E+01  0.47787270152E+02  0.19999995930E+02 0.  0.
        -12    1    1    2    0    0  0.25116128060E+02 -0.34367465714E+02 -0.84664492571E+01  0.43400729848E+02  0.00000000000E+00 0.  1.
         11    1    3    3    0    0  0.69793519611E+00  0.10573696133E+02  0.37492123300E+01  0.11240407324E+02  0.51100000000E-03 0. -1.
        -11    1    3    3    0    0 -0.12349659279E+02  0.55844621893E+01  0.92707200041E+00  0.13585277510E+02  0.51100000000E-03 0.  1.
        -12    1    3    3    0    0 -0.13464403977E+02  0.18209307391E+02  0.37901649267E+01  0.22961585318E+02  0.00000000000E+00 0.  1.
</event>
<event>
 7    1  0.2530788E-009  0.4778728E+02  0.7816164E-02  0.1312668E+00
        -11   -1    0    0    0    0  0.00000000000E+00  0.00000000000E+00  0.45593999997E+02  0.45594000000E+02  0.51100000000E-03 0.  1.
         11   -1    0    0    0    0 -0.00000000000E+00 -0.00000000000E+00 -0.45593999997E+02  0.45594000000E+02  0.51100000000E-03 0. -1.
    9900012    2    1    2    0    0 -0.19531796393E+02 -0.10234311322E+02 -0.37381684849E+02  0.47787279261E+02  0.20000037460E+02 0.  0.
        -12    1    1    2    0    0  0.19531796393E+02  0.10234311322E+02  0.37381684849E+02  0.43400720739E+02  0.00000000000E+00 0.  1.
         11    1    3    3    0    0 -0.56799456914E+01  0.46424968024E+01 -0.12683663153E+02  0.14652299166E+02  0.51100000000E-03 0. -1.
        -11    1    3    3    0    0 -0.10910297528E+02 -0.11717325061E+02 -0.23865899537E+02  0.28738675330E+02  0.51100000000E-03 0.  1.
        -12    1    3    3    0    0 -0.29415531728E+01 -0.31594830632E+01 -0.83212215936E+00  0.43963047646E+01  0.00000000000E+00 0.  1.
</event>
<event>
 7    1  0.2530788E-009  0.4778727E+02  0.7816164E-02  0.1312668E+00
        -11   -1    0    0    0    0  0.00000000000E+00  0.00000000000E+00  0.45593999997E+02  0.45594000000E+02  0.51100000000E-03 0.  1.
         11   -1    0    0    0    0 -0.00000000000E+00 -0.00000000000E+00 -0.45593999997E+02  0.45594000000E+02  0.51100000000E-03 0. -1.
    9900012    2    1    2    0    0 -0.40226053212E+02  0.11483204405E+02 -0.11559586596E+02  0.47787269791E+02  0.19999994283E+02 0.  0.
        -12    1    1    2    0    0  0.40226053212E+02 -0.11483204405E+02  0.11559586596E+02  0.43400730209E+02  0.00000000000E+00 0.  1.
         11    1    3    3    0    0 -0.30051301861E+02  0.92305017344E+01 -0.13279434660E+02  0.34126621441E+02  0.51100000000E-03 0. -1.
        -11    1    3    3    0    0 -0.82698074104E+01  0.35787887543E+01  0.44726490834E+01  0.10059922149E+02  0.51100000000E-03 0.  1.
        -12    1    3    3    0    0 -0.19049439405E+01 -0.13260860839E+01 -0.27528010198E+01  0.36007262008E+01  0.00000000000E+00 0.  1.
</event>
<event>
 7    1  0.2530788E-009  0.4778728E+02  0.7816164E-02  0.1312668E+00
        -11   -1    0    0    0    0  0.00000000000E+00  0.00000000000E+00  0.45593999997E+02  0.45594000000E+02  0.51100000000E-03 0.  1.
         11   -1    0    0    0    0 -0.00000000000E+00 -0.00000000000E+00 -0.45593999997E+02  0.45594000000E+02  0.51100000000E-03 0. -1.
    9900012    2    1    2    0    0 -0.18758516634E+02 -0.67879326484E+01 -0.38544318909E+02  0.47787280005E+02  0.20000040853E+02 0.  0.
        -12    1    1    2    0    0  0.18758516634E+02  0.67879326484E+01  0.38544318909E+02  0.43400719995E+02  0.00000000000E+00 0.  1.
         11    1    3    3    0    0 -0.11399348105E+02 -0.94105818142E+01 -0.24030122171E+02  0.28212602842E+02  0.51100000000E-03 0. -1.
        -11    1    3    3    0    0 -0.52551164234E+01  0.58748884330E+01 -0.13396072687E+02  0.15543015358E+02  0.51100000000E-03 0.  1.
         12    1    3    3    0    0 -0.21040521055E+01 -0.32522392672E+01 -0.11181240514E+01  0.40316618048E+01  0.00000000000E+00 0. -1.
</event>
<event>
 7    1  0.2530788E-009  0.4778727E+02  0.7816164E-02  0.1312668E+00
        -11   -1    0    0    0    0  0.00000000000E+00  0.00000000000E+00  0.45593999997E+02  0.45594000000E+02  0.51100000000E-03 0.  1.
         11   -1    0    0    0    0 -0.00000000000E+00 -0.00000000000E+00 -0.45593999997E+02  0.45594000000E+02  0.51100000000E-03 0. -1.
    9900012    2    1    2    0    0 -0.18537155921E+02  0.32907911267E+02 -0.21379107450E+02  0.47787274097E+02  0.20000013916E+02 0.  0.
        -12    1    1    2    0    0  0.18537155921E+02 -0.32907911267E+02  0.21379107450E+02  0.43400725903E+02  0.00000000000E+00 0.  1.
         11    1    3    3    0    0 -0.76445998789E+01  0.15448924266E+02 -0.62039012114E+01  0.18319322006E+02  0.51100000000E-03 0. -1.
        -11    1    3    3    0    0 -0.75719406558E+00  0.35788290422E+00  0.26428179619E+01  0.27723473930E+01  0.51100000000E-03 0.  1.
        -12    1    3    3    0    0 -0.10135361977E+02  0.17101104097E+02 -0.17818024201E+02  0.26695604697E+02  0.00000000000E+00 0.  1.
</event>
<event>
 7    1  0.2530788E-009  0.4778727E+02  0.7816164E-02  0.1312668E+00
        -11   -1    0    0    0    0  0.00000000000E+00  0.00000000000E+00  0.45593999997E+02  0.45594000000E+02  0.51100000000E-03 0.  1.
         11   -1    0    0    0    0 -0.00000000000E+00 -0.00000000000E+00 -0.45593999997E+02  0.45594000000E+02  0.51100000000E-03 0. -1.
    9900012    2    1    2    0    0 -0.17913485365E+01  0.37327367194E+01 -0.43202787056E+02  0.47787273481E+02  0.20000011108E+02 0.  0.
        -12    1    1    2    0    0  0.17913485365E+01 -0.37327367194E+01  0.43202787056E+02  0.43400726519E+02  0.00000000000E+00 0.  1.
         11    1    3    3    0    0 -0.50653126625E+01  0.21067383683E+01 -0.86610317456E+01  0.10252278287E+02  0.51100000000E-03 0. -1.
        -11    1    3    3    0    0  0.24969553238E+01  0.71368141189E+01 -0.27711452028E+02  0.28724440385E+02  0.51100000000E-03 0.  1.
        -12    1    3    3    0    0  0.77700880221E+00 -0.55108157678E+01 -0.68303032820E+01  0.88105548083E+01  0.00000000000E+00 0.  1.
</event>
<event>
 7    1  0.2530788E-009  0.4778727E+02  0.7816164E-02  0.1312668E+00
        -11   -1    0    0    0    0  0.00000000000E+00  0.00000000000E+00  0.45593999997E+02  0.45594000000E+02  0.51100000000E-03 0.  1.
         11   -1    0    0    0    0 -0.00000000000E+00 -0.00000000000E+00 -0.45593999997E+02  0.45594000000E+02  0.51100000000E-03 0. -1.
    9900012    2    1    2    0    0 -0.25953160618E+02  0.34279782746E+02  0.59121427880E+01  0.47787268629E+02  0.19999988988E+02 0.  0.
        -12    1    1    2    0    0  0.25953160618E+02 -0.34279782746E+02 -0.59121427880E+01  0.43400731371E+02  0.00000000000E+00 0.  1.
         11    1    3    3    0    0 -0.86940857148E+01  0.91937344870E+01  0.10964480789E+02  0.16743109611E+02  0.51100000000E-03 0. -1.
        -11    1    3    3    0    0 -0.78891435374E+01  0.87004502880E+01 -0.23272040636E+01  0.11972982084E+02  0.51100000000E-03 0.  1.
        -12    1    3    3    0    0 -0.93699313654E+01  0.16385597971E+02 -0.27251339371E+01  0.19071176934E+02  0.00000000000E+00 0.  1.
</event>
<event>
 7    1  0.2530788E-009  0.4778727E+02  0.7816164E-02  0.1312668E+00
        -11   -1    0    0    0    0  0.00000000000E+00  0.00000000000E+00  0.45593999997E+02  0.45594000000E+02  0.51100000000E-03 0.  1.
         11   -1    0    0    0    0 -0.00000000000E+00 -0.00000000000E+00 -0.45593999997E+02  0.45594000000E+02  0.51100000000E-03 0. -1.
    9900012    2    1    2    0    0 -0.98056589321E+01  0.26201281868E+02 -0.33180801344E+02  0.47787266176E+02  0.19999977802E+02 0.  0.
        -12    1    1    2    0    0  0.98056589321E+01 -0.26201281868E+02  0.33180801344E+02  0.43400733824E+02  0.00000000000E+00 0.  1.
         11    1    3    3    0    0 -0.96517563214E+01  0.40415598409E+01 -0.85698415748E+01  0.13525264911E+02  0.51100000000E-03 0. -1.
        -11    1    3    3    0    0  0.15001579737E+01  0.34742210398E+01 -0.66317516439E+00  0.38419379666E+01  0.51100000000E-03 0.  1.
         12    1    3    3    0    0 -0.16540605844E+01  0.18685500987E+02 -0.23947784605E+02  0.30420063298E+02  0.00000000000E+00 0. -1.
</event>
<event>
 7    1  0.2530788E-009  0.4778726E+02  0.7816164E-02  0.1312668E+00
        -11   -1    0    0    0    0  0.00000000000E+00  0.00000000000E+00  0.45593999997E+02  0.45594000000E+02  0.51100000000E-03 0.  1.
         11   -1    0    0    0    0 -0.00000000000E+00 -0.00000000000E+00 -0.45593999997E+02  0.45594000000E+02  0.51100000000E-03 0. -1.
    9900012    2    1    2    0    0 -0.70227114486E+01 -0.25988333551E+00 -0.42828004669E+02  0.47787262686E+02  0.19999961892E+02 0.  0.
        -12    1    1    2    0    0  0.70227114486E+01  0.25988333551E+00  0.42828004669E+02  0.43400737314E+02  0.00000000000E+00 0.  1.
         11    1    3    3    0    0 -0.82678133490E+01  0.24572423499E+01 -0.37562084618E+02  0.38539654626E+02  0.51100000000E-03 0. -1.
        -11    1    3    3    0    0  0.40335990164E+01 -0.13353168161E+01 -0.18724286576E+01  0.46431650158E+01  0.51100000000E-03 0.  1.
        -12    1    3    3    0    0 -0.27884971160E+01 -0.13818088692E+01 -0.33934913931E+01  0.46044430447E+01  0.00000000000E+00 0.  1.
</event>
<event>
 7    1  0.2530788E-009  0.4778725E+02  0.7816164E-02  0.1312668E+00
        -11   -1    0    0    0    0  0.00000000000E+00  0.00000000000E+00  0.45593999997E+02  0.45594000000E+02  0.51100000000E-03 0. -1.
         11   -1    0    0    0    0 -0.00000000000E+00 -0.00000000000E+00 -0.45593999997E+02  0.45594000000E+02  0.51100000000E-03 0.  1.
    9900012    2    1    2    0    0 -0.29171302518E+02 -0.32095055932E+02  0.16023436647E+01  0.47787251031E+02  0.19999908750E+02 0.  0.
        -12    1    1    2    0    0  0.29171302518E+02  0.32095055932E+02 -0.16023436647E+01  0.43400748969E+02  0.00000000000E+00 0.  1.
         11    1    3    3    0    0 -0.28420325844E+02 -0.30823072038E+02  0.59154192557E+01  0.42341101499E+02  0.51100000000E-03 0. -1.
        -11    1    3    3    0    0  0.96963840567E+00  0.26967496521E+00 -0.11325283044E+01  0.15151052260E+01  0.51100000000E-03 0.  1.
         12    1    3    3    0    0 -0.17206150792E+01 -0.15416588593E+01 -0.31805472867E+01  0.39310443055E+01  0.00000000000E+00 0. -1.
</event>
<event>
 7    1  0.2530788E-009  0.4778727E+02  0.7816164E-02  0.1312668E+00
        -11   -1    0    0    0    0  0.00000000000E+00  0.00000000000E+00  0.45593999997E+02  0.45594000000E+02  0.51100000000E-03 0.  1.
         11   -1    0    0    0    0 -0.00000000000E+00 -0.00000000000E+00 -0.45593999997E+02  0.45594000000E+02  0.51100000000E-03 0. -1.
    9900012    2    1    2    0    0 -0.22489412852E+02 -0.28564006811E+02 -0.23705429762E+02  0.47787267567E+02  0.19999984144E+02 0.  0.
        -12    1    1    2    0    0  0.22489412852E+02  0.28564006811E+02  0.23705429762E+02  0.43400732433E+02  0.00000000000E+00 0.  1.
         11    1    3    3    0    0 -0.16527780687E+02 -0.11448069148E+02 -0.99386810578E+01  0.22427732901E+02  0.51100000000E-03 0. -1.
        -11    1    3    3    0    0  0.19387495706E+01 -0.34402710571E+01 -0.72871621548E+01  0.82883621649E+01  0.51100000000E-03 0.  1.
         12    1    3    3    0    0 -0.79003817355E+01 -0.13675666607E+02 -0.64795865491E+01  0.17071172501E+02  0.00000000000E+00 0. -1.
</event>
<event>
 7    1  0.2530788E-009  0.4778727E+02  0.7816164E-02  0.1312668E+00
        -11   -1    0    0    0    0  0.00000000000E+00  0.00000000000E+00  0.45593999997E+02  0.45594000000E+02  0.51100000000E-03 0.  1.
         11   -1    0    0    0    0 -0.00000000000E+00 -0.00000000000E+00 -0.45593999997E+02  0.45594000000E+02  0.51100000000E-03 0. -1.
    9900012    2    1    2    0    0 -0.28129998811E+02 -0.15698405429E+02 -0.29084122682E+02  0.47787274680E+02  0.20000016576E+02 0.  0.
        -12    1    1    2    0    0  0.28129998811E+02  0.15698405429E+02  0.29084122682E+02  0.43400725320E+02  0.00000000000E+00 0.  1.
         11    1    3    3    0    0 -0.67778139504E+01 -0.94608617518E+01 -0.14548094498E+02  0.18630451439E+02  0.51100000000E-03 0. -1.
        -11    1    3    3    0    0 -0.75186182341E+01  0.31519284776E+01 -0.24036575552E+01  0.84995201736E+01  0.51100000000E-03 0.  1.
        -12    1    3    3    0    0 -0.13833566627E+02 -0.93894721544E+01 -0.12132370629E+02  0.20657303068E+02  0.00000000000E+00 0.  1.
</event>
<event>
 7    1  0.2530788E-009  0.4778727E+02  0.7816164E-02  0.1312668E+00
        -11   -1    0    0    0    0  0.00000000000E+00  0.00000000000E+00  0.45593999997E+02  0.45594000000E+02  0.51100000000E-03 0.  1.
         11   -1    0    0    0    0 -0.00000000000E+00 -0.00000000000E+00 -0.45593999997E+02  0.45594000000E+02  0.51100000000E-03 0. -1.
    9900012    2    1    2    0    0  0.33096425928E+02 -0.24718207220E+02 -0.13313904577E+02  0.47787271521E+02  0.20000002174E+02 0.  0.
        -12    1    1    2    0    0 -0.33096425928E+02  0.24718207220E+02  0.13313904577E+02  0.43400728479E+02  0.00000000000E+00 0.  1.
         11    1    3    3    0    0 -0.18982328330E+00 -0.27396567562E+01 -0.52845510198E+01  0.59555211159E+01  0.51100000000E-03 0. -1.
        -11    1    3    3    0    0  0.86365954241E+01 -0.76545367033E+01  0.17906031673E+01  0.11678568946E+02  0.51100000000E-03 0.  1.
         12    1    3    3    0    0  0.24649653787E+02 -0.14324013761E+02 -0.98199567248E+01  0.30153181459E+02  0.00000000000E+00 0. -1.
</event>
<event>
 7    1  0.2530788E-009  0.4778727E+02  0.7816164E-02  0.1312668E+00
        -11   -1    0    0    0    0  0.00000000000E+00  0.00000000000E+00  0.45593999997E+02  0.45594000000E+02  0.51100000000E-03 0.  1.
         11   -1    0    0    0    0 -0.00000000000E+00 -0.00000000000E+00 -0.45593999997E+02  0.45594000000E+02  0.51100000000E-03 0. -1.
    9900012    2    1    2    0    0 -0.67096148831E+00  0.14811524507E+02 -0.40789604427E+02  0.47787271010E+02  0.19999999844E+02 0.  0.
        -12    1    1    2    0    0  0.67096148831E+00 -0.14811524507E+02  0.40789604427E+02  0.43400728990E+02  0.00000000000E+00 0.  1.
         11    1    3    3    0    0  0.43610230104E+00 -0.14161873047E+01 -0.98320383662E+01  0.99430754998E+01  0.51100000000E-03 0. -1.
        -11    1    3    3    0    0 -0.51534173116E+01  0.13484532933E+02 -0.29333045892E+02  0.32692780853E+02  0.51100000000E-03 0.  1.
        -12    1    3    3    0    0  0.40463535222E+01  0.27431788790E+01 -0.16245201692E+01  0.51514146571E+01  0.00000000000E+00 0.  1.
</event>
<event>
 7    1  0.2530788E-009  0.4778724E+02  0.7816164E-02  0.1312668E+00
        -11   -1    0    0    0    0  0.00000000000E+00  0.00000000000E+00  0.45593999997E+02  0.45594000000E+02  0.51100000000E-03 0. -1.
         11   -1    0    0    0    0 -0.00000000000E+00 -0.00000000000E+00 -0.45593999997E+02  0.45594000000E+02  0.51100000000E-03 0.  1.
    9900012    2    1    2    0    0  0.18016938067E+02 -0.45376788334E+01  0.39222764982E+02  0.47787241028E+02  0.19999863144E+02 0.  0.
        -12    1    1    2    0    0 -0.18016938067E+02  0.45376788334E+01 -0.39222764982E+02  0.43400758972E+02  0.00000000000E+00 0.  1.
         11    1    3    3    0    0  0.44530062785E+01 -0.56655233644E+01  0.12839253236E+02  0.14723241621E+02  0.51100000000E-03 0. -1.
        -11    1    3    3    0    0  0.13195707754E+02  0.57922818623E+01  0.15222546146E+02  0.20961945133E+02  0.51100000000E-03 0.  1.
        -12    1    3    3    0    0  0.36822403436E+00 -0.46644373312E+01  0.11160965599E+02  0.12102054275E+02  0.00000000000E+00 0.  1.
</event>
<event>
 7    1  0.2530788E-009  0.4778727E+02  0.7816164E-02  0.1312668E+00
        -11   -1    0    0    0    0  0.00000000000E+00  0.00000000000E+00  0.45593999997E+02  0.45594000000E+02  0.51100000000E-03 0. -1.
         11   -1    0    0    0    0 -0.00000000000E+00 -0.00000000000E+00 -0.45593999997E+02  0.45594000000E+02  0.51100000000E-03 0.  1.
    9900012    2    1    2    0    0 -0.17378971568E+02 -0.28310164025E+02  0.27930788940E+02  0.47787274077E+02  0.20000013825E+02 0.  0.
        -12    1    1    2    0    0  0.17378971568E+02  0.28310164025E+02 -0.27930788940E+02  0.43400725923E+02  0.00000000000E+00 0.  1.
         11    1    3    3    0    0 -0.76359057393E+01 -0.22939186041E+02  0.21762193713E+02  0.32528547280E+02  0.51100000000E-03 0. -1.
        -11    1    3    3    0    0 -0.88755468262E+01 -0.65293088556E+01  0.24768278458E+01  0.11293444206E+02  0.51100000000E-03 0.  1.
         12    1    3    3    0    0 -0.86751900209E+00  0.11583308717E+01  0.36917673815E+01  0.39652825910E+01  0.00000000000E+00 0. -1.
</event>
<event>
 7    1  0.2530788E-009  0.4778728E+02  0.7816164E-02  0.1312668E+00
        -11   -1    0    0    0    0  0.00000000000E+00  0.00000000000E+00  0.45593999997E+02  0.45594000000E+02  0.51100000000E-03 0.  1.
         11   -1    0    0    0    0 -0.00000000000E+00 -0.00000000000E+00 -0.45593999997E+02  0.45594000000E+02  0.51100000000E-03 0. -1.
    9900012    2    1    2    0    0 -0.10449441591E+02  0.92123319107E+01 -0.41104316566E+02  0.47787277320E+02  0.20000028612E+02 0.  0.
        -12    1    1    2    0    0  0.10449441591E+02 -0.92123319107E+01  0.41104316566E+02  0.43400722680E+02  0.00000000000E+00 0.  1.
         11    1    3    3    0    0  0.53983218529E+01  0.11606738401E+01 -0.88637587087E+01  0.10442952710E+02  0.51100000000E-03 0. -1.
        -11    1    3    3    0    0 -0.72069069459E+01  0.63773534796E+01 -0.12889824407E+02  0.16085947863E+02  0.51100000000E-03 0.  1.
         12    1    3    3    0    0 -0.86408564981E+01  0.16743045911E+01 -0.19350733450E+02  0.21258376747E+02  0.00000000000E+00 0. -1.
</event>
<event>
 7    1  0.2530788E-009  0.4778727E+02  0.7816164E-02  0.1312668E+00
        -11   -1    0    0    0    0  0.00000000000E+00  0.00000000000E+00  0.45593999997E+02  0.45594000000E+02  0.51100000000E-03 0.  1.
         11   -1    0    0    0    0 -0.00000000000E+00 -0.00000000000E+00 -0.45593999997E+02  0.45594000000E+02  0.51100000000E-03 0. -1.
    9900012    2    1    2    0    0 -0.45007193070E+01  0.61125925774E+01 -0.42731760689E+02  0.47787266897E+02  0.19999981090E+02 0.  0.
        -12    1    1    2    0    0  0.45007193070E+01 -0.61125925774E+01  0.42731760689E+02  0.43400733103E+02  0.00000000000E+00 0.  1.
         11    1    3    3    0    0  0.27746982285E+01 -0.61533796704E+00 -0.75585769107E+01  0.80752508474E+01  0.51100000000E-03 0. -1.
        -11    1    3    3    0    0  0.10972826488E+01  0.22295097085E+01 -0.27179347864E+02  0.27292704031E+02  0.51100000000E-03 0.  1.
        -12    1    3    3    0    0 -0.83727001843E+01  0.44984208359E+01 -0.79938359145E+01  0.12419312019E+02  0.00000000000E+00 0.  1.
</event>
<event>
 7    1  0.2530788E-009  0.4778727E+02  0.7816164E-02  0.1312668E+00
        -11   -1    0    0    0    0  0.00000000000E+00  0.00000000000E+00  0.45593999997E+02  0.45594000000E+02  0.51100000000E-03 0.  1.
         11   -1    0    0    0    0 -0.00000000000E+00 -0.00000000000E+00 -0.45593999997E+02  0.45594000000E+02  0.51100000000E-03 0. -1.
    9900012    2    1    2    0    0  0.26152982775E+01  0.14747486149E+02 -0.40734442548E+02  0.47787274863E+02  0.20000017409E+02 0.  0.
        -12    1    1    2    0    0 -0.26152982775E+01 -0.14747486149E+02  0.40734442548E+02  0.43400725137E+02  0.00000000000E+00 0.  1.
         11    1    3    3    0    0  0.10617790880E+01  0.70966286170E+01 -0.10982808133E+02  0.13119130585E+02  0.51100000000E-03 0. -1.
        -11    1    3    3    0    0  0.49178559450E+01  0.48799947780E+01 -0.29763576945E+01  0.75404483630E+01  0.51100000000E-03 0.  1.
        -12    1    3    3    0    0 -0.33643367555E+01  0.27708627535E+01 -0.26775276720E+02  0.27127695915E+02  0.00000000000E+00 0.  1.
</event>
<event>
 7    1  0.2530788E-009  0.4778727E+02  0.7816164E-02  0.1312668E+00
        -11   -1    0    0    0    0  0.00000000000E+00  0.00000000000E+00  0.45593999997E+02  0.45594000000E+02  0.51100000000E-03 0. -1.
         11   -1    0    0    0    0 -0.00000000000E+00 -0.00000000000E+00 -0.45593999997E+02  0.45594000000E+02  0.51100000000E-03 0.  1.
    9900012    2    1    2    0    0  0.13509745978E+02 -0.13511654208E+02  0.38968517489E+02  0.47787269693E+02  0.19999993840E+02 0.  0.
        -12    1    1    2    0    0 -0.13509745978E+02  0.13511654208E+02 -0.38968517489E+02  0.43400730307E+02  0.00000000000E+00 0.  1.
         11    1    3    3    0    0  0.81795600402E+01  0.21814098370E+01  0.78777610911E+01  0.11563860575E+02  0.51100000000E-03 0. -1.
        -11    1    3    3    0    0 -0.26402656804E+00 -0.78880270764E+01  0.81074672452E+01  0.11314667763E+02  0.51100000000E-03 0.  1.
         12    1    3    3    0    0  0.55942125057E+01 -0.78050369682E+01  0.22983289153E+02  0.24908741356E+02  0.00000000000E+00 0. -1.
</event>
<event>
 7    1  0.2530788E-009  0.4778727E+02  0.7816164E-02  0.1312668E+00
        -11   -1    0    0    0    0  0.00000000000E+00  0.00000000000E+00  0.45593999997E+02  0.45594000000E+02  0.51100000000E-03 0.  1.
         11   -1    0    0    0    0 -0.00000000000E+00 -0.00000000000E+00 -0.45593999997E+02  0.45594000000E+02  0.51100000000E-03 0. -1.
    9900012    2    1    2    0    0 -0.35374814049E+02 -0.25136510834E+02  0.63388018580E+00  0.47787269015E+02  0.19999990748E+02 0.  0.
        -12    1    1    2    0    0  0.35374814049E+02  0.25136510834E+02 -0.63388018580E+00  0.43400730985E+02  0.00000000000E+00 0.  1.
         11    1    3    3    0    0 -0.36467251182E+01 -0.18268923706E+01  0.11072546468E+00  0.40802451165E+01  0.51100000000E-03 0. -1.
        -11    1    3    3    0    0 -0.26529893857E+02 -0.18192869270E+02  0.81178029618E+01  0.33177017430E+02  0.51100000000E-03 0.  1.
        -12    1    3    3    0    0 -0.51981950738E+01 -0.51167491939E+01 -0.75946482407E+01  0.10530006469E+02  0.00000000000E+00 0.  1.
</event>
<event>
 7    1  0.2530788E-009  0.4778728E+02  0.7816164E-02  0.1312668E+00
        -11   -1    0    0    0    0  0.00000000000E+00  0.00000000000E+00  0.45593999997E+02  0.45594000000E+02  0.51100000000E-03 0.  1.
         11   -1    0    0    0    0 -0.00000000000E+00 -0.00000000000E+00 -0.45593999997E+02  0.45594000000E+02  0.51100000000E-03 0. -1.
    9900012    2    1    2    0    0 -0.34855341496E+02  0.25090049168E+02 -0.62623791120E+01  0.47787276617E+02  0.20000025406E+02 0.  0.
        -12    1    1    2    0    0  0.34855341496E+02 -0.25090049168E+02  0.62623791120E+01  0.43400723383E+02  0.00000000000E+00 0.  1.
         11    1    3    3    0    0 -0.15769154811E+02  0.63246624225E+01  0.13642721917E+01  0.17044906485E+02  0.51100000000E-03 0. -1.
        -11    1    3    3    0    0  0.18641635385E+01  0.16766397640E+01 -0.17979178623E+01  0.30852448035E+01  0.51100000000E-03 0.  1.
        -12    1    3    3    0    0 -0.20950350224E+02  0.17088746981E+02 -0.58287334414E+01  0.27657125328E+02  0.00000000000E+00 0.  1.
</event>
<event>
 7    1  0.2530788E-009  0.4778727E+02  0.7816164E-02  0.1312668E+00
        -11   -1    0    0    0    0  0.00000000000E+00  0.00000000000E+00  0.45593999997E+02  0.45594000000E+02  0.51100000000E-03 0.  1.
         11   -1    0    0    0    0 -0.00000000000E+00 -0.00000000000E+00 -0.45593999997E+02  0.45594000000E+02  0.51100000000E-03 0. -1.
    9900012    2    1    2    0    0  0.39273362688E+02 -0.10828597210E+02 -0.14965547587E+02  0.47787272484E+02  0.20000006562E+02 0.  0.
        -12    1    1    2    0    0 -0.39273362688E+02  0.10828597210E+02  0.14965547587E+02  0.43400727516E+02  0.00000000000E+00 0.  1.
         11    1    3    3    0    0  0.27967349770E+02 -0.13931161951E+02 -0.82159058336E+01  0.32307135982E+02  0.51100000000E-03 0. -1.
        -11    1    3    3    0    0  0.11898634976E+02  0.42072306122E+01 -0.57127812050E+01  0.13853309102E+02  0.51100000000E-03 0.  1.
        -12    1    3    3    0    0 -0.59262205798E+00 -0.11046658711E+01 -0.10368605485E+01  0.16268273994E+01  0.00000000000E+00 0.  1.
</event>
<event>
 7    1  0.2530788E-009  0.4778726E+02  0.7816164E-02  0.1312668E+00
        -11   -1    0    0    0    0  0.00000000000E+00  0.00000000000E+00  0.45593999997E+02  0.45594000000E+02  0.51100000000E-03 0.  1.
         11   -1    0    0    0    0 -0.00000000000E+00 -0.00000000000E+00 -0.45593999997E+02  0.45594000000E+02  0.51100000000E-03 0. -1.
    9900012    2    1    2    0    0  0.34765104426E+02 -0.11238970832E+02 -0.23424294292E+02  0.47787256755E+02  0.19999934850E+02 0.  0.
        -12    1    1    2    0    0 -0.34765104426E+02  0.11238970832E+02  0.23424294292E+02  0.43400743245E+02  0.00000000000E+00 0.  1.
         11    1    3    3    0    0  0.19369508717E+02  0.21613649939E+01 -0.10080055278E+02  0.21942125722E+02  0.51100000000E-03 0. -1.
        -11    1    3    3    0    0  0.29902186043E+01  0.95266715016E+00 -0.23280003778E+01  0.39075015062E+01  0.51100000000E-03 0.  1.
         12    1    3    3    0    0  0.12405377105E+02 -0.14353002976E+02 -0.11016238637E+02  0.21937629527E+02  0.00000000000E+00 0. -1.
</event>
<event>
 7    1  0.2530788E-009  0.4778727E+02  0.7816164E-02  0.1312668E+00
        -11   -1    0    0    0    0  0.00000000000E+00  0.00000000000E+00  0.45593999997E+02  0.45594000000E+02  0.51100000000E-03 0. -1.
         11   -1    0    0    0    0 -0.00000000000E+00 -0.00000000000E+00 -0.45593999997E+02  0.45594000000E+02  0.51100000000E-03 0.  1.
    9900012    2    1    2    0    0 -0.29428501720E+02 -0.31893814846E+02  0.60926040346E+00  0.47787270315E+02  0.19999996673E+02 0.  0.
        -12    1    1    2    0    0  0.29428501720E+02  0.31893814846E+02 -0.60926040346E+00  0.43400729685E+02  0.00000000000E+00 0.  1.
         11    1    3    3    0    0 -0.16994942340E+02 -0.60028068067E+01  0.46429416142E+01  0.18612325534E+02  0.51100000000E-03 0. -1.
        -11    1    3    3    0    0 -0.57448467406E+01 -0.15369643598E+02 -0.28166837754E+01  0.16648210599E+02  0.51100000000E-03 0.  1.
         12    1    3    3    0    0 -0.66887126397E+01 -0.10521364442E+02 -0.12169974353E+01  0.12526734181E+02  0.00000000000E+00 0. -1.
</event>
<event>
 7    1  0.2530788E-009  0.4778727E+02  0.7816164E-02  0.1312668E+00
        -11   -1    0    0    0    0  0.00000000000E+00  0.00000000000E+00  0.45593999997E+02  0.45594000000E+02  0.51100000000E-03 0.  1.
         11   -1    0    0    0    0 -0.00000000000E+00 -0.00000000000E+00 -0.45593999997E+02  0.45594000000E+02  0.51100000000E-03 0. -1.
    9900012    2    1    2    0    0 -0.15277869235E+02  0.11044961523E+02 -0.39092439147E+02  0.47787271183E+02  0.20000000630E+02 0.  0.
        -12    1    1    2    0    0  0.15277869235E+02 -0.11044961523E+02  0.39092439147E+02  0.43400728817E+02  0.00000000000E+00 0.  1.
         11    1    3    3    0    0 -0.43330652600E+00  0.55749981219E+01 -0.15359894914E+02  0.16346092213E+02  0.51100000000E-03 0. -1.
        -11    1    3    3    0    0 -0.12518930204E+02  0.67628856558E+01 -0.98491258149E+01  0.17305071957E+02  0.51100000000E-03 0.  1.
        -12    1    3    3    0    0 -0.23256325054E+01 -0.12929222549E+01 -0.13883418419E+02  0.14136107013E+02  0.00000000000E+00 0.  1.
</event>
<event>
 7    1  0.2530788E-009  0.4778727E+02  0.7816164E-02  0.1312668E+00
        -11   -1    0    0    0    0  0.00000000000E+00  0.00000000000E+00  0.45593999997E+02  0.45594000000E+02  0.51100000000E-03 0. -1.
         11   -1    0    0    0    0 -0.00000000000E+00 -0.00000000000E+00 -0.45593999997E+02  0.45594000000E+02  0.51100000000E-03 0.  1.
    9900012    2    1    2    0    0  0.34132446821E+02  0.15389340531E+02  0.21949196958E+02  0.47787274487E+02  0.20000015695E+02 0.  0.
        -12    1    1    2    0    0 -0.34132446821E+02 -0.15389340531E+02 -0.21949196958E+02  0.43400725513E+02  0.00000000000E+00 0.  1.
         11    1    3    3    0    0  0.12955645385E+02  0.80003137843E+01 -0.11370836250E+01  0.15269142982E+02  0.51100000000E-03 0. -1.
        -11    1    3    3    0    0  0.18250182069E+02  0.78898971295E+01  0.19332523678E+02  0.27732040933E+02  0.51100000000E-03 0.  1.
        -12    1    3    3    0    0  0.29266193670E+01 -0.50087038254E+00  0.37537569051E+01  0.47860905719E+01  0.00000000000E+00 0.  1.
</event>
<event>
 7    1  0.2530788E-009  0.4778729E+02  0.7816164E-02  0.1312668E+00
        -11   -1    0    0    0    0  0.00000000000E+00  0.00000000000E+00  0.45593999997E+02  0.45594000000E+02  0.51100000000E-03 0.  1.
         11   -1    0    0    0    0 -0.00000000000E+00 -0.00000000000E+00 -0.45593999997E+02  0.45594000000E+02  0.51100000000E-03 0. -1.
    9900012    2    1    2    0    0  0.10609962445E+01  0.36576889530E+02 -0.23337244283E+02  0.47787291118E+02  0.20000091523E+02 0.  0.
        -12    1    1    2    0    0 -0.10609962445E+01 -0.36576889530E+02  0.23337244283E+02  0.43400708882E+02  0.00000000000E+00 0.  1.
         11    1    3    3    0    0  0.39485335087E+01  0.15911392034E+02 -0.15417036320E+02  0.22504406735E+02  0.51100000000E-03 0. -1.
        -11    1    3    3    0    0 -0.20689050238E+01  0.48955734740E-01  0.15450235402E+01  0.25826077253E+01  0.51100000000E-03 0.  1.
        -12    1    3    3    0    0 -0.81863224039E+00  0.20616541761E+02 -0.94652315029E+01  0.22700276658E+02  0.00000000000E+00 0.  1.
</event>
<event>
 7    1  0.2530788E-009  0.4778727E+02  0.7816164E-02  0.1312668E+00
        -11   -1    0    0    0    0  0.00000000000E+00  0.00000000000E+00  0.45593999997E+02  0.45594000000E+02  0.51100000000E-03 0. -1.
         11   -1    0    0    0    0 -0.00000000000E+00 -0.00000000000E+00 -0.45593999997E+02  0.45594000000E+02  0.51100000000E-03 0.  1.
    9900012    2    1    2    0    0 -0.81482807630E+00 -0.39509790657E+02  0.17942568720E+02  0.47787271033E+02  0.19999999950E+02 0.  0.
        -12    1    1    2    0    0  0.81482807630E+00  0.39509790657E+02 -0.17942568720E+02  0.43400728967E+02  0.00000000000E+00 0.  1.
         11    1    3    3    0    0  0.24278765756E+01 -0.29535370864E+02  0.78128415370E+01  0.30647564502E+02  0.51100000000E-03 0. -1.
        -11    1    3    3    0    0 -0.35518013232E+01 -0.62257110983E+01  0.96395776445E+00  0.72321494835E+01  0.51100000000E-03 0.  1.
         12    1    3    3    0    0  0.30909667132E+00 -0.37487086947E+01  0.91657694186E+01  0.99075570483E+01  0.00000000000E+00 0. -1.
</event>
<event>
 7    1  0.2530788E-009  0.4778727E+02  0.7816164E-02  0.1312668E+00
        -11   -1    0    0    0    0  0.00000000000E+00  0.00000000000E+00  0.45593999997E+02  0.45594000000E+02  0.51100000000E-03 0.  1.
         11   -1    0    0    0    0 -0.00000000000E+00 -0.00000000000E+00 -0.45593999997E+02  0.45594000000E+02  0.51100000000E-03 0. -1.
    9900012    2    1    2    0    0  0.46956801776E+01 -0.25556490363E+02 -0.34762622308E+02  0.47787268189E+02  0.19999986981E+02 0.  0.
        -12    1    1    2    0    0 -0.46956801776E+01  0.25556490363E+02  0.34762622308E+02  0.43400731811E+02  0.00000000000E+00 0.  1.
         11    1    3    3    0    0  0.38562472306E+01 -0.23997004874E+00 -0.98343230801E+01  0.10566084376E+02  0.51100000000E-03 0. -1.
        -11    1    3    3    0    0 -0.34979777224E+01 -0.10748568487E+02 -0.55489936889E+01  0.12592017467E+02  0.51100000000E-03 0.  1.
         12    1    3    3    0    0  0.43374106694E+01 -0.14567951828E+02 -0.19379305539E+02  0.24629166347E+02  0.00000000000E+00 0. -1.
</event>
<event>
 7    1  0.2530788E-009  0.4778727E+02  0.7816164E-02  0.1312668E+00
        -11   -1    0    0    0    0  0.00000000000E+00  0.00000000000E+00  0.45593999997E+02  0.45594000000E+02  0.51100000000E-03 0. -1.
         11   -1    0    0    0    0 -0.00000000000E+00 -0.00000000000E+00 -0.45593999997E+02  0.45594000000E+02  0.51100000000E-03 0.  1.
    9900012    2    1    2    0    0  0.58530395029E+01  0.41020512018E+02  0.12910565674E+02  0.47787272084E+02  0.20000004739E+02 0.  0.
        -12    1    1    2    0    0 -0.58530395029E+01 -0.41020512018E+02 -0.12910565674E+02  0.43400727916E+02  0.00000000000E+00 0.  1.
         11    1    3    3    0    0  0.26878363786E+01  0.21909345049E+02  0.31816684296E+00  0.22075893986E+02  0.51100000000E-03 0. -1.
        -11    1    3    3    0    0 -0.61619072778E+00  0.13817173575E+02  0.13273839249E+02  0.19169997008E+02  0.51100000000E-03 0.  1.
        -12    1    3    3    0    0  0.37813938521E+01  0.52939933940E+01 -0.68144041843E+00  0.65413810900E+01  0.00000000000E+00 0.  1.
</event>
<event>
 7    1  0.2530788E-009  0.4778727E+02  0.7816164E-02  0.1312668E+00
        -11   -1    0    0    0    0  0.00000000000E+00  0.00000000000E+00  0.45593999997E+02  0.45594000000E+02  0.51100000000E-03 0.  1.
         11   -1    0    0    0    0 -0.00000000000E+00 -0.00000000000E+00 -0.45593999997E+02  0.45594000000E+02  0.51100000000E-03 0. -1.
    9900012    2    1    2    0    0 -0.34074763570E+01  0.41805012470E+02  0.11151378809E+02  0.47787271756E+02  0.20000003246E+02 0.  0.
        -12    1    1    2    0    0  0.34074763570E+01 -0.41805012470E+02 -0.11151378809E+02  0.43400728244E+02  0.00000000000E+00 0.  1.
         11    1    3    3    0    0 -0.88193765024E+01  0.20606198480E+02  0.10142933537E+02  0.24602355958E+02  0.51100000000E-03 0.  1.
        -11    1    3    3    0    0  0.25813274234E+01  0.17524586949E+02 -0.17312486639E+01  0.17798079144E+02  0.51100000000E-03 0. -1.
         12    1    3    3    0    0  0.28305727220E+01  0.36742270405E+01  0.27396939363E+01  0.53868366547E+01  0.00000000000E+00 0. -1.
</event>
<event>
 7    1  0.2530788E-009  0.4778727E+02  0.7816164E-02  0.1312668E+00
        -11   -1    0    0    0    0  0.00000000000E+00  0.00000000000E+00  0.45593999997E+02  0.45594000000E+02  0.51100000000E-03 0. -1.
         11   -1    0    0    0    0 -0.00000000000E+00 -0.00000000000E+00 -0.45593999997E+02  0.45594000000E+02  0.51100000000E-03 0.  1.
    9900012    2    1    2    0    0  0.13219123925E+02 -0.37861109281E+02 -0.16595616621E+02  0.47787270463E+02  0.19999997348E+02 0.  0.
        -12    1    1    2    0    0 -0.13219123925E+02  0.37861109281E+02  0.16595616621E+02  0.43400729537E+02  0.00000000000E+00 0.  1.
         11    1    3    3    0    0  0.91578523581E+01 -0.46037129773E+01 -0.10496863609E+01  0.10303507884E+02  0.51100000000E-03 0. -1.
        -11    1    3    3    0    0  0.30892975260E+00 -0.21759923044E+02 -0.77808856891E+01  0.23111293145E+02  0.51100000000E-03 0.  1.
         12    1    3    3    0    0  0.37523418143E+01 -0.11497473260E+02 -0.77650445710E+01  0.14372469435E+02  0.00000000000E+00 0. -1.
</event>
<event>
 7    1  0.2530788E-009  0.4778726E+02  0.7816164E-02  0.1312668E+00
        -11   -1    0    0    0    0  0.00000000000E+00  0.00000000000E+00  0.45593999997E+02  0.45594000000E+02  0.51100000000E-03 0. -1.
         11   -1    0    0    0    0 -0.00000000000E+00 -0.00000000000E+00 -0.45593999997E+02  0.45594000000E+02  0.51100000000E-03 0.  1.
    9900012    2    1    2    0    0  0.34159145111E+02 -0.26639579283E+02  0.26663955921E+01  0.47787262166E+02  0.19999959518E+02 0.  0.
        -12    1    1    2    0    0 -0.34159145111E+02  0.26639579283E+02 -0.26663955921E+01  0.43400737834E+02  0.00000000000E+00 0.  1.
         11    1    3    3    0    0  0.21821939249E+02 -0.85402327754E+01  0.44693071678E+01  0.23855970222E+02  0.51100000000E-03 0. -1.
        -11    1    3    3    0    0  0.13300356149E+02 -0.17313984057E+02 -0.11241631814E+00  0.21833143505E+02  0.51100000000E-03 0.  1.
         12    1    3    3    0    0 -0.96315028635E+00 -0.78536245082E+00 -0.16904952576E+01  0.20981484383E+01  0.00000000000E+00 0. -1.
</event>
<event>
 7    1  0.2530788E-009  0.4778727E+02  0.7816164E-02  0.1312668E+00
        -11   -1    0    0    0    0  0.00000000000E+00  0.00000000000E+00  0.45593999997E+02  0.45594000000E+02  0.51100000000E-03 0. -1.
         11   -1    0    0    0    0 -0.00000000000E+00 -0.00000000000E+00 -0.45593999997E+02  0.45594000000E+02  0.51100000000E-03 0.  1.
    9900012    2    1    2    0    0  0.28514143835E+02 -0.25509813404E+02  0.20489422426E+02  0.47787269478E+02  0.19999992856E+02 0.  0.
        -12    1    1    2    0    0 -0.28514143835E+02  0.25509813404E+02 -0.20489422426E+02  0.43400730522E+02  0.00000000000E+00 0.  1.
         11    1    3    3    0    0  0.19658339599E+02 -0.20819329169E+02  0.98265861521E+01  0.30273033850E+02  0.51100000000E-03 0. -1.
        -11    1    3    3    0    0  0.67489581060E-01  0.31211653431E+00 -0.15932086702E+01  0.16248955974E+01  0.51100000000E-03 0.  1.
         12    1    3    3    0    0  0.87883146545E+01 -0.50026007697E+01  0.12256044944E+02  0.15889340030E+02  0.00000000000E+00 0. -1.
</event>
<event>
 7    1  0.2530788E-009  0.4778727E+02  0.7816164E-02  0.1312668E+00
        -11   -1    0    0    0    0  0.00000000000E+00  0.00000000000E+00  0.45593999997E+02  0.45594000000E+02  0.51100000000E-03 0. -1.
         11   -1    0    0    0    0 -0.00000000000E+00 -0.00000000000E+00 -0.45593999997E+02  0.45594000000E+02  0.51100000000E-03 0.  1.
    9900012    2    1    2    0    0 -0.37415332743E+01  0.32529235066E+01  0.43116615693E+02  0.47787272686E+02  0.20000007485E+02 0.  0.
        -12    1    1    2    0    0  0.37415332743E+01 -0.32529235066E+01 -0.43116615693E+02  0.43400727314E+02  0.00000000000E+00 0.  1.
         11    1    3    3    0    0  0.33755586850E+01  0.66945082746E+01  0.19442980462E+02  0.20838433890E+02  0.51100000000E-03 0. -1.
        -11    1    3    3    0    0 -0.76909616361E+01  0.13525939083E+01  0.12012623096E+02  0.14327718418E+02  0.51100000000E-03 0.  1.
        -12    1    3    3    0    0  0.57386967693E+00 -0.47941786763E+01  0.11661012135E+02  0.12621120378E+02  0.00000000000E+00 0.  1.
</event>
<event>
 7    1  0.2530788E-009  0.4778726E+02  0.7816164E-02  0.1312668E+00
        -11   -1    0    0    0    0  0.00000000000E+00  0.00000000000E+00  0.45593999997E+02  0.45594000000E+02  0.51100000000E-03 0.  1.
         11   -1    0    0    0    0 -0.00000000000E+00 -0.00000000000E+00 -0.45593999997E+02  0.45594000000E+02  0.51100000000E-03 0. -1.
    9900012    2    1    2    0    0  0.18868755291E+02  0.36935481897E+02 -0.12781424594E+02  0.47787256183E+02  0.19999932243E+02 0.  0.
        -12    1    1    2    0    0 -0.18868755291E+02 -0.36935481897E+02  0.12781424594E+02  0.43400743817E+02  0.00000000000E+00 0.  1.
         11    1    3    3    0    0  0.19040318677E+01  0.85475420304E+01 -0.96588813274E+01  0.13037630186E+02  0.51100000000E-03 0.  1.
        -11    1    3    3    0    0  0.10910805087E+02  0.86481638782E+01 -0.20701499113E+01  0.14075579101E+02  0.51100000000E-03 0. -1.
        -12    1    3    3    0    0  0.60539183355E+01  0.19739775988E+02 -0.10523933553E+01  0.20674046896E+02  0.00000000000E+00 0.  1.
</event>
<event>
 7    1  0.2530788E-009  0.4778727E+02  0.7816164E-02  0.1312668E+00
        -11   -1    0    0    0    0  0.00000000000E+00  0.00000000000E+00  0.45593999997E+02  0.45594000000E+02  0.51100000000E-03 0.  1.
         11   -1    0    0    0    0 -0.00000000000E+00 -0.00000000000E+00 -0.45593999997E+02  0.45594000000E+02  0.51100000000E-03 0. -1.
    9900012    2    1    2    0    0  0.19442191610E+02  0.28672158620E+02  0.26144436806E+02  0.47787273388E+02  0.20000010685E+02 0.  0.
        -12    1    1    2    0    0 -0.19442191610E+02 -0.28672158620E+02 -0.26144436806E+02  0.43400726612E+02  0.00000000000E+00 0.  1.
         11    1    3    3    0    0  0.48606909210E+01  0.11148991107E+02  0.69263062937E+01  0.13996429475E+02  0.51100000000E-03 0. -1.
        -11    1    3    3    0    0  0.10638808016E+02  0.98782272128E+01  0.21477307940E+01  0.14675706344E+02  0.51100000000E-03 0.  1.
        -12    1    3    3    0    0  0.39426926726E+01  0.76449403009E+01  0.17070399718E+02  0.19115137568E+02  0.00000000000E+00 0.  1.
</event>
<event>
 7    1  0.2530788E-009  0.4778730E+02  0.7816164E-02  0.1312668E+00
        -11   -1    0    0    0    0  0.00000000000E+00  0.00000000000E+00  0.45593999997E+02  0.45594000000E+02  0.51100000000E-03 0.  1.
         11   -1    0    0    0    0 -0.00000000000E+00 -0.00000000000E+00 -0.45593999997E+02  0.45594000000E+02  0.51100000000E-03 0. -1.
    9900012    2    1    2    0    0  0.78512820909E+00  0.15978137325E+02 -0.40344802211E+02  0.47787304566E+02  0.20000152839E+02 0.  0.
        -12    1    1    2    0    0 -0.78512820909E+00 -0.15978137325E+02  0.40344802211E+02  0.43400695434E+02  0.00000000000E+00 0.  1.
         11    1    3    3    0    0 -0.14253115725E+01  0.60999198055E+01 -0.25557671114E+01  0.67655362317E+01  0.51100000000E-03 0.  1.
        -11    1    3    3    0    0 -0.35678464230E+01  0.11545129196E+01 -0.20283821715E+02  0.20627550795E+02  0.51100000000E-03 0. -1.
        -12    1    3    3    0    0  0.57782862047E+01  0.87237046000E+01 -0.17505213384E+02  0.20394217539E+02  0.00000000000E+00 0.  1.
</event>
<event>
 7    1  0.2530788E-009  0.4778732E+02  0.7816164E-02  0.1312668E+00
        -11   -1    0    0    0    0  0.00000000000E+00  0.00000000000E+00  0.45593999997E+02  0.45594000000E+02  0.51100000000E-03 0.  1.
         11   -1    0    0    0    0 -0.00000000000E+00 -0.00000000000E+00 -0.45593999997E+02  0.45594000000E+02  0.51100000000E-03 0. -1.
    9900012    2    1    2    0    0 -0.33960429739E+02 -0.26915201431E+02 -0.24248496210E+01  0.47787323141E+02  0.20000237528E+02 0.  0.
        -12    1    1    2    0    0  0.33960429739E+02  0.26915201431E+02  0.24248496210E+01  0.43400676859E+02  0.00000000000E+00 0.  1.
         11    1    3    3    0    0 -0.10076444323E+02 -0.23434308922E+01  0.45893067426E+01  0.11317602890E+02  0.51100000000E-03 0. -1.
        -11    1    3    3    0    0 -0.10261676024E+02 -0.13878130122E+02 -0.82043785817E+01  0.19110633654E+02  0.51100000000E-03 0.  1.
         12    1    3    3    0    0 -0.13622309393E+02 -0.10693640417E+02  0.11902222181E+01  0.17359086597E+02  0.00000000000E+00 0. -1.
</event>
<event>
 7    1  0.2530788E-009  0.4778727E+02  0.7816164E-02  0.1312668E+00
        -11   -1    0    0    0    0  0.00000000000E+00  0.00000000000E+00  0.45593999997E+02  0.45594000000E+02  0.51100000000E-03 0.  1.
         11   -1    0    0    0    0 -0.00000000000E+00 -0.00000000000E+00 -0.45593999997E+02  0.45594000000E+02  0.51100000000E-03 0. -1.
    9900012    2    1    2    0    0  0.28345217996E+02  0.32647261741E+02 -0.37852590157E+01  0.47787271110E+02  0.20000000298E+02 0.  0.
        -12    1    1    2    0    0 -0.28345217996E+02 -0.32647261741E+02  0.37852590157E+01  0.43400728890E+02  0.00000000000E+00 0.  1.
         11    1    3    3    0    0  0.16139251742E+02  0.54414387942E+01 -0.39609494768E+01  0.17486389677E+02  0.51100000000E-03 0. -1.
        -11    1    3    3    0    0  0.85606527053E+00  0.12150987579E+01 -0.11946204564E+01  0.19069428504E+01  0.51100000000E-03 0.  1.
         12    1    3    3    0    0  0.11349900984E+02  0.25990724189E+02  0.13703109175E+01  0.28393938582E+02  0.00000000000E+00 0. -1.
</event>
<event>
 7    1  0.2530788E-009  0.4778727E+02  0.7816164E-02  0.1312668E+00
        -11   -1    0    0    0    0  0.00000000000E+00  0.00000000000E+00  0.45593999997E+02  0.45594000000E+02  0.51100000000E-03 0.  1.
         11   -1    0    0    0    0 -0.00000000000E+00 -0.00000000000E+00 -0.45593999997E+02  0.45594000000E+02  0.51100000000E-03 0. -1.
    9900012    2    1    2    0    0  0.18932449197E+02 -0.51672247170E+00 -0.39050207737E+02  0.47787270063E+02  0.19999995526E+02 0.  0.
        -12    1    1    2    0    0 -0.18932449197E+02  0.51672247170E+00  0.39050207737E+02  0.43400729937E+02  0.00000000000E+00 0.  1.
         11    1    3    3    0    0  0.37538507554E+01 -0.37809757038E+00 -0.10174955929E+02  0.10851916038E+02  0.51100000000E-03 0. -1.
        -11    1    3    3    0    0  0.18294411631E+02  0.12861418985E+00 -0.28384921168E+02  0.33769894707E+02  0.51100000000E-03 0.  1.
        -12    1    3    3    0    0 -0.31158131889E+01 -0.26723909117E+00 -0.49033063965E+00  0.31654593184E+01  0.00000000000E+00 0.  1.
</event>
<event>
 7    1  0.2530788E-009  0.4778727E+02  0.7816164E-02  0.1312668E+00
        -11   -1    0    0    0    0  0.00000000000E+00  0.00000000000E+00  0.45593999997E+02  0.45594000000E+02  0.51100000000E-03 0. -1.
         11   -1    0    0    0    0 -0.00000000000E+00 -0.00000000000E+00 -0.45593999997E+02  0.45594000000E+02  0.51100000000E-03 0.  1.
    9900012    2    1    2    0    0 -0.32187641783E+02  0.28218520280E+02 -0.71619898574E+01  0.47787271100E+02  0.20000000252E+02 0.  0.
        -12    1    1    2    0    0  0.32187641783E+02 -0.28218520280E+02  0.71619898574E+01  0.43400728900E+02  0.00000000000E+00 0.  1.
         11    1    3    3    0    0 -0.15022145284E+02  0.90732036489E+01 -0.35308514711E+00  0.17553134841E+02  0.51100000000E-03 0. -1.
        -11    1    3    3    0    0 -0.70057519260E+01  0.16340808222E+02 -0.17440264127E+00  0.17780129075E+02  0.51100000000E-03 0.  1.
        -12    1    3    3    0    0 -0.10159744573E+02  0.28045084096E+01 -0.66345020690E+01  0.12454007183E+02  0.00000000000E+00 0.  1.
</event>
<event>
 7    1  0.2530788E-009  0.4778727E+02  0.7816164E-02  0.1312668E+00
        -11   -1    0    0    0    0  0.00000000000E+00  0.00000000000E+00  0.45593999997E+02  0.45594000000E+02  0.51100000000E-03 0.  1.
         11   -1    0    0    0    0 -0.00000000000E+00 -0.00000000000E+00 -0.45593999997E+02  0.45594000000E+02  0.51100000000E-03 0. -1.
    9900012    2    1    2    0    0  0.28284851406E+02  0.32328781365E+02  0.62000187409E+01  0.47787272403E+02  0.20000006192E+02 0.  0.
        -12    1    1    2    0    0 -0.28284851406E+02 -0.32328781365E+02 -0.62000187409E+01  0.43400727597E+02  0.00000000000E+00 0.  1.
         11    1    3    3    0    0  0.99024902270E+01  0.10647115123E+02 -0.14482902107E+01  0.14612252322E+02  0.51100000000E-03 0. -1.
        -11    1    3    3    0    0  0.26938864468E+01  0.31156534780E+01  0.78526502403E+01  0.88672677213E+01  0.51100000000E-03 0.  1.
        -12    1    3    3    0    0  0.15688474732E+02  0.18566012764E+02 -0.20434128880E+00  0.24307752359E+02  0.00000000000E+00 0.  1.
</event>
<event>
 7    1  0.2530788E-009  0.4778727E+02  0.7816164E-02  0.1312668E+00
        -11   -1    0    0    0    0  0.00000000000E+00  0.00000000000E+00  0.45593999997E+02  0.45594000000E+02  0.51100000000E-03 0.  1.
         11   -1    0    0    0    0 -0.00000000000E+00 -0.00000000000E+00 -0.45593999997E+02  0.45594000000E+02  0.51100000000E-03 0. -1.
    9900012    2    1    2    0    0  0.21917820736E+02 -0.22473576117E+02 -0.29969500745E+02  0.47787268852E+02  0.19999990002E+02 0.  0.
        -12    1    1    2    0    0 -0.21917820736E+02  0.22473576117E+02  0.29969500745E+02  0.43400731148E+02  0.00000000000E+00 0.  1.
         11    1    3    3    0    0  0.16460996914E+02 -0.13554282225E+02 -0.11426422013E+02  0.24191860332E+02  0.51100000000E-03 0. -1.
        -11    1    3    3    0    0 -0.28783938186E+01 -0.19203978101E+01 -0.27737841334E+01  0.44347443448E+01  0.51100000000E-03 0.  1.
        -12    1    3    3    0    0  0.83352176403E+01 -0.69988960820E+01 -0.15769294599E+02  0.19160664175E+02  0.00000000000E+00 0.  1.
</event>
<event>
 7    1  0.2530788E-009  0.4778727E+02  0.7816164E-02  0.1312668E+00
        -11   -1    0    0    0    0  0.00000000000E+00  0.00000000000E+00  0.45593999997E+02  0.45594000000E+02  0.51100000000E-03 0.  1.
         11   -1    0    0    0    0 -0.00000000000E+00 -0.00000000000E+00 -0.45593999997E+02  0.45594000000E+02  0.51100000000E-03 0. -1.
    9900012    2    1    2    0    0  0.22997506420E+02  0.12415658143E+01 -0.36785818998E+02  0.47787271129E+02  0.20000000385E+02 0.  0.
        -12    1    1    2    0    0 -0.22997506420E+02 -0.12415658143E+01  0.36785818998E+02  0.43400728871E+02  0.00000000000E+00 0.  1.
         11    1    3    3    0    0  0.12439643810E+02  0.78535516389E+01 -0.16597568685E+02  0.22178870530E+02  0.51100000000E-03 0. -1.
        -11    1    3    3    0    0  0.66968783511E+01 -0.33670903155E+01 -0.19002466614E+02  0.20427413309E+02  0.51100000000E-03 0.  1.
         12    1    3    3    0    0  0.38609842591E+01 -0.32448955091E+01 -0.11857836987E+01  0.51809872895E+01  0.00000000000E+00 0. -1.
</event>
<event>
 7    1  0.2530788E-009  0.4778727E+02  0.7816164E-02  0.1312668E+00
        -11   -1    0    0    0    0  0.00000000000E+00  0.00000000000E+00  0.45593999997E+02  0.45594000000E+02  0.51100000000E-03 0.  1.
         11   -1    0    0    0    0 -0.00000000000E+00 -0.00000000000E+00 -0.45593999997E+02  0.45594000000E+02  0.51100000000E-03 0. -1.
    9900012    2    1    2    0    0  0.21776184909E+01  0.11562338649E+02 -0.41775517413E+02  0.47787267836E+02  0.19999985370E+02 0.  0.
        -12    1    1    2    0    0 -0.21776184909E+01 -0.11562338649E+02  0.41775517413E+02  0.43400732164E+02  0.00000000000E+00 0.  1.
         11    1    3    3    0    0  0.54362195990E+01  0.19536451071E+01 -0.12775412164E+02  0.14020712141E+02  0.51100000000E-03 0. -1.
        -11    1    3    3    0    0 -0.78234177432E+01  0.41611586350E+01 -0.22312159430E+02  0.24007364808E+02  0.51100000000E-03 0.  1.
        -12    1    3    3    0    0  0.45648166351E+01  0.54475349064E+01 -0.66879458190E+01  0.97591908859E+01  0.00000000000E+00 0.  1.
</event>
<event>
 7    1  0.2530788E-009  0.4778727E+02  0.7816164E-02  0.1312668E+00
        -11   -1    0    0    0    0  0.00000000000E+00  0.00000000000E+00  0.45593999997E+02  0.45594000000E+02  0.51100000000E-03 0.  1.
         11   -1    0    0    0    0 -0.00000000000E+00 -0.00000000000E+00 -0.45593999997E+02  0.45594000000E+02  0.51100000000E-03 0. -1.
    9900012    2    1    2    0    0  0.30782301656E+01 -0.34681284919E+02 -0.25910545087E+02  0.47787269922E+02  0.19999994882E+02 0.  0.
        -12    1    1    2    0    0 -0.30782301656E+01  0.34681284919E+02  0.25910545087E+02  0.43400730078E+02  0.00000000000E+00 0.  1.
         11    1    3    3    0    0  0.86826885313E+01 -0.19521513235E+02 -0.10714970532E+02  0.23901655861E+02  0.51100000000E-03 0. -1.
        -11    1    3    3    0    0 -0.37017578073E+01 -0.11634647924E+02 -0.15655416094E+02  0.19853465604E+02  0.51100000000E-03 0.  1.
        -12    1    3    3    0    0 -0.19027005585E+01 -0.35251237603E+01  0.45984153823E+00  0.40321484572E+01  0.00000000000E+00 0.  1.
</event>
<event>
 7    1  0.2530788E-009  0.4778727E+02  0.7816164E-02  0.1312668E+00
        -11   -1    0    0    0    0  0.00000000000E+00  0.00000000000E+00  0.45593999997E+02  0.45594000000E+02  0.51100000000E-03 0. -1.
         11   -1    0    0    0    0 -0.00000000000E+00 -0.00000000000E+00 -0.45593999997E+02  0.45594000000E+02  0.51100000000E-03 0.  1.
    9900012    2    1    2    0    0 -0.27866268495E+02 -0.21864819667E+02  0.25080347398E+02  0.47787273226E+02  0.20000009945E+02 0.  0.
        -12    1    1    2    0    0  0.27866268495E+02  0.21864819667E+02 -0.25080347398E+02  0.43400726774E+02  0.00000000000E+00 0.  1.
         11    1    3    3    0    0 -0.20058218777E+02 -0.14434987932E+02  0.23832752857E+02  0.34332217028E+02  0.51100000000E-03 0. -1.
        -11    1    3    3    0    0 -0.69993961539E+01 -0.88824890121E+01 -0.10880063610E+00  0.11309376438E+02  0.51100000000E-03 0.  1.
         12    1    3    3    0    0 -0.80865356481E+00  0.14526572774E+01  0.13563951777E+01  0.21456797598E+01  0.00000000000E+00 0. -1.
</event>
<event>
 7    1  0.2530788E-009  0.4778727E+02  0.7816164E-02  0.1312668E+00
        -11   -1    0    0    0    0  0.00000000000E+00  0.00000000000E+00  0.45593999997E+02  0.45594000000E+02  0.51100000000E-03 0.  1.
         11   -1    0    0    0    0 -0.00000000000E+00 -0.00000000000E+00 -0.45593999997E+02  0.45594000000E+02  0.51100000000E-03 0. -1.
    9900012    2    1    2    0    0 -0.25458699129E+02 -0.21667396656E+02 -0.27676738530E+02  0.47787270803E+02  0.19999998899E+02 0.  0.
        -12    1    1    2    0    0  0.25458699129E+02  0.21667396656E+02  0.27676738530E+02  0.43400729197E+02  0.00000000000E+00 0.  1.
         11    1    3    3    0    0 -0.10793658329E+02 -0.29172729524E+01 -0.16171941205E+02  0.19660753399E+02  0.51100000000E-03 0. -1.
        -11    1    3    3    0    0 -0.14698933254E+02 -0.19754192361E+02 -0.11338970906E+02  0.27108283164E+02  0.51100000000E-03 0.  1.
         12    1    3    3    0    0  0.33892454875E-01  0.10040686569E+01 -0.16582641872E+00  0.10182342400E+01  0.00000000000E+00 0. -1.
</event>
<event>
 7    1  0.2530788E-009  0.4778727E+02  0.7816164E-02  0.1312668E+00
        -11   -1    0    0    0    0  0.00000000000E+00  0.00000000000E+00  0.45593999997E+02  0.45594000000E+02  0.51100000000E-03 0.  1.
         11   -1    0    0    0    0 -0.00000000000E+00 -0.00000000000E+00 -0.45593999997E+02  0.45594000000E+02  0.51100000000E-03 0. -1.
    9900012    2    1    2    0    0  0.18822296983E+02  0.94069352375E+01 -0.37958585204E+02  0.47787268613E+02  0.19999988913E+02 0.  0.
        -12    1    1    2    0    0 -0.18822296983E+02 -0.94069352375E+01  0.37958585204E+02  0.43400731387E+02  0.00000000000E+00 0.  1.
         11    1    3    3    0    0  0.10153132777E+01  0.13116144491E+01 -0.15709444920E+01  0.22845262908E+01  0.51100000000E-03 0. -1.
        -11    1    3    3    0    0 -0.15391865806E+00  0.72549482846E+01 -0.19612760945E+02  0.20912158132E+02  0.51100000000E-03 0.  1.
        -12    1    3    3    0    0  0.17960902363E+02  0.84037250376E+00 -0.16774879766E+02  0.24590584190E+02  0.00000000000E+00 0.  1.
</event>
<event>
 7    1  0.2530788E-009  0.4778727E+02  0.7816164E-02  0.1312668E+00
        -11   -1    0    0    0    0  0.00000000000E+00  0.00000000000E+00  0.45593999997E+02  0.45594000000E+02  0.51100000000E-03 0.  1.
         11   -1    0    0    0    0 -0.00000000000E+00 -0.00000000000E+00 -0.45593999997E+02  0.45594000000E+02  0.51100000000E-03 0. -1.
    9900012    2    1    2    0    0 -0.37479197732E+02  0.19972682339E+02 -0.89456749165E+01  0.47787269567E+02  0.19999993262E+02 0.  0.
        -12    1    1    2    0    0  0.37479197732E+02 -0.19972682339E+02  0.89456749165E+01  0.43400730433E+02  0.00000000000E+00 0.  1.
         11    1    3    3    0    0 -0.57712663865E+01  0.21682594333E+01 -0.89493608258E+00  0.62297492347E+01  0.51100000000E-03 0.  1.
        -11    1    3    3    0    0 -0.51755221116E+01  0.32087622752E+01 -0.94512103174E+01  0.11243111722E+02  0.51100000000E-03 0. -1.
        -12    1    3    3    0    0 -0.26532409234E+02  0.14595660630E+02  0.14004714835E+01  0.30314408610E+02  0.00000000000E+00 0.  1.
</event>
<event>
 7    1  0.2530788E-009  0.4778728E+02  0.7816164E-02  0.1312668E+00
        -11   -1    0    0    0    0  0.00000000000E+00  0.00000000000E+00  0.45593999997E+02  0.45594000000E+02  0.51100000000E-03 0. -1.
         11   -1    0    0    0    0 -0.00000000000E+00 -0.00000000000E+00 -0.45593999997E+02  0.45594000000E+02  0.51100000000E-03 0.  1.
    9900012    2    1    2    0    0  0.86185590943E+01  0.41463031691E+02  0.94952488013E+01  0.47787282175E+02  0.20000050749E+02 0.  0.
        -12    1    1    2    0    0 -0.86185590943E+01 -0.41463031691E+02 -0.94952488013E+01  0.43400717825E+02  0.00000000000E+00 0.  1.
         11    1    3    3    0    0 -0.25903561412E+01  0.15260802139E+02  0.95545153578E+01  0.18190403813E+02  0.51100000000E-03 0. -1.
        -11    1    3    3    0    0  0.85601566286E+01  0.25395814357E+02 -0.43153287416E+00  0.26803169388E+02  0.51100000000E-03 0.  1.
        -12    1    3    3    0    0  0.26487586068E+01  0.80641519512E+00  0.37226631765E+00  0.27937089747E+01  0.00000000000E+00 0.  1.
</event>
<event>
 7    1  0.2530788E-009  0.4778727E+02  0.7816164E-02  0.1312668E+00
        -11   -1    0    0    0    0  0.00000000000E+00  0.00000000000E+00  0.45593999997E+02  0.45594000000E+02  0.51100000000E-03 0.  1.
         11   -1    0    0    0    0 -0.00000000000E+00 -0.00000000000E+00 -0.45593999997E+02  0.45594000000E+02  0.51100000000E-03 0. -1.
    9900012    2    1    2    0    0 -0.24589235314E+02 -0.48066544251E+01 -0.35438523473E+02  0.47787269982E+02  0.19999995158E+02 0.  0.
        -12    1    1    2    0    0  0.24589235314E+02  0.48066544251E+01  0.35438523473E+02  0.43400730018E+02  0.00000000000E+00 0.  1.
         11    1    3    3    0    0 -0.48919708133E+01 -0.14023700729E+01 -0.28650054038E+01  0.58400579179E+01  0.51100000000E-03 0. -1.
        -11    1    3    3    0    0  0.15142189650E+01  0.94716384503E+00  0.96198528780E+00  0.20286434823E+01  0.51100000000E-03 0.  1.
        -12    1    3    3    0    0 -0.21211483466E+02 -0.43514481972E+01 -0.33535503357E+02  0.39918568582E+02  0.00000000000E+00 0.  1.
</event>
<event>
 7    1  0.2530788E-009  0.4778726E+02  0.7816164E-02  0.1312668E+00
        -11   -1    0    0    0    0  0.00000000000E+00  0.00000000000E+00  0.45593999997E+02  0.45594000000E+02  0.51100000000E-03 0.  1.
         11   -1    0    0    0    0 -0.00000000000E+00 -0.00000000000E+00 -0.45593999997E+02  0.45594000000E+02  0.51100000000E-03 0. -1.
    9900012    2    1    2    0    0  0.33773419003E+02  0.19809229077E+02  0.18723633042E+02  0.47787264729E+02  0.19999971205E+02 0.  0.
        -12    1    1    2    0    0 -0.33773419003E+02 -0.19809229077E+02 -0.18723633042E+02  0.43400735271E+02  0.00000000000E+00 0.  1.
         11    1    3    3    0    0  0.10258828485E+02  0.18089351595E+01  0.70218576998E+01  0.12562734341E+02  0.51100000000E-03 0. -1.
        -11    1    3    3    0    0  0.15703949419E+02  0.16197343890E+02  0.14402638728E+02  0.26765723959E+02  0.51100000000E-03 0.  1.
        -12    1    3    3    0    0  0.78106410986E+01  0.18029500274E+01 -0.27008633859E+01  0.84588064289E+01  0.00000000000E+00 0.  1.
</event>
<event>
 7    1  0.2530788E-009  0.4778727E+02  0.7816164E-02  0.1312668E+00
        -11   -1    0    0    0    0  0.00000000000E+00  0.00000000000E+00  0.45593999997E+02  0.45594000000E+02  0.51100000000E-03 0.  1.
         11   -1    0    0    0    0 -0.00000000000E+00 -0.00000000000E+00 -0.45593999997E+02  0.45594000000E+02  0.51100000000E-03 0. -1.
    9900012    2    1    2    0    0  0.29432470158E+02  0.31330691905E+02  0.59783660958E+01  0.47787269407E+02  0.19999992535E+02 0.  0.
        -12    1    1    2    0    0 -0.29432470158E+02 -0.31330691905E+02 -0.59783660958E+01  0.43400730593E+02  0.00000000000E+00 0.  1.
         11    1    3    3    0    0  0.23144907834E+02  0.20923540686E+02  0.89578836725E+01  0.32461130505E+02  0.51100000000E-03 0. -1.
        -11    1    3    3    0    0  0.36932757985E+01 -0.29877707302E+00 -0.21388298615E+01  0.42783346410E+01  0.51100000000E-03 0.  1.
         12    1    3    3    0    0  0.25942865246E+01  0.10705928292E+02 -0.84068771523E+00  0.11047804262E+02  0.00000000000E+00 0. -1.
</event>
<event>
 7    1  0.2530788E-009  0.4778727E+02  0.7816164E-02  0.1312668E+00
        -11   -1    0    0    0    0  0.00000000000E+00  0.00000000000E+00  0.45593999997E+02  0.45594000000E+02  0.51100000000E-03 0.  1.
         11   -1    0    0    0    0 -0.00000000000E+00 -0.00000000000E+00 -0.45593999997E+02  0.45594000000E+02  0.51100000000E-03 0. -1.
    9900012    2    1    2    0    0  0.39291235949E+02  0.63723166270E+01 -0.17297851731E+02  0.47787270558E+02  0.19999997782E+02 0.  0.
        -12    1    1    2    0    0 -0.39291235949E+02 -0.63723166270E+01  0.17297851731E+02  0.43400729442E+02  0.00000000000E+00 0.  1.
         11    1    3    3    0    0  0.38062802871E+01  0.61739092103E+01 -0.72210352098E+01  0.10234660440E+02  0.51100000000E-03 0. -1.
        -11    1    3    3    0    0  0.30373657045E+02  0.24574426060E+01 -0.74113602750E+01  0.31361223315E+02  0.51100000000E-03 0.  1.
         12    1    3    3    0    0  0.51112986166E+01 -0.22590351893E+01 -0.26654562466E+01  0.61913868024E+01  0.00000000000E+00 0. -1.
</event>
<event>
 7    1  0.2530788E-009  0.4778727E+02  0.7816164E-02  0.1312668E+00
        -11   -1    0    0    0    0  0.00000000000E+00  0.00000000000E+00  0.45593999997E+02  0.45594000000E+02  0.51100000000E-03 0.  1.
         11   -1    0    0    0    0 -0.00000000000E+00 -0.00000000000E+00 -0.45593999997E+02  0.45594000000E+02  0.51100000000E-03 0. -1.
    9900012    2    1    2    0    0  0.35961670184E+02  0.19321509879E+02 -0.14732982061E+02  0.47787271586E+02  0.20000002470E+02 0.  0.
        -12    1    1    2    0    0 -0.35961670184E+02 -0.19321509879E+02  0.14732982061E+02  0.43400728414E+02  0.00000000000E+00 0.  1.
         11    1    3    3    0    0  0.31986597873E+02  0.16681771666E+02 -0.15284702526E+02  0.39179664125E+02  0.51100000000E-03 0. -1.
        -11    1    3    3    0    0  0.41153280992E+01  0.93466299251E+00  0.33089588580E+01  0.53627165932E+01  0.51100000000E-03 0.  1.
         12    1    3    3    0    0 -0.14025578742E+00  0.17050752204E+01 -0.27572383922E+01  0.32448908679E+01  0.00000000000E+00 0. -1.
</event>
<event>
 7    1  0.2530788E-009  0.4778727E+02  0.7816164E-02  0.1312668E+00
        -11   -1    0    0    0    0  0.00000000000E+00  0.00000000000E+00  0.45593999997E+02  0.45594000000E+02  0.51100000000E-03 0.  1.
         11   -1    0    0    0    0 -0.00000000000E+00 -0.00000000000E+00 -0.45593999997E+02  0.45594000000E+02  0.51100000000E-03 0. -1.
    9900012    2    1    2    0    0 -0.41905442447E+02 -0.95824708264E+01 -0.59777357700E+01  0.47787272140E+02  0.20000004995E+02 0.  0.
        -12    1    1    2    0    0  0.41905442447E+02  0.95824708264E+01  0.59777357700E+01  0.43400727860E+02  0.00000000000E+00 0.  1.
         11    1    3    3    0    0 -0.25685395415E+02 -0.10870397298E+02 -0.10646011315E+01  0.27911260288E+02  0.51100000000E-03 0. -1.
        -11    1    3    3    0    0 -0.14577325478E+01  0.24761900790E+01 -0.41482218506E+01  0.50462110807E+01  0.51100000000E-03 0.  1.
        -12    1    3    3    0    0 -0.14762314484E+02 -0.11882636072E+01 -0.76491278799E+00  0.14829800771E+02  0.00000000000E+00 0.  1.
</event>
<event>
 7    1  0.1267545E-008  0.4778728E+02  0.7816164E-02  0.1312668E+00
        -11   -1    0    0    0    0  0.00000000000E+00  0.00000000000E+00  0.45593999997E+02  0.45594000000E+02  0.51100000000E-03 0.  1.
         11   -1    0    0    0    0 -0.00000000000E+00 -0.00000000000E+00 -0.45593999997E+02  0.45594000000E+02  0.51100000000E-03 0. -1.
    9900012    2    1    2    0    0  0.59473261456E+01 -0.16735666352E+02 -0.39600120766E+02  0.47787276720E+02  0.20000025876E+02 0.  0.
        -12    1    1    2    0    0 -0.59473261456E+01  0.16735666352E+02  0.39600120766E+02  0.43400723280E+02  0.00000000000E+00 0.  1.
         11    1    3    3    0    0  0.21567818720E+01 -0.16595187069E+01 -0.14484442857E+02  0.14737869437E+02  0.51100000000E-03 0. -1.
        -11    1    3    3    0    0 -0.39049616153E+01 -0.19425778203E+00 -0.17147364540E+01  0.42692836250E+01  0.51100000000E-03 0.  1.
        -12    1    3    3    0    0  0.76955058889E+01 -0.14881889863E+02 -0.23400941455E+02  0.28780123658E+02  0.00000000000E+00 0.  1.
</event>
<event>
 7    1  0.2530788E-009  0.4778727E+02  0.7816164E-02  0.1312668E+00
        -11   -1    0    0    0    0  0.00000000000E+00  0.00000000000E+00  0.45593999997E+02  0.45594000000E+02  0.51100000000E-03 0. -1.
         11   -1    0    0    0    0 -0.00000000000E+00 -0.00000000000E+00 -0.45593999997E+02  0.45594000000E+02  0.51100000000E-03 0.  1.
    9900012    2    1    2    0    0  0.20605973989E+02  0.27351583973E+02  0.26662859634E+02  0.47787269664E+02  0.19999993704E+02 0.  0.
        -12    1    1    2    0    0 -0.20605973989E+02 -0.27351583973E+02 -0.26662859634E+02  0.43400730336E+02  0.00000000000E+00 0.  1.
         11    1    3    3    0    0  0.92530756582E+01  0.44025283770E+01  0.10095491223E+02  0.14384735262E+02  0.51100000000E-03 0. -1.
        -11    1    3    3    0    0  0.10680028676E+02  0.19790518603E+02  0.73867515174E+01  0.23670482406E+02  0.51100000000E-03 0.  1.
        -12    1    3    3    0    0  0.67286965533E+00  0.31585369929E+01  0.91806168938E+01  0.97320519963E+01  0.00000000000E+00 0.  1.
</event>
<event>
 7    1  0.2530788E-009  0.4778727E+02  0.7816164E-02  0.1312668E+00
        -11   -1    0    0    0    0  0.00000000000E+00  0.00000000000E+00  0.45593999997E+02  0.45594000000E+02  0.51100000000E-03 0.  1.
         11   -1    0    0    0    0 -0.00000000000E+00 -0.00000000000E+00 -0.45593999997E+02  0.45594000000E+02  0.51100000000E-03 0. -1.
    9900012    2    1    2    0    0  0.14536616657E+02  0.49340701446E+01 -0.40595135378E+02  0.47787270877E+02  0.19999999239E+02 0.  0.
        -12    1    1    2    0    0 -0.14536616657E+02 -0.49340701446E+01  0.40595135378E+02  0.43400729123E+02  0.00000000000E+00 0.  1.
         11    1    3    3    0    0  0.65581470807E+01  0.11830552188E+01 -0.32713945953E+02  0.33385792979E+02  0.51100000000E-03 0. -1.
        -11    1    3    3    0    0  0.22985663037E+01  0.11444178436E+01  0.16150208359E+01  0.30333796028E+01  0.51100000000E-03 0.  1.
        -12    1    3    3    0    0  0.56799032729E+01  0.26065970822E+01 -0.94962102606E+01  0.11368098295E+02  0.00000000000E+00 0.  1.
</event>
<event>
 7    1  0.2530788E-009  0.4778728E+02  0.7816164E-02  0.1312668E+00
        -11   -1    0    0    0    0  0.00000000000E+00  0.00000000000E+00  0.45593999997E+02  0.45594000000E+02  0.51100000000E-03 0.  1.
         11   -1    0    0    0    0 -0.00000000000E+00 -0.00000000000E+00 -0.45593999997E+02  0.45594000000E+02  0.51100000000E-03 0. -1.
    9900012    2    1    2    0    0 -0.36227981447E+02  0.17626117120E+02  0.16139263419E+02  0.47787280327E+02  0.20000042321E+02 0.  0.
        -12    1    1    2    0    0  0.36227981447E+02 -0.17626117120E+02 -0.16139263419E+02  0.43400719673E+02  0.00000000000E+00 0.  1.
         11    1    3    3    0    0 -0.16907399037E+02  0.14665298516E+02  0.30553573547E+01  0.22589075492E+02  0.51100000000E-03 0. -1.
        -11    1    3    3    0    0  0.48770614731E+00 -0.52705624738E+00 -0.54588375050E+00  0.90201713077E+00  0.51100000000E-03 0.  1.
         12    1    3    3    0    0 -0.19808288557E+02  0.34878748513E+01  0.13629789815E+02  0.24296187704E+02  0.00000000000E+00 0. -1.
</event>
<event>
 7    1  0.2530788E-009  0.4778727E+02  0.7816164E-02  0.1312668E+00
        -11   -1    0    0    0    0  0.00000000000E+00  0.00000000000E+00  0.45593999997E+02  0.45594000000E+02  0.51100000000E-03 0. -1.
         11   -1    0    0    0    0 -0.00000000000E+00 -0.00000000000E+00 -0.45593999997E+02  0.45594000000E+02  0.51100000000E-03 0.  1.
    9900012    2    1    2    0    0 -0.12645036055E+01  0.41513641653E+02  0.12595312099E+02  0.47787270749E+02  0.19999998651E+02 0.  0.
        -12    1    1    2    0    0  0.12645036055E+01 -0.41513641653E+02 -0.12595312099E+02  0.43400729251E+02  0.00000000000E+00 0.  1.
         11    1    3    3    0    0 -0.18357660232E+01  0.92400983002E+01 -0.27207329214E+01  0.98057045326E+01  0.51100000000E-03 0.  1.
        -11    1    3    3    0    0  0.58918627902E+01  0.25333882749E+02  0.11285852150E+02  0.28352956129E+02  0.51100000000E-03 0. -1.
        -12    1    3    3    0    0 -0.53206003725E+01  0.69396606043E+01  0.40301928704E+01  0.96286100866E+01  0.00000000000E+00 0.  1.
</event>
<event>
 7    1  0.2530788E-009  0.4778727E+02  0.7816164E-02  0.1312668E+00
        -11   -1    0    0    0    0  0.00000000000E+00  0.00000000000E+00  0.45593999997E+02  0.45594000000E+02  0.51100000000E-03 0.  1.
         11   -1    0    0    0    0 -0.00000000000E+00 -0.00000000000E+00 -0.45593999997E+02  0.45594000000E+02  0.51100000000E-03 0. -1.
    9900012    2    1    2    0    0 -0.30306081939E+02 -0.28241649343E+02 -0.12945022827E+02  0.47787274475E+02  0.20000015640E+02 0.  0.
        -12    1    1    2    0    0  0.30306081939E+02  0.28241649343E+02  0.12945022827E+02  0.43400725525E+02  0.00000000000E+00 0.  1.
         11    1    3    3    0    0 -0.38465804406E+01 -0.27899181077E+01 -0.92571189900E+01  0.10405482996E+02  0.51100000000E-03 0. -1.
        -11    1    3    3    0    0 -0.75128179649E+00 -0.49747047817E+00  0.88548809540E+00  0.12633252323E+01  0.51100000000E-03 0.  1.
         12    1    3    3    0    0 -0.25708219702E+02 -0.24954260758E+02 -0.45733919325E+01  0.36118466246E+02  0.00000000000E+00 0. -1.
</event>
<event>
 7    1  0.2530788E-009  0.4778725E+02  0.7816164E-02  0.1312668E+00
        -11   -1    0    0    0    0  0.00000000000E+00  0.00000000000E+00  0.45593999997E+02  0.45594000000E+02  0.51100000000E-03 0. -1.
         11   -1    0    0    0    0 -0.00000000000E+00 -0.00000000000E+00 -0.45593999997E+02  0.45594000000E+02  0.51100000000E-03 0.  1.
    9900012    2    1    2    0    0  0.29423482700E+02  0.98534435477E+01  0.30344583970E+02  0.47787245856E+02  0.19999885156E+02 0.  0.
        -12    1    1    2    0    0 -0.29423482700E+02 -0.98534435477E+01 -0.30344583970E+02  0.43400754144E+02  0.00000000000E+00 0.  1.
         11    1    3    3    0    0  0.22277060731E+02  0.48759374446E+01  0.22937088707E+02  0.32344276764E+02  0.51100000000E-03 0. -1.
        -11    1    3    3    0    0  0.65091690689E+01 -0.13307286962E+01  0.59915617454E+01  0.89464480796E+01  0.51100000000E-03 0.  1.
         12    1    3    3    0    0  0.63725290073E+00  0.63082347994E+01  0.14159335174E+01  0.64965210128E+01  0.00000000000E+00 0. -1.
</event>
<event>
 7    1  0.2530788E-009  0.4778727E+02  0.7816164E-02  0.1312668E+00
        -11   -1    0    0    0    0  0.00000000000E+00  0.00000000000E+00  0.45593999997E+02  0.45594000000E+02  0.51100000000E-03 0. -1.
         11   -1    0    0    0    0 -0.00000000000E+00 -0.00000000000E+00 -0.45593999997E+02  0.45594000000E+02  0.51100000000E-03 0.  1.
    9900012    2    1    2    0    0 -0.19147993773E+02  0.10797627198E+02  0.37421766529E+02  0.47787273868E+02  0.20000012874E+02 0.  0.
        -12    1    1    2    0    0  0.19147993773E+02 -0.10797627198E+02 -0.37421766529E+02  0.43400726132E+02  0.00000000000E+00 0.  1.
         11    1    3    3    0    0 -0.15395308820E+02  0.28273176468E+01  0.16087153586E+02  0.22445618047E+02  0.51100000000E-03 0. -1.
        -11    1    3    3    0    0 -0.22633305837E+01  0.80238780468E+01  0.68767152807E+01  0.10807150298E+02  0.51100000000E-03 0.  1.
         12    1    3    3    0    0 -0.14893543696E+01 -0.53568495207E-01  0.14457897662E+02  0.14534505524E+02  0.00000000000E+00 0. -1.
</event>
<event>
 7    1  0.2530788E-009  0.4778727E+02  0.7816164E-02  0.1312668E+00
        -11   -1    0    0    0    0  0.00000000000E+00  0.00000000000E+00  0.45593999997E+02  0.45594000000E+02  0.51100000000E-03 0.  1.
         11   -1    0    0    0    0 -0.00000000000E+00 -0.00000000000E+00 -0.45593999997E+02  0.45594000000E+02  0.51100000000E-03 0. -1.
    9900012    2    1    2    0    0  0.90551536514E+01  0.19347222266E+02 -0.37779789763E+02  0.47787270380E+02  0.19999996969E+02 0.  0.
        -12    1    1    2    0    0 -0.90551536514E+01 -0.19347222266E+02  0.37779789763E+02  0.43400729620E+02  0.00000000000E+00 0.  1.
         11    1    3    3    0    0  0.10332389461E+02  0.21769953578E+02 -0.32233199284E+02  0.40245102647E+02  0.51100000000E-03 0. -1.
        -11    1    3    3    0    0  0.15161268811E+01 -0.29297606950E+00 -0.22205238313E+01  0.27046630184E+01  0.51100000000E-03 0.  1.
         12    1    3    3    0    0 -0.27933626908E+01 -0.21297552423E+01 -0.33260666478E+01  0.48375047142E+01  0.00000000000E+00 0. -1.
</event>
<event>
 7    1  0.2530788E-009  0.4778727E+02  0.7816164E-02  0.1312668E+00
        -11   -1    0    0    0    0  0.00000000000E+00  0.00000000000E+00  0.45593999997E+02  0.45594000000E+02  0.51100000000E-03 0. -1.
         11   -1    0    0    0    0 -0.00000000000E+00 -0.00000000000E+00 -0.45593999997E+02  0.45594000000E+02  0.51100000000E-03 0.  1.
    9900012    2    1    2    0    0 -0.16429533111E+02  0.11434243594E+02  0.38509118857E+02  0.47787265906E+02  0.19999976570E+02 0.  0.
        -12    1    1    2    0    0  0.16429533111E+02 -0.11434243594E+02 -0.38509118857E+02  0.43400734094E+02  0.00000000000E+00 0.  1.
         11    1    3    3    0    0 -0.63085758942E+00 -0.46806428294E+01  0.76603339985E+01  0.89992841840E+01  0.51100000000E-03 0. -1.
        -11    1    3    3    0    0 -0.60715758879E+01  0.68368793170E+01  0.74148431124E+01  0.11772291672E+02  0.51100000000E-03 0.  1.
         12    1    3    3    0    0 -0.97270996340E+01  0.92780071061E+01  0.23433941746E+02  0.27015690050E+02  0.00000000000E+00 0. -1.
</event>
<event>
 7    1  0.2826761E-009  0.4778729E+02  0.7816164E-02  0.1312668E+00
        -11   -1    0    0    0    0  0.00000000000E+00  0.00000000000E+00  0.45593999997E+02  0.45594000000E+02  0.51100000000E-03 0.  1.
         11   -1    0    0    0    0 -0.00000000000E+00 -0.00000000000E+00 -0.45593999997E+02  0.45594000000E+02  0.51100000000E-03 0. -1.
    9900012    2    1    2    0    0 -0.23526538354E+02  0.17926423044E+02 -0.31761094426E+02  0.47787288379E+02  0.20000079034E+02 0.  0.
        -12    1    1    2    0    0  0.23526538354E+02 -0.17926423044E+02  0.31761094426E+02  0.43400711621E+02  0.00000000000E+00 0.  1.
         11    1    3    3    0    0 -0.80716702696E+01  0.98896258054E+01 -0.18642590302E+02  0.22594307534E+02  0.51100000000E-03 0. -1.
        -11    1    3    3    0    0 -0.10024351892E+02 -0.14686996383E+01 -0.88174241206E+01  0.13430996905E+02  0.51100000000E-03 0.  1.
        -12    1    3    3    0    0 -0.54305161925E+01  0.95054968770E+01 -0.43010800036E+01  0.11761983940E+02  0.00000000000E+00 0.  1.
</event>
<event>
 7    1  0.2530788E-009  0.4778727E+02  0.7816164E-02  0.1312668E+00
        -11   -1    0    0    0    0  0.00000000000E+00  0.00000000000E+00  0.45593999997E+02  0.45594000000E+02  0.51100000000E-03 0. -1.
         11   -1    0    0    0    0 -0.00000000000E+00 -0.00000000000E+00 -0.45593999997E+02  0.45594000000E+02  0.51100000000E-03 0.  1.
    9900012    2    1    2    0    0 -0.91051648782E+01 -0.18048747819E+02  0.38405230338E+02  0.47787273708E+02  0.20000012146E+02 0.  0.
        -12    1    1    2    0    0  0.91051648782E+01  0.18048747819E+02 -0.38405230338E+02  0.43400726292E+02  0.00000000000E+00 0.  1.
         11    1    3    3    0    0 -0.12117074260E+01 -0.10888431186E+02  0.23575334350E+02  0.25996587441E+02  0.51100000000E-03 0. -1.
        -11    1    3    3    0    0 -0.69248045296E+01 -0.76487655293E+01  0.42556903738E+01  0.11160978125E+02  0.51100000000E-03 0.  1.
         12    1    3    3    0    0 -0.96865292253E+00  0.48844889647E+00  0.10574205615E+02  0.10629708142E+02  0.00000000000E+00 0. -1.
</event>
<event>
 7    1  0.2530788E-009  0.4778730E+02  0.7816164E-02  0.1312668E+00
        -11   -1    0    0    0    0  0.00000000000E+00  0.00000000000E+00  0.45593999997E+02  0.45594000000E+02  0.51100000000E-03 0.  1.
         11   -1    0    0    0    0 -0.00000000000E+00 -0.00000000000E+00 -0.45593999997E+02  0.45594000000E+02  0.51100000000E-03 0. -1.
    9900012    2    1    2    0    0  0.13098169362E+02  0.21979903826E+02 -0.35056276239E+02  0.47787300505E+02  0.20000134323E+02 0.  0.
        -12    1    1    2    0    0 -0.13098169362E+02 -0.21979903826E+02  0.35056276239E+02  0.43400699495E+02  0.00000000000E+00 0.  1.
         11    1    3    3    0    0  0.13257003602E+02  0.16307861585E+02 -0.34880027732E+02  0.40722362761E+02  0.51100000000E-03 0. -1.
        -11    1    3    3    0    0 -0.17417348970E+01  0.76404387140E+00 -0.15106218598E+00  0.19079369838E+01  0.51100000000E-03 0.  1.
         12    1    3    3    0    0  0.15829006578E+01  0.49079983703E+01 -0.25186321314E-01  0.51570007608E+01  0.00000000000E+00 0. -1.
</event>
<event>
 7    1  0.2530788E-009  0.4778727E+02  0.7816164E-02  0.1312668E+00
        -11   -1    0    0    0    0  0.00000000000E+00  0.00000000000E+00  0.45593999997E+02  0.45594000000E+02  0.51100000000E-03 0. -1.
         11   -1    0    0    0    0 -0.00000000000E+00 -0.00000000000E+00 -0.45593999997E+02  0.45594000000E+02  0.51100000000E-03 0.  1.
    9900012    2    1    2    0    0 -0.42272227351E+02 -0.46595622478E+01 -0.86585522784E+01  0.47787271284E+02  0.20000001091E+02 0.  0.
        -12    1    1    2    0    0  0.42272227351E+02  0.46595622478E+01  0.86585522784E+01  0.43400728716E+02  0.00000000000E+00 0.  1.
         11    1    3    3    0    0 -0.12374031716E+02  0.64877246661E+01 -0.54526214352E+01  0.14997943627E+02  0.51100000000E-03 0. -1.
        -11    1    3    3    0    0 -0.21819562344E+02 -0.50022148250E+01 -0.10346463749E+01  0.22409505738E+02  0.51100000000E-03 0.  1.
        -12    1    3    3    0    0 -0.80786332912E+01 -0.61450720889E+01 -0.21712844684E+01  0.10379821919E+02  0.00000000000E+00 0.  1.
</event>
<event>
 7    1  0.2530788E-009  0.4778727E+02  0.7816164E-02  0.1312668E+00
        -11   -1    0    0    0    0  0.00000000000E+00  0.00000000000E+00  0.45593999997E+02  0.45594000000E+02  0.51100000000E-03 0.  1.
         11   -1    0    0    0    0 -0.00000000000E+00 -0.00000000000E+00 -0.45593999997E+02  0.45594000000E+02  0.51100000000E-03 0. -1.
    9900012    2    1    2    0    0  0.17663609651E+02 -0.32941995107E+02 -0.22055512374E+02  0.47787265287E+02  0.19999973750E+02 0.  0.
        -12    1    1    2    0    0 -0.17663609651E+02  0.32941995107E+02  0.22055512374E+02  0.43400734713E+02  0.00000000000E+00 0.  1.
         11    1    3    3    0    0 -0.19847762844E+01 -0.10382920330E+02 -0.46464556095E+01  0.11547030851E+02  0.51100000000E-03 0. -1.
        -11    1    3    3    0    0  0.19339726709E+02 -0.22755906056E+02 -0.14302531120E+02  0.33112213553E+02  0.51100000000E-03 0.  1.
         12    1    3    3    0    0  0.30865922549E+00  0.19683127911E+00 -0.31065256441E+01  0.31280208834E+01  0.00000000000E+00 0. -1.
</event>
<event>
 7    1  0.2530788E-009  0.4778727E+02  0.7816164E-02  0.1312668E+00
        -11   -1    0    0    0    0  0.00000000000E+00  0.00000000000E+00  0.45593999997E+02  0.45594000000E+02  0.51100000000E-03 0.  1.
         11   -1    0    0    0    0 -0.00000000000E+00 -0.00000000000E+00 -0.45593999997E+02  0.45594000000E+02  0.51100000000E-03 0. -1.
    9900012    2    1    2    0    0 -0.28474498972E+02 -0.25630667108E+02 -0.20393507664E+02  0.47787270248E+02  0.19999996371E+02 0.  0.
        -12    1    1    2    0    0  0.28474498972E+02  0.25630667108E+02  0.20393507664E+02  0.43400729752E+02  0.00000000000E+00 0.  1.
         11    1    3    3    0    0 -0.15963832307E+02 -0.98733288767E+01 -0.11689053742E+02  0.22112452209E+02  0.51100000000E-03 0. -1.
        -11    1    3    3    0    0  0.23420528903E+01 -0.49873015662E+01 -0.36530037773E+00  0.55219410790E+01  0.51100000000E-03 0.  1.
        -12    1    3    3    0    0 -0.14852719556E+02 -0.10770036665E+02 -0.83391535438E+01  0.20152876961E+02  0.00000000000E+00 0.  1.
</event>
<event>
 7    1  0.2530788E-009  0.4778727E+02  0.7816164E-02  0.1312668E+00
        -11   -1    0    0    0    0  0.00000000000E+00  0.00000000000E+00  0.45593999997E+02  0.45594000000E+02  0.51100000000E-03 0.  1.
         11   -1    0    0    0    0 -0.00000000000E+00 -0.00000000000E+00 -0.45593999997E+02  0.45594000000E+02  0.51100000000E-03 0. -1.
    9900012    2    1    2    0    0  0.42483588297E+02 -0.71446441677E+01  0.52651829927E+01  0.47787269973E+02  0.19999995117E+02 0.  0.
        -12    1    1    2    0    0 -0.42483588297E+02  0.71446441677E+01 -0.52651829927E+01  0.43400730027E+02  0.00000000000E+00 0.  1.
         11    1    3    3    0    0  0.14099617011E+02 -0.71238857580E+01  0.25177475177E+01  0.15996499647E+02  0.51100000000E-03 0. -1.
        -11    1    3    3    0    0  0.11207622179E+02  0.66679586434E+01 -0.60695532847E+00  0.13055300165E+02  0.51100000000E-03 0.  1.
        -12    1    3    3    0    0  0.17176349108E+02 -0.66887170531E+01  0.33543908035E+01  0.18735470161E+02  0.00000000000E+00 0.  1.
</event>
<event>
 7    1  0.2530788E-009  0.4778727E+02  0.7816164E-02  0.1312668E+00
        -11   -1    0    0    0    0  0.00000000000E+00  0.00000000000E+00  0.45593999997E+02  0.45594000000E+02  0.51100000000E-03 0.  1.
         11   -1    0    0    0    0 -0.00000000000E+00 -0.00000000000E+00 -0.45593999997E+02  0.45594000000E+02  0.51100000000E-03 0. -1.
    9900012    2    1    2    0    0 -0.93532274901E+01  0.18447253250E+02 -0.38155462648E+02  0.47787270204E+02  0.19999996169E+02 0.  0.
        -12    1    1    2    0    0  0.93532274901E+01 -0.18447253250E+02  0.38155462648E+02  0.43400729796E+02  0.00000000000E+00 0.  1.
         11    1    3    3    0    0 -0.12096390238E+02  0.50511378722E+01 -0.10825384571E+02  0.17000752982E+02  0.51100000000E-03 0. -1.
        -11    1    3    3    0    0  0.11542844504E+01  0.10967315125E+02 -0.23689856490E+02  0.26130895017E+02  0.51100000000E-03 0.  1.
         12    1    3    3    0    0  0.15888782971E+01  0.24288002520E+01 -0.36402215871E+01  0.46556222045E+01  0.00000000000E+00 0. -1.
</event>
<event>
 7    1  0.2530788E-009  0.4778727E+02  0.7816164E-02  0.1312668E+00
        -11   -1    0    0    0    0  0.00000000000E+00  0.00000000000E+00  0.45593999997E+02  0.45594000000E+02  0.51100000000E-03 0.  1.
         11   -1    0    0    0    0 -0.00000000000E+00 -0.00000000000E+00 -0.45593999997E+02  0.45594000000E+02  0.51100000000E-03 0. -1.
    9900012    2    1    2    0    0  0.25448252170E+02  0.15071044352E+02  0.31762772690E+02  0.47787266765E+02  0.19999980489E+02 0.  0.
        -12    1    1    2    0    0 -0.25448252170E+02 -0.15071044352E+02 -0.31762772690E+02  0.43400733235E+02  0.00000000000E+00 0.  1.
         11    1    3    3    0    0  0.21716571332E+02  0.13965540039E+02  0.21509844816E+02  0.33605344862E+02  0.51100000000E-03 0. -1.
        -11    1    3    3    0    0  0.56922706857E+01  0.34132023765E+01  0.80713311717E+01  0.10449798236E+02  0.51100000000E-03 0.  1.
         12    1    3    3    0    0 -0.19605898474E+01 -0.23076980636E+01  0.21815967016E+01  0.37321236676E+01  0.00000000000E+00 0. -1.
</event>
<event>
 7    1  0.2530788E-009  0.4778727E+02  0.7816164E-02  0.1312668E+00
        -11   -1    0    0    0    0  0.00000000000E+00  0.00000000000E+00  0.45593999997E+02  0.45594000000E+02  0.51100000000E-03 0. -1.
         11   -1    0    0    0    0 -0.00000000000E+00 -0.00000000000E+00 -0.45593999997E+02  0.45594000000E+02  0.51100000000E-03 0.  1.
    9900012    2    1    2    0    0 -0.21107195931E+02  0.10552956229E+02  0.36424513055E+02  0.47787265484E+02  0.19999974647E+02 0.  0.
        -12    1    1    2    0    0  0.21107195931E+02 -0.10552956229E+02 -0.36424513055E+02  0.43400734516E+02  0.00000000000E+00 0.  1.
         11    1    3    3    0    0 -0.16833510175E+02  0.17868193765E+01  0.30395776324E+02  0.34791708881E+02  0.51100000000E-03 0. -1.
        -11    1    3    3    0    0 -0.33280677292E+01  0.77582354011E+01  0.72677642421E+01  0.11139418687E+02  0.51100000000E-03 0.  1.
         12    1    3    3    0    0 -0.94561802682E+00  0.10079014517E+01 -0.12390275108E+01  0.18561379156E+01  0.00000000000E+00 0. -1.
</event>
<event>
 7    1  0.2530788E-009  0.4778727E+02  0.7816164E-02  0.1312668E+00
        -11   -1    0    0    0    0  0.00000000000E+00  0.00000000000E+00  0.45593999997E+02  0.45594000000E+02  0.51100000000E-03 0.  1.
         11   -1    0    0    0    0 -0.00000000000E+00 -0.00000000000E+00 -0.45593999997E+02  0.45594000000E+02  0.51100000000E-03 0. -1.
    9900012    2    1    2    0    0  0.12489675481E+01 -0.40798696940E+02 -0.14748884217E+02  0.47787272153E+02  0.20000005057E+02 0.  0.
        -12    1    1    2    0    0 -0.12489675481E+01  0.40798696940E+02  0.14748884217E+02  0.43400727847E+02  0.00000000000E+00 0.  1.
         11    1    3    3    0    0 -0.28050269476E+01 -0.92671730070E-01  0.38652675270E+00  0.28330491380E+01  0.51100000000E-03 0.  1.
        -11    1    3    3    0    0  0.35006000462E+01 -0.31156654042E+02 -0.63977649390E+01  0.31998791981E+02  0.51100000000E-03 0. -1.
         12    1    3    3    0    0  0.55339444952E+00 -0.95493711680E+01 -0.87376460310E+01  0.12955431034E+02  0.00000000000E+00 0. -1.
</event>
<event>
 7    1  0.2530788E-009  0.4778727E+02  0.7816164E-02  0.1312668E+00
        -11   -1    0    0    0    0  0.00000000000E+00  0.00000000000E+00  0.45593999997E+02  0.45594000000E+02  0.51100000000E-03 0. -1.
         11   -1    0    0    0    0 -0.00000000000E+00 -0.00000000000E+00 -0.45593999997E+02  0.45594000000E+02  0.51100000000E-03 0.  1.
    9900012    2    1    2    0    0 -0.30783181984E+02  0.29059606279E+02  0.95686188935E+01  0.47787268697E+02  0.19999989295E+02 0.  0.
        -12    1    1    2    0    0  0.30783181984E+02 -0.29059606279E+02 -0.95686188935E+01  0.43400731303E+02  0.00000000000E+00 0.  1.
         11    1    3    3    0    0 -0.18175577096E+02  0.21200145247E+02  0.97672713521E+01  0.29583734572E+02  0.51100000000E-03 0. -1.
        -11    1    3    3    0    0  0.14915864769E+01  0.77582211801E+00 -0.16533013681E+01  0.23579940313E+01  0.51100000000E-03 0.  1.
         12    1    3    3    0    0 -0.14099191365E+02  0.70836389133E+01  0.14546489095E+01  0.15845540093E+02  0.00000000000E+00 0. -1.
</event>
<event>
 7    1  0.2530788E-009  0.4778727E+02  0.7816164E-02  0.1312668E+00
        -11   -1    0    0    0    0  0.00000000000E+00  0.00000000000E+00  0.45593999997E+02  0.45594000000E+02  0.51100000000E-03 0.  1.
         11   -1    0    0    0    0 -0.00000000000E+00 -0.00000000000E+00 -0.45593999997E+02  0.45594000000E+02  0.51100000000E-03 0. -1.
    9900012    2    1    2    0    0 -0.34730094943E+02 -0.12305769332E+02 -0.22934947629E+02  0.47787271016E+02  0.19999999869E+02 0.  0.
        -12    1    1    2    0    0  0.34730094943E+02  0.12305769332E+02  0.22934947629E+02  0.43400728984E+02  0.00000000000E+00 0.  1.
         11    1    3    3    0    0 -0.35372784309E+01  0.91419917805E+00  0.21738537823E+01  0.42513220724E+01  0.51100000000E-03 0. -1.
        -11    1    3    3    0    0 -0.12741396991E+02 -0.83662966547E+01 -0.16921167643E+02  0.22774196619E+02  0.51100000000E-03 0.  1.
         12    1    3    3    0    0 -0.18451419522E+02 -0.48536718549E+01 -0.81876337691E+01  0.20761752324E+02  0.00000000000E+00 0. -1.
</event>
<event>
 7    1  0.2530788E-009  0.4778727E+02  0.7816164E-02  0.1312668E+00
        -11   -1    0    0    0    0  0.00000000000E+00  0.00000000000E+00  0.45593999997E+02  0.45594000000E+02  0.51100000000E-03 0.  1.
         11   -1    0    0    0    0 -0.00000000000E+00 -0.00000000000E+00 -0.45593999997E+02  0.45594000000E+02  0.51100000000E-03 0. -1.
    9900012    2    1    2    0    0 -0.37180443006E+02  0.18864013598E+02 -0.12057650991E+02  0.47787270760E+02  0.19999998701E+02 0.  0.
        -12    1    1    2    0    0  0.37180443006E+02 -0.18864013598E+02  0.12057650991E+02  0.43400729240E+02  0.00000000000E+00 0.  1.
         11    1    3    3    0    0 -0.64964383840E+01  0.55470032726E+01 -0.78878431189E+01  0.11627167596E+02  0.51100000000E-03 0. -1.
        -11    1    3    3    0    0 -0.12383832271E+02  0.10521327978E+02  0.25841895333E+01  0.16454047524E+02  0.51100000000E-03 0.  1.
        -12    1    3    3    0    0 -0.18300172352E+02  0.27956823478E+01 -0.67539974058E+01  0.19706055639E+02  0.00000000000E+00 0.  1.
</event>
<event>
 7    1  0.2530788E-009  0.4778727E+02  0.7816164E-02  0.1312668E+00
        -11   -1    0    0    0    0  0.00000000000E+00  0.00000000000E+00  0.45593999997E+02  0.45594000000E+02  0.51100000000E-03 0.  1.
         11   -1    0    0    0    0 -0.00000000000E+00 -0.00000000000E+00 -0.45593999997E+02  0.45594000000E+02  0.51100000000E-03 0. -1.
    9900012    2    1    2    0    0  0.61719888030E+01  0.77315770591E+00 -0.42952671846E+02  0.47787271465E+02  0.20000001919E+02 0.  0.
        -12    1    1    2    0    0 -0.61719888030E+01 -0.77315770591E+00  0.42952671846E+02  0.43400728535E+02  0.00000000000E+00 0.  1.
         11    1    3    3    0    0  0.76530090677E+01  0.48529841310E+01 -0.13331508907E+02  0.16119836624E+02  0.51100000000E-03 0. -1.
        -11    1    3    3    0    0  0.34113876676E+00 -0.16089531203E+01 -0.28262199191E+02  0.28310016058E+02  0.51100000000E-03 0.  1.
         12    1    3    3    0    0 -0.18221590314E+01 -0.24708733048E+01 -0.13589637473E+01  0.33574187839E+01  0.00000000000E+00 0. -1.
</event>
<event>
 7    1  0.2530788E-009  0.4778727E+02  0.7816164E-02  0.1312668E+00
        -11   -1    0    0    0    0  0.00000000000E+00  0.00000000000E+00  0.45593999997E+02  0.45594000000E+02  0.51100000000E-03 0.  1.
         11   -1    0    0    0    0 -0.00000000000E+00 -0.00000000000E+00 -0.45593999997E+02  0.45594000000E+02  0.51100000000E-03 0. -1.
    9900012    2    1    2    0    0  0.34506214961E+02 -0.11197190475E+02 -0.23823673074E+02  0.47787270234E+02  0.19999996303E+02 0.  0.
        -12    1    1    2    0    0 -0.34506214961E+02  0.11197190475E+02  0.23823673074E+02  0.43400729766E+02  0.00000000000E+00 0.  1.
         11    1    3    3    0    0  0.44081381248E+01 -0.31344071908E+01 -0.76153432997E+01  0.93407517898E+01  0.51100000000E-03 0. -1.
        -11    1    3    3    0    0  0.11285205672E+02  0.44546167876E+01 -0.72853918160E+01  0.14151904888E+02  0.51100000000E-03 0.  1.
        -12    1    3    3    0    0  0.18812871164E+02 -0.12517400072E+02 -0.89229379584E+01  0.24294613556E+02  0.00000000000E+00 0.  1.
</event>
<event>
 7    1  0.2530788E-009  0.4778727E+02  0.7816164E-02  0.1312668E+00
        -11   -1    0    0    0    0  0.00000000000E+00  0.00000000000E+00  0.45593999997E+02  0.45594000000E+02  0.51100000000E-03 0. -1.
         11   -1    0    0    0    0 -0.00000000000E+00 -0.00000000000E+00 -0.45593999997E+02  0.45594000000E+02  0.51100000000E-03 0.  1.
    9900012    2    1    2    0    0 -0.97186295011E+01 -0.81072905662E+00  0.42290828771E+02  0.47787271444E+02  0.20000001824E+02 0.  0.
        -12    1    1    2    0    0  0.97186295011E+01  0.81072905662E+00 -0.42290828771E+02  0.43400728556E+02  0.00000000000E+00 0.  1.
         11    1    3    3    0    0 -0.52562749265E+01 -0.17105854366E+01  0.17364138338E+02  0.18222728367E+02  0.51100000000E-03 0. -1.
        -11    1    3    3    0    0  0.45720685613E+00  0.27243675232E+01 -0.11301223958E+01  0.29846931838E+01  0.51100000000E-03 0.  1.
        -12    1    3    3    0    0 -0.49195614307E+01 -0.18245111432E+01  0.26056812829E+02  0.26579849894E+02  0.00000000000E+00 0.  1.
</event>
<event>
 7    1  0.2530788E-009  0.4778727E+02  0.7816164E-02  0.1312668E+00
        -11   -1    0    0    0    0  0.00000000000E+00  0.00000000000E+00  0.45593999997E+02  0.45594000000E+02  0.51100000000E-03 0.  1.
         11   -1    0    0    0    0 -0.00000000000E+00 -0.00000000000E+00 -0.45593999997E+02  0.45594000000E+02  0.51100000000E-03 0. -1.
    9900012    2    1    2    0    0 -0.34618812588E+02 -0.63317579214E+01 -0.25398228103E+02  0.47787270350E+02  0.19999996834E+02 0.  0.
        -12    1    1    2    0    0  0.34618812588E+02  0.63317579214E+01  0.25398228103E+02  0.43400729650E+02  0.00000000000E+00 0.  1.
         11    1    3    3    0    0 -0.39980090538E+01  0.38460627750E+01 -0.92472328859E+01  0.10783672453E+02  0.51100000000E-03 0. -1.
        -11    1    3    3    0    0 -0.25903991365E+01  0.36406118999E-01 -0.40535828108E+01  0.48107200040E+01  0.51100000000E-03 0.  1.
         12    1    3    3    0    0 -0.28030404397E+02 -0.10214226815E+02 -0.12097412407E+02  0.32192877893E+02  0.00000000000E+00 0. -1.
</event>
<event>
 7    1  0.2530788E-009  0.4778727E+02  0.7816164E-02  0.1312668E+00
        -11   -1    0    0    0    0  0.00000000000E+00  0.00000000000E+00  0.45593999997E+02  0.45594000000E+02  0.51100000000E-03 0. -1.
         11   -1    0    0    0    0 -0.00000000000E+00 -0.00000000000E+00 -0.45593999997E+02  0.45594000000E+02  0.51100000000E-03 0.  1.
    9900012    2    1    2    0    0 -0.12062269020E+02 -0.28600291685E+02  0.30333946421E+02  0.47787270469E+02  0.19999997375E+02 0.  0.
        -12    1    1    2    0    0  0.12062269020E+02  0.28600291685E+02 -0.30333946421E+02  0.43400729531E+02  0.00000000000E+00 0.  1.
         11    1    3    3    0    0 -0.11261332826E+02 -0.12764150850E+02  0.20418012257E+02  0.26582633217E+02  0.51100000000E-03 0. -1.
        -11    1    3    3    0    0 -0.31448726602E+01 -0.44735414803E+00  0.17380755797E+01  0.36209469431E+01  0.51100000000E-03 0.  1.
         12    1    3    3    0    0  0.23439364667E+01 -0.15388786687E+02  0.81778585841E+01  0.17583690309E+02  0.00000000000E+00 0. -1.
</event>
<event>
 7    1  0.2530788E-009  0.4778729E+02  0.7816164E-02  0.1312668E+00
        -11   -1    0    0    0    0  0.00000000000E+00  0.00000000000E+00  0.45593999997E+02  0.45594000000E+02  0.51100000000E-03 0.  1.
         11   -1    0    0    0    0 -0.00000000000E+00 -0.00000000000E+00 -0.45593999997E+02  0.45594000000E+02  0.51100000000E-03 0. -1.
    9900012    2    1    2    0    0  0.14452694541E+02  0.29958323030E+02 -0.27879021950E+02  0.47787293057E+02  0.20000100363E+02 0.  0.
        -12    1    1    2    0    0 -0.14452694541E+02 -0.29958323030E+02  0.27879021950E+02  0.43400706943E+02  0.00000000000E+00 0.  1.
         11    1    3    3    0    0  0.17849632297E+02  0.19580090312E+02 -0.15207109307E+02  0.30549066819E+02  0.51100000000E-03 0. -1.
        -11    1    3    3    0    0 -0.33710731036E+01  0.99083101372E+01 -0.98330854757E+01  0.14360651583E+02  0.51100000000E-03 0.  1.
         12    1    3    3    0    0 -0.25864652470E-01  0.46992258131E+00 -0.28388271672E+01  0.28775746555E+01  0.00000000000E+00 0. -1.
</event>
<event>
 7    1  0.2530788E-009  0.4778727E+02  0.7816164E-02  0.1312668E+00
        -11   -1    0    0    0    0  0.00000000000E+00  0.00000000000E+00  0.45593999997E+02  0.45594000000E+02  0.51100000000E-03 0. -1.
         11   -1    0    0    0    0 -0.00000000000E+00 -0.00000000000E+00 -0.45593999997E+02  0.45594000000E+02  0.51100000000E-03 0.  1.
    9900012    2    1    2    0    0 -0.17723170984E+02 -0.13359741773E+01  0.39594540113E+02  0.47787271625E+02  0.20000002646E+02 0.  0.
        -12    1    1    2    0    0  0.17723170984E+02  0.13359741773E+01 -0.39594540113E+02  0.43400728375E+02  0.00000000000E+00 0.  1.
         11    1    3    3    0    0 -0.67708813805E+01 -0.60515182734E+01  0.23499059532E+02  0.25192687575E+02  0.51100000000E-03 0. -1.
        -11    1    3    3    0    0 -0.98998608803E+01  0.75515166844E+01  0.10737208635E+02  0.16441420231E+02  0.51100000000E-03 0.  1.
        -12    1    3    3    0    0 -0.10524287234E+01 -0.28359725883E+01  0.53582719454E+01  0.61531638187E+01  0.00000000000E+00 0.  1.
</event>
<event>
 7    1  0.2530788E-009  0.4778727E+02  0.7816164E-02  0.1312668E+00
        -11   -1    0    0    0    0  0.00000000000E+00  0.00000000000E+00  0.45593999997E+02  0.45594000000E+02  0.51100000000E-03 0.  1.
         11   -1    0    0    0    0 -0.00000000000E+00 -0.00000000000E+00 -0.45593999997E+02  0.45594000000E+02  0.51100000000E-03 0. -1.
    9900012    2    1    2    0    0 -0.47262613856E+01 -0.13775757436E+02 -0.40884155850E+02  0.47787271444E+02  0.20000001823E+02 0.  0.
        -12    1    1    2    0    0  0.47262613856E+01  0.13775757436E+02  0.40884155850E+02  0.43400728556E+02  0.00000000000E+00 0.  1.
         11    1    3    3    0    0 -0.34583161482E+00 -0.98926435186E-01 -0.23904164207E+02  0.23906870407E+02  0.51100000000E-03 0. -1.
        -11    1    3    3    0    0  0.25790420053E+01 -0.49409586567E+01 -0.48115970189E+01  0.73631512442E+01  0.51100000000E-03 0.  1.
         12    1    3    3    0    0 -0.69594717761E+01 -0.87358723437E+01 -0.12168394624E+02  0.16517249793E+02  0.00000000000E+00 0. -1.
</event>
<event>
 7    1  0.2530788E-009  0.4778727E+02  0.7816164E-02  0.1312668E+00
        -11   -1    0    0    0    0  0.00000000000E+00  0.00000000000E+00  0.45593999997E+02  0.45594000000E+02  0.51100000000E-03 0.  1.
         11   -1    0    0    0    0 -0.00000000000E+00 -0.00000000000E+00 -0.45593999997E+02  0.45594000000E+02  0.51100000000E-03 0. -1.
    9900012    2    1    2    0    0  0.19676847306E+02  0.16698854265E+02 -0.34894031473E+02  0.47787268599E+02  0.19999988852E+02 0.  0.
        -12    1    1    2    0    0 -0.19676847306E+02 -0.16698854265E+02  0.34894031473E+02  0.43400731401E+02  0.00000000000E+00 0.  1.
         11    1    3    3    0    0  0.13133038569E+02  0.17851226871E+02 -0.20461740188E+02  0.30163319026E+02  0.51100000000E-03 0. -1.
        -11    1    3    3    0    0  0.19769811055E+01  0.20189215176E+01 -0.85477579937E+00  0.29521416487E+01  0.51100000000E-03 0.  1.
         12    1    3    3    0    0  0.45668276312E+01 -0.31712941233E+01 -0.13577515486E+02  0.14671807925E+02  0.00000000000E+00 0. -1.
</event>
<event>
 7    1  0.2530788E-009  0.4778727E+02  0.7816164E-02  0.1312668E+00
        -11   -1    0    0    0    0  0.00000000000E+00  0.00000000000E+00  0.45593999997E+02  0.45594000000E+02  0.51100000000E-03 0.  1.
         11   -1    0    0    0    0 -0.00000000000E+00 -0.00000000000E+00 -0.45593999997E+02  0.45594000000E+02  0.51100000000E-03 0. -1.
    9900012    2    1    2    0    0  0.95241282118E+01 -0.32440750851E+01 -0.42218362425E+02  0.47787272273E+02  0.20000005601E+02 0.  0.
        -12    1    1    2    0    0 -0.95241282118E+01  0.32440750851E+01  0.42218362425E+02  0.43400727727E+02  0.00000000000E+00 0.  1.
         11    1    3    3    0    0  0.41649636618E+01 -0.20868671078E+01 -0.25386800088E+02  0.25810686849E+02  0.51100000000E-03 0. -1.
        -11    1    3    3    0    0 -0.11456189654E+01 -0.22570166938E+01  0.11816213576E+01  0.27933486112E+01  0.51100000000E-03 0.  1.
        -12    1    3    3    0    0  0.65047835154E+01  0.10998087165E+01 -0.18013183695E+02  0.19183236813E+02  0.00000000000E+00 0.  1.
</event>
<event>
 7    1  0.2530788E-009  0.4778727E+02  0.7816164E-02  0.1312668E+00
        -11   -1    0    0    0    0  0.00000000000E+00  0.00000000000E+00  0.45593999997E+02  0.45594000000E+02  0.51100000000E-03 0. -1.
         11   -1    0    0    0    0 -0.00000000000E+00 -0.00000000000E+00 -0.45593999997E+02  0.45594000000E+02  0.51100000000E-03 0.  1.
    9900012    2    1    2    0    0 -0.14781509790E+02 -0.40303216582E+01  0.40606485787E+02  0.47787271754E+02  0.20000003233E+02 0.  0.
        -12    1    1    2    0    0  0.14781509790E+02  0.40303216582E+01 -0.40606485787E+02  0.43400728246E+02  0.00000000000E+00 0.  1.
         11    1    3    3    0    0 -0.14759299476E+02 -0.32218281241E+01  0.21362914566E+02  0.26164694084E+02  0.51100000000E-03 0. -1.
        -11    1    3    3    0    0  0.89903333423E+00 -0.51955497687E+01  0.11949807441E+02  0.13061389531E+02  0.51100000000E-03 0.  1.
         12    1    3    3    0    0 -0.92124364766E+00  0.43870562347E+01  0.72937637800E+01  0.85611881385E+01  0.00000000000E+00 0. -1.
</event>
<event>
 7    1  0.2530788E-009  0.4778728E+02  0.7816164E-02  0.1312668E+00
        -11   -1    0    0    0    0  0.00000000000E+00  0.00000000000E+00  0.45593999997E+02  0.45594000000E+02  0.51100000000E-03 0.  1.
         11   -1    0    0    0    0 -0.00000000000E+00 -0.00000000000E+00 -0.45593999997E+02  0.45594000000E+02  0.51100000000E-03 0. -1.
    9900012    2    1    2    0    0  0.32069111181E+02 -0.17882624558E+02 -0.23138855314E+02  0.47787276754E+02  0.20000026033E+02 0.  0.
        -12    1    1    2    0    0 -0.32069111181E+02  0.17882624558E+02  0.23138855314E+02  0.43400723246E+02  0.00000000000E+00 0.  1.
         11    1    3    3    0    0  0.19191609816E+02 -0.44111530225E+01 -0.54246483387E+01  0.20425546949E+02  0.51100000000E-03 0. -1.
        -11    1    3    3    0    0  0.10319256196E+01  0.76519222333E+00  0.50664782316E+00  0.13809713613E+01  0.51100000000E-03 0.  1.
         12    1    3    3    0    0  0.11845575746E+02 -0.14236663758E+02 -0.18220854799E+02  0.25980758444E+02  0.00000000000E+00 0. -1.
</event>
<event>
 7    1  0.2530788E-009  0.4778727E+02  0.7816164E-02  0.1312668E+00
        -11   -1    0    0    0    0  0.00000000000E+00  0.00000000000E+00  0.45593999997E+02  0.45594000000E+02  0.51100000000E-03 0. -1.
         11   -1    0    0    0    0 -0.00000000000E+00 -0.00000000000E+00 -0.45593999997E+02  0.45594000000E+02  0.51100000000E-03 0.  1.
    9900012    2    1    2    0    0  0.38016859062E+02 -0.37023791562E+01  0.20606651689E+02  0.47787270995E+02  0.19999999774E+02 0.  0.
        -12    1    1    2    0    0 -0.38016859062E+02  0.37023791562E+01 -0.20606651689E+02  0.43400729005E+02  0.00000000000E+00 0.  1.
         11    1    3    3    0    0  0.18655810459E+02 -0.80007933760E+01  0.72316183914E+01  0.21548741572E+02  0.51100000000E-03 0. -1.
        -11    1    3    3    0    0  0.14909680517E+02  0.75045855389E+01  0.12072871580E+02  0.20600281689E+02  0.51100000000E-03 0.  1.
        -12    1    3    3    0    0  0.44513680863E+01 -0.32061713192E+01  0.13021617184E+01  0.56382477339E+01  0.00000000000E+00 0.  1.
</event>
<event>
 7    1  0.2530788E-009  0.4778727E+02  0.7816164E-02  0.1312668E+00
        -11   -1    0    0    0    0  0.00000000000E+00  0.00000000000E+00  0.45593999997E+02  0.45594000000E+02  0.51100000000E-03 0. -1.
         11   -1    0    0    0    0 -0.00000000000E+00 -0.00000000000E+00 -0.45593999997E+02  0.45594000000E+02  0.51100000000E-03 0.  1.
    9900012    2    1    2    0    0  0.24992361463E+02 -0.30762078435E+02 -0.17683316007E+02  0.47787271133E+02  0.20000000405E+02 0.  0.
        -12    1    1    2    0    0 -0.24992361463E+02  0.30762078435E+02  0.17683316007E+02  0.43400728867E+02  0.00000000000E+00 0.  1.
         11    1    3    3    0    0  0.32973081552E+01 -0.11539227719E+02 -0.34713911283E+01  0.12493061036E+02  0.51100000000E-03 0. -1.
        -11    1    3    3    0    0  0.21565054437E+02 -0.13327261886E+02 -0.76678903072E+01  0.26485166117E+02  0.51100000000E-03 0.  1.
        -12    1    3    3    0    0  0.12999887127E+00 -0.58955888300E+01 -0.65440345718E+01  0.88090439797E+01  0.00000000000E+00 0.  1.
</event>
<event>
 7    1  0.2530788E-009  0.4778727E+02  0.7816164E-02  0.1312668E+00
        -11   -1    0    0    0    0  0.00000000000E+00  0.00000000000E+00  0.45593999997E+02  0.45594000000E+02  0.51100000000E-03 0. -1.
         11   -1    0    0    0    0 -0.00000000000E+00 -0.00000000000E+00 -0.45593999997E+02  0.45594000000E+02  0.51100000000E-03 0.  1.
    9900012    2    1    2    0    0 -0.22192339084E+01 -0.31980564119E+02  0.29256489316E+02  0.47787266739E+02  0.19999980370E+02 0.  0.
        -12    1    1    2    0    0  0.22192339084E+01  0.31980564119E+02 -0.29256489316E+02  0.43400733261E+02  0.00000000000E+00 0.  1.
         11    1    3    3    0    0 -0.15029008681E+01 -0.13387786024E+02  0.15586111425E+02  0.20601417312E+02  0.51100000000E-03 0. -1.
        -11    1    3    3    0    0 -0.58683435546E+01 -0.11693252815E+02  0.29075990188E+01  0.13402378512E+02  0.51100000000E-03 0.  1.
        -12    1    3    3    0    0  0.51520105143E+01 -0.68995252808E+01  0.10762778872E+02  0.13783470916E+02  0.00000000000E+00 0.  1.
</event>
<event>
 7    1  0.2530788E-009  0.4778727E+02  0.7816164E-02  0.1312668E+00
        -11   -1    0    0    0    0  0.00000000000E+00  0.00000000000E+00  0.45593999997E+02  0.45594000000E+02  0.51100000000E-03 0. -1.
         11   -1    0    0    0    0 -0.00000000000E+00 -0.00000000000E+00 -0.45593999997E+02  0.45594000000E+02  0.51100000000E-03 0.  1.
    9900012    2    1    2    0    0  0.35907263486E+00 -0.42943026782E+02  0.62762147906E+01  0.47787270116E+02  0.19999995766E+02 0.  0.
        -12    1    1    2    0    0 -0.35907263486E+00  0.42943026782E+02 -0.62762147906E+01  0.43400729884E+02  0.00000000000E+00 0.  1.
         11    1    3    3    0    0  0.18251090328E+01 -0.34898468162E+02 -0.96402040599E+00  0.34959454210E+02  0.51100000000E-03 0. -1.
        -11    1    3    3    0    0 -0.38822732035E+01 -0.66546563131E+01  0.60544072248E+01  0.97985888258E+01  0.51100000000E-03 0.  1.
         12    1    3    3    0    0  0.24162368056E+01 -0.13899023067E+01  0.11858279718E+01  0.30292270799E+01  0.00000000000E+00 0. -1.
</event>
<event>
 7    1  0.2530788E-009  0.4778727E+02  0.7816164E-02  0.1312668E+00
        -11   -1    0    0    0    0  0.00000000000E+00  0.00000000000E+00  0.45593999997E+02  0.45594000000E+02  0.51100000000E-03 0.  1.
         11   -1    0    0    0    0 -0.00000000000E+00 -0.00000000000E+00 -0.45593999997E+02  0.45594000000E+02  0.51100000000E-03 0. -1.
    9900012    2    1    2    0    0 -0.36097547005E+02  0.57756642241E+01 -0.23392998749E+02  0.47787267432E+02  0.19999983529E+02 0.  0.
        -12    1    1    2    0    0  0.36097547005E+02 -0.57756642241E+01  0.23392998749E+02  0.43400732568E+02  0.00000000000E+00 0.  1.
         11    1    3    3    0    0 -0.56074584752E+01  0.55631867990E+01 -0.92191269961E+01  0.12140219963E+02  0.51100000000E-03 0. -1.
        -11    1    3    3    0    0 -0.26096622770E+02  0.11389575919E+01 -0.67641432482E+01  0.26983042426E+02  0.51100000000E-03 0.  1.
        -12    1    3    3    0    0 -0.43934657591E+01 -0.92648016674E+00 -0.74097285046E+01  0.86640050431E+01  0.00000000000E+00 0.  1.
</event>
<event>
 7    1  0.2530788E-009  0.4778727E+02  0.7816164E-02  0.1312668E+00
        -11   -1    0    0    0    0  0.00000000000E+00  0.00000000000E+00  0.45593999997E+02  0.45594000000E+02  0.51100000000E-03 0. -1.
         11   -1    0    0    0    0 -0.00000000000E+00 -0.00000000000E+00 -0.45593999997E+02  0.45594000000E+02  0.51100000000E-03 0.  1.
    9900012    2    1    2    0    0  0.22250277777E+02 -0.37260469752E+02 -0.45374459009E+00  0.47787270150E+02  0.19999995923E+02 0.  0.
        -12    1    1    2    0    0 -0.22250277777E+02  0.37260469752E+02  0.45374459009E+00  0.43400729850E+02  0.00000000000E+00 0.  1.
         11    1    3    3    0    0  0.66811555998E+01 -0.11573958271E+01  0.20486033411E+01  0.70833735720E+01  0.51100000000E-03 0. -1.
        -11    1    3    3    0    0  0.92367904894E-01 -0.11338167479E+02 -0.18846240647E+01  0.11494102042E+02  0.51100000000E-03 0.  1.
         12    1    3    3    0    0  0.15476754273E+02 -0.24764906446E+02 -0.61772386642E+00  0.29209794537E+02  0.00000000000E+00 0. -1.
</event>
<event>
 7    1  0.2530788E-009  0.4778727E+02  0.7816164E-02  0.1312668E+00
        -11   -1    0    0    0    0  0.00000000000E+00  0.00000000000E+00  0.45593999997E+02  0.45594000000E+02  0.51100000000E-03 0. -1.
         11   -1    0    0    0    0 -0.00000000000E+00 -0.00000000000E+00 -0.45593999997E+02  0.45594000000E+02  0.51100000000E-03 0.  1.
    9900012    2    1    2    0    0 -0.11842165877E+02 -0.35863687532E+02  0.21381823362E+02  0.47787270210E+02  0.19999996196E+02 0.  0.
        -12    1    1    2    0    0  0.11842165877E+02  0.35863687532E+02 -0.21381823362E+02  0.43400729790E+02  0.00000000000E+00 0.  1.
         11    1    3    3    0    0 -0.72449937537E+01 -0.12328501003E+02  0.85526822740E+01  0.16662240120E+02  0.51100000000E-03 0. -1.
        -11    1    3    3    0    0 -0.83156813088E+01 -0.55736199886E+01  0.42550915768E+01  0.10877573259E+02  0.51100000000E-03 0.  1.
        -12    1    3    3    0    0  0.37185091851E+01 -0.17961566540E+02  0.85740495108E+01  0.20247456832E+02  0.00000000000E+00 0.  1.
</event>
<event>
 7    1  0.2530788E-009  0.4778727E+02  0.7816164E-02  0.1312668E+00
        -11   -1    0    0    0    0  0.00000000000E+00  0.00000000000E+00  0.45593999997E+02  0.45594000000E+02  0.51100000000E-03 0. -1.
         11   -1    0    0    0    0 -0.00000000000E+00 -0.00000000000E+00 -0.45593999997E+02  0.45594000000E+02  0.51100000000E-03 0.  1.
    9900012    2    1    2    0    0  0.22690562078E+02 -0.28914597345E+02  0.23080464768E+02  0.47787269580E+02  0.19999993323E+02 0.  0.
        -12    1    1    2    0    0 -0.22690562078E+02  0.28914597345E+02 -0.23080464768E+02  0.43400730420E+02  0.00000000000E+00 0.  1.
         11    1    3    3    0    0  0.46312374486E+01 -0.39524441969E+01 -0.29323946143E+00  0.60955857043E+01  0.51100000000E-03 0. -1.
        -11    1    3    3    0    0  0.19456122645E+02 -0.20205712496E+02  0.14619527952E+02  0.31631347168E+02  0.51100000000E-03 0.  1.
        -12    1    3    3    0    0 -0.13967980155E+01 -0.47564406529E+01  0.87541762772E+01  0.10060336708E+02  0.00000000000E+00 0.  1.
</event>
<event>
 7    1  0.2530788E-009  0.4778728E+02  0.7816164E-02  0.1312668E+00
        -11   -1    0    0    0    0  0.00000000000E+00  0.00000000000E+00  0.45593999997E+02  0.45594000000E+02  0.51100000000E-03 0.  1.
         11   -1    0    0    0    0 -0.00000000000E+00 -0.00000000000E+00 -0.45593999997E+02  0.45594000000E+02  0.51100000000E-03 0. -1.
    9900012    2    1    2    0    0 -0.19822462438E+02  0.28228305172E+02 -0.26341137483E+02  0.47787277035E+02  0.20000027313E+02 0.  0.
        -12    1    1    2    0    0  0.19822462438E+02 -0.28228305172E+02  0.26341137483E+02  0.43400722965E+02  0.00000000000E+00 0.  1.
         11    1    3    3    0    0  0.25018376804E+01 -0.14958256235E+00 -0.10077735036E+01  0.27013282692E+01  0.51100000000E-03 0. -1.
        -11    1    3    3    0    0  0.34685839322E+00  0.39496737886E+01 -0.25104112562E+01  0.46928028637E+01  0.51100000000E-03 0.  1.
         12    1    3    3    0    0 -0.22671158512E+02  0.24428213946E+02 -0.22822952723E+02  0.40393145902E+02  0.00000000000E+00 0. -1.
</event>
<event>
 7    1  0.2530788E-009  0.4778727E+02  0.7816164E-02  0.1312668E+00
        -11   -1    0    0    0    0  0.00000000000E+00  0.00000000000E+00  0.45593999997E+02  0.45594000000E+02  0.51100000000E-03 0.  1.
         11   -1    0    0    0    0 -0.00000000000E+00 -0.00000000000E+00 -0.45593999997E+02  0.45594000000E+02  0.51100000000E-03 0. -1.
    9900012    2    1    2    0    0 -0.77976852821E+01  0.21391520612E+02 -0.36948914175E+02  0.47787270645E+02  0.19999998178E+02 0.  0.
        -12    1    1    2    0    0  0.77976852821E+01 -0.21391520612E+02  0.36948914175E+02  0.43400729355E+02  0.00000000000E+00 0.  1.
         11    1    3    3    0    0 -0.12196161689E+02  0.15533184012E+02 -0.25885570971E+02  0.32559007206E+02  0.51100000000E-03 0. -1.
        -11    1    3    3    0    0  0.31031243982E+01  0.72757171125E+01 -0.63652186677E+01  0.10152903500E+02  0.51100000000E-03 0.  1.
        -12    1    3    3    0    0  0.12953520090E+01 -0.14173805126E+01 -0.46981245366E+01  0.50753599386E+01  0.00000000000E+00 0.  1.
</event>
<event>
 7    1  0.2530788E-009  0.4778727E+02  0.7816164E-02  0.1312668E+00
        -11   -1    0    0    0    0  0.00000000000E+00  0.00000000000E+00  0.45593999997E+02  0.45594000000E+02  0.51100000000E-03 0.  1.
         11   -1    0    0    0    0 -0.00000000000E+00 -0.00000000000E+00 -0.45593999997E+02  0.45594000000E+02  0.51100000000E-03 0. -1.
    9900012    2    1    2    0    0 -0.42871294710E+01  0.92638556557E+01 -0.42183230176E+02  0.47787269490E+02  0.19999992913E+02 0.  0.
        -12    1    1    2    0    0  0.42871294710E+01 -0.92638556557E+01  0.42183230176E+02  0.43400730510E+02  0.00000000000E+00 0.  1.
         11    1    3    3    0    0 -0.57201829267E+00 -0.79403708280E+00 -0.52963791499E+01  0.53860312083E+01  0.51100000000E-03 0. -1.
        -11    1    3    3    0    0 -0.50446148710E+01 -0.42056043854E+01 -0.12396966326E+02  0.14029255924E+02  0.51100000000E-03 0.  1.
        -12    1    3    3    0    0  0.13295036927E+01  0.14263497124E+02 -0.24489884700E+02  0.28371982358E+02  0.00000000000E+00 0.  1.
</event>
<event>
 7    1  0.2530788E-009  0.4778729E+02  0.7816164E-02  0.1312668E+00
        -11   -1    0    0    0    0  0.00000000000E+00  0.00000000000E+00  0.45593999997E+02  0.45594000000E+02  0.51100000000E-03 0. -1.
         11   -1    0    0    0    0 -0.00000000000E+00 -0.00000000000E+00 -0.45593999997E+02  0.45594000000E+02  0.51100000000E-03 0.  1.
    9900012    2    1    2    0    0 -0.39830722051E+02 -0.14884411727E+02 -0.86942218556E+01  0.47787290038E+02  0.20000086599E+02 0.  0.
        -12    1    1    2    0    0  0.39830722051E+02  0.14884411727E+02  0.86942218556E+01  0.43400709962E+02  0.00000000000E+00 0.  1.
         11    1    3    3    0    0 -0.13066330287E+01  0.17526917543E+01  0.29675885030E+00  0.22061922703E+01  0.51100000000E-03 0. -1.
        -11    1    3    3    0    0 -0.10905781754E+02 -0.10342670524E+02  0.20691021386E+01  0.15171950869E+02  0.51100000000E-03 0.  1.
        -12    1    3    3    0    0 -0.27618307268E+02 -0.62944329569E+01 -0.11060082845E+02  0.30409146899E+02  0.00000000000E+00 0.  1.
</event>
<event>
 7    1  0.2530788E-009  0.4778726E+02  0.7816164E-02  0.1312668E+00
        -11   -1    0    0    0    0  0.00000000000E+00  0.00000000000E+00  0.45593999997E+02  0.45594000000E+02  0.51100000000E-03 0.  1.
         11   -1    0    0    0    0 -0.00000000000E+00 -0.00000000000E+00 -0.45593999997E+02  0.45594000000E+02  0.51100000000E-03 0. -1.
    9900012    2    1    2    0    0  0.11340756836E+01 -0.19106246335E+02 -0.38952398757E+02  0.47787261002E+02  0.19999954213E+02 0.  0.
        -12    1    1    2    0    0 -0.11340756836E+01  0.19106246335E+02  0.38952398757E+02  0.43400738998E+02  0.00000000000E+00 0.  1.
         11    1    3    3    0    0 -0.39034303546E+01 -0.21184123144E+02 -0.31740865867E+02  0.38359958397E+02  0.51100000000E-03 0. -1.
        -11    1    3    3    0    0  0.14835768599E+01  0.16834123516E+01 -0.41595420013E+01  0.47261683600E+01  0.51100000000E-03 0.  1.
         12    1    3    3    0    0  0.35539291783E+01  0.39446445760E+00 -0.30519908881E+01  0.47011342455E+01  0.00000000000E+00 0. -1.
</event>
<event>
 7    1  0.2530788E-009  0.4778727E+02  0.7816164E-02  0.1312668E+00
        -11   -1    0    0    0    0  0.00000000000E+00  0.00000000000E+00  0.45593999997E+02  0.45594000000E+02  0.51100000000E-03 0. -1.
         11   -1    0    0    0    0 -0.00000000000E+00 -0.00000000000E+00 -0.45593999997E+02  0.45594000000E+02  0.51100000000E-03 0.  1.
    9900012    2    1    2    0    0  0.40055600000E+01  0.24873016872E+02  0.35339948336E+02  0.47787269273E+02  0.19999991925E+02 0.  0.
        -12    1    1    2    0    0 -0.40055600000E+01 -0.24873016872E+02 -0.35339948336E+02  0.43400730727E+02  0.00000000000E+00 0.  1.
         11    1    3    3    0    0  0.23346884712E+01  0.12547940052E+02  0.12675317259E+02  0.17987919215E+02  0.51100000000E-03 0. -1.
        -11    1    3    3    0    0  0.19257249736E+01  0.12136519259E+01 -0.18172651719E+01  0.29126998880E+01  0.51100000000E-03 0.  1.
        -12    1    3    3    0    0 -0.25485344483E+00  0.11111424894E+02  0.24481896249E+02  0.26886650171E+02  0.00000000000E+00 0.  1.
</event>
<event>
 7    1  0.2530788E-009  0.4778728E+02  0.7816164E-02  0.1312668E+00
        -11   -1    0    0    0    0  0.00000000000E+00  0.00000000000E+00  0.45593999997E+02  0.45594000000E+02  0.51100000000E-03 0. -1.
         11   -1    0    0    0    0 -0.00000000000E+00 -0.00000000000E+00 -0.45593999997E+02  0.45594000000E+02  0.51100000000E-03 0.  1.
    9900012    2    1    2    0    0  0.40735926395E+02  0.14952429832E+02 -0.79483852434E+00  0.47787278515E+02  0.20000034060E+02 0.  0.
        -12    1    1    2    0    0 -0.40735926395E+02 -0.14952429832E+02  0.79483852434E+00  0.43400721485E+02  0.00000000000E+00 0.  1.
         11    1    3    3    0    0 -0.83086946061E-01  0.22751689949E+01 -0.30338923313E+01  0.37931254046E+01  0.51100000000E-03 0. -1.
        -11    1    3    3    0    0  0.83694840429E+01  0.18142828874E+01 -0.35824228436E+01  0.92829757746E+01  0.51100000000E-03 0.  1.
         12    1    3    3    0    0  0.32449529298E+02  0.10862977950E+02  0.58214766506E+01  0.34711177335E+02  0.00000000000E+00 0. -1.
</event>
<event>
 7    1  0.2530788E-009  0.4778727E+02  0.7816164E-02  0.1312668E+00
        -11   -1    0    0    0    0  0.00000000000E+00  0.00000000000E+00  0.45593999997E+02  0.45594000000E+02  0.51100000000E-03 0.  1.
         11   -1    0    0    0    0 -0.00000000000E+00 -0.00000000000E+00 -0.45593999997E+02  0.45594000000E+02  0.51100000000E-03 0. -1.
    9900012    2    1    2    0    0 -0.25700649296E+02 -0.34291877448E+02 -0.68678204676E+01  0.47787271998E+02  0.20000004348E+02 0.  0.
        -12    1    1    2    0    0  0.25700649296E+02  0.34291877448E+02  0.68678204676E+01  0.43400728002E+02  0.00000000000E+00 0.  1.
         11    1    3    3    0    0 -0.38247769715E+00 -0.98623881498E+01 -0.49667086786E+01  0.11049035459E+02  0.51100000000E-03 0. -1.
        -11    1    3    3    0    0 -0.10446812341E+02 -0.10491180981E+02  0.43286580179E+01  0.15425240581E+02  0.51100000000E-03 0.  1.
        -12    1    3    3    0    0 -0.14871359257E+02 -0.13938308317E+02 -0.62297698069E+01  0.21312995959E+02  0.00000000000E+00 0.  1.
</event>
<event>
 7    1  0.2530788E-009  0.4778727E+02  0.7816164E-02  0.1312668E+00
        -11   -1    0    0    0    0  0.00000000000E+00  0.00000000000E+00  0.45593999997E+02  0.45594000000E+02  0.51100000000E-03 0. -1.
         11   -1    0    0    0    0 -0.00000000000E+00 -0.00000000000E+00 -0.45593999997E+02  0.45594000000E+02  0.51100000000E-03 0.  1.
    9900012    2    1    2    0    0  0.39872790181E+02  0.16950094723E+02 -0.25452335151E+01  0.47787270495E+02  0.19999997495E+02 0.  0.
        -12    1    1    2    0    0 -0.39872790181E+02 -0.16950094723E+02  0.25452335151E+01  0.43400729505E+02  0.00000000000E+00 0.  1.
         11    1    3    3    0    0  0.20037050856E+02 -0.34204629252E+00 -0.33174301184E+01  0.20312699119E+02  0.51100000000E-03 0. -1.
        -11    1    3    3    0    0  0.17230799645E+02  0.17695356467E+02 -0.97325373051E-01  0.24698898141E+02  0.51100000000E-03 0.  1.
        -12    1    3    3    0    0  0.26049396805E+01 -0.40321545109E+00  0.86952197628E+00  0.27756732347E+01  0.00000000000E+00 0.  1.
</event>
<event>
 7    1  0.2530788E-009  0.4778729E+02  0.7816164E-02  0.1312668E+00
        -11   -1    0    0    0    0  0.00000000000E+00  0.00000000000E+00  0.45593999997E+02  0.45594000000E+02  0.51100000000E-03 0. -1.
         11   -1    0    0    0    0 -0.00000000000E+00 -0.00000000000E+00 -0.45593999997E+02  0.45594000000E+02  0.51100000000E-03 0.  1.
    9900012    2    1    2    0    0  0.34074687278E+01 -0.40908929565E+02  0.14087933578E+02  0.47787294547E+02  0.20000107158E+02 0.  0.
        -12    1    1    2    0    0 -0.34074687278E+01  0.40908929565E+02 -0.14087933578E+02  0.43400705453E+02  0.00000000000E+00 0.  1.
         11    1    3    3    0    0  0.73454037771E+01 -0.33082885656E+02  0.15021299225E+02  0.37068473271E+02  0.51100000000E-03 0. -1.
        -11    1    3    3    0    0 -0.40636689186E+01 -0.16660589016E+01  0.41575039895E+00  0.44115763622E+01  0.51100000000E-03 0.  1.
         12    1    3    3    0    0  0.12573386932E+00 -0.61599850072E+01 -0.13491160457E+01  0.63072449136E+01  0.00000000000E+00 0. -1.
</event>
<event>
 7    1  0.2530788E-009  0.4778727E+02  0.7816164E-02  0.1312668E+00
        -11   -1    0    0    0    0  0.00000000000E+00  0.00000000000E+00  0.45593999997E+02  0.45594000000E+02  0.51100000000E-03 0.  1.
         11   -1    0    0    0    0 -0.00000000000E+00 -0.00000000000E+00 -0.45593999997E+02  0.45594000000E+02  0.51100000000E-03 0. -1.
    9900012    2    1    2    0    0  0.55601182477E+01 -0.29386659476E+02 -0.31450480101E+02  0.47787269952E+02  0.19999995019E+02 0.  0.
        -12    1    1    2    0    0 -0.55601182477E+01  0.29386659476E+02  0.31450480101E+02  0.43400730048E+02  0.00000000000E+00 0.  1.
         11    1    3    3    0    0  0.10399280569E+01 -0.11557770380E+02 -0.17939558046E+02  0.21365655844E+02  0.51100000000E-03 0. -1.
        -11    1    3    3    0    0 -0.10588516146E+01 -0.13937005488E+02 -0.36567594167E+01  0.14447601130E+02  0.51100000000E-03 0.  1.
        -12    1    3    3    0    0  0.55790418054E+01 -0.38918836088E+01 -0.98541626386E+01  0.11974012978E+02  0.00000000000E+00 0.  1.
</event>
<event>
 7    1  0.2530788E-009  0.4778727E+02  0.7816164E-02  0.1312668E+00
        -11   -1    0    0    0    0  0.00000000000E+00  0.00000000000E+00  0.45593999997E+02  0.45594000000E+02  0.51100000000E-03 0.  1.
         11   -1    0    0    0    0 -0.00000000000E+00 -0.00000000000E+00 -0.45593999997E+02  0.45594000000E+02  0.51100000000E-03 0. -1.
    9900012    2    1    2    0    0 -0.27624496583E+02 -0.11250867019E+02 -0.31526629379E+02  0.47787272124E+02  0.20000004923E+02 0.  0.
        -12    1    1    2    0    0  0.27624496583E+02  0.11250867019E+02  0.31526629379E+02  0.43400727876E+02  0.00000000000E+00 0.  1.
         11    1    3    3    0    0 -0.13474623647E+02 -0.82469967482E+01 -0.26657643920E+02  0.30987229909E+02  0.51100000000E-03 0. -1.
        -11    1    3    3    0    0 -0.11679784563E+02  0.60338671501E+00 -0.32569173789E+01  0.12140385251E+02  0.51100000000E-03 0.  1.
         12    1    3    3    0    0 -0.24700883730E+01 -0.36072569861E+01 -0.16120680802E+01  0.46596569648E+01  0.00000000000E+00 0. -1.
</event>
<event>
 7    1  0.4173702E-009  0.4778728E+02  0.7816164E-02  0.1312668E+00
        -11   -1    0    0    0    0  0.00000000000E+00  0.00000000000E+00  0.45593999997E+02  0.45594000000E+02  0.51100000000E-03 0. -1.
         11   -1    0    0    0    0 -0.00000000000E+00 -0.00000000000E+00 -0.45593999997E+02  0.45594000000E+02  0.51100000000E-03 0.  1.
    9900012    2    1    2    0    0  0.40791333338E+02 -0.13068974918E+02 -0.69922588411E+01  0.47787278063E+02  0.20000032003E+02 0.  0.
        -12    1    1    2    0    0 -0.40791333338E+02  0.13068974918E+02  0.69922588411E+01  0.43400721937E+02  0.00000000000E+00 0.  1.
         11    1    3    3    0    0  0.15321979697E+02 -0.42158360448E+01 -0.13768392106E+01  0.15950925424E+02  0.51100000000E-03 0. -1.
        -11    1    3    3    0    0  0.11379022827E+02  0.36169252918E+01  0.77416038736E+00  0.11965100653E+02  0.51100000000E-03 0.  1.
        -12    1    3    3    0    0  0.14090330814E+02 -0.12470064165E+02 -0.63895800179E+01  0.19871251987E+02  0.00000000000E+00 0.  1.
</event>
<event>
 7    1  0.2530788E-009  0.4778727E+02  0.7816164E-02  0.1312668E+00
        -11   -1    0    0    0    0  0.00000000000E+00  0.00000000000E+00  0.45593999997E+02  0.45594000000E+02  0.51100000000E-03 0. -1.
         11   -1    0    0    0    0 -0.00000000000E+00 -0.00000000000E+00 -0.45593999997E+02  0.45594000000E+02  0.51100000000E-03 0.  1.
    9900012    2    1    2    0    0 -0.41281158403E+02 -0.52287386156E+01  0.12334881335E+02  0.47787273691E+02  0.20000012066E+02 0.  0.
        -12    1    1    2    0    0  0.41281158403E+02  0.52287386156E+01 -0.12334881335E+02  0.43400726309E+02  0.00000000000E+00 0.  1.
         11    1    3    3    0    0 -0.88255156943E+00  0.24739267168E+01  0.21689686291E+01  0.34064109922E+01  0.51100000000E-03 0. -1.
        -11    1    3    3    0    0 -0.40060515532E+02 -0.55604708315E+01  0.11216469874E+02  0.41971096451E+02  0.51100000000E-03 0.  1.
        -12    1    3    3    0    0 -0.33809130149E+00 -0.21421945009E+01 -0.10505571677E+01  0.24097662481E+01  0.00000000000E+00 0.  1.
</event>
<event>
 7    1  0.2530788E-009  0.4778726E+02  0.7816164E-02  0.1312668E+00
        -11   -1    0    0    0    0  0.00000000000E+00  0.00000000000E+00  0.45593999997E+02  0.45594000000E+02  0.51100000000E-03 0.  1.
         11   -1    0    0    0    0 -0.00000000000E+00 -0.00000000000E+00 -0.45593999997E+02  0.45594000000E+02  0.51100000000E-03 0. -1.
    9900012    2    1    2    0    0 -0.26535332494E+02  0.16208791282E+02 -0.30278305209E+02  0.47787256323E+02  0.19999932880E+02 0.  0.
        -12    1    1    2    0    0  0.26535332494E+02 -0.16208791282E+02  0.30278305209E+02  0.43400743677E+02  0.00000000000E+00 0.  1.
         11    1    3    3    0    0 -0.50191496429E+01  0.44931344642E+01 -0.18611900951E+02  0.19793508474E+02  0.51100000000E-03 0. -1.
        -11    1    3    3    0    0 -0.10950203464E+02  0.81359198881E+01 -0.32622457116E+01  0.14026489071E+02  0.51100000000E-03 0.  1.
        -12    1    3    3    0    0 -0.10565979387E+02  0.35797369297E+01 -0.84041585464E+01  0.13967258778E+02  0.00000000000E+00 0.  1.
</event>
<event>
 7    1  0.2530788E-009  0.4778727E+02  0.7816164E-02  0.1312668E+00
        -11   -1    0    0    0    0  0.00000000000E+00  0.00000000000E+00  0.45593999997E+02  0.45594000000E+02  0.51100000000E-03 0.  1.
         11   -1    0    0    0    0 -0.00000000000E+00 -0.00000000000E+00 -0.45593999997E+02  0.45594000000E+02  0.51100000000E-03 0. -1.
    9900012    2    1    2    0    0 -0.20199905324E+02  0.30085325019E+02 -0.23884306996E+02  0.47787273309E+02  0.20000010327E+02 0.  0.
        -12    1    1    2    0    0  0.20199905324E+02 -0.30085325019E+02  0.23884306996E+02  0.43400726691E+02  0.00000000000E+00 0.  1.
         11    1    3    3    0    0 -0.76267037587E+01  0.21189984340E+02 -0.13311351093E+02  0.26160545001E+02  0.51100000000E-03 0. -1.
        -11    1    3    3    0    0 -0.11422964611E+02  0.48491540838E+01 -0.26992062987E+01  0.12699768925E+02  0.51100000000E-03 0.  1.
        -12    1    3    3    0    0 -0.11502369535E+01  0.40461865952E+01 -0.78737496039E+01  0.89269593837E+01  0.00000000000E+00 0.  1.
</event>
<event>
 7    1  0.2530788E-009  0.4778727E+02  0.7816164E-02  0.1312668E+00
        -11   -1    0    0    0    0  0.00000000000E+00  0.00000000000E+00  0.45593999997E+02  0.45594000000E+02  0.51100000000E-03 0. -1.
         11   -1    0    0    0    0 -0.00000000000E+00 -0.00000000000E+00 -0.45593999997E+02  0.45594000000E+02  0.51100000000E-03 0.  1.
    9900012    2    1    2    0    0  0.10231078297E+01 -0.38257757842E+02  0.20467539320E+02  0.47787274769E+02  0.20000016984E+02 0.  0.
        -12    1    1    2    0    0 -0.10231078297E+01  0.38257757842E+02 -0.20467539320E+02  0.43400725231E+02  0.00000000000E+00 0.  1.
         11    1    3    3    0    0  0.34975995608E+01 -0.24576948666E+02  0.15979149133E+02  0.29522750815E+02  0.51100000000E-03 0. -1.
        -11    1    3    3    0    0 -0.34982601951E+00 -0.77040387227E+01  0.79184382691E+01  0.11053336861E+02  0.51100000000E-03 0.  1.
         12    1    3    3    0    0 -0.21246657115E+01 -0.59767704537E+01 -0.34300480827E+01  0.72111870931E+01  0.00000000000E+00 0. -1.
</event>
<event>
 7    1  0.2530788E-009  0.4778725E+02  0.7816164E-02  0.1312668E+00
        -11   -1    0    0    0    0  0.00000000000E+00  0.00000000000E+00  0.45593999997E+02  0.45594000000E+02  0.51100000000E-03 0.  1.
         11   -1    0    0    0    0 -0.00000000000E+00 -0.00000000000E+00 -0.45593999997E+02  0.45594000000E+02  0.51100000000E-03 0. -1.
    9900012    2    1    2    0    0 -0.31869343990E+02 -0.38626005164E+00 -0.29458795438E+02  0.47787252174E+02  0.19999913964E+02 0.  0.
        -12    1    1    2    0    0  0.31869343990E+02  0.38626005164E+00  0.29458795438E+02  0.43400747826E+02  0.00000000000E+00 0.  1.
         11    1    3    3    0    0 -0.86422877159E+01 -0.17694630876E+01 -0.49619857874E+01  0.10121335870E+02  0.51100000000E-03 0. -1.
        -11    1    3    3    0    0 -0.17288357728E+02 -0.38703116525E+01 -0.23850813485E+02  0.29710737611E+02  0.51100000000E-03 0.  1.
        -12    1    3    3    0    0 -0.59386985459E+01  0.52535146884E+01 -0.64599616577E+00  0.79551786936E+01  0.00000000000E+00 0.  1.
</event>
<event>
 7    1  0.2530788E-009  0.4778727E+02  0.7816164E-02  0.1312668E+00
        -11   -1    0    0    0    0  0.00000000000E+00  0.00000000000E+00  0.45593999997E+02  0.45594000000E+02  0.51100000000E-03 0. -1.
         11   -1    0    0    0    0 -0.00000000000E+00 -0.00000000000E+00 -0.45593999997E+02  0.45594000000E+02  0.51100000000E-03 0.  1.
    9900012    2    1    2    0    0  0.26892182803E+02  0.24945767409E+02  0.23197891872E+02  0.47787274259E+02  0.20000014655E+02 0.  0.
        -12    1    1    2    0    0 -0.26892182803E+02 -0.24945767409E+02 -0.23197891872E+02  0.43400725741E+02  0.00000000000E+00 0.  1.
         11    1    3    3    0    0  0.14595033004E+02  0.14683433455E+02  0.94572061255E+01  0.22760864535E+02  0.51100000000E-03 0. -1.
        -11    1    3    3    0    0  0.11346353637E+02  0.12360965075E+02  0.14906675879E+02  0.22444201578E+02  0.51100000000E-03 0.  1.
        -12    1    3    3    0    0  0.95079616263E+00 -0.20986311209E+01 -0.11659901318E+01  0.25822081466E+01  0.00000000000E+00 0.  1.
</event>
<event>
 7    1  0.2530788E-009  0.4778727E+02  0.7816164E-02  0.1312668E+00
        -11   -1    0    0    0    0  0.00000000000E+00  0.00000000000E+00  0.45593999997E+02  0.45594000000E+02  0.51100000000E-03 0.  1.
         11   -1    0    0    0    0 -0.00000000000E+00 -0.00000000000E+00 -0.45593999997E+02  0.45594000000E+02  0.51100000000E-03 0. -1.
    9900012    2    1    2    0    0 -0.38877983086E+02  0.18494118616E+02  0.54857336257E+01  0.47787271139E+02  0.20000000433E+02 0.  0.
        -12    1    1    2    0    0  0.38877983086E+02 -0.18494118616E+02 -0.54857336257E+01  0.43400728861E+02  0.00000000000E+00 0.  1.
         11    1    3    3    0    0 -0.19784354999E+02  0.21783664576E+01  0.35706048201E+01  0.20221651817E+02  0.51100000000E-03 0. -1.
        -11    1    3    3    0    0 -0.11720989203E+02  0.15428774186E+02  0.41406917273E+01  0.19813479982E+02  0.51100000000E-03 0.  1.
        -12    1    3    3    0    0 -0.73726388837E+01  0.88697797317E+00 -0.22255629217E+01  0.77521393404E+01  0.00000000000E+00 0.  1.
</event>
<event>
 7    1  0.2530788E-009  0.4778727E+02  0.7816164E-02  0.1312668E+00
        -11   -1    0    0    0    0  0.00000000000E+00  0.00000000000E+00  0.45593999997E+02  0.45594000000E+02  0.51100000000E-03 0. -1.
         11   -1    0    0    0    0 -0.00000000000E+00 -0.00000000000E+00 -0.45593999997E+02  0.45594000000E+02  0.51100000000E-03 0.  1.
    9900012    2    1    2    0    0 -0.10107691536E+02 -0.17334160448E+02  0.38483561182E+02  0.47787273878E+02  0.20000012921E+02 0.  0.
        -12    1    1    2    0    0  0.10107691536E+02  0.17334160448E+02 -0.38483561182E+02  0.43400726122E+02  0.00000000000E+00 0.  1.
         11    1    3    3    0    0  0.32594834392E+01  0.41869379272E+00  0.10949367637E+02  0.11431893487E+02  0.51100000000E-03 0. -1.
        -11    1    3    3    0    0 -0.94388318614E+01 -0.17380515478E+02  0.23436599766E+02  0.30666725844E+02  0.51100000000E-03 0.  1.
         12    1    3    3    0    0 -0.39283431134E+01 -0.37233876258E+00  0.40975937802E+01  0.56886545473E+01  0.00000000000E+00 0. -1.
</event>
<event>
 7    1  0.2530788E-009  0.4778727E+02  0.7816164E-02  0.1312668E+00
        -11   -1    0    0    0    0  0.00000000000E+00  0.00000000000E+00  0.45593999997E+02  0.45594000000E+02  0.51100000000E-03 0.  1.
         11   -1    0    0    0    0 -0.00000000000E+00 -0.00000000000E+00 -0.45593999997E+02  0.45594000000E+02  0.51100000000E-03 0. -1.
    9900012    2    1    2    0    0  0.18495544294E+02  0.22493852962E+02 -0.32180194400E+02  0.47787268538E+02  0.19999988572E+02 0.  0.
        -12    1    1    2    0    0 -0.18495544294E+02 -0.22493852962E+02  0.32180194400E+02  0.43400731462E+02  0.00000000000E+00 0.  1.
         11    1    3    3    0    0  0.63563608790E+01 -0.22538582858E+01 -0.96613505335E+01  0.11782397684E+02  0.51100000000E-03 0. -1.
        -11    1    3    3    0    0  0.54391652947E-01  0.31077622785E+01 -0.12702343481E+01  0.33577731299E+01  0.51100000000E-03 0.  1.
         12    1    3    3    0    0  0.12084791762E+02  0.21639948970E+02 -0.21248609518E+02  0.32647097724E+02  0.00000000000E+00 0. -1.
</event>
<event>
 7    1  0.2530788E-009  0.4778726E+02  0.7816164E-02  0.1312668E+00
        -11   -1    0    0    0    0  0.00000000000E+00  0.00000000000E+00  0.45593999997E+02  0.45594000000E+02  0.51100000000E-03 0. -1.
         11   -1    0    0    0    0 -0.00000000000E+00 -0.00000000000E+00 -0.45593999997E+02  0.45594000000E+02  0.51100000000E-03 0.  1.
    9900012    2    1    2    0    0 -0.21984430367E+02  0.17897715335E+02  0.32863058625E+02  0.47787262507E+02  0.19999961072E+02 0.  0.
        -12    1    1    2    0    0  0.21984430367E+02 -0.17897715335E+02 -0.32863058625E+02  0.43400737493E+02  0.00000000000E+00 0.  1.
         11    1    3    3    0    0 -0.29879581595E+01  0.96686205606E+01  0.59965127514E+01  0.11763004843E+02  0.51100000000E-03 0. -1.
        -11    1    3    3    0    0 -0.12681261108E+02 -0.52669006557E+00  0.10787220554E+02  0.16657007932E+02  0.51100000000E-03 0.  1.
        -12    1    3    3    0    0 -0.63152110993E+01  0.87557848399E+01  0.16079325320E+02  0.19367249731E+02  0.00000000000E+00 0.  1.
</event>
<event>
 7    1  0.2530788E-009  0.4778727E+02  0.7816164E-02  0.1312668E+00
        -11   -1    0    0    0    0  0.00000000000E+00  0.00000000000E+00  0.45593999997E+02  0.45594000000E+02  0.51100000000E-03 0. -1.
         11   -1    0    0    0    0 -0.00000000000E+00 -0.00000000000E+00 -0.45593999997E+02  0.45594000000E+02  0.51100000000E-03 0.  1.
    9900012    2    1    2    0    0 -0.81917261814E+01  0.33609034313E+02  0.26209764965E+02  0.47787270227E+02  0.19999996273E+02 0.  0.
        -12    1    1    2    0    0  0.81917261814E+01 -0.33609034313E+02 -0.26209764965E+02  0.43400729773E+02  0.00000000000E+00 0.  1.
         11    1    3    3    0    0 -0.27580337930E+01  0.30719042129E+02  0.17389738051E+02  0.35407192623E+02  0.51100000000E-03 0. -1.
        -11    1    3    3    0    0 -0.93738714577E+00  0.49913042945E+00  0.68308654751E+01  0.69129262434E+01  0.51100000000E-03 0.  1.
         12    1    3    3    0    0 -0.44963052426E+01  0.23908617546E+01  0.19891614393E+01  0.54671513602E+01  0.00000000000E+00 0. -1.
</event>
<event>
 7    1  0.2530788E-009  0.4778726E+02  0.7816164E-02  0.1312668E+00
        -11   -1    0    0    0    0  0.00000000000E+00  0.00000000000E+00  0.45593999997E+02  0.45594000000E+02  0.51100000000E-03 0.  1.
         11   -1    0    0    0    0 -0.00000000000E+00 -0.00000000000E+00 -0.45593999997E+02  0.45594000000E+02  0.51100000000E-03 0. -1.
    9900012    2    1    2    0    0  0.18436493169E+02  0.38918841847E+02 -0.53892549101E+01  0.47787255772E+02  0.19999930365E+02 0.  0.
        -12    1    1    2    0    0 -0.18436493169E+02 -0.38918841847E+02  0.53892549101E+01  0.43400744228E+02  0.00000000000E+00 0.  1.
         11    1    3    3    0    0  0.14527921463E+02  0.35037969586E+02 -0.29985640094E+01  0.38048800258E+02  0.51100000000E-03 0. -1.
        -11    1    3    3    0    0  0.41382379991E+01  0.20822716023E+01 -0.48342905567E+01  0.66956130571E+01  0.51100000000E-03 0.  1.
         12    1    3    3    0    0 -0.22966629243E+00  0.17986006589E+01  0.24435996559E+01  0.30428424564E+01  0.00000000000E+00 0. -1.
</event>
<event>
 7    1  0.2530788E-009  0.4778727E+02  0.7816164E-02  0.1312668E+00
        -11   -1    0    0    0    0  0.00000000000E+00  0.00000000000E+00  0.45593999997E+02  0.45594000000E+02  0.51100000000E-03 0.  1.
         11   -1    0    0    0    0 -0.00000000000E+00 -0.00000000000E+00 -0.45593999997E+02  0.45594000000E+02  0.51100000000E-03 0. -1.
    9900012    2    1    2    0    0 -0.18727389128E+02 -0.11035828250E+02 -0.37564858974E+02  0.47787271452E+02  0.20000001860E+02 0.  0.
        -12    1    1    2    0    0  0.18727389128E+02  0.11035828250E+02  0.37564858974E+02  0.43400728548E+02  0.00000000000E+00 0.  1.
         11    1    3    3    0    0  0.11705372527E+01  0.32293135432E+00 -0.23616891504E+01  0.26555635981E+01  0.51100000000E-03 0. -1.
        -11    1    3    3    0    0 -0.62364359185E+01  0.28447300682E+01 -0.32406837561E+01  0.75820613024E+01  0.51100000000E-03 0.  1.
        -12    1    3    3    0    0 -0.13661490462E+02 -0.14203489672E+02 -0.31962486068E+02  0.37549646552E+02  0.00000000000E+00 0.  1.
</event>
<event>
 7    1  0.2530788E-009  0.4778726E+02  0.7816164E-02  0.1312668E+00
        -11   -1    0    0    0    0  0.00000000000E+00  0.00000000000E+00  0.45593999997E+02  0.45594000000E+02  0.51100000000E-03 0. -1.
         11   -1    0    0    0    0 -0.00000000000E+00 -0.00000000000E+00 -0.45593999997E+02  0.45594000000E+02  0.51100000000E-03 0.  1.
    9900012    2    1    2    0    0 -0.25212557400E+02 -0.31729185803E+02  0.15530942954E+02  0.47787257248E+02  0.19999937098E+02 0.  0.
        -12    1    1    2    0    0  0.25212557400E+02  0.31729185803E+02 -0.15530942954E+02  0.43400742752E+02  0.00000000000E+00 0.  1.
         11    1    3    3    0    0 -0.11884377982E+02 -0.18941137578E+02  0.10567949232E+02  0.24732300418E+02  0.51100000000E-03 0. -1.
        -11    1    3    3    0    0 -0.31189814164E+01  0.25392101372E+01  0.16301911607E+01  0.43397185022E+01  0.51100000000E-03 0.  1.
        -12    1    3    3    0    0 -0.10209198002E+02 -0.15327258362E+02  0.33328025610E+01  0.18715238328E+02  0.00000000000E+00 0.  1.
</event>
<event>
 7    1  0.2530788E-009  0.4778727E+02  0.7816164E-02  0.1312668E+00
        -11   -1    0    0    0    0  0.00000000000E+00  0.00000000000E+00  0.45593999997E+02  0.45594000000E+02  0.51100000000E-03 0.  1.
         11   -1    0    0    0    0 -0.00000000000E+00 -0.00000000000E+00 -0.45593999997E+02  0.45594000000E+02  0.51100000000E-03 0. -1.
    9900012    2    1    2    0    0 -0.10180880952E+02 -0.35489038445E+02 -0.22814494984E+02  0.47787269959E+02  0.19999995051E+02 0.  0.
        -12    1    1    2    0    0  0.10180880952E+02  0.35489038445E+02  0.22814494984E+02  0.43400730041E+02  0.00000000000E+00 0.  1.
         11    1    3    3    0    0 -0.10338796750E+02 -0.26919360130E+02 -0.18704860907E+02  0.34371710604E+02  0.51100000000E-03 0. -1.
        -11    1    3    3    0    0  0.67079219640E+00  0.11607393728E+00  0.24348032197E+01  0.25281816211E+01  0.51100000000E-03 0.  1.
        -12    1    3    3    0    0 -0.51287639890E+00 -0.86857522526E+01 -0.65444372959E+01  0.10887377734E+02  0.00000000000E+00 0.  1.
</event>
<event>
 7    1  0.2530788E-009  0.4778728E+02  0.7816164E-02  0.1312668E+00
        -11   -1    0    0    0    0  0.00000000000E+00  0.00000000000E+00  0.45593999997E+02  0.45594000000E+02  0.51100000000E-03 0. -1.
         11   -1    0    0    0    0 -0.00000000000E+00 -0.00000000000E+00 -0.45593999997E+02  0.45594000000E+02  0.51100000000E-03 0.  1.
    9900012    2    1    2    0    0  0.22223560635E+00  0.37985406530E+02  0.20992428971E+02  0.47787279130E+02  0.20000036865E+02 0.  0.
        -12    1    1    2    0    0 -0.22223560635E+00 -0.37985406530E+02 -0.20992428971E+02  0.43400720870E+02  0.00000000000E+00 0.  1.
         11    1    3    3    0    0 -0.33322176990E+01  0.13732841470E+02  0.16256559525E+02  0.21539970694E+02  0.51100000000E-03 0. -1.
        -11    1    3    3    0    0  0.37100486629E+01  0.24048744383E+02  0.59139922135E+01  0.25041602817E+02  0.51100000000E-03 0.  1.
        -12    1    3    3    0    0 -0.15559535756E+00  0.20382067783E+00 -0.11781227680E+01  0.12057056193E+01  0.00000000000E+00 0.  1.
</event>
<event>
 7    1  0.2530788E-009  0.4778727E+02  0.7816164E-02  0.1312668E+00
        -11   -1    0    0    0    0  0.00000000000E+00  0.00000000000E+00  0.45593999997E+02  0.45594000000E+02  0.51100000000E-03 0. -1.
         11   -1    0    0    0    0 -0.00000000000E+00 -0.00000000000E+00 -0.45593999997E+02  0.45594000000E+02  0.51100000000E-03 0.  1.
    9900012    2    1    2    0    0  0.38466492601E+01 -0.19773751592E+02  0.38442489655E+02  0.47787274506E+02  0.20000015782E+02 0.  0.
        -12    1    1    2    0    0 -0.38466492601E+01  0.19773751592E+02 -0.38442489655E+02  0.43400725494E+02  0.00000000000E+00 0.  1.
         11    1    3    3    0    0  0.89889999753E+01 -0.28318019451E+01  0.13251342214E+02  0.16260974557E+02  0.51100000000E-03 0.  1.
        -11    1    3    3    0    0 -0.27592887132E+01 -0.14760216076E+02  0.16789193947E+02  0.22524535211E+02  0.51100000000E-03 0. -1.
        -12    1    3    3    0    0 -0.23830620020E+01 -0.21817335708E+01  0.84019534945E+01  0.90017647382E+01  0.00000000000E+00 0.  1.
</event>
<event>
 7    1  0.2530788E-009  0.4778727E+02  0.7816164E-02  0.1312668E+00
        -11   -1    0    0    0    0  0.00000000000E+00  0.00000000000E+00  0.45593999997E+02  0.45594000000E+02  0.51100000000E-03 0.  1.
         11   -1    0    0    0    0 -0.00000000000E+00 -0.00000000000E+00 -0.45593999997E+02  0.45594000000E+02  0.51100000000E-03 0. -1.
    9900012    2    1    2    0    0 -0.58386261738E+01  0.42930339024E+02 -0.25533720722E+01  0.47787271051E+02  0.20000000031E+02 0.  0.
        -12    1    1    2    0    0  0.58386261738E+01 -0.42930339024E+02  0.25533720722E+01  0.43400728949E+02  0.00000000000E+00 0.  1.
         11    1    3    3    0    0 -0.62505623493E+01  0.23013430802E+02  0.35573190340E+01  0.24111035770E+02  0.51100000000E-03 0. -1.
        -11    1    3    3    0    0 -0.34373435757E+01  0.66527378017E+01 -0.64166648973E+01  0.98614319336E+01  0.51100000000E-03 0.  1.
         12    1    3    3    0    0  0.38492797513E+01  0.13264170421E+02  0.30597379109E+00  0.13814803347E+02  0.00000000000E+00 0. -1.
</event>
<event>
 7    1  0.2530788E-009  0.4778727E+02  0.7816164E-02  0.1312668E+00
        -11   -1    0    0    0    0  0.00000000000E+00  0.00000000000E+00  0.45593999997E+02  0.45594000000E+02  0.51100000000E-03 0.  1.
         11   -1    0    0    0    0 -0.00000000000E+00 -0.00000000000E+00 -0.45593999997E+02  0.45594000000E+02  0.51100000000E-03 0. -1.
    9900012    2    1    2    0    0 -0.22170208567E+02  0.71295819034E+01 -0.36623416033E+02  0.47787266274E+02  0.19999978251E+02 0.  0.
        -12    1    1    2    0    0  0.22170208567E+02 -0.71295819034E+01  0.36623416033E+02  0.43400733726E+02  0.00000000000E+00 0.  1.
         11    1    3    3    0    0 -0.30045614773E+01  0.85812258881E+01 -0.14692890998E+02  0.17278480071E+02  0.51100000000E-03 0. -1.
        -11    1    3    3    0    0  0.14366621450E+00  0.13691616108E+01 -0.30939690165E+01  0.33864270306E+01  0.51100000000E-03 0.  1.
         12    1    3    3    0    0 -0.19309313304E+02 -0.28208055955E+01 -0.18836556019E+02  0.27122359173E+02  0.00000000000E+00 0. -1.
</event>
<event>
 7    1  0.2530788E-009  0.4778727E+02  0.7816164E-02  0.1312668E+00
        -11   -1    0    0    0    0  0.00000000000E+00  0.00000000000E+00  0.45593999997E+02  0.45594000000E+02  0.51100000000E-03 0. -1.
         11   -1    0    0    0    0 -0.00000000000E+00 -0.00000000000E+00 -0.45593999997E+02  0.45594000000E+02  0.51100000000E-03 0.  1.
    9900012    2    1    2    0    0 -0.24584249853E+02  0.44078381198E+01  0.35493787434E+02  0.47787270465E+02  0.19999997360E+02 0.  0.
        -12    1    1    2    0    0  0.24584249853E+02 -0.44078381198E+01 -0.35493787434E+02  0.43400729535E+02  0.00000000000E+00 0.  1.
         11    1    3    3    0    0 -0.19940453623E+01 -0.46263912552E+01  0.11820206808E+02  0.12849007830E+02  0.51100000000E-03 0. -1.
        -11    1    3    3    0    0 -0.56972895025E+01  0.37979351146E+01  0.23599916696E+01  0.72424429409E+01  0.51100000000E-03 0.  1.
         12    1    3    3    0    0 -0.16892914988E+02  0.52362942604E+01  0.21313588956E+02  0.27695819695E+02  0.00000000000E+00 0. -1.
</event>
<event>
 7    1  0.2530788E-009  0.4778727E+02  0.7816164E-02  0.1312668E+00
        -11   -1    0    0    0    0  0.00000000000E+00  0.00000000000E+00  0.45593999997E+02  0.45594000000E+02  0.51100000000E-03 0. -1.
         11   -1    0    0    0    0 -0.00000000000E+00 -0.00000000000E+00 -0.45593999997E+02  0.45594000000E+02  0.51100000000E-03 0.  1.
    9900012    2    1    2    0    0  0.36129722329E+02  0.23112539843E+02  0.66390428174E+01  0.47787271629E+02  0.20000002667E+02 0.  0.
        -12    1    1    2    0    0 -0.36129722329E+02 -0.23112539843E+02 -0.66390428174E+01  0.43400728371E+02  0.00000000000E+00 0.  1.
         11    1    3    3    0    0 -0.37482145020E+00 -0.14209492082E+01  0.31059577544E+01  0.34360677533E+01  0.51100000000E-03 0. -1.
        -11    1    3    3    0    0  0.13827667487E+02  0.10074542101E+02 -0.71530904427E+00  0.17123447491E+02  0.51100000000E-03 0.  1.
         12    1    3    3    0    0  0.22676876292E+02  0.14458946951E+02  0.42483941073E+01  0.27227756385E+02  0.00000000000E+00 0. -1.
</event>
<event>
 7    1  0.2530788E-009  0.4778727E+02  0.7816164E-02  0.1312668E+00
        -11   -1    0    0    0    0  0.00000000000E+00  0.00000000000E+00  0.45593999997E+02  0.45594000000E+02  0.51100000000E-03 0. -1.
         11   -1    0    0    0    0 -0.00000000000E+00 -0.00000000000E+00 -0.45593999997E+02  0.45594000000E+02  0.51100000000E-03 0.  1.
    9900012    2    1    2    0    0 -0.45700065553E+01 -0.41838712110E+02  0.10595307417E+02  0.47787270396E+02  0.19999997042E+02 0.  0.
        -12    1    1    2    0    0  0.45700065553E+01  0.41838712110E+02 -0.10595307417E+02  0.43400729604E+02  0.00000000000E+00 0.  1.
         11    1    3    3    0    0 -0.21895258660E+01 -0.13076452341E+02  0.66791220486E+01  0.14845817625E+02  0.51100000000E-03 0. -1.
        -11    1    3    3    0    0 -0.34650630026E+00 -0.14728627681E+02 -0.57121496092E+01  0.15801303535E+02  0.51100000000E-03 0.  1.
        -12    1    3    3    0    0 -0.20339743890E+01 -0.14033632087E+02  0.96283349780E+01  0.17140149236E+02  0.00000000000E+00 0.  1.
</event>
<event>
 7    1  0.2530788E-009  0.4778727E+02  0.7816164E-02  0.1312668E+00
        -11   -1    0    0    0    0  0.00000000000E+00  0.00000000000E+00  0.45593999997E+02  0.45594000000E+02  0.51100000000E-03 0.  1.
         11   -1    0    0    0    0 -0.00000000000E+00 -0.00000000000E+00 -0.45593999997E+02  0.45594000000E+02  0.51100000000E-03 0. -1.
    9900012    2    1    2    0    0 -0.27726090337E+02 -0.26353584431E+02 -0.20503070026E+02  0.47787269842E+02  0.19999994517E+02 0.  0.
        -12    1    1    2    0    0  0.27726090337E+02  0.26353584431E+02  0.20503070026E+02  0.43400730158E+02  0.00000000000E+00 0.  1.
         11    1    3    3    0    0 -0.82005456959E+00 -0.26348338086E+01 -0.33065978705E+01  0.43067886452E+01  0.51100000000E-03 0. -1.
        -11    1    3    3    0    0 -0.16833750436E+01  0.31121844524E-01  0.29554054729E+01  0.34013441280E+01  0.51100000000E-03 0.  1.
        -12    1    3    3    0    0 -0.25222660724E+02 -0.23749872467E+02 -0.20151877629E+02  0.40079137069E+02  0.00000000000E+00 0.  1.
</event>
<event>
 7    1  0.2530788E-009  0.4778727E+02  0.7816164E-02  0.1312668E+00
        -11   -1    0    0    0    0  0.00000000000E+00  0.00000000000E+00  0.45593999997E+02  0.45594000000E+02  0.51100000000E-03 0. -1.
         11   -1    0    0    0    0 -0.00000000000E+00 -0.00000000000E+00 -0.45593999997E+02  0.45594000000E+02  0.51100000000E-03 0.  1.
    9900012    2    1    2    0    0 -0.17866669489E+02 -0.37915276397E+02  0.11262216262E+02  0.47787267540E+02  0.19999984023E+02 0.  0.
        -12    1    1    2    0    0  0.17866669489E+02  0.37915276397E+02 -0.11262216262E+02  0.43400732460E+02  0.00000000000E+00 0.  1.
         11    1    3    3    0    0 -0.14372064510E+02 -0.25265635713E+02  0.32243795388E+01  0.29245601549E+02  0.51100000000E-03 0. -1.
        -11    1    3    3    0    0 -0.22160518133E+01 -0.10102222458E+02  0.10527001512E+02  0.14757491159E+02  0.51100000000E-03 0.  1.
        -12    1    3    3    0    0 -0.12785531649E+01 -0.25474182263E+01 -0.24891647884E+01  0.37841748320E+01  0.00000000000E+00 0.  1.
</event>
<event>
 7    1  0.2530788E-009  0.4778728E+02  0.7816164E-02  0.1312668E+00
        -11   -1    0    0    0    0  0.00000000000E+00  0.00000000000E+00  0.45593999997E+02  0.45594000000E+02  0.51100000000E-03 0.  1.
         11   -1    0    0    0    0 -0.00000000000E+00 -0.00000000000E+00 -0.45593999997E+02  0.45594000000E+02  0.51100000000E-03 0. -1.
    9900012    2    1    2    0    0 -0.75677022951E+01  0.29393252591E+02 -0.31022401762E+02  0.47787276193E+02  0.20000023474E+02 0.  0.
        -12    1    1    2    0    0  0.75677022951E+01 -0.29393252591E+02  0.31022401762E+02  0.43400723807E+02  0.00000000000E+00 0.  1.
         11    1    3    3    0    0 -0.29464064532E+00  0.11053792633E+02 -0.10792905387E+02  0.15451859164E+02  0.51100000000E-03 0.  1.
        -11    1    3    3    0    0 -0.42155744818E+01  0.18901894423E+02 -0.10308932646E+02  0.21939160730E+02  0.51100000000E-03 0. -1.
        -12    1    3    3    0    0 -0.30574871680E+01 -0.56243446528E+00 -0.99205637297E+01  0.10396256299E+02  0.00000000000E+00 0.  1.
</event>
<event>
 7    1  0.2530788E-009  0.4778727E+02  0.7816164E-02  0.1312668E+00
        -11   -1    0    0    0    0  0.00000000000E+00  0.00000000000E+00  0.45593999997E+02  0.45594000000E+02  0.51100000000E-03 0.  1.
         11   -1    0    0    0    0 -0.00000000000E+00 -0.00000000000E+00 -0.45593999997E+02  0.45594000000E+02  0.51100000000E-03 0. -1.
    9900012    2    1    2    0    0 -0.24666140844E+02 -0.27102769893E+02 -0.23251768094E+02  0.47787270058E+02  0.19999995502E+02 0.  0.
        -12    1    1    2    0    0  0.24666140844E+02  0.27102769893E+02  0.23251768094E+02  0.43400729942E+02  0.00000000000E+00 0.  1.
         11    1    3    3    0    0 -0.54615354195E+01 -0.49859744203E+01 -0.12924154338E+02  0.14890334975E+02  0.51100000000E-03 0. -1.
        -11    1    3    3    0    0 -0.34211010569E+01 -0.56353799652E+01  0.20915164448E+01  0.69163488268E+01  0.51100000000E-03 0.  1.
         12    1    3    3    0    0 -0.15783504368E+02 -0.16481415507E+02 -0.12419130201E+02  0.25980586256E+02  0.00000000000E+00 0. -1.
</event>
<event>
 7    1  0.2530788E-009  0.4778727E+02  0.7816164E-02  0.1312668E+00
        -11   -1    0    0    0    0  0.00000000000E+00  0.00000000000E+00  0.45593999997E+02  0.45594000000E+02  0.51100000000E-03 0. -1.
         11   -1    0    0    0    0 -0.00000000000E+00 -0.00000000000E+00 -0.45593999997E+02  0.45594000000E+02  0.51100000000E-03 0.  1.
    9900012    2    1    2    0    0  0.22649934949E+01 -0.32308439795E+02  0.28890443257E+02  0.47787272021E+02  0.20000004453E+02 0.  0.
        -12    1    1    2    0    0 -0.22649934949E+01  0.32308439795E+02 -0.28890443257E+02  0.43400727979E+02  0.00000000000E+00 0.  1.
         11    1    3    3    0    0  0.32741579095E+01  0.10769146495E+00  0.58958017598E+01  0.67447895534E+01  0.51100000000E-03 0. -1.
        -11    1    3    3    0    0 -0.44779392296E+01 -0.17589038734E+02  0.85855310547E+01  0.20078285959E+02  0.51100000000E-03 0.  1.
        -12    1    3    3    0    0  0.34687748150E+01 -0.14827092526E+02  0.14409110443E+02  0.20964196508E+02  0.00000000000E+00 0.  1.
</event>
<event>
 7    1  0.2530788E-009  0.4778726E+02  0.7816164E-02  0.1312668E+00
        -11   -1    0    0    0    0  0.00000000000E+00  0.00000000000E+00  0.45593999997E+02  0.45594000000E+02  0.51100000000E-03 0. -1.
         11   -1    0    0    0    0 -0.00000000000E+00 -0.00000000000E+00 -0.45593999997E+02  0.45594000000E+02  0.51100000000E-03 0.  1.
    9900012    2    1    2    0    0  0.24958355489E+02 -0.32810478388E+02  0.13571185085E+02  0.47787261925E+02  0.19999958423E+02 0.  0.
        -12    1    1    2    0    0 -0.24958355489E+02  0.32810478388E+02 -0.13571185085E+02  0.43400738075E+02  0.00000000000E+00 0.  1.
         11    1    3    3    0    0  0.20609282304E+02 -0.26310169843E+02  0.14726997315E+02  0.36521938673E+02  0.51100000000E-03 0. -1.
        -11    1    3    3    0    0  0.19232469267E+01  0.17517767881E+01 -0.15560572024E+00  0.26061109066E+01  0.51100000000E-03 0.  1.
         12    1    3    3    0    0  0.24258262580E+01 -0.82520853339E+01 -0.10002065091E+01  0.86592123460E+01  0.00000000000E+00 0. -1.
</event>
<event>
 7    1  0.2530788E-009  0.4778727E+02  0.7816164E-02  0.1312668E+00
        -11   -1    0    0    0    0  0.00000000000E+00  0.00000000000E+00  0.45593999997E+02  0.45594000000E+02  0.51100000000E-03 0.  1.
         11   -1    0    0    0    0 -0.00000000000E+00 -0.00000000000E+00 -0.45593999997E+02  0.45594000000E+02  0.51100000000E-03 0. -1.
    9900012    2    1    2    0    0 -0.13513407356E+02  0.83363181395E+01 -0.40392039057E+02  0.47787271922E+02  0.20000004003E+02 0.  0.
        -12    1    1    2    0    0  0.13513407356E+02 -0.83363181395E+01  0.40392039057E+02  0.43400728078E+02  0.00000000000E+00 0.  1.
         11    1    3    3    0    0 -0.11380143458E+02  0.79522303497E+01 -0.23017587771E+02  0.26880382804E+02  0.51100000000E-03 0. -1.
        -11    1    3    3    0    0  0.43114041170E+01 -0.20357753223E+00 -0.11029280533E+02  0.11843761168E+02  0.51100000000E-03 0.  1.
        -12    1    3    3    0    0 -0.64446680145E+01  0.58766532205E+00 -0.63451707531E+01  0.90631279497E+01  0.00000000000E+00 0.  1.
</event>
<event>
 7    1  0.2530788E-009  0.4778727E+02  0.7816164E-02  0.1312668E+00
        -11   -1    0    0    0    0  0.00000000000E+00  0.00000000000E+00  0.45593999997E+02  0.45594000000E+02  0.51100000000E-03 0.  1.
         11   -1    0    0    0    0 -0.00000000000E+00 -0.00000000000E+00 -0.45593999997E+02  0.45594000000E+02  0.51100000000E-03 0. -1.
    9900012    2    1    2    0    0  0.29727191202E+02 -0.47940849404E+01 -0.31255947657E+02  0.47787269464E+02  0.19999992793E+02 0.  0.
        -12    1    1    2    0    0 -0.29727191202E+02  0.47940849404E+01  0.31255947657E+02  0.43400730536E+02  0.00000000000E+00 0.  1.
         11    1    3    3    0    0  0.27952889405E+02 -0.75825875208E+01 -0.20973218702E+02  0.35759412224E+02  0.51100000000E-03 0. -1.
        -11    1    3    3    0    0 -0.18088082675E+01  0.17263269609E+01 -0.42773025974E+01  0.49545241846E+01  0.51100000000E-03 0.  1.
         12    1    3    3    0    0  0.35831100643E+01  0.10621756195E+01 -0.60054263571E+01  0.70733330552E+01  0.00000000000E+00 0. -1.
</event>
<event>
 7    1  0.2530788E-009  0.4778727E+02  0.7816164E-02  0.1312668E+00
        -11   -1    0    0    0    0  0.00000000000E+00  0.00000000000E+00  0.45593999997E+02  0.45594000000E+02  0.51100000000E-03 0.  1.
         11   -1    0    0    0    0 -0.00000000000E+00 -0.00000000000E+00 -0.45593999997E+02  0.45594000000E+02  0.51100000000E-03 0. -1.
    9900012    2    1    2    0    0 -0.20775680907E+02  0.20767199444E+01 -0.38048413385E+02  0.47787269084E+02  0.19999991063E+02 0.  0.
        -12    1    1    2    0    0  0.20775680907E+02 -0.20767199444E+01  0.38048413385E+02  0.43400730916E+02  0.00000000000E+00 0.  1.
         11    1    3    3    0    0 -0.73955447936E+01  0.25246365940E+01 -0.19255353427E+02  0.20780676326E+02  0.51100000000E-03 0. -1.
        -11    1    3    3    0    0 -0.14169082441E+02  0.33528696534E+01 -0.10825620776E+02  0.18143833596E+02  0.51100000000E-03 0.  1.
        -12    1    3    3    0    0  0.78894632733E+00 -0.38007863030E+01 -0.79674391827E+01  0.88627591618E+01  0.00000000000E+00 0.  1.
</event>
<event>
 7    1  0.2530788E-009  0.4778727E+02  0.7816164E-02  0.1312668E+00
        -11   -1    0    0    0    0  0.00000000000E+00  0.00000000000E+00  0.45593999997E+02  0.45594000000E+02  0.51100000000E-03 0.  1.
         11   -1    0    0    0    0 -0.00000000000E+00 -0.00000000000E+00 -0.45593999997E+02  0.45594000000E+02  0.51100000000E-03 0. -1.
    9900012    2    1    2    0    0  0.98760061239E+01 -0.28840993606E+02 -0.30891500396E+02  0.47787271828E+02  0.20000003575E+02 0.  0.
        -12    1    1    2    0    0 -0.98760061239E+01  0.28840993606E+02  0.30891500396E+02  0.43400728172E+02  0.00000000000E+00 0.  1.
         11    1    3    3    0    0  0.27225547409E+01 -0.19290075523E+01 -0.12571735455E+02  0.13006994544E+02  0.51100000000E-03 0. -1.
        -11    1    3    3    0    0  0.35467580234E+01 -0.14348154751E+01 -0.26327439916E+01  0.46443007128E+01  0.51100000000E-03 0.  1.
         12    1    3    3    0    0  0.36066933596E+01 -0.25477170578E+02 -0.15687020949E+02  0.30135976571E+02  0.00000000000E+00 0. -1.
</event>
<event>
 7    1  0.2530788E-009  0.4778727E+02  0.7816164E-02  0.1312668E+00
        -11   -1    0    0    0    0  0.00000000000E+00  0.00000000000E+00  0.45593999997E+02  0.45594000000E+02  0.51100000000E-03 0.  1.
         11   -1    0    0    0    0 -0.00000000000E+00 -0.00000000000E+00 -0.45593999997E+02  0.45594000000E+02  0.51100000000E-03 0. -1.
    9900012    2    1    2    0    0 -0.30158812590E+01  0.11615404198E+02 -0.41708632717E+02  0.47787271923E+02  0.20000004007E+02 0.  0.
        -12    1    1    2    0    0  0.30158812590E+01 -0.11615404198E+02  0.41708632717E+02  0.43400728077E+02  0.00000000000E+00 0.  1.
         11    1    3    3    0    0 -0.11499559810E+00  0.61383192681E+01 -0.38084663187E+02  0.38576336759E+02  0.51100000000E-03 0. -1.
        -11    1    3    3    0    0 -0.44844732653E+01  0.46177651376E+01 -0.36680103193E+01  0.74086810767E+01  0.51100000000E-03 0.  1.
         12    1    3    3    0    0  0.15835876044E+01  0.85931979200E+00  0.44040788772E-01  0.18022540877E+01  0.00000000000E+00 0. -1.
</event>
<event>
 7    1  0.2530788E-009  0.4778726E+02  0.7816164E-02  0.1312668E+00
        -11   -1    0    0    0    0  0.00000000000E+00  0.00000000000E+00  0.45593999997E+02  0.45594000000E+02  0.51100000000E-03 0.  1.
         11   -1    0    0    0    0 -0.00000000000E+00 -0.00000000000E+00 -0.45593999997E+02  0.45594000000E+02  0.51100000000E-03 0. -1.
    9900012    2    1    2    0    0  0.49835402118E+01 -0.13113876827E+02 -0.41070845660E+02  0.47787264964E+02  0.19999972275E+02 0.  0.
        -12    1    1    2    0    0 -0.49835402118E+01  0.13113876827E+02  0.41070845660E+02  0.43400735036E+02  0.00000000000E+00 0.  1.
         11    1    3    3    0    0  0.90884534953E+01 -0.76841108433E+01 -0.20492233316E+02  0.23697619563E+02  0.51100000000E-03 0. -1.
        -11    1    3    3    0    0  0.41844258778E+00 -0.75010700361E+01 -0.11481269224E+02  0.13720812263E+02  0.51100000000E-03 0.  1.
         12    1    3    3    0    0 -0.45233558712E+01  0.20713040524E+01 -0.90973431193E+01  0.10368833138E+02  0.00000000000E+00 0. -1.
</event>
<event>
 7    1  0.2530788E-009  0.4778727E+02  0.7816164E-02  0.1312668E+00
        -11   -1    0    0    0    0  0.00000000000E+00  0.00000000000E+00  0.45593999997E+02  0.45594000000E+02  0.51100000000E-03 0.  1.
         11   -1    0    0    0    0 -0.00000000000E+00 -0.00000000000E+00 -0.45593999997E+02  0.45594000000E+02  0.51100000000E-03 0. -1.
    9900012    2    1    2    0    0  0.33930605621E+02  0.43181449456E+01 -0.26714990339E+02  0.47787273250E+02  0.20000010057E+02 0.  0.
        -12    1    1    2    0    0 -0.33930605621E+02 -0.43181449456E+01  0.26714990339E+02  0.43400726750E+02  0.00000000000E+00 0.  1.
         11    1    3    3    0    0  0.11612019524E+01  0.34949913599E+01  0.94788440414E+00  0.38028725570E+01  0.51100000000E-03 0. -1.
        -11    1    3    3    0    0  0.51051828350E+01  0.35389616171E+01 -0.33656804221E+01  0.70650510310E+01  0.51100000000E-03 0.  1.
         12    1    3    3    0    0  0.27664220834E+02 -0.27158080314E+01 -0.24297194321E+02  0.36919349662E+02  0.00000000000E+00 0. -1.
</event>
<event>
 7    1  0.2530788E-009  0.4778727E+02  0.7816164E-02  0.1312668E+00
        -11   -1    0    0    0    0  0.00000000000E+00  0.00000000000E+00  0.45593999997E+02  0.45594000000E+02  0.51100000000E-03 0.  1.
         11   -1    0    0    0    0 -0.00000000000E+00 -0.00000000000E+00 -0.45593999997E+02  0.45594000000E+02  0.51100000000E-03 0. -1.
    9900012    2    1    2    0    0 -0.16728689924E+02 -0.39665496251E+02 -0.55157069214E+01  0.47787266340E+02  0.19999978551E+02 0.  0.
        -12    1    1    2    0    0  0.16728689924E+02  0.39665496251E+02  0.55157069214E+01  0.43400733660E+02  0.00000000000E+00 0.  1.
         11    1    3    3    0    0 -0.55610733621E+01 -0.26641087085E+02 -0.43877884507E+01  0.27566750729E+02  0.51100000000E-03 0. -1.
        -11    1    3    3    0    0 -0.99308286676E+01 -0.63818832621E+01 -0.45444176230E+01  0.12649170874E+02  0.51100000000E-03 0.  1.
         12    1    3    3    0    0 -0.12367878941E+01 -0.66425259033E+01  0.34164991523E+01  0.75713447372E+01  0.00000000000E+00 0. -1.
</event>
<event>
 7    1  0.2530788E-009  0.4778727E+02  0.7816164E-02  0.1312668E+00
        -11   -1    0    0    0    0  0.00000000000E+00  0.00000000000E+00  0.45593999997E+02  0.45594000000E+02  0.51100000000E-03 0.  1.
         11   -1    0    0    0    0 -0.00000000000E+00 -0.00000000000E+00 -0.45593999997E+02  0.45594000000E+02  0.51100000000E-03 0. -1.
    9900012    2    1    2    0    0  0.71701661852E+01  0.24970789120E+02 -0.34765956452E+02  0.47787270509E+02  0.19999997557E+02 0.  0.
        -12    1    1    2    0    0 -0.71701661852E+01 -0.24970789120E+02  0.34765956452E+02  0.43400729491E+02  0.00000000000E+00 0.  1.
         11    1    3    3    0    0  0.58760120809E+00  0.73256346676E+00 -0.69459064198E+01  0.70091041272E+01  0.51100000000E-03 0. -1.
        -11    1    3    3    0    0  0.71123467840E+01  0.17980059913E+01 -0.60546871465E+01  0.95119681993E+01  0.51100000000E-03 0.  1.
        -12    1    3    3    0    0 -0.52978180697E+00  0.22440219662E+02 -0.21765362885E+02  0.31266198182E+02  0.00000000000E+00 0.  1.
</event>
<event>
 7    1  0.2530788E-009  0.4778727E+02  0.7816164E-02  0.1312668E+00
        -11   -1    0    0    0    0  0.00000000000E+00  0.00000000000E+00  0.45593999997E+02  0.45594000000E+02  0.51100000000E-03 0. -1.
         11   -1    0    0    0    0 -0.00000000000E+00 -0.00000000000E+00 -0.45593999997E+02  0.45594000000E+02  0.51100000000E-03 0.  1.
    9900012    2    1    2    0    0  0.34555223331E+02 -0.78697341902E+01  0.25052494988E+02  0.47787266356E+02  0.19999978624E+02 0.  0.
        -12    1    1    2    0    0 -0.34555223331E+02  0.78697341902E+01 -0.25052494988E+02  0.43400733644E+02  0.00000000000E+00 0.  1.
         11    1    3    3    0    0  0.13253675048E+02 -0.66313324000E+01  0.17751486142E+02  0.23124656369E+02  0.51100000000E-03 0. -1.
        -11    1    3    3    0    0  0.72441320457E+01 -0.38555444413E+01  0.62683280781E+01  0.10326403497E+02  0.51100000000E-03 0.  1.
         12    1    3    3    0    0  0.14057416238E+02  0.26171426510E+01  0.10326807674E+01  0.14336206490E+02  0.00000000000E+00 0. -1.
</event>
<event>
 7    1  0.2530788E-009  0.4778727E+02  0.7816164E-02  0.1312668E+00
        -11   -1    0    0    0    0  0.00000000000E+00  0.00000000000E+00  0.45593999997E+02  0.45594000000E+02  0.51100000000E-03 0. -1.
         11   -1    0    0    0    0 -0.00000000000E+00 -0.00000000000E+00 -0.45593999997E+02  0.45594000000E+02  0.51100000000E-03 0.  1.
    9900012    2    1    2    0    0  0.26464367285E+02  0.13815446854E+02  0.31502283609E+02  0.47787272124E+02  0.20000004924E+02 0.  0.
        -12    1    1    2    0    0 -0.26464367285E+02 -0.13815446854E+02 -0.31502283609E+02  0.43400727876E+02  0.00000000000E+00 0.  1.
         11    1    3    3    0    0  0.60331211209E+01 -0.44726954629E+01  0.73250200963E+01  0.10490923450E+02  0.51100000000E-03 0.  1.
        -11    1    3    3    0    0  0.11516760383E+02  0.14413287166E+02  0.18023396118E+02  0.25791886796E+02  0.51100000000E-03 0. -1.
         12    1    3    3    0    0  0.89144857812E+01  0.38748551504E+01  0.61538673952E+01  0.11504461878E+02  0.00000000000E+00 0. -1.
</event>
<event>
 7    1  0.2530788E-009  0.4778727E+02  0.7816164E-02  0.1312668E+00
        -11   -1    0    0    0    0  0.00000000000E+00  0.00000000000E+00  0.45593999997E+02  0.45594000000E+02  0.51100000000E-03 0.  1.
         11   -1    0    0    0    0 -0.00000000000E+00 -0.00000000000E+00 -0.45593999997E+02  0.45594000000E+02  0.51100000000E-03 0. -1.
    9900012    2    1    2    0    0 -0.15827040402E+02 -0.28508040776E+02 -0.28642968225E+02  0.47787271601E+02  0.20000002538E+02 0.  0.
        -12    1    1    2    0    0  0.15827040402E+02  0.28508040776E+02  0.28642968225E+02  0.43400728399E+02  0.00000000000E+00 0.  1.
         11    1    3    3    0    0 -0.39852574657E+01 -0.13595731974E+02 -0.63715466823E+01  0.15534568303E+02  0.51100000000E-03 0. -1.
        -11    1    3    3    0    0 -0.22935820446E+01  0.25303759809E+01 -0.27208635343E+01  0.43665111741E+01  0.51100000000E-03 0.  1.
        -12    1    3    3    0    0 -0.95482008915E+01 -0.17442684784E+02 -0.19550558009E+02  0.27886192124E+02  0.00000000000E+00 0.  1.
</event>
<event>
 7    1  0.2530788E-009  0.4778727E+02  0.7816164E-02  0.1312668E+00
        -11   -1    0    0    0    0  0.00000000000E+00  0.00000000000E+00  0.45593999997E+02  0.45594000000E+02  0.51100000000E-03 0. -1.
         11   -1    0    0    0    0 -0.00000000000E+00 -0.00000000000E+00 -0.45593999997E+02  0.45594000000E+02  0.51100000000E-03 0.  1.
    9900012    2    1    2    0    0  0.20420518915E+02 -0.58388163526E+01  0.37848830533E+02  0.47787270261E+02  0.19999996428E+02 0.  0.
        -12    1    1    2    0    0 -0.20420518915E+02  0.58388163526E+01 -0.37848830533E+02  0.43400729739E+02  0.00000000000E+00 0.  1.
         11    1    3    3    0    0 -0.15156370794E+01 -0.15536365606E+01 -0.35161510318E+00  0.21987668728E+01  0.51100000000E-03 0. -1.
        -11    1    3    3    0    0  0.11982699655E+02  0.27469285636E+01  0.23251509632E+02  0.26301395552E+02  0.51100000000E-03 0.  1.
         12    1    3    3    0    0  0.99534563391E+01 -0.70321083556E+01  0.14948936005E+02  0.19287107836E+02  0.00000000000E+00 0. -1.
</event>
<event>
 7    1  0.2530788E-009  0.4778726E+02  0.7816164E-02  0.1312668E+00
        -11   -1    0    0    0    0  0.00000000000E+00  0.00000000000E+00  0.45593999997E+02  0.45594000000E+02  0.51100000000E-03 0. -1.
         11   -1    0    0    0    0 -0.00000000000E+00 -0.00000000000E+00 -0.45593999997E+02  0.45594000000E+02  0.51100000000E-03 0.  1.
    9900012    2    1    2    0    0  0.26946541121E+02 -0.29408859977E+02 -0.17106341929E+02  0.47787262014E+02  0.19999958826E+02 0.  0.
        -12    1    1    2    0    0 -0.26946541121E+02  0.29408859977E+02  0.17106341929E+02  0.43400737986E+02  0.00000000000E+00 0.  1.
         11    1    3    3    0    0  0.16644015075E+02 -0.25658559528E+02 -0.70436555450E+01  0.31384677767E+02  0.51100000000E-03 0. -1.
        -11    1    3    3    0    0  0.33444636834E+01 -0.35184535127E+01 -0.75997820298E+01  0.90178511637E+01  0.51100000000E-03 0.  1.
         12    1    3    3    0    0  0.69580623627E+01 -0.23184693655E+00 -0.24629043547E+01  0.73847330829E+01  0.00000000000E+00 0. -1.
</event>
<event>
 7    1  0.2530788E-009  0.4778727E+02  0.7816164E-02  0.1312668E+00
        -11   -1    0    0    0    0  0.00000000000E+00  0.00000000000E+00  0.45593999997E+02  0.45594000000E+02  0.51100000000E-03 0.  1.
         11   -1    0    0    0    0 -0.00000000000E+00 -0.00000000000E+00 -0.45593999997E+02  0.45594000000E+02  0.51100000000E-03 0. -1.
    9900012    2    1    2    0    0 -0.38286256644E+02 -0.20424549263E+02 -0.78969111740E+00  0.47787271060E+02  0.20000000073E+02 0.  0.
        -12    1    1    2    0    0  0.38286256644E+02  0.20424549263E+02  0.78969111740E+00  0.43400728940E+02  0.00000000000E+00 0.  1.
         11    1    3    3    0    0 -0.14210794763E+02 -0.15149866077E+02  0.36783604092E+01  0.21094915631E+02  0.51100000000E-03 0. -1.
        -11    1    3    3    0    0 -0.24827708445E+01 -0.35271439926E+01 -0.23858765650E+01  0.49292294586E+01  0.51100000000E-03 0.  1.
         12    1    3    3    0    0 -0.21592691037E+02 -0.17475391940E+01 -0.20821749616E+01  0.21763125971E+02  0.00000000000E+00 0. -1.
</event>
<event>
 7    1  0.2530788E-009  0.4778727E+02  0.7816164E-02  0.1312668E+00
        -11   -1    0    0    0    0  0.00000000000E+00  0.00000000000E+00  0.45593999997E+02  0.45594000000E+02  0.51100000000E-03 0. -1.
         11   -1    0    0    0    0 -0.00000000000E+00 -0.00000000000E+00 -0.45593999997E+02  0.45594000000E+02  0.51100000000E-03 0.  1.
    9900012    2    1    2    0    0  0.11196451380E+02 -0.55990573457E+01  0.41556147892E+02  0.47787269657E+02  0.19999993675E+02 0.  0.
        -12    1    1    2    0    0 -0.11196451380E+02  0.55990573457E+01 -0.41556147892E+02  0.43400730343E+02  0.00000000000E+00 0.  1.
         11    1    3    3    0    0  0.15827754760E+01 -0.10119351427E+02  0.22438526682E+02  0.24665642733E+02  0.51100000000E-03 0. -1.
        -11    1    3    3    0    0  0.83968107252E+01  0.62431368294E+01  0.17760320314E+02  0.20613397724E+02  0.51100000000E-03 0.  1.
         12    1    3    3    0    0  0.12168651789E+01 -0.17228427478E+01  0.13573008965E+01  0.25082292002E+01  0.00000000000E+00 0. -1.
</event>
<event>
 7    1  0.2530788E-009  0.4778727E+02  0.7816164E-02  0.1312668E+00
        -11   -1    0    0    0    0  0.00000000000E+00  0.00000000000E+00  0.45593999997E+02  0.45594000000E+02  0.51100000000E-03 0.  1.
         11   -1    0    0    0    0 -0.00000000000E+00 -0.00000000000E+00 -0.45593999997E+02  0.45594000000E+02  0.51100000000E-03 0. -1.
    9900012    2    1    2    0    0 -0.26967318996E+02 -0.16444038354E+02 -0.29765424843E+02  0.47787271812E+02  0.20000003499E+02 0.  0.
        -12    1    1    2    0    0  0.26967318996E+02  0.16444038354E+02  0.29765424843E+02  0.43400728188E+02  0.00000000000E+00 0.  1.
         11    1    3    3    0    0 -0.13009492466E+02  0.26346420983E-01 -0.55962985635E+01  0.14162137770E+02  0.51100000000E-03 0. -1.
        -11    1    3    3    0    0 -0.14095872441E+01  0.95012942799E+00 -0.31508468854E+01  0.35801562096E+01  0.51100000000E-03 0.  1.
         12    1    3    3    0    0 -0.12548239286E+02 -0.17420514203E+02 -0.21018279394E+02  0.30044977832E+02  0.00000000000E+00 0. -1.
</event>
<event>
 7    1  0.2530788E-009  0.4778728E+02  0.7816164E-02  0.1312668E+00
        -11   -1    0    0    0    0  0.00000000000E+00  0.00000000000E+00  0.45593999997E+02  0.45594000000E+02  0.51100000000E-03 0.  1.
         11   -1    0    0    0    0 -0.00000000000E+00 -0.00000000000E+00 -0.45593999997E+02  0.45594000000E+02  0.51100000000E-03 0. -1.
    9900012    2    1    2    0    0 -0.32154089674E+00 -0.16382321379E+02 -0.40188787515E+02  0.47787280142E+02  0.20000041478E+02 0.  0.
        -12    1    1    2    0    0  0.32154089674E+00  0.16382321379E+02  0.40188787515E+02  0.43400719858E+02  0.00000000000E+00 0.  1.
         11    1    3    3    0    0 -0.43034220318E+01  0.69452113286E+00 -0.19721072731E+02  0.20197091640E+02  0.51100000000E-03 0. -1.
        -11    1    3    3    0    0  0.46242505949E+01 -0.69948845836E+01 -0.98089272103E+01  0.12904540177E+02  0.51100000000E-03 0.  1.
         12    1    3    3    0    0 -0.64236945982E+00 -0.10081957928E+02 -0.10658787574E+02  0.14685648325E+02  0.00000000000E+00 0. -1.
</event>
<event>
 7    1  0.2530788E-009  0.4778728E+02  0.7816164E-02  0.1312668E+00
        -11   -1    0    0    0    0  0.00000000000E+00  0.00000000000E+00  0.45593999997E+02  0.45594000000E+02  0.51100000000E-03 0. -1.
         11   -1    0    0    0    0 -0.00000000000E+00 -0.00000000000E+00 -0.45593999997E+02  0.45594000000E+02  0.51100000000E-03 0.  1.
    9900012    2    1    2    0    0 -0.30587139111E+02  0.30784478005E+02 -0.60471537398E+00  0.47787275977E+02  0.20000022492E+02 0.  0.
        -12    1    1    2    0    0  0.30587139111E+02 -0.30784478005E+02  0.60471537398E+00  0.43400724023E+02  0.00000000000E+00 0.  1.
         11    1    3    3    0    0 -0.22156258061E+02  0.27531026788E+02 -0.39298920182E-01  0.35339195689E+02  0.51100000000E-03 0. -1.
        -11    1    3    3    0    0 -0.95962621267E+00 -0.97235201512E+00 -0.31916736565E+01  0.34717620742E+01  0.51100000000E-03 0.  1.
         12    1    3    3    0    0 -0.74712548367E+01  0.42258032317E+01  0.26262572027E+01  0.89763182142E+01  0.00000000000E+00 0. -1.
</event>
<event>
 7    1  0.2530788E-009  0.4778727E+02  0.7816164E-02  0.1312668E+00
        -11   -1    0    0    0    0  0.00000000000E+00  0.00000000000E+00  0.45593999997E+02  0.45594000000E+02  0.51100000000E-03 0.  1.
         11   -1    0    0    0    0 -0.00000000000E+00 -0.00000000000E+00 -0.45593999997E+02  0.45594000000E+02  0.51100000000E-03 0. -1.
    9900012    2    1    2    0    0 -0.11764452172E+02 -0.40498345350E+02 -0.10252057633E+02  0.47787274238E+02  0.20000014559E+02 0.  0.
        -12    1    1    2    0    0  0.11764452172E+02  0.40498345350E+02  0.10252057633E+02  0.43400725762E+02  0.00000000000E+00 0.  1.
         11    1    3    3    0    0  0.99184904016E+00 -0.24466408674E+02 -0.69062092841E+00  0.24496242068E+02  0.51100000000E-03 0. -1.
        -11    1    3    3    0    0 -0.97984561911E+01 -0.86271769709E+01 -0.43304897645E+01  0.13754674408E+02  0.51100000000E-03 0.  1.
         12    1    3    3    0    0 -0.29578450210E+01 -0.74047597053E+01 -0.52309469406E+01  0.95363577616E+01  0.00000000000E+00 0. -1.
</event>
<event>
 7    1  0.2530788E-009  0.4778728E+02  0.7816164E-02  0.1312668E+00
        -11   -1    0    0    0    0  0.00000000000E+00  0.00000000000E+00  0.45593999997E+02  0.45594000000E+02  0.51100000000E-03 0. -1.
         11   -1    0    0    0    0 -0.00000000000E+00 -0.00000000000E+00 -0.45593999997E+02  0.45594000000E+02  0.51100000000E-03 0.  1.
    9900012    2    1    2    0    0 -0.13756262228E+02 -0.23984355464E+02  0.33453525098E+02  0.47787281123E+02  0.20000045953E+02 0.  0.
        -12    1    1    2    0    0  0.13756262228E+02  0.23984355464E+02 -0.33453525098E+02  0.43400718877E+02  0.00000000000E+00 0.  1.
         11    1    3    3    0    0 -0.13917893277E+02 -0.18887188265E+02  0.32675851663E+02  0.40226172027E+02  0.51100000000E-03 0. -1.
        -11    1    3    3    0    0  0.14262131230E+01  0.29048863775E+00 -0.97993126774E+00  0.17546318906E+01  0.51100000000E-03 0.  1.
         12    1    3    3    0    0 -0.12645820749E+01 -0.53876558370E+01  0.17576047029E+01  0.58064772051E+01  0.00000000000E+00 0. -1.
</event>
<event>
 7    1  0.2530788E-009  0.4778729E+02  0.7816164E-02  0.1312668E+00
        -11   -1    0    0    0    0  0.00000000000E+00  0.00000000000E+00  0.45593999997E+02  0.45594000000E+02  0.51100000000E-03 0.  1.
         11   -1    0    0    0    0 -0.00000000000E+00 -0.00000000000E+00 -0.45593999997E+02  0.45594000000E+02  0.51100000000E-03 0. -1.
    9900012    2    1    2    0    0  0.15322340854E+02  0.24307158394E+02 -0.32527060795E+02  0.47787288457E+02  0.20000079393E+02 0.  0.
        -12    1    1    2    0    0 -0.15322340854E+02 -0.24307158394E+02  0.32527060795E+02  0.43400711543E+02  0.00000000000E+00 0.  1.
         11    1    3    3    0    0  0.10283951227E+02  0.19256038103E+02 -0.30303047441E+02  0.37347414110E+02  0.51100000000E-03 0. -1.
        -11    1    3    3    0    0  0.99747390162E+00 -0.17452881960E+01  0.50941880530E+00  0.20737629690E+01  0.51100000000E-03 0.  1.
         12    1    3    3    0    0  0.40409157255E+01  0.67964084869E+01 -0.27334321594E+01  0.83661113781E+01  0.00000000000E+00 0. -1.
</event>
<event>
 7    1  0.2530788E-009  0.4778727E+02  0.7816164E-02  0.1312668E+00
        -11   -1    0    0    0    0  0.00000000000E+00  0.00000000000E+00  0.45593999997E+02  0.45594000000E+02  0.51100000000E-03 0.  1.
         11   -1    0    0    0    0 -0.00000000000E+00 -0.00000000000E+00 -0.45593999997E+02  0.45594000000E+02  0.51100000000E-03 0. -1.
    9900012    2    1    2    0    0  0.19410260126E+02  0.11465005269E+02 -0.37086636955E+02  0.47787272073E+02  0.20000004689E+02 0.  0.
        -12    1    1    2    0    0 -0.19410260126E+02 -0.11465005269E+02  0.37086636955E+02  0.43400727927E+02  0.00000000000E+00 0.  1.
         11    1    3    3    0    0  0.70248601724E+00  0.83506232671E+01 -0.18391864025E+02  0.20211062766E+02  0.51100000000E-03 0. -1.
        -11    1    3    3    0    0  0.15451208085E+02  0.12101656977E+00 -0.12054581379E+02  0.19597637837E+02  0.51100000000E-03 0.  1.
        -12    1    3    3    0    0  0.32565660244E+01  0.29933654320E+01 -0.66401915509E+01  0.79785714707E+01  0.00000000000E+00 0.  1.
</event>
<event>
 7    1  0.2530788E-009  0.4778727E+02  0.7816164E-02  0.1312668E+00
        -11   -1    0    0    0    0  0.00000000000E+00  0.00000000000E+00  0.45593999997E+02  0.45594000000E+02  0.51100000000E-03 0.  1.
         11   -1    0    0    0    0 -0.00000000000E+00 -0.00000000000E+00 -0.45593999997E+02  0.45594000000E+02  0.51100000000E-03 0. -1.
    9900012    2    1    2    0    0 -0.89095281453E+01 -0.22397092546E+02 -0.36091745789E+02  0.47787267744E+02  0.19999984950E+02 0.  0.
        -12    1    1    2    0    0  0.89095281453E+01  0.22397092546E+02  0.36091745789E+02  0.43400732256E+02  0.00000000000E+00 0.  1.
         11    1    3    3    0    0 -0.30457859581E+01 -0.13032679297E+02 -0.74088196377E+01  0.15297651795E+02  0.51100000000E-03 0. -1.
        -11    1    3    3    0    0 -0.76746597486E+01 -0.69111424137E+01 -0.27208308379E+02  0.29102514270E+02  0.51100000000E-03 0.  1.
        -12    1    3    3    0    0  0.18109175614E+01 -0.24532708354E+01 -0.14746177721E+01  0.33871016784E+01  0.00000000000E+00 0.  1.
</event>
<event>
 7    1  0.2530788E-009  0.4778727E+02  0.7816164E-02  0.1312668E+00
        -11   -1    0    0    0    0  0.00000000000E+00  0.00000000000E+00  0.45593999997E+02  0.45594000000E+02  0.51100000000E-03 0.  1.
         11   -1    0    0    0    0 -0.00000000000E+00 -0.00000000000E+00 -0.45593999997E+02  0.45594000000E+02  0.51100000000E-03 0. -1.
    9900012    2    1    2    0    0  0.14376789597E+02  0.14009940916E+02 -0.38479250525E+02  0.47787271382E+02  0.20000001541E+02 0.  0.
        -12    1    1    2    0    0 -0.14376789597E+02 -0.14009940916E+02  0.38479250525E+02  0.43400728618E+02  0.00000000000E+00 0.  1.
         11    1    3    3    0    0 -0.18901889918E+01 -0.20381571112E+01 -0.45660974885E+01  0.53456660362E+01  0.51100000000E-03 0. -1.
        -11    1    3    3    0    0  0.10653802703E+02  0.12808606441E+02 -0.14888948354E+02  0.22343784244E+02  0.51100000000E-03 0.  1.
        -12    1    3    3    0    0  0.56131758863E+01  0.32394915859E+01 -0.19024204682E+02  0.20097821102E+02  0.00000000000E+00 0.  1.
</event>
<event>
 7    1  0.2530788E-009  0.4778727E+02  0.7816164E-02  0.1312668E+00
        -11   -1    0    0    0    0  0.00000000000E+00  0.00000000000E+00  0.45593999997E+02  0.45594000000E+02  0.51100000000E-03 0.  1.
         11   -1    0    0    0    0 -0.00000000000E+00 -0.00000000000E+00 -0.45593999997E+02  0.45594000000E+02  0.51100000000E-03 0. -1.
    9900012    2    1    2    0    0 -0.61049161264E+00 -0.13249334035E+02 -0.41324398082E+02  0.47787269255E+02  0.19999991841E+02 0.  0.
        -12    1    1    2    0    0  0.61049161264E+00  0.13249334035E+02  0.41324398082E+02  0.43400730745E+02  0.00000000000E+00 0.  1.
         11    1    3    3    0    0 -0.75259193640E+00 -0.62766920577E+00 -0.25519655188E+02  0.25538464411E+02  0.51100000000E-03 0. -1.
        -11    1    3    3    0    0  0.33927198439E+01 -0.11837752537E+02 -0.12548040051E+02  0.17581133139E+02  0.51100000000E-03 0.  1.
        -12    1    3    3    0    0 -0.32506195201E+01 -0.78391229183E+00 -0.32567028423E+01  0.46676717053E+01  0.00000000000E+00 0.  1.
</event>
<event>
 7    1  0.2530788E-009  0.4778727E+02  0.7816164E-02  0.1312668E+00
        -11   -1    0    0    0    0  0.00000000000E+00  0.00000000000E+00  0.45593999997E+02  0.45594000000E+02  0.51100000000E-03 0.  1.
         11   -1    0    0    0    0 -0.00000000000E+00 -0.00000000000E+00 -0.45593999997E+02  0.45594000000E+02  0.51100000000E-03 0. -1.
    9900012    2    1    2    0    0 -0.12467777606E+02 -0.34880907748E+02 -0.22616367019E+02  0.47787271194E+02  0.20000000683E+02 0.  0.
        -12    1    1    2    0    0  0.12467777606E+02  0.34880907748E+02  0.22616367019E+02  0.43400728806E+02  0.00000000000E+00 0.  1.
         11    1    3    3    0    0 -0.29029511242E+01 -0.95985464417E+01 -0.10855197763E+02  0.14778177755E+02  0.51100000000E-03 0. -1.
        -11    1    3    3    0    0  0.26003699994E+01 -0.74861435116E+01 -0.77455677145E+01  0.11081429885E+02  0.51100000000E-03 0.  1.
        -12    1    3    3    0    0 -0.12165196481E+02 -0.17796217794E+02 -0.40156015409E+01  0.21927663554E+02  0.00000000000E+00 0.  1.
</event>
<event>
 7    1  0.2530788E-009  0.4778727E+02  0.7816164E-02  0.1312668E+00
        -11   -1    0    0    0    0  0.00000000000E+00  0.00000000000E+00  0.45593999997E+02  0.45594000000E+02  0.51100000000E-03 0.  1.
         11   -1    0    0    0    0 -0.00000000000E+00 -0.00000000000E+00 -0.45593999997E+02  0.45594000000E+02  0.51100000000E-03 0. -1.
    9900012    2    1    2    0    0  0.43353008442E+02 -0.11232741558E+01  0.16964653525E+01  0.47787273272E+02  0.20000010158E+02 0.  0.
        -12    1    1    2    0    0 -0.43353008442E+02  0.11232741558E+01 -0.16964653525E+01  0.43400726728E+02  0.00000000000E+00 0.  1.
         11    1    3    3    0    0  0.66068480517E+01  0.19145650317E+01 -0.59326172796E+01  0.90836087810E+01  0.51100000000E-03 0.  1.
        -11    1    3    3    0    0  0.54473812595E+01 -0.36260932720E+01  0.23747312747E+01  0.69614555871E+01  0.51100000000E-03 0. -1.
         12    1    3    3    0    0  0.31298779131E+02  0.58825408444E+00  0.52543513574E+01  0.31742208904E+02  0.00000000000E+00 0. -1.
</event>
<event>
 7    1  0.2530788E-009  0.4778727E+02  0.7816164E-02  0.1312668E+00
        -11   -1    0    0    0    0  0.00000000000E+00  0.00000000000E+00  0.45593999997E+02  0.45594000000E+02  0.51100000000E-03 0. -1.
         11   -1    0    0    0    0 -0.00000000000E+00 -0.00000000000E+00 -0.45593999997E+02  0.45594000000E+02  0.51100000000E-03 0.  1.
    9900012    2    1    2    0    0  0.38522043162E+02  0.53766404812E+01  0.19255318829E+02  0.47787269874E+02  0.19999994663E+02 0.  0.
        -12    1    1    2    0    0 -0.38522043162E+02 -0.53766404812E+01 -0.19255318829E+02  0.43400730126E+02  0.00000000000E+00 0.  1.
         11    1    3    3    0    0  0.28201106759E+02  0.27624249456E+01  0.11746210311E+02  0.30674205302E+02  0.51100000000E-03 0. -1.
        -11    1    3    3    0    0 -0.26283802695E-01 -0.26970649907E+01  0.42511870428E+01  0.50346243093E+01  0.51100000000E-03 0.  1.
        -12    1    3    3    0    0  0.10347220206E+02  0.53112805263E+01  0.32579214750E+01  0.12078440262E+02  0.00000000000E+00 0.  1.
</event>
<event>
 7    1  0.2530788E-009  0.4778727E+02  0.7816164E-02  0.1312668E+00
        -11   -1    0    0    0    0  0.00000000000E+00  0.00000000000E+00  0.45593999997E+02  0.45594000000E+02  0.51100000000E-03 0.  1.
         11   -1    0    0    0    0 -0.00000000000E+00 -0.00000000000E+00 -0.45593999997E+02  0.45594000000E+02  0.51100000000E-03 0. -1.
    9900012    2    1    2    0    0  0.52942295660E+01 -0.85658952209E+01 -0.42216350393E+02  0.47787266502E+02  0.19999979290E+02 0.  0.
        -12    1    1    2    0    0 -0.52942295660E+01  0.85658952209E+01  0.42216350393E+02  0.43400733498E+02  0.00000000000E+00 0.  1.
         11    1    3    3    0    0  0.11559197251E+00 -0.50452590409E+01 -0.54623333395E+01  0.74367389404E+01  0.51100000000E-03 0. -1.
        -11    1    3    3    0    0  0.79484474298E+01  0.68245070664E+00 -0.33308586911E+02  0.34250627991E+02  0.51100000000E-03 0.  1.
        -12    1    3    3    0    0 -0.27698098363E+01 -0.42030868866E+01 -0.34454301421E+01  0.60998995705E+01  0.00000000000E+00 0.  1.
</event>
<event>
 7    1  0.2530788E-009  0.4778727E+02  0.7816164E-02  0.1312668E+00
        -11   -1    0    0    0    0  0.00000000000E+00  0.00000000000E+00  0.45593999997E+02  0.45594000000E+02  0.51100000000E-03 0.  1.
         11   -1    0    0    0    0 -0.00000000000E+00 -0.00000000000E+00 -0.45593999997E+02  0.45594000000E+02  0.51100000000E-03 0. -1.
    9900012    2    1    2    0    0 -0.10699538717E+02  0.35500287379E+02 -0.22558213552E+02  0.47787268077E+02  0.19999986471E+02 0.  0.
        -12    1    1    2    0    0  0.10699538717E+02 -0.35500287379E+02  0.22558213552E+02  0.43400731923E+02  0.00000000000E+00 0.  1.
         11    1    3    3    0    0 -0.49431470281E+01 -0.77161856826E+00 -0.14458078625E+01  0.52077306375E+01  0.51100000000E-03 0. -1.
        -11    1    3    3    0    0 -0.87416981893E+00  0.18862108075E+02 -0.10219620855E+02  0.21470536663E+02  0.51100000000E-03 0.  1.
         12    1    3    3    0    0 -0.48822218700E+01  0.17409797872E+02 -0.10892784834E+02  0.21109000777E+02  0.00000000000E+00 0. -1.
</event>
<event>
 7    1  0.2530788E-009  0.4778727E+02  0.7816164E-02  0.1312668E+00
        -11   -1    0    0    0    0  0.00000000000E+00  0.00000000000E+00  0.45593999997E+02  0.45594000000E+02  0.51100000000E-03 0. -1.
         11   -1    0    0    0    0 -0.00000000000E+00 -0.00000000000E+00 -0.45593999997E+02  0.45594000000E+02  0.51100000000E-03 0.  1.
    9900012    2    1    2    0    0 -0.11078371002E+02  0.38473293648E+02  0.16754064386E+02  0.47787270724E+02  0.19999998541E+02 0.  0.
        -12    1    1    2    0    0  0.11078371002E+02 -0.38473293648E+02 -0.16754064386E+02  0.43400729276E+02  0.00000000000E+00 0.  1.
         11    1    3    3    0    0 -0.19216432983E+01  0.54911417685E+01  0.40364626471E+00  0.58316619806E+01  0.51100000000E-03 0. -1.
        -11    1    3    3    0    0 -0.81853561315E+01  0.15746870566E+02  0.17142968848E+02  0.24674792173E+02  0.51100000000E-03 0.  1.
        -12    1    3    3    0    0 -0.97137157246E+00  0.17235281314E+02 -0.79255072608E+00  0.17280816571E+02  0.00000000000E+00 0.  1.
</event>
<event>
 7    1  0.2530788E-009  0.4778727E+02  0.7816164E-02  0.1312668E+00
        -11   -1    0    0    0    0  0.00000000000E+00  0.00000000000E+00  0.45593999997E+02  0.45594000000E+02  0.51100000000E-03 0. -1.
         11   -1    0    0    0    0 -0.00000000000E+00 -0.00000000000E+00 -0.45593999997E+02  0.45594000000E+02  0.51100000000E-03 0.  1.
    9900012    2    1    2    0    0  0.39133204249E+02 -0.75465005531E+01  0.17183300782E+02  0.47787272228E+02  0.20000005395E+02 0.  0.
        -12    1    1    2    0    0 -0.39133204249E+02  0.75465005531E+01 -0.17183300782E+02  0.43400727772E+02  0.00000000000E+00 0.  1.
         11    1    3    3    0    0  0.37484287882E+02 -0.36765110720E+01  0.11344582121E+02  0.39335583324E+02  0.51100000000E-03 0. -1.
        -11    1    3    3    0    0  0.11714920155E+01 -0.47001709109E+01  0.57060812085E+01  0.74848756271E+01  0.51100000000E-03 0.  1.
         12    1    3    3    0    0  0.47742435194E+00  0.83018142977E+00  0.13263745236E+00  0.96681327666E+00  0.00000000000E+00 0. -1.
</event>
<event>
 7    1  0.2530788E-009  0.4778727E+02  0.7816164E-02  0.1312668E+00
        -11   -1    0    0    0    0  0.00000000000E+00  0.00000000000E+00  0.45593999997E+02  0.45594000000E+02  0.51100000000E-03 0.  1.
         11   -1    0    0    0    0 -0.00000000000E+00 -0.00000000000E+00 -0.45593999997E+02  0.45594000000E+02  0.51100000000E-03 0. -1.
    9900012    2    1    2    0    0  0.42271716859E+02 -0.27326497714E+01 -0.94476214991E+01  0.47787274511E+02  0.20000015803E+02 0.  0.
        -12    1    1    2    0    0 -0.42271716859E+02  0.27326497714E+01  0.94476214991E+01  0.43400725489E+02  0.00000000000E+00 0.  1.
         11    1    3    3    0    0 -0.47043518356E+00  0.35516921795E+00 -0.11130155540E+01  0.12594674748E+01  0.51100000000E-03 0. -1.
        -11    1    3    3    0    0  0.39202377704E+02 -0.38918756062E+01 -0.22707266392E+01  0.39460477862E+02  0.51100000000E-03 0.  1.
        -12    1    3    3    0    0  0.35397743394E+01  0.80405661690E+00 -0.60638793059E+01  0.70673291740E+01  0.00000000000E+00 0.  1.
</event>
<event>
 7    1  0.2530788E-009  0.4778727E+02  0.7816164E-02  0.1312668E+00
        -11   -1    0    0    0    0  0.00000000000E+00  0.00000000000E+00  0.45593999997E+02  0.45594000000E+02  0.51100000000E-03 0. -1.
         11   -1    0    0    0    0 -0.00000000000E+00 -0.00000000000E+00 -0.45593999997E+02  0.45594000000E+02  0.51100000000E-03 0.  1.
    9900012    2    1    2    0    0 -0.23535839851E+02  0.15170662377E+02  0.33159294735E+02  0.47787267497E+02  0.19999983827E+02 0.  0.
        -12    1    1    2    0    0  0.23535839851E+02 -0.15170662377E+02 -0.33159294735E+02  0.43400732503E+02  0.00000000000E+00 0.  1.
         11    1    3    3    0    0 -0.11219452765E+02  0.43541703935E+01  0.10095425357E+02  0.15708358716E+02  0.51100000000E-03 0. -1.
        -11    1    3    3    0    0 -0.97418671919E+01  0.12755846198E+02  0.23862499870E+02  0.28758207332E+02  0.51100000000E-03 0.  1.
        -12    1    3    3    0    0 -0.25745198937E+01 -0.19393542141E+01 -0.79863049239E+00  0.33207014492E+01  0.00000000000E+00 0.  1.
</event>
<event>
 7    1  0.2531810E-009  0.4778728E+02  0.7816164E-02  0.1312668E+00
        -11   -1    0    0    0    0  0.00000000000E+00  0.00000000000E+00  0.45593999997E+02  0.45594000000E+02  0.51100000000E-03 0. -1.
         11   -1    0    0    0    0 -0.00000000000E+00 -0.00000000000E+00 -0.45593999997E+02  0.45594000000E+02  0.51100000000E-03 0.  1.
    9900012    2    1    2    0    0 -0.39670779812E+01 -0.23593470195E+02  0.36210947087E+02  0.47787283042E+02  0.20000054703E+02 0.  0.
        -12    1    1    2    0    0  0.39670779812E+01  0.23593470195E+02 -0.36210947087E+02  0.43400716958E+02  0.00000000000E+00 0.  1.
         11    1    3    3    0    0  0.15677285485E+01 -0.17881994802E+02  0.27532868159E+02  0.32867648839E+02  0.51100000000E-03 0. -1.
        -11    1    3    3    0    0 -0.39700906205E+01 -0.42465470317E+01 -0.16981938742E+00  0.58158077782E+01  0.51100000000E-03 0.  1.
        -12    1    3    3    0    0 -0.15647159092E+01 -0.14649283611E+01  0.88478983155E+01  0.91038264252E+01  0.00000000000E+00 0.  1.
</event>
<event>
 7    1  0.2530788E-009  0.4778727E+02  0.7816164E-02  0.1312668E+00
        -11   -1    0    0    0    0  0.00000000000E+00  0.00000000000E+00  0.45593999997E+02  0.45594000000E+02  0.51100000000E-03 0. -1.
         11   -1    0    0    0    0 -0.00000000000E+00 -0.00000000000E+00 -0.45593999997E+02  0.45594000000E+02  0.51100000000E-03 0.  1.
    9900012    2    1    2    0    0  0.18275336974E+02 -0.13794991296E+02  0.36869139864E+02  0.47787271888E+02  0.20000003847E+02 0.  0.
        -12    1    1    2    0    0 -0.18275336974E+02  0.13794991296E+02 -0.36869139864E+02  0.43400728112E+02  0.00000000000E+00 0.  1.
         11    1    3    3    0    0 -0.12123148932E+01  0.26512540538E+01  0.51855523811E+01  0.59488494028E+01  0.51100000000E-03 0.  1.
        -11    1    3    3    0    0  0.96715671173E+01 -0.40933910848E+01  0.18518777765E+02  0.21289438491E+02  0.51100000000E-03 0. -1.
         12    1    3    3    0    0  0.98160847495E+01 -0.12352854266E+02  0.13164809717E+02  0.20548983994E+02  0.00000000000E+00 0. -1.
</event>
<event>
 7    1  0.2530788E-009  0.4778728E+02  0.7816164E-02  0.1312668E+00
        -11   -1    0    0    0    0  0.00000000000E+00  0.00000000000E+00  0.45593999997E+02  0.45594000000E+02  0.51100000000E-03 0. -1.
         11   -1    0    0    0    0 -0.00000000000E+00 -0.00000000000E+00 -0.45593999997E+02  0.45594000000E+02  0.51100000000E-03 0.  1.
    9900012    2    1    2    0    0 -0.21840796287E+02 -0.29312236411E+02  0.23396463892E+02  0.47787284470E+02  0.20000061213E+02 0.  0.
        -12    1    1    2    0    0  0.21840796287E+02  0.29312236411E+02 -0.23396463892E+02  0.43400715530E+02  0.00000000000E+00 0.  1.
         11    1    3    3    0    0 -0.27790203298E+01 -0.10407307852E+02  0.61416778554E+01  0.12399807170E+02  0.51100000000E-03 0. -1.
        -11    1    3    3    0    0 -0.57339121435E+01  0.16425635295E+01  0.59079594577E+01  0.83952217739E+01  0.51100000000E-03 0.  1.
        -12    1    3    3    0    0 -0.13327863814E+02 -0.20547492088E+02  0.11346826579E+02  0.26992255526E+02  0.00000000000E+00 0.  1.
</event>
<event>
 7    1  0.2530788E-009  0.4778727E+02  0.7816164E-02  0.1312668E+00
        -11   -1    0    0    0    0  0.00000000000E+00  0.00000000000E+00  0.45593999997E+02  0.45594000000E+02  0.51100000000E-03 0. -1.
         11   -1    0    0    0    0 -0.00000000000E+00 -0.00000000000E+00 -0.45593999997E+02  0.45594000000E+02  0.51100000000E-03 0.  1.
    9900012    2    1    2    0    0 -0.36684669139E+02 -0.21536359720E+02  0.86048641150E+01  0.47787269289E+02  0.19999991995E+02 0.  0.
        -12    1    1    2    0    0  0.36684669139E+02  0.21536359720E+02 -0.86048641150E+01  0.43400730711E+02  0.00000000000E+00 0.  1.
         11    1    3    3    0    0 -0.56384292099E+01 -0.50961599403E+01  0.54441073221E+01  0.93488520626E+01  0.51100000000E-03 0. -1.
        -11    1    3    3    0    0 -0.25337083676E+02 -0.16473895814E+02 -0.25929373974E+01  0.30332826725E+02  0.51100000000E-03 0.  1.
        -12    1    3    3    0    0 -0.57091562529E+01  0.33696033838E-01  0.57536941903E+01  0.81055905015E+01  0.00000000000E+00 0.  1.
</event>
<event>
 7    1  0.2530788E-009  0.4778727E+02  0.7816164E-02  0.1312668E+00
        -11   -1    0    0    0    0  0.00000000000E+00  0.00000000000E+00  0.45593999997E+02  0.45594000000E+02  0.51100000000E-03 0.  1.
         11   -1    0    0    0    0 -0.00000000000E+00 -0.00000000000E+00 -0.45593999997E+02  0.45594000000E+02  0.51100000000E-03 0. -1.
    9900012    2    1    2    0    0 -0.11324091522E+02  0.33638260102E+02 -0.24977097310E+02  0.47787274413E+02  0.20000015356E+02 0.  0.
        -12    1    1    2    0    0  0.11324091522E+02 -0.33638260102E+02  0.24977097310E+02  0.43400725587E+02  0.00000000000E+00 0.  1.
         11    1    3    3    0    0 -0.11141326774E+02  0.23157926294E+02 -0.26643380654E+02  0.37017407330E+02  0.51100000000E-03 0. -1.
        -11    1    3    3    0    0 -0.85585215305E+00  0.62247005799E+01  0.14911327286E+01  0.64577749490E+01  0.51100000000E-03 0.  1.
         12    1    3    3    0    0  0.67308740510E+00  0.42556332280E+01  0.17515061560E+00  0.43120921331E+01  0.00000000000E+00 0. -1.
</event>
<event>
 7    1  0.2530788E-009  0.4778726E+02  0.7816164E-02  0.1312668E+00
        -11   -1    0    0    0    0  0.00000000000E+00  0.00000000000E+00  0.45593999997E+02  0.45594000000E+02  0.51100000000E-03 0. -1.
         11   -1    0    0    0    0 -0.00000000000E+00 -0.00000000000E+00 -0.45593999997E+02  0.45594000000E+02  0.51100000000E-03 0.  1.
    9900012    2    1    2    0    0 -0.36840471491E+02 -0.13688819304E+01  0.22902627196E+02  0.47787256804E+02  0.19999935073E+02 0.  0.
        -12    1    1    2    0    0  0.36840471491E+02  0.13688819304E+01 -0.22902627196E+02  0.43400743196E+02  0.00000000000E+00 0.  1.
         11    1    3    3    0    0 -0.19720961737E+02 -0.55631946224E+01  0.52178328877E+01  0.21144532309E+02  0.51100000000E-03 0. -1.
        -11    1    3    3    0    0  0.67140525916E+00  0.14798525304E+01  0.30126197538E+01  0.34229558244E+01  0.51100000000E-03 0.  1.
         12    1    3    3    0    0 -0.17790915013E+02  0.27144601616E+01  0.14672174555E+02  0.23219768671E+02  0.00000000000E+00 0. -1.
</event>
<event>
 7    1  0.2530788E-009  0.4778727E+02  0.7816164E-02  0.1312668E+00
        -11   -1    0    0    0    0  0.00000000000E+00  0.00000000000E+00  0.45593999997E+02  0.45594000000E+02  0.51100000000E-03 0. -1.
         11   -1    0    0    0    0 -0.00000000000E+00 -0.00000000000E+00 -0.45593999997E+02  0.45594000000E+02  0.51100000000E-03 0.  1.
    9900012    2    1    2    0    0  0.20945595293E+02 -0.30831657756E+02  0.22233181589E+02  0.47787269065E+02  0.19999990974E+02 0.  0.
        -12    1    1    2    0    0 -0.20945595293E+02  0.30831657756E+02 -0.22233181589E+02  0.43400730935E+02  0.00000000000E+00 0.  1.
         11    1    3    3    0    0  0.52677611707E+01 -0.10319379817E+01  0.21194066794E+01  0.57711427537E+01  0.51100000000E-03 0. -1.
        -11    1    3    3    0    0  0.31012991315E+01 -0.80074544398E+01  0.13501475490E+02  0.16000850714E+02  0.51100000000E-03 0.  1.
        -12    1    3    3    0    0  0.12576534991E+02 -0.21792265334E+02  0.66122994193E+01  0.26015275597E+02  0.00000000000E+00 0.  1.
</event>
<event>
 7    1  0.2530788E-009  0.4778727E+02  0.7816164E-02  0.1312668E+00
        -11   -1    0    0    0    0  0.00000000000E+00  0.00000000000E+00  0.45593999997E+02  0.45594000000E+02  0.51100000000E-03 0.  1.
         11   -1    0    0    0    0 -0.00000000000E+00 -0.00000000000E+00 -0.45593999997E+02  0.45594000000E+02  0.51100000000E-03 0. -1.
    9900012    2    1    2    0    0 -0.48911108321E+01  0.41218584562E+02 -0.12677873667E+02  0.47787272366E+02  0.20000006024E+02 0.  0.
        -12    1    1    2    0    0  0.48911108321E+01 -0.41218584562E+02  0.12677873667E+02  0.43400727634E+02  0.00000000000E+00 0.  1.
         11    1    3    3    0    0 -0.42342019401E+01  0.39817642529E+02 -0.92012596132E+01  0.41085718946E+02  0.51100000000E-03 0. -1.
        -11    1    3    3    0    0  0.10876412065E+01 -0.17786427966E+01 -0.10187960442E+01  0.23204480673E+01  0.51100000000E-03 0.  1.
        -12    1    3    3    0    0 -0.17445500986E+01  0.31795848302E+01 -0.24578180094E+01  0.43811053521E+01  0.00000000000E+00 0.  1.
</event>
<event>
 7    1  0.2530788E-009  0.4778728E+02  0.7816164E-02  0.1312668E+00
        -11   -1    0    0    0    0  0.00000000000E+00  0.00000000000E+00  0.45593999997E+02  0.45594000000E+02  0.51100000000E-03 0.  1.
         11   -1    0    0    0    0 -0.00000000000E+00 -0.00000000000E+00 -0.45593999997E+02  0.45594000000E+02  0.51100000000E-03 0. -1.
    9900012    2    1    2    0    0 -0.68443764288E+01 -0.20421435823E+02 -0.37679462838E+02  0.47787280542E+02  0.20000043301E+02 0.  0.
        -12    1    1    2    0    0  0.68443764288E+01  0.20421435823E+02  0.37679462838E+02  0.43400719458E+02  0.00000000000E+00 0.  1.
         11    1    3    3    0    0 -0.32183795511E+01 -0.72728464979E+01 -0.28222400263E+02  0.29321598524E+02  0.51100000000E-03 0. -1.
        -11    1    3    3    0    0 -0.68273582205E+00 -0.21506150820E+01  0.14638279478E+01  0.26896218982E+01  0.51100000000E-03 0.  1.
         12    1    3    3    0    0 -0.29432610557E+01 -0.10997974243E+02 -0.10920890522E+02  0.15776060120E+02  0.00000000000E+00 0. -1.
</event>
<event>
 7    1  0.2530788E-009  0.4778727E+02  0.7816164E-02  0.1312668E+00
        -11   -1    0    0    0    0  0.00000000000E+00  0.00000000000E+00  0.45593999997E+02  0.45594000000E+02  0.51100000000E-03 0. -1.
         11   -1    0    0    0    0 -0.00000000000E+00 -0.00000000000E+00 -0.45593999997E+02  0.45594000000E+02  0.51100000000E-03 0.  1.
    9900012    2    1    2    0    0  0.95189713490E+01  0.42101560197E+02 -0.45245123009E+01  0.47787269613E+02  0.19999993475E+02 0.  0.
        -12    1    1    2    0    0 -0.95189713490E+01 -0.42101560197E+02  0.45245123009E+01  0.43400730387E+02  0.00000000000E+00 0.  1.
         11    1    3    3    0    0 -0.40032253840E+01  0.59509803348E+01 -0.11666973114E+01  0.72664408962E+01  0.51100000000E-03 0. -1.
        -11    1    3    3    0    0  0.13261761357E+02  0.18685266738E+02 -0.20491268936E+01  0.23004617550E+02  0.51100000000E-03 0.  1.
         12    1    3    3    0    0  0.26043537640E+00  0.17465313124E+02 -0.13086880959E+01  0.17516211167E+02  0.00000000000E+00 0. -1.
</event>
<event>
 7    1  0.2530788E-009  0.4778730E+02  0.7816164E-02  0.1312668E+00
        -11   -1    0    0    0    0  0.00000000000E+00  0.00000000000E+00  0.45593999997E+02  0.45594000000E+02  0.51100000000E-03 0. -1.
         11   -1    0    0    0    0 -0.00000000000E+00 -0.00000000000E+00 -0.45593999997E+02  0.45594000000E+02  0.51100000000E-03 0.  1.
    9900012    2    1    2    0    0  0.71313740343E+01  0.39072678360E+02  0.17495434543E+02  0.47787298166E+02  0.20000123658E+02 0.  0.
        -12    1    1    2    0    0 -0.71313740343E+01 -0.39072678360E+02 -0.17495434543E+02  0.43400701834E+02  0.00000000000E+00 0.  1.
         11    1    3    3    0    0 -0.46837844960E+01  0.10047653158E+02  0.11009322628E+02  0.15623647339E+02  0.51100000000E-03 0. -1.
        -11    1    3    3    0    0  0.98899924552E+01  0.20841246538E+02  0.53392101987E+01  0.23678612160E+02  0.51100000000E-03 0.  1.
         12    1    3    3    0    0  0.19251660751E+01  0.81837786634E+01  0.11469017162E+01  0.84850386666E+01  0.00000000000E+00 0. -1.
</event>
<event>
 7    1  0.2530788E-009  0.4778728E+02  0.7816164E-02  0.1312668E+00
        -11   -1    0    0    0    0  0.00000000000E+00  0.00000000000E+00  0.45593999997E+02  0.45594000000E+02  0.51100000000E-03 0.  1.
         11   -1    0    0    0    0 -0.00000000000E+00 -0.00000000000E+00 -0.45593999997E+02  0.45594000000E+02  0.51100000000E-03 0. -1.
    9900012    2    1    2    0    0  0.15909601443E+02 -0.24449760230E+02 -0.32135905441E+02  0.47787278671E+02  0.20000034771E+02 0.  0.
        -12    1    1    2    0    0 -0.15909601443E+02  0.24449760230E+02  0.32135905441E+02  0.43400721329E+02  0.00000000000E+00 0.  1.
         11    1    3    3    0    0  0.57801065349E+01 -0.87103655160E+01 -0.23723362221E+02  0.25924467484E+02  0.51100000000E-03 0. -1.
        -11    1    3    3    0    0  0.11158556251E+02 -0.14759191690E+02 -0.86452184773E+01  0.20422705985E+02  0.51100000000E-03 0.  1.
         12    1    3    3    0    0 -0.10290613431E+01 -0.98020302466E+00  0.23267525784E+00  0.14401052021E+01  0.00000000000E+00 0. -1.
</event>
<event>
 7    1  0.2530788E-009  0.4778727E+02  0.7816164E-02  0.1312668E+00
        -11   -1    0    0    0    0  0.00000000000E+00  0.00000000000E+00  0.45593999997E+02  0.45594000000E+02  0.51100000000E-03 0. -1.
         11   -1    0    0    0    0 -0.00000000000E+00 -0.00000000000E+00 -0.45593999997E+02  0.45594000000E+02  0.51100000000E-03 0.  1.
    9900012    2    1    2    0    0 -0.26145930858E+02  0.34354171566E+02 -0.44502301245E+01  0.47787270138E+02  0.19999995867E+02 0.  0.
        -12    1    1    2    0    0  0.26145930858E+02 -0.34354171566E+02  0.44502301245E+01  0.43400729862E+02  0.00000000000E+00 0.  1.
         11    1    3    3    0    0 -0.12173233796E+02  0.16012714756E+02 -0.98556081824E+01  0.22399278288E+02  0.51100000000E-03 0. -1.
        -11    1    3    3    0    0 -0.63800304224E+01  0.66938726090E+01  0.67068813127E+01  0.11423439758E+02  0.51100000000E-03 0.  1.
        -12    1    3    3    0    0 -0.75926666395E+01  0.11647584201E+02 -0.13015032548E+01  0.13964552092E+02  0.00000000000E+00 0.  1.
</event>
<event>
 7    1  0.2530788E-009  0.4778726E+02  0.7816164E-02  0.1312668E+00
        -11   -1    0    0    0    0  0.00000000000E+00  0.00000000000E+00  0.45593999997E+02  0.45594000000E+02  0.51100000000E-03 0. -1.
         11   -1    0    0    0    0 -0.00000000000E+00 -0.00000000000E+00 -0.45593999997E+02  0.45594000000E+02  0.51100000000E-03 0.  1.
    9900012    2    1    2    0    0  0.55696079249E+01 -0.11815886297E+02  0.41388262385E+02  0.47787263086E+02  0.19999963715E+02 0.  0.
        -12    1    1    2    0    0 -0.55696079249E+01  0.11815886297E+02 -0.41388262385E+02  0.43400736914E+02  0.00000000000E+00 0.  1.
         11    1    3    3    0    0 -0.21919687621E+01  0.12050923893E+01  0.20111350365E+02  0.20266311665E+02  0.51100000000E-03 0. -1.
        -11    1    3    3    0    0  0.22405255834E+00 -0.87157951178E+01  0.95555731367E+01  0.12935387985E+02  0.51100000000E-03 0.  1.
         12    1    3    3    0    0  0.75375241287E+01 -0.43051835684E+01  0.11721338883E+02  0.14585563436E+02  0.00000000000E+00 0. -1.
</event>
<event>
 7    1  0.2530788E-009  0.4778728E+02  0.7816164E-02  0.1312668E+00
        -11   -1    0    0    0    0  0.00000000000E+00  0.00000000000E+00  0.45593999997E+02  0.45594000000E+02  0.51100000000E-03 0.  1.
         11   -1    0    0    0    0 -0.00000000000E+00 -0.00000000000E+00 -0.45593999997E+02  0.45594000000E+02  0.51100000000E-03 0. -1.
    9900012    2    1    2    0    0 -0.59706520887E+01 -0.42988070449E+02 -0.17107895370E-02  0.47787275465E+02  0.20000020154E+02 0.  0.
        -12    1    1    2    0    0  0.59706520887E+01  0.42988070449E+02  0.17107895370E-02  0.43400724535E+02  0.00000000000E+00 0.  1.
         11    1    3    3    0    0  0.23583466945E+00 -0.31858804078E+02  0.22656036421E+01  0.31940131111E+02  0.51100000000E-03 0. -1.
        -11    1    3    3    0    0 -0.68989158876E+01 -0.50866238432E+01 -0.40907211462E+01  0.94975145330E+01  0.51100000000E-03 0.  1.
        -12    1    3    3    0    0  0.69242912949E+00 -0.60426425278E+01  0.18234067146E+01  0.63496298211E+01  0.00000000000E+00 0.  1.
</event>
<event>
 7    1  0.3590894E-009  0.4778727E+02  0.7816164E-02  0.1312668E+00
        -11   -1    0    0    0    0  0.00000000000E+00  0.00000000000E+00  0.45593999997E+02  0.45594000000E+02  0.51100000000E-03 0.  1.
         11   -1    0    0    0    0 -0.00000000000E+00 -0.00000000000E+00 -0.45593999997E+02  0.45594000000E+02  0.51100000000E-03 0. -1.
    9900012    2    1    2    0    0  0.34005455964E+02  0.21888611546E+02 -0.15752493366E+02  0.47787269614E+02  0.19999993480E+02 0.  0.
        -12    1    1    2    0    0 -0.34005455964E+02 -0.21888611546E+02  0.15752493366E+02  0.43400730386E+02  0.00000000000E+00 0.  1.
         11    1    3    3    0    0  0.19558207440E+02  0.15339030655E+02 -0.10753277528E+02  0.27082140195E+02  0.51100000000E-03 0. -1.
        -11    1    3    3    0    0  0.36575641779E+01 -0.16249769621E+01 -0.59102291523E+01  0.71378662593E+01  0.51100000000E-03 0.  1.
        -12    1    3    3    0    0  0.10789684347E+02  0.81745578529E+01  0.91101331413E+00  0.13567263160E+02  0.00000000000E+00 0.  1.
</event>
<event>
 7    1  0.2530788E-009  0.4778727E+02  0.7816164E-02  0.1312668E+00
        -11   -1    0    0    0    0  0.00000000000E+00  0.00000000000E+00  0.45593999997E+02  0.45594000000E+02  0.51100000000E-03 0.  1.
         11   -1    0    0    0    0 -0.00000000000E+00 -0.00000000000E+00 -0.45593999997E+02  0.45594000000E+02  0.51100000000E-03 0. -1.
    9900012    2    1    2    0    0 -0.37569018908E+02 -0.21578233593E+02 -0.25635526006E+01  0.47787272487E+02  0.20000006577E+02 0.  0.
        -12    1    1    2    0    0  0.37569018908E+02  0.21578233593E+02  0.25635526006E+01  0.43400727513E+02  0.00000000000E+00 0.  1.
         11    1    3    3    0    0 -0.21112152344E+02 -0.35493137677E+01  0.28999602004E+01  0.21603943488E+02  0.51100000000E-03 0. -1.
        -11    1    3    3    0    0 -0.40953136216E+00  0.61125644100E+00 -0.90822825525E+00  0.11688580744E+01  0.51100000000E-03 0.  1.
         12    1    3    3    0    0 -0.16047335203E+02 -0.18640176266E+02 -0.45552845458E+01  0.25014470925E+02  0.00000000000E+00 0. -1.
</event>
<event>
 7    1  0.2530788E-009  0.4778727E+02  0.7816164E-02  0.1312668E+00
        -11   -1    0    0    0    0  0.00000000000E+00  0.00000000000E+00  0.45593999997E+02  0.45594000000E+02  0.51100000000E-03 0. -1.
         11   -1    0    0    0    0 -0.00000000000E+00 -0.00000000000E+00 -0.45593999997E+02  0.45594000000E+02  0.51100000000E-03 0.  1.
    9900012    2    1    2    0    0  0.25952880823E+02 -0.17550839819E+02  0.30033972067E+02  0.47787268675E+02  0.19999989199E+02 0.  0.
        -12    1    1    2    0    0 -0.25952880823E+02  0.17550839819E+02 -0.30033972067E+02  0.43400731325E+02  0.00000000000E+00 0.  1.
         11    1    3    3    0    0  0.23166991845E+02 -0.17184103899E+02  0.31286667202E+02  0.42554182906E+02  0.51100000000E-03 0. -1.
        -11    1    3    3    0    0  0.23147168683E+01  0.15103420740E+01 -0.17025419523E+01  0.32461818682E+01  0.51100000000E-03 0.  1.
         12    1    3    3    0    0  0.47117211023E+00 -0.18770779937E+01  0.44984681743E+00  0.19869039008E+01  0.00000000000E+00 0. -1.
</event>
<event>
 7    1  0.2530788E-009  0.4778728E+02  0.7816164E-02  0.1312668E+00
        -11   -1    0    0    0    0  0.00000000000E+00  0.00000000000E+00  0.45593999997E+02  0.45594000000E+02  0.51100000000E-03 0. -1.
         11   -1    0    0    0    0 -0.00000000000E+00 -0.00000000000E+00 -0.45593999997E+02  0.45594000000E+02  0.51100000000E-03 0.  1.
    9900012    2    1    2    0    0  0.37784298657E+02  0.20811823601E+02  0.47788156428E+01  0.47787282201E+02  0.20000050866E+02 0.  0.
        -12    1    1    2    0    0 -0.37784298657E+02 -0.20811823601E+02 -0.47788156428E+01  0.43400717799E+02  0.00000000000E+00 0.  1.
         11    1    3    3    0    0  0.12799117627E+02  0.33317285897E+01  0.57795988485E+01  0.14433349942E+02  0.51100000000E-03 0. -1.
        -11    1    3    3    0    0  0.11651530724E+02  0.15563785365E+02 -0.32043120071E+01  0.19704243168E+02  0.51100000000E-03 0.  1.
        -12    1    3    3    0    0  0.13333650305E+02  0.19163096462E+01  0.22035288014E+01  0.13649689091E+02  0.00000000000E+00 0.  1.
</event>
<event>
 7    1  0.2530788E-009  0.4778727E+02  0.7816164E-02  0.1312668E+00
        -11   -1    0    0    0    0  0.00000000000E+00  0.00000000000E+00  0.45593999997E+02  0.45594000000E+02  0.51100000000E-03 0.  1.
         11   -1    0    0    0    0 -0.00000000000E+00 -0.00000000000E+00 -0.45593999997E+02  0.45594000000E+02  0.51100000000E-03 0. -1.
    9900012    2    1    2    0    0  0.10330868390E+02 -0.41751922812E+02  0.58028813075E+01  0.47787270378E+02  0.19999996963E+02 0.  0.
        -12    1    1    2    0    0 -0.10330868390E+02  0.41751922812E+02 -0.58028813075E+01  0.43400729622E+02  0.00000000000E+00 0.  1.
         11    1    3    3    0    0  0.69335594038E+01 -0.13264963321E+02  0.97802545674E+00  0.14999667728E+02  0.51100000000E-03 0. -1.
        -11    1    3    3    0    0  0.66337204892E+01 -0.28093929815E+02  0.56735125218E+01  0.29418767557E+02  0.51100000000E-03 0.  1.
        -12    1    3    3    0    0 -0.32364115025E+01 -0.39302967677E+00 -0.84865667105E+00  0.33688350933E+01  0.00000000000E+00 0.  1.
</event>
<event>
 7    1  0.2530788E-009  0.4778731E+02  0.7816164E-02  0.1312668E+00
        -11   -1    0    0    0    0  0.00000000000E+00  0.00000000000E+00  0.45593999997E+02  0.45594000000E+02  0.51100000000E-03 0.  1.
         11   -1    0    0    0    0 -0.00000000000E+00 -0.00000000000E+00 -0.45593999997E+02  0.45594000000E+02  0.51100000000E-03 0. -1.
    9900012    2    1    2    0    0  0.40528547623E+02 -0.14762155764E+02 -0.48099067392E+01  0.47787313161E+02  0.20000192026E+02 0.  0.
        -12    1    1    2    0    0 -0.40528547623E+02  0.14762155764E+02  0.48099067392E+01  0.43400686839E+02  0.00000000000E+00 0.  1.
         11    1    3    3    0    0  0.16502357047E+02  0.25049744241E+01 -0.43112929386E+01  0.17239197546E+02  0.51100000000E-03 0. -1.
        -11    1    3    3    0    0  0.77623271203E+01 -0.77031391633E+01 -0.34147939465E+01  0.11456565508E+02  0.51100000000E-03 0.  1.
         12    1    3    3    0    0  0.16263863456E+02 -0.95639910249E+01  0.29161801458E+01  0.19091550107E+02  0.00000000000E+00 0. -1.
</event>
<event>
 7    1  0.2530788E-009  0.4778727E+02  0.7816164E-02  0.1312668E+00
        -11   -1    0    0    0    0  0.00000000000E+00  0.00000000000E+00  0.45593999997E+02  0.45594000000E+02  0.51100000000E-03 0.  1.
         11   -1    0    0    0    0 -0.00000000000E+00 -0.00000000000E+00 -0.45593999997E+02  0.45594000000E+02  0.51100000000E-03 0. -1.
    9900012    2    1    2    0    0  0.14244261320E+02  0.39709522107E+02 -0.10192055574E+02  0.47787272779E+02  0.20000007907E+02 0.  0.
        -12    1    1    2    0    0 -0.14244261320E+02 -0.39709522107E+02  0.10192055574E+02  0.43400727221E+02  0.00000000000E+00 0.  1.
         11    1    3    3    0    0  0.42908504695E+01  0.38950958373E+01 -0.87235668507E+01  0.10473002826E+02  0.51100000000E-03 0. -1.
        -11    1    3    3    0    0  0.72087267851E+01  0.22738611359E+02  0.16115865562E+00  0.23854478841E+02  0.51100000000E-03 0.  1.
         12    1    3    3    0    0  0.27446840658E+01  0.13075814910E+02 -0.16296473791E+01  0.13459791111E+02  0.00000000000E+00 0. -1.
</event>
<event>
 7    1  0.2530788E-009  0.4778726E+02  0.7816164E-02  0.1312668E+00
        -11   -1    0    0    0    0  0.00000000000E+00  0.00000000000E+00  0.45593999997E+02  0.45594000000E+02  0.51100000000E-03 0.  1.
         11   -1    0    0    0    0 -0.00000000000E+00 -0.00000000000E+00 -0.45593999997E+02  0.45594000000E+02  0.51100000000E-03 0. -1.
    9900012    2    1    2    0    0 -0.84591748603E+01  0.42558276393E+02  0.92702932667E+00  0.47787263690E+02  0.19999966469E+02 0.  0.
        -12    1    1    2    0    0  0.84591748603E+01 -0.42558276393E+02 -0.92702932667E+00  0.43400736310E+02  0.00000000000E+00 0.  1.
         11    1    3    3    0    0 -0.62514849439E+01  0.18721144979E+01  0.22074912245E+01  0.68890416216E+01  0.51100000000E-03 0. -1.
        -11    1    3    3    0    0 -0.99060891763E+00  0.21949467013E+02  0.93557726204E+00  0.21991719197E+02  0.51100000000E-03 0.  1.
         12    1    3    3    0    0 -0.12170809988E+01  0.18736694882E+02 -0.22160391598E+01  0.18906502871E+02  0.00000000000E+00 0. -1.
</event>
<event>
 7    1  0.2530788E-009  0.4778727E+02  0.7816164E-02  0.1312668E+00
        -11   -1    0    0    0    0  0.00000000000E+00  0.00000000000E+00  0.45593999997E+02  0.45594000000E+02  0.51100000000E-03 0.  1.
         11   -1    0    0    0    0 -0.00000000000E+00 -0.00000000000E+00 -0.45593999997E+02  0.45594000000E+02  0.51100000000E-03 0. -1.
    9900012    2    1    2    0    0  0.20748555990E+02 -0.28419888449E+02 -0.25405332256E+02  0.47787267954E+02  0.19999985907E+02 0.  0.
        -12    1    1    2    0    0 -0.20748555990E+02  0.28419888449E+02  0.25405332256E+02  0.43400732046E+02  0.00000000000E+00 0.  1.
         11    1    3    3    0    0  0.37192241664E+01 -0.10753561790E+02 -0.28594170254E+01  0.11732347828E+02  0.51100000000E-03 0. -1.
        -11    1    3    3    0    0  0.54105849607E+01  0.11179942764E+01 -0.75600193961E+01  0.93636656470E+01  0.51100000000E-03 0.  1.
        -12    1    3    3    0    0  0.11618746863E+02 -0.18784320935E+02 -0.14985895835E+02  0.26691254478E+02  0.00000000000E+00 0.  1.
</event>
<event>
 7    1  0.2530788E-009  0.4778727E+02  0.7816164E-02  0.1312668E+00
        -11   -1    0    0    0    0  0.00000000000E+00  0.00000000000E+00  0.45593999997E+02  0.45594000000E+02  0.51100000000E-03 0.  1.
         11   -1    0    0    0    0 -0.00000000000E+00 -0.00000000000E+00 -0.45593999997E+02  0.45594000000E+02  0.51100000000E-03 0. -1.
    9900012    2    1    2    0    0 -0.27289121969E+02  0.11910802916E+02 -0.31576262656E+02  0.47787265360E+02  0.19999974082E+02 0.  0.
        -12    1    1    2    0    0  0.27289121969E+02 -0.11910802916E+02  0.31576262656E+02  0.43400734640E+02  0.00000000000E+00 0.  1.
         11    1    3    3    0    0 -0.12130470795E+02  0.59277666395E+01 -0.10085572167E+02  0.16852462883E+02  0.51100000000E-03 0. -1.
        -11    1    3    3    0    0 -0.78237227404E+01  0.10577384908E+02 -0.15872531499E+02  0.20616230632E+02  0.51100000000E-03 0.  1.
        -12    1    3    3    0    0 -0.73349284344E+01 -0.45943486312E+01 -0.56181589905E+01  0.10318571845E+02  0.00000000000E+00 0.  1.
</event>
<event>
 7    1  0.2530788E-009  0.4778727E+02  0.7816164E-02  0.1312668E+00
        -11   -1    0    0    0    0  0.00000000000E+00  0.00000000000E+00  0.45593999997E+02  0.45594000000E+02  0.51100000000E-03 0.  1.
         11   -1    0    0    0    0 -0.00000000000E+00 -0.00000000000E+00 -0.45593999997E+02  0.45594000000E+02  0.51100000000E-03 0. -1.
    9900012    2    1    2    0    0 -0.36422855774E+02 -0.12897459865E+02 -0.19764976052E+02  0.47787272218E+02  0.20000005349E+02 0.  0.
        -12    1    1    2    0    0  0.36422855774E+02  0.12897459865E+02  0.19764976052E+02  0.43400727782E+02  0.00000000000E+00 0.  1.
         11    1    3    3    0    0 -0.16246716749E+02 -0.23596950104E+01 -0.15070616621E+02  0.22285588421E+02  0.51100000000E-03 0. -1.
        -11    1    3    3    0    0 -0.17589220638E+02 -0.11581335750E+02 -0.12881071541E+01  0.21098986723E+02  0.51100000000E-03 0.  1.
        -12    1    3    3    0    0 -0.25869183857E+01  0.10435708950E+01 -0.34062522772E+01  0.44026970738E+01  0.00000000000E+00 0.  1.
</event>
<event>
 7    1  0.2530788E-009  0.4778727E+02  0.7816164E-02  0.1312668E+00
        -11   -1    0    0    0    0  0.00000000000E+00  0.00000000000E+00  0.45593999997E+02  0.45594000000E+02  0.51100000000E-03 0.  1.
         11   -1    0    0    0    0 -0.00000000000E+00 -0.00000000000E+00 -0.45593999997E+02  0.45594000000E+02  0.51100000000E-03 0. -1.
    9900012    2    1    2    0    0  0.17077362799E+01  0.25215576825E+02 -0.35282878501E+02  0.47787271975E+02  0.20000004241E+02 0.  0.
        -12    1    1    2    0    0 -0.17077362799E+01 -0.25215576825E+02  0.35282878501E+02  0.43400728025E+02  0.00000000000E+00 0.  1.
         11    1    3    3    0    0  0.15829685409E+01  0.10818195818E+02 -0.15724043728E+02  0.19151623993E+02  0.51100000000E-03 0. -1.
        -11    1    3    3    0    0  0.48247629312E+01  0.11021794764E+02 -0.51110847481E+01  0.13072164500E+02  0.51100000000E-03 0.  1.
        -12    1    3    3    0    0 -0.46999951922E+01  0.33755862435E+01 -0.14447750025E+02  0.15563483482E+02  0.00000000000E+00 0.  1.
</event>
<event>
 7    1  0.2530788E-009  0.4778727E+02  0.7816164E-02  0.1312668E+00
        -11   -1    0    0    0    0  0.00000000000E+00  0.00000000000E+00  0.45593999997E+02  0.45594000000E+02  0.51100000000E-03 0.  1.
         11   -1    0    0    0    0 -0.00000000000E+00 -0.00000000000E+00 -0.45593999997E+02  0.45594000000E+02  0.51100000000E-03 0. -1.
    9900012    2    1    2    0    0 -0.42913226461E+02  0.24840068226E+01 -0.59923208368E+01  0.47787271847E+02  0.20000003661E+02 0.  0.
        -12    1    1    2    0    0  0.42913226461E+02 -0.24840068226E+01  0.59923208368E+01  0.43400728153E+02  0.00000000000E+00 0.  1.
         11    1    3    3    0    0 -0.77348170698E+01  0.84110985149E+01 -0.24062006744E+01  0.11677490110E+02  0.51100000000E-03 0.  1.
        -11    1    3    3    0    0 -0.27451965891E+02 -0.36247178552E+01 -0.42746908612E+01  0.28018243932E+02  0.51100000000E-03 0. -1.
        -12    1    3    3    0    0 -0.77264434998E+01 -0.23023738371E+01  0.68857069881E+00  0.80915378050E+01  0.00000000000E+00 0.  1.
</event>
<event>
 7    1  0.2530788E-009  0.4778727E+02  0.7816164E-02  0.1312668E+00
        -11   -1    0    0    0    0  0.00000000000E+00  0.00000000000E+00  0.45593999997E+02  0.45594000000E+02  0.51100000000E-03 0. -1.
         11   -1    0    0    0    0 -0.00000000000E+00 -0.00000000000E+00 -0.45593999997E+02  0.45594000000E+02  0.51100000000E-03 0.  1.
    9900012    2    1    2    0    0  0.24374114462E+02  0.12590406147E+02  0.33630453537E+02  0.47787272036E+02  0.20000004520E+02 0.  0.
        -12    1    1    2    0    0 -0.24374114462E+02 -0.12590406147E+02 -0.33630453537E+02  0.43400727964E+02  0.00000000000E+00 0.  1.
         11    1    3    3    0    0  0.79433869545E+01  0.31689650670E+01  0.48440858051E+01  0.98287793470E+01  0.51100000000E-03 0. -1.
        -11    1    3    3    0    0  0.44187324355E+01  0.43432011776E+01 -0.17283863331E+00  0.61982631649E+01  0.51100000000E-03 0.  1.
        -12    1    3    3    0    0  0.12011995072E+02  0.50782399020E+01  0.28959206365E+02  0.31760229524E+02  0.00000000000E+00 0.  1.
</event>
<event>
 7    1  0.2530788E-009  0.4778726E+02  0.7816164E-02  0.1312668E+00
        -11   -1    0    0    0    0  0.00000000000E+00  0.00000000000E+00  0.45593999997E+02  0.45594000000E+02  0.51100000000E-03 0.  1.
         11   -1    0    0    0    0 -0.00000000000E+00 -0.00000000000E+00 -0.45593999997E+02  0.45594000000E+02  0.51100000000E-03 0. -1.
    9900012    2    1    2    0    0 -0.33816946838E+02 -0.26720111877E+02  0.51062807632E+01  0.47787258354E+02  0.19999942141E+02 0.  0.
        -12    1    1    2    0    0  0.33816946838E+02  0.26720111877E+02 -0.51062807632E+01  0.43400741646E+02  0.00000000000E+00 0.  1.
         11    1    3    3    0    0 -0.23419882420E+02 -0.16775779486E+02  0.54109958234E+01  0.29312054619E+02  0.51100000000E-03 0. -1.
        -11    1    3    3    0    0  0.21628806600E+01 -0.26423952164E+01  0.16910368358E+01  0.38105001076E+01  0.51100000000E-03 0.  1.
         12    1    3    3    0    0 -0.12559945078E+02 -0.73019371738E+01 -0.19957518960E+01  0.14664703627E+02  0.00000000000E+00 0. -1.
</event>
<event>
 7    1  0.2530788E-009  0.4778727E+02  0.7816164E-02  0.1312668E+00
        -11   -1    0    0    0    0  0.00000000000E+00  0.00000000000E+00  0.45593999997E+02  0.45594000000E+02  0.51100000000E-03 0.  1.
         11   -1    0    0    0    0 -0.00000000000E+00 -0.00000000000E+00 -0.45593999997E+02  0.45594000000E+02  0.51100000000E-03 0. -1.
    9900012    2    1    2    0    0  0.36390075497E+02  0.18099596997E+02  0.15224666509E+02  0.47787268711E+02  0.19999989359E+02 0.  0.
        -12    1    1    2    0    0 -0.36390075497E+02 -0.18099596997E+02 -0.15224666509E+02  0.43400731289E+02  0.00000000000E+00 0.  1.
         11    1    3    3    0    0  0.19270520489E+02  0.83187380874E+01  0.58347258899E+01  0.21785279198E+02  0.51100000000E-03 0. -1.
        -11    1    3    3    0    0  0.42679733822E+01 -0.19980150824E+01  0.69531388080E+01  0.83996309803E+01  0.51100000000E-03 0.  1.
        -12    1    3    3    0    0  0.12851581626E+02  0.11778873992E+02  0.24368018113E+01  0.17602358532E+02  0.00000000000E+00 0.  1.
</event>
<event>
 7    1  0.2530788E-009  0.4778727E+02  0.7816164E-02  0.1312668E+00
        -11   -1    0    0    0    0  0.00000000000E+00  0.00000000000E+00  0.45593999997E+02  0.45594000000E+02  0.51100000000E-03 0.  1.
         11   -1    0    0    0    0 -0.00000000000E+00 -0.00000000000E+00 -0.45593999997E+02  0.45594000000E+02  0.51100000000E-03 0. -1.
    9900012    2    1    2    0    0 -0.72047354952E+01  0.35282605752E+02 -0.24225043646E+02  0.47787271644E+02  0.20000002732E+02 0.  0.
        -12    1    1    2    0    0  0.72047354952E+01 -0.35282605752E+02  0.24225043646E+02  0.43400728356E+02  0.00000000000E+00 0.  1.
         11    1    3    3    0    0 -0.75912123770E+01  0.18205553981E+02 -0.87474712906E+01  0.21577464062E+02  0.51100000000E-03 0. -1.
        -11    1    3    3    0    0 -0.39740920262E+00  0.11070575899E+02 -0.16690469824E+02  0.20032158347E+02  0.51100000000E-03 0.  1.
        -12    1    3    3    0    0  0.78388608436E+00  0.60064758719E+01  0.12128974693E+01  0.61776492345E+01  0.00000000000E+00 0.  1.
</event>
<event>
 7    1  0.2530788E-009  0.4778727E+02  0.7816164E-02  0.1312668E+00
        -11   -1    0    0    0    0  0.00000000000E+00  0.00000000000E+00  0.45593999997E+02  0.45594000000E+02  0.51100000000E-03 0.  1.
         11   -1    0    0    0    0 -0.00000000000E+00 -0.00000000000E+00 -0.45593999997E+02  0.45594000000E+02  0.51100000000E-03 0. -1.
    9900012    2    1    2    0    0 -0.20287705452E+02 -0.10666125692E+02 -0.36854662542E+02  0.47787269812E+02  0.19999994380E+02 0.  0.
        -12    1    1    2    0    0  0.20287705452E+02  0.10666125692E+02  0.36854662542E+02  0.43400730188E+02  0.00000000000E+00 0.  1.
         11    1    3    3    0    0 -0.11208345746E+02 -0.10660889865E+02 -0.19420622753E+02  0.24828253572E+02  0.51100000000E-03 0. -1.
        -11    1    3    3    0    0 -0.48226141380E+01  0.22100596420E+01 -0.17367754164E+02  0.18159869375E+02  0.51100000000E-03 0.  1.
        -12    1    3    3    0    0 -0.42567455683E+01 -0.22152954692E+01 -0.66285625361E-01  0.47991468652E+01  0.00000000000E+00 0.  1.
</event>
<event>
 7    1  0.2530788E-009  0.4778727E+02  0.7816164E-02  0.1312668E+00
        -11   -1    0    0    0    0  0.00000000000E+00  0.00000000000E+00  0.45593999997E+02  0.45594000000E+02  0.51100000000E-03 0.  1.
         11   -1    0    0    0    0 -0.00000000000E+00 -0.00000000000E+00 -0.45593999997E+02  0.45594000000E+02  0.51100000000E-03 0. -1.
    9900012    2    1    2    0    0 -0.15537211150E+02 -0.14631197093E+02 -0.37790826221E+02  0.47787269532E+02  0.19999993104E+02 0.  0.
        -12    1    1    2    0    0  0.15537211150E+02  0.14631197093E+02  0.37790826221E+02  0.43400730468E+02  0.00000000000E+00 0.  1.
         11    1    3    3    0    0 -0.13662917953E+02 -0.82449577134E+00 -0.19563656635E+02  0.23876594846E+02  0.51100000000E-03 0. -1.
        -11    1    3    3    0    0  0.41703548980E+00 -0.10546899649E+02 -0.16456016805E+02  0.19550230182E+02  0.51100000000E-03 0.  1.
        -12    1    3    3    0    0 -0.22913286871E+01 -0.32598016728E+01 -0.17711527808E+01  0.43604445038E+01  0.00000000000E+00 0.  1.
</event>
<event>
 7    1  0.2530788E-009  0.4778727E+02  0.7816164E-02  0.1312668E+00
        -11   -1    0    0    0    0  0.00000000000E+00  0.00000000000E+00  0.45593999997E+02  0.45594000000E+02  0.51100000000E-03 0. -1.
         11   -1    0    0    0    0 -0.00000000000E+00 -0.00000000000E+00 -0.45593999997E+02  0.45594000000E+02  0.51100000000E-03 0.  1.
    9900012    2    1    2    0    0 -0.19096827861E+02  0.17695265656E+02  0.34724804792E+02  0.47787270411E+02  0.19999997114E+02 0.  0.
        -12    1    1    2    0    0  0.19096827861E+02 -0.17695265656E+02 -0.34724804792E+02  0.43400729589E+02  0.00000000000E+00 0.  1.
         11    1    3    3    0    0 -0.49408299780E+01 -0.11872623777E+01  0.12826486107E+02  0.13796381371E+02  0.51100000000E-03 0. -1.
        -11    1    3    3    0    0 -0.35228254177E+01  0.51717354961E+01  0.13142116825E+02  0.14555836694E+02  0.51100000000E-03 0.  1.
         12    1    3    3    0    0 -0.10633172465E+02  0.13710792538E+02  0.87562018605E+01  0.19435052347E+02  0.00000000000E+00 0. -1.
</event>
<event>
 7    1  0.2530788E-009  0.4778727E+02  0.7816164E-02  0.1312668E+00
        -11   -1    0    0    0    0  0.00000000000E+00  0.00000000000E+00  0.45593999997E+02  0.45594000000E+02  0.51100000000E-03 0.  1.
         11   -1    0    0    0    0 -0.00000000000E+00 -0.00000000000E+00 -0.45593999997E+02  0.45594000000E+02  0.51100000000E-03 0. -1.
    9900012    2    1    2    0    0  0.14537299818E+02 -0.40611421782E+02  0.47960934430E+01  0.47787272155E+02  0.20000005064E+02 0.  0.
        -12    1    1    2    0    0 -0.14537299818E+02  0.40611421782E+02 -0.47960934430E+01  0.43400727845E+02  0.00000000000E+00 0.  1.
         11    1    3    3    0    0  0.14874564280E+02 -0.32992314262E+02  0.61547915330E+01  0.36710038435E+02  0.51100000000E-03 0. -1.
        -11    1    3    3    0    0  0.82713696190E+00  0.13663723328E+01 -0.12296049453E+01  0.20157027281E+01  0.51100000000E-03 0.  1.
         12    1    3    3    0    0 -0.11644014244E+01 -0.89854798534E+01 -0.12909314475E+00  0.90615309917E+01  0.00000000000E+00 0. -1.
</event>
<event>
 7    1  0.2530788E-009  0.4778727E+02  0.7816164E-02  0.1312668E+00
        -11   -1    0    0    0    0  0.00000000000E+00  0.00000000000E+00  0.45593999997E+02  0.45594000000E+02  0.51100000000E-03 0.  1.
         11   -1    0    0    0    0 -0.00000000000E+00 -0.00000000000E+00 -0.45593999997E+02  0.45594000000E+02  0.51100000000E-03 0. -1.
    9900012    2    1    2    0    0  0.34856289043E+02  0.24132348778E+02 -0.92893557245E+01  0.47787271052E+02  0.20000000034E+02 0.  0.
        -12    1    1    2    0    0 -0.34856289043E+02 -0.24132348778E+02  0.92893557245E+01  0.43400728948E+02  0.00000000000E+00 0.  1.
         11    1    3    3    0    0  0.13724736077E+02  0.28123137839E+01 -0.10113883244E+02  0.17279123928E+02  0.51100000000E-03 0. -1.
        -11    1    3    3    0    0  0.13001088313E+02  0.12337351977E+02  0.30752666883E+01  0.18185043761E+02  0.51100000000E-03 0.  1.
         12    1    3    3    0    0  0.81304646534E+01  0.89826830174E+01 -0.22507391685E+01  0.12323103362E+02  0.00000000000E+00 0. -1.
</event>
<event>
 7    1  0.2530788E-009  0.4778728E+02  0.7816164E-02  0.1312668E+00
        -11   -1    0    0    0    0  0.00000000000E+00  0.00000000000E+00  0.45593999997E+02  0.45594000000E+02  0.51100000000E-03 0.  1.
         11   -1    0    0    0    0 -0.00000000000E+00 -0.00000000000E+00 -0.45593999997E+02  0.45594000000E+02  0.51100000000E-03 0. -1.
    9900012    2    1    2    0    0 -0.81806835736E+00  0.13946684268E+02 -0.41090672914E+02  0.47787278365E+02  0.20000033377E+02 0.  0.
        -12    1    1    2    0    0  0.81806835736E+00 -0.13946684268E+02  0.41090672914E+02  0.43400721635E+02  0.00000000000E+00 0.  1.
         11    1    3    3    0    0 -0.50301682903E+01  0.16456337914E+02 -0.25589006028E+02  0.30836842904E+02  0.51100000000E-03 0. -1.
        -11    1    3    3    0    0  0.33215846731E+01 -0.53050445154E+00 -0.13767398560E+02  0.14172354183E+02  0.51100000000E-03 0.  1.
        -12    1    3    3    0    0  0.89051525988E+00 -0.19791491937E+01 -0.17342683263E+01  0.27780812779E+01  0.00000000000E+00 0.  1.
</event>
<event>
 7    1  0.2530788E-009  0.4778726E+02  0.7816164E-02  0.1312668E+00
        -11   -1    0    0    0    0  0.00000000000E+00  0.00000000000E+00  0.45593999997E+02  0.45594000000E+02  0.51100000000E-03 0.  1.
         11   -1    0    0    0    0 -0.00000000000E+00 -0.00000000000E+00 -0.45593999997E+02  0.45594000000E+02  0.51100000000E-03 0. -1.
    9900012    2    1    2    0    0 -0.18384447367E-01 -0.20185944087E+02 -0.38420713421E+02  0.47787263872E+02  0.19999967297E+02 0.  0.
        -12    1    1    2    0    0  0.18384447367E-01  0.20185944087E+02  0.38420713421E+02  0.43400736128E+02  0.00000000000E+00 0.  1.
         11    1    3    3    0    0  0.42426562123E+01 -0.61932761640E+01 -0.15672459707E+02  0.17377652169E+02  0.51100000000E-03 0. -1.
        -11    1    3    3    0    0 -0.63309419443E+01 -0.69191309759E+01 -0.38733879767E+01  0.10146838623E+02  0.51100000000E-03 0.  1.
        -12    1    3    3    0    0  0.20699012846E+01 -0.70735369468E+01 -0.18874865738E+02  0.20262773080E+02  0.00000000000E+00 0.  1.
</event>
<event>
 7    1  0.2530788E-009  0.4778727E+02  0.7816164E-02  0.1312668E+00
        -11   -1    0    0    0    0  0.00000000000E+00  0.00000000000E+00  0.45593999997E+02  0.45594000000E+02  0.51100000000E-03 0.  1.
         11   -1    0    0    0    0 -0.00000000000E+00 -0.00000000000E+00 -0.45593999997E+02  0.45594000000E+02  0.51100000000E-03 0. -1.
    9900012    2    1    2    0    0 -0.37688195885E+02  0.15194342577E+02 -0.15243192895E+02  0.47787273220E+02  0.20000009918E+02 0.  0.
        -12    1    1    2    0    0  0.37688195885E+02 -0.15194342577E+02  0.15243192895E+02  0.43400726780E+02  0.00000000000E+00 0.  1.
         11    1    3    3    0    0 -0.16788420614E+02  0.60201457671E+01 -0.13809678702E+02  0.22556605416E+02  0.51100000000E-03 0. -1.
        -11    1    3    3    0    0 -0.12320630967E+02  0.10676442435E+02  0.49350241023E+00  0.16310362209E+02  0.51100000000E-03 0.  1.
        -12    1    3    3    0    0 -0.85791443040E+01 -0.15022456260E+01 -0.19270166031E+01  0.89203055945E+01  0.00000000000E+00 0.  1.
</event>
<event>
 7    1  0.2530788E-009  0.4778727E+02  0.7816164E-02  0.1312668E+00
        -11   -1    0    0    0    0  0.00000000000E+00  0.00000000000E+00  0.45593999997E+02  0.45594000000E+02  0.51100000000E-03 0.  1.
         11   -1    0    0    0    0 -0.00000000000E+00 -0.00000000000E+00 -0.45593999997E+02  0.45594000000E+02  0.51100000000E-03 0. -1.
    9900012    2    1    2    0    0  0.65769641703E+01 -0.15531475855E+02 -0.39989254014E+02  0.47787266866E+02  0.19999980950E+02 0.  0.
        -12    1    1    2    0    0 -0.65769641703E+01  0.15531475855E+02  0.39989254014E+02  0.43400733134E+02  0.00000000000E+00 0.  1.
         11    1    3    3    0    0  0.67696426041E+01 -0.79192504405E+01 -0.20765847240E+02  0.23232800098E+02  0.51100000000E-03 0. -1.
        -11    1    3    3    0    0  0.22540790326E+01 -0.10883212541E+02 -0.15110668398E+02  0.18757864676E+02  0.51100000000E-03 0.  1.
        -12    1    3    3    0    0 -0.24467574664E+01  0.32709871258E+01 -0.41127383760E+01  0.57966020931E+01  0.00000000000E+00 0.  1.
</event>
<event>
 7    1  0.2530788E-009  0.4778727E+02  0.7816164E-02  0.1312668E+00
        -11   -1    0    0    0    0  0.00000000000E+00  0.00000000000E+00  0.45593999997E+02  0.45594000000E+02  0.51100000000E-03 0.  1.
         11   -1    0    0    0    0 -0.00000000000E+00 -0.00000000000E+00 -0.45593999997E+02  0.45594000000E+02  0.51100000000E-03 0. -1.
    9900012    2    1    2    0    0  0.32599584107E+02 -0.79871208962E+01 -0.27515382502E+02  0.47787271223E+02  0.20000000813E+02 0.  0.
        -12    1    1    2    0    0 -0.32599584107E+02  0.79871208962E+01  0.27515382502E+02  0.43400728777E+02  0.00000000000E+00 0.  1.
         11    1    3    3    0    0  0.15547086481E+02 -0.85422973544E+01 -0.15333385566E+02  0.23447717486E+02  0.51100000000E-03 0. -1.
        -11    1    3    3    0    0  0.10888216081E+02  0.63068080517E+01 -0.81713838361E+01  0.15003352668E+02  0.51100000000E-03 0.  1.
        -12    1    3    3    0    0  0.61642815450E+01 -0.57516315935E+01 -0.40106130999E+01  0.93362010684E+01  0.00000000000E+00 0.  1.
</event>
<event>
 7    1  0.2530788E-009  0.4778727E+02  0.7816164E-02  0.1312668E+00
        -11   -1    0    0    0    0  0.00000000000E+00  0.00000000000E+00  0.45593999997E+02  0.45594000000E+02  0.51100000000E-03 0.  1.
         11   -1    0    0    0    0 -0.00000000000E+00 -0.00000000000E+00 -0.45593999997E+02  0.45594000000E+02  0.51100000000E-03 0. -1.
    9900012    2    1    2    0    0  0.38630803295E+02 -0.16665126651E+02 -0.10656347806E+02  0.47787272379E+02  0.20000006083E+02 0.  0.
        -12    1    1    2    0    0 -0.38630803295E+02  0.16665126651E+02  0.10656347806E+02  0.43400727621E+02  0.00000000000E+00 0.  1.
         11    1    3    3    0    0  0.22886580064E+02 -0.40419657316E+01 -0.25783672851E+01  0.23383349036E+02  0.51100000000E-03 0. -1.
        -11    1    3    3    0    0  0.86427347545E+01 -0.70523866760E+01 -0.10218482857E+02  0.15127802683E+02  0.51100000000E-03 0.  1.
         12    1    3    3    0    0  0.71014884761E+01 -0.55707742437E+01  0.21405023354E+01  0.92761206599E+01  0.00000000000E+00 0. -1.
</event>
<event>
 7    1  0.2530788E-009  0.4778727E+02  0.7816164E-02  0.1312668E+00
        -11   -1    0    0    0    0  0.00000000000E+00  0.00000000000E+00  0.45593999997E+02  0.45594000000E+02  0.51100000000E-03 0.  1.
         11   -1    0    0    0    0 -0.00000000000E+00 -0.00000000000E+00 -0.45593999997E+02  0.45594000000E+02  0.51100000000E-03 0. -1.
    9900012    2    1    2    0    0  0.17501685630E+02 -0.31295350596E+01 -0.39591921274E+02  0.47787271668E+02  0.20000002845E+02 0.  0.
        -12    1    1    2    0    0 -0.17501685630E+02  0.31295350596E+01  0.39591921274E+02  0.43400728332E+02  0.00000000000E+00 0.  1.
         11    1    3    3    0    0  0.98286487827E+01 -0.73935875717E+01 -0.34507591177E+02  0.36633882175E+02  0.51100000000E-03 0. -1.
        -11    1    3    3    0    0  0.51242363220E+01  0.30675480836E+01 -0.79848691655E+00  0.60253822075E+01  0.51100000000E-03 0.  1.
         12    1    3    3    0    0  0.25488005250E+01  0.11965044286E+01 -0.42858431800E+01  0.51280072862E+01  0.00000000000E+00 0. -1.
</event>
<event>
 7    1  0.2530788E-009  0.4778727E+02  0.7816164E-02  0.1312668E+00
        -11   -1    0    0    0    0  0.00000000000E+00  0.00000000000E+00  0.45593999997E+02  0.45594000000E+02  0.51100000000E-03 0. -1.
         11   -1    0    0    0    0 -0.00000000000E+00 -0.00000000000E+00 -0.45593999997E+02  0.45594000000E+02  0.51100000000E-03 0.  1.
    9900012    2    1    2    0    0 -0.41918490792E+02 -0.81921848741E+01  0.77039743248E+01  0.47787274388E+02  0.20000015243E+02 0.  0.
        -12    1    1    2    0    0  0.41918490792E+02  0.81921848741E+01 -0.77039743248E+01  0.43400725612E+02  0.00000000000E+00 0.  1.
         11    1    3    3    0    0 -0.26272364837E+01  0.22830260860E+01 -0.30837821331E+01  0.46501927010E+01  0.51100000000E-03 0. -1.
        -11    1    3    3    0    0 -0.73647483455E+00 -0.22094747510E+01  0.77848817945E+00  0.24556502120E+01  0.51100000000E-03 0.  1.
         12    1    3    3    0    0 -0.38554779474E+02 -0.82657362091E+01  0.10009268278E+02  0.40681431475E+02  0.00000000000E+00 0. -1.
</event>
<event>
 7    1  0.2530788E-009  0.4778727E+02  0.7816164E-02  0.1312668E+00
        -11   -1    0    0    0    0  0.00000000000E+00  0.00000000000E+00  0.45593999997E+02  0.45594000000E+02  0.51100000000E-03 0.  1.
         11   -1    0    0    0    0 -0.00000000000E+00 -0.00000000000E+00 -0.45593999997E+02  0.45594000000E+02  0.51100000000E-03 0. -1.
    9900012    2    1    2    0    0 -0.41793647515E+02 -0.74512813378E+01 -0.90217911780E+01  0.47787270948E+02  0.19999999560E+02 0.  0.
        -12    1    1    2    0    0  0.41793647515E+02  0.74512813378E+01  0.90217911780E+01  0.43400729052E+02  0.00000000000E+00 0.  1.
         11    1    3    3    0    0 -0.21998226372E+02 -0.52530923368E+01 -0.14555043608E+02  0.26895468714E+02  0.51100000000E-03 0. -1.
        -11    1    3    3    0    0 -0.19331729946E+02 -0.24670108836E+01  0.49657539300E+01  0.20111206770E+02  0.51100000000E-03 0.  1.
        -12    1    3    3    0    0 -0.46369119678E+00  0.26882188267E+00  0.56749850028E+00  0.78059546399E+00  0.00000000000E+00 0.  1.
</event>
<event>
 7    1  0.2530788E-009  0.4778727E+02  0.7816164E-02  0.1312668E+00
        -11   -1    0    0    0    0  0.00000000000E+00  0.00000000000E+00  0.45593999997E+02  0.45594000000E+02  0.51100000000E-03 0.  1.
         11   -1    0    0    0    0 -0.00000000000E+00 -0.00000000000E+00 -0.45593999997E+02  0.45594000000E+02  0.51100000000E-03 0. -1.
    9900012    2    1    2    0    0  0.28906001277E+02  0.29977456960E+02 -0.12223686746E+02  0.47787270129E+02  0.19999995828E+02 0.  0.
        -12    1    1    2    0    0 -0.28906001277E+02 -0.29977456960E+02  0.12223686746E+02  0.43400729871E+02  0.00000000000E+00 0.  1.
         11    1    3    3    0    0  0.14637346552E+01  0.36667752076E+01 -0.41718137113E+01  0.57438479669E+01  0.51100000000E-03 0. -1.
        -11    1    3    3    0    0  0.26287351029E+01 -0.75868893287E+00 -0.43459548784E+01  0.51354825678E+01  0.51100000000E-03 0.  1.
        -12    1    3    3    0    0  0.24813531519E+02  0.27069370686E+02 -0.37059181561E+01  0.36907939595E+02  0.00000000000E+00 0.  1.
</event>
<event>
 7    1  0.2563154E-009  0.4778727E+02  0.7816164E-02  0.1312668E+00
        -11   -1    0    0    0    0  0.00000000000E+00  0.00000000000E+00  0.45593999997E+02  0.45594000000E+02  0.51100000000E-03 0.  1.
         11   -1    0    0    0    0 -0.00000000000E+00 -0.00000000000E+00 -0.45593999997E+02  0.45594000000E+02  0.51100000000E-03 0. -1.
    9900012    2    1    2    0    0 -0.24772004122E+01 -0.41233874377E+02 -0.13313696502E+02  0.47787269216E+02  0.19999991665E+02 0.  0.
        -12    1    1    2    0    0  0.24772004122E+01  0.41233874377E+02  0.13313696502E+02  0.43400730784E+02  0.00000000000E+00 0.  1.
         11    1    3    3    0    0 -0.24548978955E+01 -0.15427773423E+02 -0.11193982639E+01  0.15661920994E+02  0.51100000000E-03 0.  1.
        -11    1    3    3    0    0  0.25896621136E+01 -0.25746060802E+02 -0.13520494101E+02  0.29195372196E+02  0.51100000000E-03 0. -1.
        -12    1    3    3    0    0 -0.26119646303E+01 -0.60040151640E-01  0.13261958626E+01  0.29299760264E+01  0.00000000000E+00 0.  1.
</event>
<event>
 7    1  0.2530788E-009  0.4778727E+02  0.7816164E-02  0.1312668E+00
        -11   -1    0    0    0    0  0.00000000000E+00  0.00000000000E+00  0.45593999997E+02  0.45594000000E+02  0.51100000000E-03 0.  1.
         11   -1    0    0    0    0 -0.00000000000E+00 -0.00000000000E+00 -0.45593999997E+02  0.45594000000E+02  0.51100000000E-03 0. -1.
    9900012    2    1    2    0    0 -0.15866555111E+02  0.40382955386E+02  0.10453907764E+01  0.47787268455E+02  0.19999988193E+02 0.  0.
        -12    1    1    2    0    0  0.15866555111E+02 -0.40382955386E+02 -0.10453907764E+01  0.43400731545E+02  0.00000000000E+00 0.  1.
         11    1    3    3    0    0 -0.33014232043E+01  0.22867486366E+02 -0.40945508217E+01  0.23464583410E+02  0.51100000000E-03 0. -1.
        -11    1    3    3    0    0 -0.12051682764E+02  0.90961255867E+01  0.49353442687E+01  0.15885218961E+02  0.51100000000E-03 0.  1.
        -12    1    3    3    0    0 -0.51344914333E+00  0.84193434325E+01  0.20459732940E+00  0.84374660843E+01  0.00000000000E+00 0.  1.
</event>
<event>
 7    1  0.2530788E-009  0.4778727E+02  0.7816164E-02  0.1312668E+00
        -11   -1    0    0    0    0  0.00000000000E+00  0.00000000000E+00  0.45593999997E+02  0.45594000000E+02  0.51100000000E-03 0.  1.
         11   -1    0    0    0    0 -0.00000000000E+00 -0.00000000000E+00 -0.45593999997E+02  0.45594000000E+02  0.51100000000E-03 0. -1.
    9900012    2    1    2    0    0 -0.39351982727E+02 -0.39404859679E+01 -0.17875044879E+02  0.47787271853E+02  0.20000003687E+02 0.  0.
        -12    1    1    2    0    0  0.39351982727E+02  0.39404859679E+01  0.17875044879E+02  0.43400728147E+02  0.00000000000E+00 0.  1.
         11    1    3    3    0    0 -0.38937170331E+02  0.97646521029E+00 -0.13821257797E+02  0.41328971498E+02  0.51100000000E-03 0. -1.
        -11    1    3    3    0    0 -0.53535340922E+00 -0.19886299975E+01 -0.20650781127E+01  0.29164705403E+01  0.51100000000E-03 0.  1.
         12    1    3    3    0    0  0.12054101310E+00 -0.29283211808E+01 -0.19887089697E+01  0.35418298152E+01  0.00000000000E+00 0. -1.
</event>
<event>
 7    1  0.2530788E-009  0.4778726E+02  0.7816164E-02  0.1312668E+00
        -11   -1    0    0    0    0  0.00000000000E+00  0.00000000000E+00  0.45593999997E+02  0.45594000000E+02  0.51100000000E-03 0.  1.
         11   -1    0    0    0    0 -0.00000000000E+00 -0.00000000000E+00 -0.45593999997E+02  0.45594000000E+02  0.51100000000E-03 0. -1.
    9900012    2    1    2    0    0 -0.23701425068E+02 -0.16985310724E+02 -0.32146011172E+02  0.47787258475E+02  0.19999942690E+02 0.  0.
        -12    1    1    2    0    0  0.23701425068E+02  0.16985310724E+02  0.32146011172E+02  0.43400741525E+02  0.00000000000E+00 0.  1.
         11    1    3    3    0    0 -0.10071671283E+02 -0.12070100864E+02 -0.18193871565E+02  0.24044601474E+02  0.51100000000E-03 0. -1.
        -11    1    3    3    0    0  0.22147839276E+01  0.65734760485E+00 -0.93216817929E+00  0.24912469759E+01  0.51100000000E-03 0.  1.
        -12    1    3    3    0    0 -0.15844537713E+02 -0.55725574646E+01 -0.13019971428E+02  0.21251410025E+02  0.00000000000E+00 0.  1.
</event>
<event>
 7    1  0.2530788E-009  0.4778727E+02  0.7816164E-02  0.1312668E+00
        -11   -1    0    0    0    0  0.00000000000E+00  0.00000000000E+00  0.45593999997E+02  0.45594000000E+02  0.51100000000E-03 0.  1.
         11   -1    0    0    0    0 -0.00000000000E+00 -0.00000000000E+00 -0.45593999997E+02  0.45594000000E+02  0.51100000000E-03 0. -1.
    9900012    2    1    2    0    0 -0.34411376522E+02  0.10187140861E+02 -0.24407014198E+02  0.47787274026E+02  0.20000013592E+02 0.  0.
        -12    1    1    2    0    0  0.34411376522E+02 -0.10187140861E+02  0.24407014198E+02  0.43400725974E+02  0.00000000000E+00 0.  1.
         11    1    3    3    0    0 -0.40568953762E+01  0.20279879861E+01 -0.11662573750E+02  0.12513463233E+02  0.51100000000E-03 0. -1.
        -11    1    3    3    0    0 -0.27244350085E+02  0.10286526446E+02 -0.11182310165E+02  0.31194731908E+02  0.51100000000E-03 0.  1.
         12    1    3    3    0    0 -0.31101310605E+01 -0.21273735712E+01 -0.15621302832E+01  0.40790788846E+01  0.00000000000E+00 0. -1.
</event>
<event>
 7    1  0.3100780E-009  0.4778727E+02  0.7816164E-02  0.1312668E+00
        -11   -1    0    0    0    0  0.00000000000E+00  0.00000000000E+00  0.45593999997E+02  0.45594000000E+02  0.51100000000E-03 0. -1.
         11   -1    0    0    0    0 -0.00000000000E+00 -0.00000000000E+00 -0.45593999997E+02  0.45594000000E+02  0.51100000000E-03 0.  1.
    9900012    2    1    2    0    0 -0.58745558013E+01 -0.34165214097E+02  0.26112271763E+02  0.47787274237E+02  0.20000014555E+02 0.  0.
        -12    1    1    2    0    0  0.58745558013E+01  0.34165214097E+02 -0.26112271763E+02  0.43400725763E+02  0.00000000000E+00 0.  1.
         11    1    3    3    0    0 -0.71459727531E+01 -0.15356852415E+02  0.11176112927E+02  0.20292938257E+02  0.51100000000E-03 0. -1.
        -11    1    3    3    0    0  0.11344509586E+01 -0.20040749978E+01 -0.24166032720E+01  0.33381532634E+01  0.51100000000E-03 0.  1.
        -12    1    3    3    0    0  0.13696599318E+00 -0.16804286684E+02  0.17352762108E+02  0.24156182716E+02  0.00000000000E+00 0.  1.
</event>
<event>
 7    1  0.2530788E-009  0.4778727E+02  0.7816164E-02  0.1312668E+00
        -11   -1    0    0    0    0  0.00000000000E+00  0.00000000000E+00  0.45593999997E+02  0.45594000000E+02  0.51100000000E-03 0.  1.
         11   -1    0    0    0    0 -0.00000000000E+00 -0.00000000000E+00 -0.45593999997E+02  0.45594000000E+02  0.51100000000E-03 0. -1.
    9900012    2    1    2    0    0  0.31387439505E+02 -0.28784215658E+02  0.83618610600E+01  0.47787272471E+02  0.20000006503E+02 0.  0.
        -12    1    1    2    0    0 -0.31387439505E+02  0.28784215658E+02 -0.83618610600E+01  0.43400727529E+02  0.00000000000E+00 0.  1.
         11    1    3    3    0    0  0.21113397864E+02 -0.19183053585E+02  0.24665713759E+01  0.28633006982E+02  0.51100000000E-03 0. -1.
        -11    1    3    3    0    0  0.30101014685E+01 -0.34735942847E+01  0.81775749753E+01  0.93807942544E+01  0.51100000000E-03 0.  1.
        -12    1    3    3    0    0  0.72639401717E+01 -0.61275677875E+01 -0.22822852912E+01  0.97734712338E+01  0.00000000000E+00 0.  1.
</event>
<event>
 7    1  0.2530788E-009  0.4778728E+02  0.7816164E-02  0.1312668E+00
        -11   -1    0    0    0    0  0.00000000000E+00  0.00000000000E+00  0.45593999997E+02  0.45594000000E+02  0.51100000000E-03 0.  1.
         11   -1    0    0    0    0 -0.00000000000E+00 -0.00000000000E+00 -0.45593999997E+02  0.45594000000E+02  0.51100000000E-03 0. -1.
    9900012    2    1    2    0    0  0.28933674913E+02 -0.95934550808E+01 -0.30893864687E+02  0.47787276508E+02  0.20000024909E+02 0.  0.
        -12    1    1    2    0    0 -0.28933674913E+02  0.95934550808E+01  0.30893864687E+02  0.43400723492E+02  0.00000000000E+00 0.  1.
         11    1    3    3    0    0  0.65790671453E+01  0.24474640853E+01 -0.14967337594E+02  0.16531648431E+02  0.51100000000E-03 0. -1.
        -11    1    3    3    0    0  0.10156010652E+02 -0.67428495397E+01 -0.26737994057E+01  0.12480375628E+02  0.51100000000E-03 0.  1.
         12    1    3    3    0    0  0.12198597116E+02 -0.52980696264E+01 -0.13252727687E+02  0.18775252449E+02  0.00000000000E+00 0. -1.
</event>
<event>
 7    1  0.2530788E-009  0.4778727E+02  0.7816164E-02  0.1312668E+00
        -11   -1    0    0    0    0  0.00000000000E+00  0.00000000000E+00  0.45593999997E+02  0.45594000000E+02  0.51100000000E-03 0.  1.
         11   -1    0    0    0    0 -0.00000000000E+00 -0.00000000000E+00 -0.45593999997E+02  0.45594000000E+02  0.51100000000E-03 0. -1.
    9900012    2    1    2    0    0 -0.36653649319E+02 -0.53650898008E+01  0.22613025566E+02  0.47787272792E+02  0.20000007966E+02 0.  0.
        -12    1    1    2    0    0  0.36653649319E+02  0.53650898008E+01 -0.22613025566E+02  0.43400727208E+02  0.00000000000E+00 0.  1.
         11    1    3    3    0    0 -0.22718536308E+02  0.17455481369E+01  0.21242125100E+02  0.31151351644E+02  0.51100000000E-03 0. -1.
        -11    1    3    3    0    0  0.16907849928E+00  0.49137824611E+00 -0.15155364716E+00  0.54130295469E+00  0.51100000000E-03 0.  1.
         12    1    3    3    0    0 -0.14104191511E+02 -0.76020161838E+01  0.15224541130E+01  0.16094618193E+02  0.00000000000E+00 0. -1.
</event>
<event>
 7    1  0.2530788E-009  0.4778728E+02  0.7816164E-02  0.1312668E+00
        -11   -1    0    0    0    0  0.00000000000E+00  0.00000000000E+00  0.45593999997E+02  0.45594000000E+02  0.51100000000E-03 0.  1.
         11   -1    0    0    0    0 -0.00000000000E+00 -0.00000000000E+00 -0.45593999997E+02  0.45594000000E+02  0.51100000000E-03 0. -1.
    9900012    2    1    2    0    0  0.10272245238E+02  0.39245564363E+02 -0.15423666240E+02  0.47787276220E+02  0.20000023597E+02 0.  0.
        -12    1    1    2    0    0 -0.10272245238E+02 -0.39245564363E+02  0.15423666240E+02  0.43400723780E+02  0.00000000000E+00 0.  1.
         11    1    3    3    0    0  0.36044795412E+01  0.15393544041E+02 -0.14247378011E+02  0.21282416483E+02  0.51100000000E-03 0.  1.
        -11    1    3    3    0    0  0.59628393516E+01  0.10823155528E+02 -0.43078693166E+01  0.13086400843E+02  0.51100000000E-03 0. -1.
         12    1    3    3    0    0  0.70492634555E+00  0.13028864794E+02  0.31315810884E+01  0.13418458894E+02  0.00000000000E+00 0. -1.
</event>
<event>
 7    1  0.2530788E-009  0.4778727E+02  0.7816164E-02  0.1312668E+00
        -11   -1    0    0    0    0  0.00000000000E+00  0.00000000000E+00  0.45593999997E+02  0.45594000000E+02  0.51100000000E-03 0.  1.
         11   -1    0    0    0    0 -0.00000000000E+00 -0.00000000000E+00 -0.45593999997E+02  0.45594000000E+02  0.51100000000E-03 0. -1.
    9900012    2    1    2    0    0 -0.17374780678E+02  0.30058234454E+02 -0.26043094252E+02  0.47787271662E+02  0.20000002815E+02 0.  0.
        -12    1    1    2    0    0  0.17374780678E+02 -0.30058234454E+02  0.26043094252E+02  0.43400728338E+02  0.00000000000E+00 0.  1.
         11    1    3    3    0    0 -0.33140263397E+01  0.10320831150E+02 -0.13945061465E+02  0.17662589440E+02  0.51100000000E-03 0. -1.
        -11    1    3    3    0    0 -0.14070636465E+01  0.41830275200E+01  0.27271453628E+01  0.51879542624E+01  0.51100000000E-03 0.  1.
        -12    1    3    3    0    0 -0.12653690692E+02  0.15554375783E+02 -0.14825178149E+02  0.24936727959E+02  0.00000000000E+00 0.  1.
</event>
<event>
 7    1  0.2530788E-009  0.4778727E+02  0.7816164E-02  0.1312668E+00
        -11   -1    0    0    0    0  0.00000000000E+00  0.00000000000E+00  0.45593999997E+02  0.45594000000E+02  0.51100000000E-03 0.  1.
         11   -1    0    0    0    0 -0.00000000000E+00 -0.00000000000E+00 -0.45593999997E+02  0.45594000000E+02  0.51100000000E-03 0. -1.
    9900012    2    1    2    0    0  0.13637055760E+02  0.48969149185E+01 -0.40910566228E+02  0.47787268501E+02  0.19999988404E+02 0.  0.
        -12    1    1    2    0    0 -0.13637055760E+02 -0.48969149185E+01  0.40910566228E+02  0.43400731499E+02  0.00000000000E+00 0.  1.
         11    1    3    3    0    0  0.13768519737E+02 -0.37328204163E+01 -0.21442152765E+02  0.25754067629E+02  0.51100000000E-03 0.  1.
        -11    1    3    3    0    0 -0.16516188991E+01  0.78052311356E+01 -0.18250299472E+02  0.19917904236E+02  0.51100000000E-03 0. -1.
         12    1    3    3    0    0  0.15201549225E+01  0.82450419913E+00 -0.12181139916E+01  0.21152966363E+01  0.00000000000E+00 0. -1.
</event>
<event>
 7    1  0.2530788E-009  0.4778727E+02  0.7816164E-02  0.1312668E+00
        -11   -1    0    0    0    0  0.00000000000E+00  0.00000000000E+00  0.45593999997E+02  0.45594000000E+02  0.51100000000E-03 0.  1.
         11   -1    0    0    0    0 -0.00000000000E+00 -0.00000000000E+00 -0.45593999997E+02  0.45594000000E+02  0.51100000000E-03 0. -1.
    9900012    2    1    2    0    0  0.68559553380E+01 -0.16055456147E+02 -0.39734634986E+02  0.47787274048E+02  0.20000013695E+02 0.  0.
        -12    1    1    2    0    0 -0.68559553380E+01  0.16055456147E+02  0.39734634986E+02  0.43400725952E+02  0.00000000000E+00 0.  1.
         11    1    3    3    0    0 -0.36842279861E+01 -0.33728415766E+01 -0.89673196368E+01  0.10264619714E+02  0.51100000000E-03 0. -1.
        -11    1    3    3    0    0  0.10910422045E+02 -0.24366133060E+01 -0.14812805165E+02  0.18557844453E+02  0.51100000000E-03 0.  1.
        -12    1    3    3    0    0 -0.37023872092E+00 -0.10246001264E+02 -0.15954510184E+02  0.18964809881E+02  0.00000000000E+00 0.  1.
</event>
<event>
 7    1  0.2530788E-009  0.4778727E+02  0.7816164E-02  0.1312668E+00
        -11   -1    0    0    0    0  0.00000000000E+00  0.00000000000E+00  0.45593999997E+02  0.45594000000E+02  0.51100000000E-03 0. -1.
         11   -1    0    0    0    0 -0.00000000000E+00 -0.00000000000E+00 -0.45593999997E+02  0.45594000000E+02  0.51100000000E-03 0.  1.
    9900012    2    1    2    0    0  0.37047308979E+02 -0.12175571646E+02  0.19049293792E+02  0.47787271418E+02  0.20000001704E+02 0.  0.
        -12    1    1    2    0    0 -0.37047308979E+02  0.12175571646E+02 -0.19049293792E+02  0.43400728582E+02  0.00000000000E+00 0.  1.
         11    1    3    3    0    0  0.21388333789E+02 -0.22418274950E+01  0.98203184232E+01  0.23641600347E+02  0.51100000000E-03 0. -1.
        -11    1    3    3    0    0  0.50831422913E+00 -0.66428195138E+01  0.15313959835E+01  0.68359789619E+01  0.51100000000E-03 0.  1.
        -12    1    3    3    0    0  0.15150660961E+02 -0.32909246370E+01  0.76975793849E+01  0.17309692109E+02  0.00000000000E+00 0.  1.
</event>
<event>
 7    1  0.2530788E-009  0.4778729E+02  0.7816164E-02  0.1312668E+00
        -11   -1    0    0    0    0  0.00000000000E+00  0.00000000000E+00  0.45593999997E+02  0.45594000000E+02  0.51100000000E-03 0. -1.
         11   -1    0    0    0    0 -0.00000000000E+00 -0.00000000000E+00 -0.45593999997E+02  0.45594000000E+02  0.51100000000E-03 0.  1.
    9900012    2    1    2    0    0  0.38174630427E+02 -0.22087174046E+01  0.20529033495E+02  0.47787285063E+02  0.20000063915E+02 0.  0.
        -12    1    1    2    0    0 -0.38174630427E+02  0.22087174046E+01 -0.20529033495E+02  0.43400714937E+02  0.00000000000E+00 0.  1.
         11    1    3    3    0    0  0.26685575142E+02  0.41533330898E+01  0.21311127625E+02  0.34402532717E+02  0.51100000000E-03 0. -1.
        -11    1    3    3    0    0  0.91659081056E+01 -0.45019241967E+01  0.30491101873E+00  0.10216367449E+02  0.51100000000E-03 0.  1.
         12    1    3    3    0    0  0.23231471796E+01 -0.18601262978E+01 -0.10870051484E+01  0.31683848968E+01  0.00000000000E+00 0. -1.
</event>
<event>
 7    1  0.2530788E-009  0.4778727E+02  0.7816164E-02  0.1312668E+00
        -11   -1    0    0    0    0  0.00000000000E+00  0.00000000000E+00  0.45593999997E+02  0.45594000000E+02  0.51100000000E-03 0.  1.
         11   -1    0    0    0    0 -0.00000000000E+00 -0.00000000000E+00 -0.45593999997E+02  0.45594000000E+02  0.51100000000E-03 0. -1.
    9900012    2    1    2    0    0  0.47980488655E+01 -0.10251598625E+02 -0.41898767845E+02  0.47787270810E+02  0.19999998932E+02 0.  0.
        -12    1    1    2    0    0 -0.47980488655E+01  0.10251598625E+02  0.41898767845E+02  0.43400729190E+02  0.00000000000E+00 0.  1.
         11    1    3    3    0    0 -0.23049299845E+00 -0.13276566394E+02 -0.23715771981E+02  0.27180106386E+02  0.51100000000E-03 0. -1.
        -11    1    3    3    0    0  0.48415092764E+00  0.41539463147E+01 -0.44912748647E+01  0.61368739825E+01  0.51100000000E-03 0.  1.
         12    1    3    3    0    0  0.45443909363E+01 -0.11289785454E+01 -0.13691721000E+02  0.14470290442E+02  0.00000000000E+00 0. -1.
</event>
<event>
 7    1  0.2530788E-009  0.4778727E+02  0.7816164E-02  0.1312668E+00
        -11   -1    0    0    0    0  0.00000000000E+00  0.00000000000E+00  0.45593999997E+02  0.45594000000E+02  0.51100000000E-03 0.  1.
         11   -1    0    0    0    0 -0.00000000000E+00 -0.00000000000E+00 -0.45593999997E+02  0.45594000000E+02  0.51100000000E-03 0. -1.
    9900012    2    1    2    0    0  0.86377323520E+00 -0.33246567641E+02  0.27884457068E+02  0.47787270627E+02  0.19999998099E+02 0.  0.
        -12    1    1    2    0    0 -0.86377323520E+00  0.33246567641E+02 -0.27884457068E+02  0.43400729373E+02  0.00000000000E+00 0.  1.
         11    1    3    3    0    0  0.15285240356E+00 -0.99959434703E+00  0.21105004863E-01  0.10114338328E+01  0.51100000000E-03 0. -1.
        -11    1    3    3    0    0  0.13626586842E+01 -0.28160873689E+01  0.13801541528E+02  0.14151669003E+02  0.51100000000E-03 0.  1.
        -12    1    3    3    0    0 -0.65173785257E+00 -0.29430885925E+02  0.14061810535E+02  0.32624167791E+02  0.00000000000E+00 0.  1.
</event>
<event>
 7    1  0.2530788E-009  0.4778727E+02  0.7816164E-02  0.1312668E+00
        -11   -1    0    0    0    0  0.00000000000E+00  0.00000000000E+00  0.45593999997E+02  0.45594000000E+02  0.51100000000E-03 0.  1.
         11   -1    0    0    0    0 -0.00000000000E+00 -0.00000000000E+00 -0.45593999997E+02  0.45594000000E+02  0.51100000000E-03 0. -1.
    9900012    2    1    2    0    0 -0.10617638833E+02  0.10888243334E+02 -0.40648927701E+02  0.47787269355E+02  0.19999992298E+02 0.  0.
        -12    1    1    2    0    0  0.10617638833E+02 -0.10888243334E+02  0.40648927701E+02  0.43400730645E+02  0.00000000000E+00 0.  1.
         11    1    3    3    0    0 -0.30760365169E+01 -0.41177734764E+00 -0.12508957772E+02  0.12888195608E+02  0.51100000000E-03 0. -1.
        -11    1    3    3    0    0  0.35663180528E+01  0.38389640587E+01 -0.15983752431E+02  0.16820719709E+02  0.51100000000E-03 0.  1.
        -12    1    3    3    0    0 -0.11107920369E+02  0.74610566226E+01 -0.12156217497E+02  0.18078354037E+02  0.00000000000E+00 0.  1.
</event>
<event>
 7    1  0.2530788E-009  0.4778727E+02  0.7816164E-02  0.1312668E+00
        -11   -1    0    0    0    0  0.00000000000E+00  0.00000000000E+00  0.45593999997E+02  0.45594000000E+02  0.51100000000E-03 0.  1.
         11   -1    0    0    0    0 -0.00000000000E+00 -0.00000000000E+00 -0.45593999997E+02  0.45594000000E+02  0.51100000000E-03 0. -1.
    9900012    2    1    2    0    0 -0.37484369007E+02 -0.20769362999E+02  0.68687214668E+01  0.47787266206E+02  0.19999977940E+02 0.  0.
        -12    1    1    2    0    0  0.37484369007E+02  0.20769362999E+02 -0.68687214668E+01  0.43400733794E+02  0.00000000000E+00 0.  1.
         11    1    3    3    0    0 -0.35041047834E+02 -0.12522780977E+02  0.71991908566E+01  0.37901496355E+02  0.51100000000E-03 0. -1.
        -11    1    3    3    0    0 -0.33212110915E+01 -0.82028467599E+01  0.21315844334E+00  0.88522638271E+01  0.51100000000E-03 0.  1.
         12    1    3    3    0    0  0.87788991786E+00 -0.43735261503E-01 -0.54362783307E+00  0.10335060241E+01  0.00000000000E+00 0. -1.
</event>
<event>
 7    1  0.2530788E-009  0.4778727E+02  0.7816164E-02  0.1312668E+00
        -11   -1    0    0    0    0  0.00000000000E+00  0.00000000000E+00  0.45593999997E+02  0.45594000000E+02  0.51100000000E-03 0. -1.
         11   -1    0    0    0    0 -0.00000000000E+00 -0.00000000000E+00 -0.45593999997E+02  0.45594000000E+02  0.51100000000E-03 0.  1.
    9900012    2    1    2    0    0 -0.42772872556E+02 -0.10889748839E+01  0.72745469594E+01  0.47787268135E+02  0.19999986733E+02 0.  0.
        -12    1    1    2    0    0  0.42772872556E+02  0.10889748839E+01 -0.72745469594E+01  0.43400731865E+02  0.00000000000E+00 0.  1.
         11    1    3    3    0    0 -0.27933497425E+02  0.92978445393E+00  0.12593606523E+02  0.30655239406E+02  0.51100000000E-03 0. -1.
        -11    1    3    3    0    0 -0.47304782209E+01 -0.40606258349E+00 -0.49931312805E+01  0.68901140241E+01  0.51100000000E-03 0.  1.
         12    1    3    3    0    0 -0.10108896911E+02 -0.16126967543E+01 -0.32592828348E+00  0.10241914705E+02  0.00000000000E+00 0. -1.
</event>
<event>
 7    1  0.2530788E-009  0.4778727E+02  0.7816164E-02  0.1312668E+00
        -11   -1    0    0    0    0  0.00000000000E+00  0.00000000000E+00  0.45593999997E+02  0.45594000000E+02  0.51100000000E-03 0.  1.
         11   -1    0    0    0    0 -0.00000000000E+00 -0.00000000000E+00 -0.45593999997E+02  0.45594000000E+02  0.51100000000E-03 0. -1.
    9900012    2    1    2    0    0 -0.53984371627E+01 -0.43031870524E+02  0.16547346247E+01  0.47787272457E+02  0.20000006439E+02 0.  0.
        -12    1    1    2    0    0  0.53984371627E+01  0.43031870524E+02 -0.16547346247E+01  0.43400727543E+02  0.00000000000E+00 0.  1.
         11    1    3    3    0    0 -0.11206027860E+01 -0.11410820922E+02  0.17177835530E+00  0.11467000165E+02  0.51100000000E-03 0. -1.
        -11    1    3    3    0    0 -0.79640862451E+01 -0.25518044151E+02 -0.43812235548E+01  0.27088602162E+02  0.51100000000E-03 0.  1.
        -12    1    3    3    0    0  0.36862518684E+01 -0.61030054519E+01  0.58641798242E+01  0.92316701302E+01  0.00000000000E+00 0.  1.
</event>
<event>
 7    1  0.2530788E-009  0.4778727E+02  0.7816164E-02  0.1312668E+00
        -11   -1    0    0    0    0  0.00000000000E+00  0.00000000000E+00  0.45593999997E+02  0.45594000000E+02  0.51100000000E-03 0.  1.
         11   -1    0    0    0    0 -0.00000000000E+00 -0.00000000000E+00 -0.45593999997E+02  0.45594000000E+02  0.51100000000E-03 0. -1.
    9900012    2    1    2    0    0 -0.11677813600E+02 -0.40548101628E+02 -0.10153981487E+02  0.47787271709E+02  0.20000003031E+02 0.  0.
        -12    1    1    2    0    0  0.11677813600E+02  0.40548101628E+02  0.10153981487E+02  0.43400728291E+02  0.00000000000E+00 0.  1.
         11    1    3    3    0    0  0.85418169142E+00 -0.10690820983E+01  0.61975186356E+00  0.15022168713E+01  0.51100000000E-03 0. -1.
        -11    1    3    3    0    0 -0.73074264674E+01 -0.51843032274E+01  0.22375926014E+01  0.92348417659E+01  0.51100000000E-03 0.  1.
        -12    1    3    3    0    0 -0.52245688242E+01 -0.34294716303E+02 -0.13011325952E+02  0.37050213072E+02  0.00000000000E+00 0.  1.
</event>
<event>
 7    1  0.2530788E-009  0.4778727E+02  0.7816164E-02  0.1312668E+00
        -11   -1    0    0    0    0  0.00000000000E+00  0.00000000000E+00  0.45593999997E+02  0.45594000000E+02  0.51100000000E-03 0. -1.
         11   -1    0    0    0    0 -0.00000000000E+00 -0.00000000000E+00 -0.45593999997E+02  0.45594000000E+02  0.51100000000E-03 0.  1.
    9900012    2    1    2    0    0 -0.17464268795E+01  0.30627335136E+02  0.30700810231E+02  0.47787269439E+02  0.19999992682E+02 0.  0.
        -12    1    1    2    0    0  0.17464268795E+01 -0.30627335136E+02 -0.30700810231E+02  0.43400730561E+02  0.00000000000E+00 0.  1.
         11    1    3    3    0    0  0.42974729708E+01  0.90312762459E+00  0.67508957752E+01  0.80534779735E+01  0.51100000000E-03 0. -1.
        -11    1    3    3    0    0 -0.17296265931E+01  0.22396267406E+02  0.13298670679E+02  0.26104387447E+02  0.51100000000E-03 0.  1.
         12    1    3    3    0    0 -0.43142732572E+01  0.73279401047E+01  0.10651243777E+02  0.13629404019E+02  0.00000000000E+00 0. -1.
</event>
<event>
 7    1  0.2530788E-009  0.4778726E+02  0.7816164E-02  0.1312668E+00
        -11   -1    0    0    0    0  0.00000000000E+00  0.00000000000E+00  0.45593999997E+02  0.45594000000E+02  0.51100000000E-03 0. -1.
         11   -1    0    0    0    0 -0.00000000000E+00 -0.00000000000E+00 -0.45593999997E+02  0.45594000000E+02  0.51100000000E-03 0.  1.
    9900012    2    1    2    0    0  0.23488282903E+02  0.33331346384E+02  0.14864253519E+02  0.47787261318E+02  0.19999955651E+02 0.  0.
        -12    1    1    2    0    0 -0.23488282903E+02 -0.33331346384E+02 -0.14864253519E+02  0.43400738682E+02  0.00000000000E+00 0.  1.
         11    1    3    3    0    0 -0.62661699839E+00  0.12084326567E+02 -0.28944190103E+00  0.12104023063E+02  0.51100000000E-03 0. -1.
        -11    1    3    3    0    0  0.23352708029E+02  0.21134356826E+02  0.14503523197E+02  0.34675094753E+02  0.51100000000E-03 0.  1.
         12    1    3    3    0    0  0.76219187273E+00  0.11266299124E+00  0.65017222299E+00  0.10081435017E+01  0.00000000000E+00 0. -1.
</event>
<event>
 7    1  0.2530788E-009  0.4778728E+02  0.7816164E-02  0.1312668E+00
        -11   -1    0    0    0    0  0.00000000000E+00  0.00000000000E+00  0.45593999997E+02  0.45594000000E+02  0.51100000000E-03 0.  1.
         11   -1    0    0    0    0 -0.00000000000E+00 -0.00000000000E+00 -0.45593999997E+02  0.45594000000E+02  0.51100000000E-03 0. -1.
    9900012    2    1    2    0    0  0.19893342308E+02  0.17295791794E+02 -0.34478002389E+02  0.47787284214E+02  0.20000060045E+02 0.  0.
        -12    1    1    2    0    0 -0.19893342308E+02 -0.17295791794E+02  0.34478002389E+02  0.43400715786E+02  0.00000000000E+00 0.  1.
         11    1    3    3    0    0  0.14354919767E+02  0.39465863129E+01 -0.27985769189E+02  0.31699251449E+02  0.51100000000E-03 0.  1.
        -11    1    3    3    0    0  0.52133226383E+01  0.10821513532E+02 -0.62151676495E+01  0.13524503585E+02  0.51100000000E-03 0. -1.
        -12    1    3    3    0    0  0.32509990273E+00  0.25276919493E+01 -0.27706555109E+00  0.25635291800E+01  0.00000000000E+00 0.  1.
</event>
<event>
 7    1  0.2530788E-009  0.4778727E+02  0.7816164E-02  0.1312668E+00
        -11   -1    0    0    0    0  0.00000000000E+00  0.00000000000E+00  0.45593999997E+02  0.45594000000E+02  0.51100000000E-03 0.  1.
         11   -1    0    0    0    0 -0.00000000000E+00 -0.00000000000E+00 -0.45593999997E+02  0.45594000000E+02  0.51100000000E-03 0. -1.
    9900012    2    1    2    0    0  0.20633626192E+01 -0.87151685718E+01 -0.42466592198E+02  0.47787273261E+02  0.20000010108E+02 0.  0.
        -12    1    1    2    0    0 -0.20633626192E+01  0.87151685718E+01  0.42466592198E+02  0.43400726739E+02  0.00000000000E+00 0.  1.
         11    1    3    3    0    0 -0.23990002752E+00 -0.79224515051E+01 -0.71203755440E+01  0.10654695586E+02  0.51100000000E-03 0. -1.
        -11    1    3    3    0    0 -0.54165024197E+00  0.68722539269E+00 -0.33336625508E+02  0.33348107356E+02  0.51100000000E-03 0.  1.
        -12    1    3    3    0    0  0.28449128887E+01 -0.14799424594E+01 -0.20095911462E+01  0.37844703199E+01  0.00000000000E+00 0.  1.
</event>
<event>
 7    1  0.2530788E-009  0.4778727E+02  0.7816164E-02  0.1312668E+00
        -11   -1    0    0    0    0  0.00000000000E+00  0.00000000000E+00  0.45593999997E+02  0.45594000000E+02  0.51100000000E-03 0. -1.
         11   -1    0    0    0    0 -0.00000000000E+00 -0.00000000000E+00 -0.45593999997E+02  0.45594000000E+02  0.51100000000E-03 0.  1.
    9900012    2    1    2    0    0 -0.22892414179E+01  0.26255491643E+02  0.34482340664E+02  0.47787270912E+02  0.19999999396E+02 0.  0.
        -12    1    1    2    0    0  0.22892414179E+01 -0.26255491643E+02 -0.34482340664E+02  0.43400729088E+02  0.00000000000E+00 0.  1.
         11    1    3    3    0    0 -0.62738322642E+01  0.90578233687E+01  0.57108479783E+01  0.12410435945E+02  0.51100000000E-03 0. -1.
        -11    1    3    3    0    0  0.26570117266E+01  0.83362067199E-01  0.80009826422E+01  0.84310369500E+01  0.51100000000E-03 0.  1.
         12    1    3    3    0    0  0.13275791197E+01  0.17114306207E+02  0.20770510044E+02  0.26945798017E+02  0.00000000000E+00 0. -1.
</event>
<event>
 7    1  0.2530788E-009  0.4778727E+02  0.7816164E-02  0.1312668E+00
        -11   -1    0    0    0    0  0.00000000000E+00  0.00000000000E+00  0.45593999997E+02  0.45594000000E+02  0.51100000000E-03 0.  1.
         11   -1    0    0    0    0 -0.00000000000E+00 -0.00000000000E+00 -0.45593999997E+02  0.45594000000E+02  0.51100000000E-03 0. -1.
    9900012    2    1    2    0    0 -0.38640376881E+02 -0.90269252446E+01 -0.17580082552E+02  0.47787269506E+02  0.19999992987E+02 0.  0.
        -12    1    1    2    0    0  0.38640376881E+02  0.90269252446E+01  0.17580082552E+02  0.43400730494E+02  0.00000000000E+00 0.  1.
         11    1    3    3    0    0 -0.27602279388E+01 -0.55399400775E+00  0.33357683730E+00  0.28349676192E+01  0.51100000000E-03 0. -1.
        -11    1    3    3    0    0 -0.76930701598E+01  0.34745372479E+00 -0.12858119677E+02  0.14987838219E+02  0.51100000000E-03 0.  1.
        -12    1    3    3    0    0 -0.28187078782E+02 -0.88203849617E+01 -0.50555397115E+01  0.29964463668E+02  0.00000000000E+00 0.  1.
</event>
<event>
 7    1  0.2530788E-009  0.4778726E+02  0.7816164E-02  0.1312668E+00
        -11   -1    0    0    0    0  0.00000000000E+00  0.00000000000E+00  0.45593999997E+02  0.45594000000E+02  0.51100000000E-03 0.  1.
         11   -1    0    0    0    0 -0.00000000000E+00 -0.00000000000E+00 -0.45593999997E+02  0.45594000000E+02  0.51100000000E-03 0. -1.
    9900012    2    1    2    0    0 -0.29598204668E+02  0.31647171999E+02 -0.24550282155E+01  0.47787258317E+02  0.19999941969E+02 0.  0.
        -12    1    1    2    0    0  0.29598204668E+02 -0.31647171999E+02  0.24550282155E+01  0.43400741683E+02  0.00000000000E+00 0.  1.
         11    1    3    3    0    0 -0.18462254315E+02  0.15822380501E+02  0.39134084745E+00  0.24317806378E+02  0.51100000000E-03 0. -1.
        -11    1    3    3    0    0  0.20486714898E+01  0.29801573792E+01 -0.35246769023E+01  0.50499247920E+01  0.51100000000E-03 0.  1.
        -12    1    3    3    0    0 -0.13184621843E+02  0.12844634119E+02  0.67830783937E+00  0.18419527147E+02  0.00000000000E+00 0.  1.
</event>
<event>
 7    1  0.2530788E-009  0.4778727E+02  0.7816164E-02  0.1312668E+00
        -11   -1    0    0    0    0  0.00000000000E+00  0.00000000000E+00  0.45593999997E+02  0.45594000000E+02  0.51100000000E-03 0. -1.
         11   -1    0    0    0    0 -0.00000000000E+00 -0.00000000000E+00 -0.45593999997E+02  0.45594000000E+02  0.51100000000E-03 0.  1.
    9900012    2    1    2    0    0 -0.30069269655E+02  0.31157369663E+02  0.29462799278E+01  0.47787271581E+02  0.20000002446E+02 0.  0.
        -12    1    1    2    0    0  0.30069269655E+02 -0.31157369663E+02 -0.29462799278E+01  0.43400728419E+02  0.00000000000E+00 0.  1.
         11    1    3    3    0    0 -0.24635464523E+02  0.17554954885E+02  0.17640772135E+01  0.30301724736E+02  0.51100000000E-03 0. -1.
        -11    1    3    3    0    0 -0.26925355663E+01 -0.70067416794E+00 -0.49491644378E+00  0.28258865180E+01  0.51100000000E-03 0.  1.
         12    1    3    3    0    0 -0.27412695652E+01  0.14303088946E+02  0.16771191581E+01  0.14659660327E+02  0.00000000000E+00 0. -1.
</event>
<event>
 7    1  0.2530788E-009  0.4778727E+02  0.7816164E-02  0.1312668E+00
        -11   -1    0    0    0    0  0.00000000000E+00  0.00000000000E+00  0.45593999997E+02  0.45594000000E+02  0.51100000000E-03 0.  1.
         11   -1    0    0    0    0 -0.00000000000E+00 -0.00000000000E+00 -0.45593999997E+02  0.45594000000E+02  0.51100000000E-03 0. -1.
    9900012    2    1    2    0    0  0.27376426160E+02  0.32215398434E+02 -0.98144064197E+01  0.47787272138E+02  0.20000004987E+02 0.  0.
        -12    1    1    2    0    0 -0.27376426160E+02 -0.32215398434E+02  0.98144064197E+01  0.43400727862E+02  0.00000000000E+00 0.  1.
         11    1    3    3    0    0  0.14026918667E+02  0.13655349593E+02  0.31815614394E+01  0.19832936072E+02  0.51100000000E-03 0. -1.
        -11    1    3    3    0    0  0.10464723403E+01  0.90565053635E+01 -0.36861348057E+01  0.98337675295E+01  0.51100000000E-03 0.  1.
         12    1    3    3    0    0  0.12303035152E+02  0.95035434782E+01 -0.93098330533E+01  0.18120568536E+02  0.00000000000E+00 0. -1.
</event>
<event>
 7    1  0.2530788E-009  0.4778727E+02  0.7816164E-02  0.1312668E+00
        -11   -1    0    0    0    0  0.00000000000E+00  0.00000000000E+00  0.45593999997E+02  0.45594000000E+02  0.51100000000E-03 0.  1.
         11   -1    0    0    0    0 -0.00000000000E+00 -0.00000000000E+00 -0.45593999997E+02  0.45594000000E+02  0.51100000000E-03 0. -1.
    9900012    2    1    2    0    0  0.10748192416E+02  0.35993992661E+02 -0.21737804840E+02  0.47787270661E+02  0.19999998250E+02 0.  0.
        -12    1    1    2    0    0 -0.10748192416E+02 -0.35993992661E+02  0.21737804840E+02  0.43400729339E+02  0.00000000000E+00 0.  1.
         11    1    3    3    0    0  0.84193997974E+01  0.82582034956E+01 -0.14122264403E+02  0.18398982854E+02  0.51100000000E-03 0. -1.
        -11    1    3    3    0    0  0.39903687029E+01  0.16935224271E+02 -0.37615777728E+01  0.17800964331E+02  0.51100000000E-03 0.  1.
         12    1    3    3    0    0 -0.16615760838E+01  0.10800564895E+02 -0.38539626645E+01  0.11587323476E+02  0.00000000000E+00 0. -1.
</event>
<event>
 7    1  0.2530788E-009  0.4778727E+02  0.7816164E-02  0.1312668E+00
        -11   -1    0    0    0    0  0.00000000000E+00  0.00000000000E+00  0.45593999997E+02  0.45594000000E+02  0.51100000000E-03 0. -1.
         11   -1    0    0    0    0 -0.00000000000E+00 -0.00000000000E+00 -0.45593999997E+02  0.45594000000E+02  0.51100000000E-03 0.  1.
    9900012    2    1    2    0    0  0.41349061470E+01  0.33525566537E+02  0.27249997435E+02  0.47787269354E+02  0.19999992291E+02 0.  0.
        -12    1    1    2    0    0 -0.41349061470E+01 -0.33525566537E+02 -0.27249997435E+02  0.43400730646E+02  0.00000000000E+00 0.  1.
         11    1    3    3    0    0 -0.51812938808E+01  0.22220086984E+02  0.10515198450E+02  0.25122648558E+02  0.51100000000E-03 0. -1.
        -11    1    3    3    0    0  0.41832004784E+01  0.53965074591E+01  0.11055836473E+02  0.12994344130E+02  0.51100000000E-03 0.  1.
        -12    1    3    3    0    0  0.51329995494E+01  0.59089720935E+01  0.56789625126E+01  0.96702766659E+01  0.00000000000E+00 0.  1.
</event>
<event>
 7    1  0.2530788E-009  0.4778727E+02  0.7816164E-02  0.1312668E+00
        -11   -1    0    0    0    0  0.00000000000E+00  0.00000000000E+00  0.45593999997E+02  0.45594000000E+02  0.51100000000E-03 0.  1.
         11   -1    0    0    0    0 -0.00000000000E+00 -0.00000000000E+00 -0.45593999997E+02  0.45594000000E+02  0.51100000000E-03 0. -1.
    9900012    2    1    2    0    0  0.32926039567E+02 -0.24962667365E+01 -0.28165005444E+02  0.47787274651E+02  0.20000016443E+02 0.  0.
        -12    1    1    2    0    0 -0.32926039567E+02  0.24962667365E+01  0.28165005444E+02  0.43400725349E+02  0.00000000000E+00 0.  1.
         11    1    3    3    0    0  0.24363708911E+02  0.59245588953E+00 -0.19694981134E+02  0.31334224069E+02  0.51100000000E-03 0. -1.
        -11    1    3    3    0    0 -0.11678687509E+01  0.41947821640E+00 -0.55761105234E+01  0.57125203040E+01  0.51100000000E-03 0.  1.
        -12    1    3    3    0    0  0.97301994067E+01 -0.35082008424E+01 -0.28939137872E+01  0.10740530278E+02  0.00000000000E+00 0.  1.
</event>
<event>
 7    1  0.2995899E-009  0.4778727E+02  0.7816164E-02  0.1312668E+00
        -11   -1    0    0    0    0  0.00000000000E+00  0.00000000000E+00  0.45593999997E+02  0.45594000000E+02  0.51100000000E-03 0. -1.
         11   -1    0    0    0    0 -0.00000000000E+00 -0.00000000000E+00 -0.45593999997E+02  0.45594000000E+02  0.51100000000E-03 0.  1.
    9900012    2    1    2    0    0 -0.38705621011E+02  0.18374141346E+02 -0.69202185627E+01  0.47787267368E+02  0.19999983239E+02 0.  0.
        -12    1    1    2    0    0  0.38705621011E+02 -0.18374141346E+02  0.69202185627E+01  0.43400732632E+02  0.00000000000E+00 0.  1.
         11    1    3    3    0    0 -0.11528862069E+02  0.85239969879E+01 -0.66057021957E+01  0.15786338620E+02  0.51100000000E-03 0. -1.
        -11    1    3    3    0    0 -0.77341034304E+01  0.44982241476E+01  0.61124787222E+01  0.10835717454E+02  0.51100000000E-03 0.  1.
        -12    1    3    3    0    0 -0.19442655511E+02  0.53519202106E+01 -0.64269950892E+01  0.21165211294E+02  0.00000000000E+00 0.  1.
</event>
<event>
 7    1  0.2530788E-009  0.4778727E+02  0.7816164E-02  0.1312668E+00
        -11   -1    0    0    0    0  0.00000000000E+00  0.00000000000E+00  0.45593999997E+02  0.45594000000E+02  0.51100000000E-03 0.  1.
         11   -1    0    0    0    0 -0.00000000000E+00 -0.00000000000E+00 -0.45593999997E+02  0.45594000000E+02  0.51100000000E-03 0. -1.
    9900012    2    1    2    0    0  0.43769340922E+01  0.24378133423E+02 -0.35639474850E+02  0.47787272945E+02  0.20000008667E+02 0.  0.
        -12    1    1    2    0    0 -0.43769340922E+01 -0.24378133423E+02  0.35639474850E+02  0.43400727055E+02  0.00000000000E+00 0.  1.
         11    1    3    3    0    0  0.49379737938E+01  0.19140581329E+02 -0.30356893881E+02  0.36225494409E+02  0.51100000000E-03 0. -1.
        -11    1    3    3    0    0  0.38412018452E+00  0.50721682217E+01  0.10188395839E+01  0.51877233103E+01  0.51100000000E-03 0.  1.
        -12    1    3    3    0    0 -0.94515988616E+00  0.16538387218E+00 -0.63014205529E+01  0.63740552257E+01  0.00000000000E+00 0.  1.
</event>
<event>
 7    1  0.2530788E-009  0.4778728E+02  0.7816164E-02  0.1312668E+00
        -11   -1    0    0    0    0  0.00000000000E+00  0.00000000000E+00  0.45593999997E+02  0.45594000000E+02  0.51100000000E-03 0. -1.
         11   -1    0    0    0    0 -0.00000000000E+00 -0.00000000000E+00 -0.45593999997E+02  0.45594000000E+02  0.51100000000E-03 0.  1.
    9900012    2    1    2    0    0 -0.36910322536E+02  0.13932725351E+02  0.18086720548E+02  0.47787283351E+02  0.20000056111E+02 0.  0.
        -12    1    1    2    0    0  0.36910322536E+02 -0.13932725351E+02 -0.18086720548E+02  0.43400716649E+02  0.00000000000E+00 0.  1.
         11    1    3    3    0    0 -0.15530559987E+02  0.76531407772E+01  0.14311771261E+01  0.17372884777E+02  0.51100000000E-03 0. -1.
        -11    1    3    3    0    0 -0.21699980650E+02  0.47373751231E+01  0.17803213413E+02  0.28465528124E+02  0.51100000000E-03 0.  1.
        -12    1    3    3    0    0  0.32021810093E+00  0.15422094508E+01 -0.11476699910E+01  0.19488704499E+01  0.00000000000E+00 0.  1.
</event>
<event>
 7    1  0.2530788E-009  0.4778727E+02  0.7816164E-02  0.1312668E+00
        -11   -1    0    0    0    0  0.00000000000E+00  0.00000000000E+00  0.45593999997E+02  0.45594000000E+02  0.51100000000E-03 0.  1.
         11   -1    0    0    0    0 -0.00000000000E+00 -0.00000000000E+00 -0.45593999997E+02  0.45594000000E+02  0.51100000000E-03 0. -1.
    9900012    2    1    2    0    0  0.66185826723E+01 -0.33470678220E+02 -0.26824087363E+02  0.47787267288E+02  0.19999982871E+02 0.  0.
        -12    1    1    2    0    0 -0.66185826723E+01  0.33470678220E+02  0.26824087363E+02  0.43400732712E+02  0.00000000000E+00 0.  1.
         11    1    3    3    0    0  0.11269786834E+01 -0.54406306500E+01  0.22918272278E+01  0.60102425180E+01  0.51100000000E-03 0. -1.
        -11    1    3    3    0    0 -0.62460364076E+00 -0.34756010476E+01 -0.48192254103E+00  0.35640120576E+01  0.51100000000E-03 0.  1.
         12    1    3    3    0    0  0.61162076296E+01 -0.24554446523E+02 -0.28633992050E+02  0.38213012712E+02  0.00000000000E+00 0. -1.
</event>
<event>
 7    1  0.2530788E-009  0.4778727E+02  0.7816164E-02  0.1312668E+00
        -11   -1    0    0    0    0  0.00000000000E+00  0.00000000000E+00  0.45593999997E+02  0.45594000000E+02  0.51100000000E-03 0.  1.
         11   -1    0    0    0    0 -0.00000000000E+00 -0.00000000000E+00 -0.45593999997E+02  0.45594000000E+02  0.51100000000E-03 0. -1.
    9900012    2    1    2    0    0  0.43322829070E+02  0.10352569017E+01  0.23841425846E+01  0.47787269461E+02  0.19999992781E+02 0.  0.
        -12    1    1    2    0    0 -0.43322829070E+02 -0.10352569017E+01 -0.23841425846E+01  0.43400730539E+02  0.00000000000E+00 0.  1.
         11    1    3    3    0    0  0.33376420646E+02  0.59521746262E+01 -0.20074465223E+01  0.33962386248E+02  0.51100000000E-03 0. -1.
        -11    1    3    3    0    0  0.43401678597E+01 -0.17435720169E+01 -0.16826024855E+01  0.49707395641E+01  0.51100000000E-03 0.  1.
         12    1    3    3    0    0  0.56062405644E+01 -0.31733457076E+01  0.60741915924E+01  0.88541436484E+01  0.00000000000E+00 0. -1.
</event>
<event>
 7    1  0.2530788E-009  0.4778728E+02  0.7816164E-02  0.1312668E+00
        -11   -1    0    0    0    0  0.00000000000E+00  0.00000000000E+00  0.45593999997E+02  0.45594000000E+02  0.51100000000E-03 0. -1.
         11   -1    0    0    0    0 -0.00000000000E+00 -0.00000000000E+00 -0.45593999997E+02  0.45594000000E+02  0.51100000000E-03 0.  1.
    9900012    2    1    2    0    0 -0.16080325592E+02  0.81234582657E+00  0.40303666877E+02  0.47787281796E+02  0.20000049019E+02 0.  0.
        -12    1    1    2    0    0  0.16080325592E+02 -0.81234582657E+00 -0.40303666877E+02  0.43400718204E+02  0.00000000000E+00 0.  1.
         11    1    3    3    0    0 -0.77670306513E+01  0.10524604577E+01  0.37174712318E+02  0.37992021193E+02  0.51100000000E-03 0. -1.
        -11    1    3    3    0    0 -0.23614816455E+01  0.75050610270E+00 -0.78977193461E+00  0.26006912431E+01  0.51100000000E-03 0.  1.
         12    1    3    3    0    0 -0.59518132949E+01 -0.99062073386E+00  0.39187264946E+01  0.71945693599E+01  0.00000000000E+00 0. -1.
</event>
<event>
 7    1  0.2530788E-009  0.4778727E+02  0.7816164E-02  0.1312668E+00
        -11   -1    0    0    0    0  0.00000000000E+00  0.00000000000E+00  0.45593999997E+02  0.45594000000E+02  0.51100000000E-03 0. -1.
         11   -1    0    0    0    0 -0.00000000000E+00 -0.00000000000E+00 -0.45593999997E+02  0.45594000000E+02  0.51100000000E-03 0.  1.
    9900012    2    1    2    0    0 -0.91199307513E+01  0.38672230388E+02  0.17461642461E+02  0.47787268468E+02  0.19999988253E+02 0.  0.
        -12    1    1    2    0    0  0.91199307513E+01 -0.38672230388E+02 -0.17461642461E+02  0.43400731532E+02  0.00000000000E+00 0.  1.
         11    1    3    3    0    0  0.91848588799E+00  0.21122014715E+02  0.10500901487E+02  0.23606186779E+02  0.51100000000E-03 0. -1.
        -11    1    3    3    0    0 -0.85215701516E+01  0.12953314951E+02 -0.23719734141E+00  0.15506830395E+02  0.51100000000E-03 0.  1.
        -12    1    3    3    0    0 -0.15168464877E+01  0.45969007212E+01  0.71979383151E+01  0.86742512931E+01  0.00000000000E+00 0.  1.
</event>
<event>
 7    1  0.2530788E-009  0.4778726E+02  0.7816164E-02  0.1312668E+00
        -11   -1    0    0    0    0  0.00000000000E+00  0.00000000000E+00  0.45593999997E+02  0.45594000000E+02  0.51100000000E-03 0.  1.
         11   -1    0    0    0    0 -0.00000000000E+00 -0.00000000000E+00 -0.45593999997E+02  0.45594000000E+02  0.51100000000E-03 0. -1.
    9900012    2    1    2    0    0  0.24310329131E+02  0.10909569228E+01 -0.35936636621E+02  0.47787261053E+02  0.19999954447E+02 0.  0.
        -12    1    1    2    0    0 -0.24310329131E+02 -0.10909569228E+01  0.35936636621E+02  0.43400738947E+02  0.00000000000E+00 0.  1.
         11    1    3    3    0    0  0.12925618983E+02  0.51536947354E+01 -0.71057827670E+01  0.15624479016E+02  0.51100000000E-03 0. -1.
        -11    1    3    3    0    0 -0.57941334011E+00  0.76286075958E+00 -0.61706995161E+00  0.11394963552E+01  0.51100000000E-03 0.  1.
         12    1    3    3    0    0  0.11964123488E+02 -0.48255985722E+01 -0.28213783903E+02  0.31023285682E+02  0.00000000000E+00 0. -1.
</event>
<event>
 7    1  0.2530788E-009  0.4778727E+02  0.7816164E-02  0.1312668E+00
        -11   -1    0    0    0    0  0.00000000000E+00  0.00000000000E+00  0.45593999997E+02  0.45594000000E+02  0.51100000000E-03 0.  1.
         11   -1    0    0    0    0 -0.00000000000E+00 -0.00000000000E+00 -0.45593999997E+02  0.45594000000E+02  0.51100000000E-03 0. -1.
    9900012    2    1    2    0    0 -0.84332000666E+01 -0.37264532746E+01 -0.42410114610E+02  0.47787272603E+02  0.20000007107E+02 0.  0.
        -12    1    1    2    0    0  0.84332000666E+01  0.37264532746E+01  0.42410114610E+02  0.43400727397E+02  0.00000000000E+00 0.  1.
         11    1    3    3    0    0 -0.65496902657E+01 -0.54334698353E+00 -0.23541795461E+02  0.24441968053E+02  0.51100000000E-03 0. -1.
        -11    1    3    3    0    0 -0.61530823781E+01 -0.19990008716E+01 -0.35096384711E+01  0.73602982070E+01  0.51100000000E-03 0.  1.
        -12    1    3    3    0    0  0.42695725772E+01 -0.11841054195E+01 -0.15358680678E+02  0.15985006343E+02  0.00000000000E+00 0.  1.
</event>
<event>
 7    1  0.2530788E-009  0.4778727E+02  0.7816164E-02  0.1312668E+00
        -11   -1    0    0    0    0  0.00000000000E+00  0.00000000000E+00  0.45593999997E+02  0.45594000000E+02  0.51100000000E-03 0.  1.
         11   -1    0    0    0    0 -0.00000000000E+00 -0.00000000000E+00 -0.45593999997E+02  0.45594000000E+02  0.51100000000E-03 0. -1.
    9900012    2    1    2    0    0  0.54304715955E+01  0.43009595630E+02  0.20755477941E+01  0.47787271473E+02  0.20000001954E+02 0.  0.
        -12    1    1    2    0    0 -0.54304715955E+01 -0.43009595630E+02 -0.20755477941E+01  0.43400728527E+02  0.00000000000E+00 0.  1.
         11    1    3    3    0    0 -0.68370669304E+00  0.90091062177E+01 -0.42655519216E+01  0.99913153859E+01  0.51100000000E-03 0. -1.
        -11    1    3    3    0    0 -0.91170656227E+00  0.20274487372E+02  0.89083376627E+01  0.22164036799E+02  0.51100000000E-03 0.  1.
        -12    1    3    3    0    0  0.70258848508E+01  0.13726002040E+02 -0.25672379469E+01  0.15631919288E+02  0.00000000000E+00 0.  1.
</event>
<event>
 7    1  0.2530788E-009  0.4778727E+02  0.7816164E-02  0.1312668E+00
        -11   -1    0    0    0    0  0.00000000000E+00  0.00000000000E+00  0.45593999997E+02  0.45594000000E+02  0.51100000000E-03 0. -1.
         11   -1    0    0    0    0 -0.00000000000E+00 -0.00000000000E+00 -0.45593999997E+02  0.45594000000E+02  0.51100000000E-03 0.  1.
    9900012    2    1    2    0    0  0.32977067689E+02  0.20126471603E+02  0.19775270630E+02  0.47787272114E+02  0.20000004876E+02 0.  0.
        -12    1    1    2    0    0 -0.32977067689E+02 -0.20126471603E+02 -0.19775270630E+02  0.43400727886E+02  0.00000000000E+00 0.  1.
         11    1    3    3    0    0  0.31487114190E+02  0.18753926932E+02  0.12173235614E+02  0.38617817144E+02  0.51100000000E-03 0. -1.
        -11    1    3    3    0    0  0.11285401434E+01  0.10599810388E-01 -0.27971731499E+00  0.11627369645E+01  0.51100000000E-03 0.  1.
         12    1    3    3    0    0  0.36141335578E+00  0.13619448609E+01  0.78817523308E+01  0.80067180056E+01  0.00000000000E+00 0. -1.
</event>
<event>
 7    1  0.2530788E-009  0.4778727E+02  0.7816164E-02  0.1312668E+00
        -11   -1    0    0    0    0  0.00000000000E+00  0.00000000000E+00  0.45593999997E+02  0.45594000000E+02  0.51100000000E-03 0. -1.
         11   -1    0    0    0    0 -0.00000000000E+00 -0.00000000000E+00 -0.45593999997E+02  0.45594000000E+02  0.51100000000E-03 0.  1.
    9900012    2    1    2    0    0 -0.28318666851E+02 -0.32856025990E+02 -0.14689842353E+01  0.47787271311E+02  0.20000001214E+02 0.  0.
        -12    1    1    2    0    0  0.28318666851E+02  0.32856025990E+02  0.14689842353E+01  0.43400728689E+02  0.00000000000E+00 0.  1.
         11    1    3    3    0    0 -0.18489658667E+01 -0.22387254486E+01 -0.78391050199E+00  0.30075043386E+01  0.51100000000E-03 0. -1.
        -11    1    3    3    0    0 -0.90722718025E+01 -0.32636755386E+01  0.64323118301E+01  0.11590182458E+02  0.51100000000E-03 0.  1.
        -12    1    3    3    0    0 -0.17397429182E+02 -0.27353625003E+02 -0.71173855634E+01  0.33189584514E+02  0.00000000000E+00 0.  1.
</event>
<event>
 7    1  0.2530788E-009  0.4778727E+02  0.7816164E-02  0.1312668E+00
        -11   -1    0    0    0    0  0.00000000000E+00  0.00000000000E+00  0.45593999997E+02  0.45594000000E+02  0.51100000000E-03 0. -1.
         11   -1    0    0    0    0 -0.00000000000E+00 -0.00000000000E+00 -0.45593999997E+02  0.45594000000E+02  0.51100000000E-03 0.  1.
    9900012    2    1    2    0    0  0.41183978498E+02 -0.98939649306E+01  0.94664040133E+01  0.47787269224E+02  0.19999991700E+02 0.  0.
        -12    1    1    2    0    0 -0.41183978498E+02  0.98939649306E+01 -0.94664040133E+01  0.43400730776E+02  0.00000000000E+00 0.  1.
         11    1    3    3    0    0  0.93720712578E+01 -0.31211327530E+01  0.87667754508E+00  0.99169427296E+01  0.51100000000E-03 0. -1.
        -11    1    3    3    0    0  0.94488948447E+01 -0.26900406367E+00 -0.52159882979E+01  0.10796319334E+02  0.51100000000E-03 0.  1.
        -12    1    3    3    0    0  0.22363012395E+02 -0.65038281140E+01  0.13805714766E+02  0.27074007161E+02  0.00000000000E+00 0.  1.
</event>
<event>
 7    1  0.2530788E-009  0.4778727E+02  0.7816164E-02  0.1312668E+00
        -11   -1    0    0    0    0  0.00000000000E+00  0.00000000000E+00  0.45593999997E+02  0.45594000000E+02  0.51100000000E-03 0.  1.
         11   -1    0    0    0    0 -0.00000000000E+00 -0.00000000000E+00 -0.45593999997E+02  0.45594000000E+02  0.51100000000E-03 0. -1.
    9900012    2    1    2    0    0 -0.16774024931E+01  0.18235912343E+02 -0.39347944750E+02  0.47787274958E+02  0.20000017843E+02 0.  0.
        -12    1    1    2    0    0  0.16774024931E+01 -0.18235912343E+02  0.39347944750E+02  0.43400725042E+02  0.00000000000E+00 0.  1.
         11    1    3    3    0    0 -0.10252809661E+02  0.95614502774E+01 -0.21418094581E+02  0.25598363485E+02  0.51100000000E-03 0. -1.
        -11    1    3    3    0    0  0.23698205190E+01  0.56034529690E+01 -0.72992831136E+01  0.95023296460E+01  0.51100000000E-03 0.  1.
         12    1    3    3    0    0  0.62055866492E+01  0.30710090963E+01 -0.10630567056E+02  0.12686581827E+02  0.00000000000E+00 0. -1.
</event>
<event>
 7    1  0.2530788E-009  0.4778727E+02  0.7816164E-02  0.1312668E+00
        -11   -1    0    0    0    0  0.00000000000E+00  0.00000000000E+00  0.45593999997E+02  0.45594000000E+02  0.51100000000E-03 0.  1.
         11   -1    0    0    0    0 -0.00000000000E+00 -0.00000000000E+00 -0.45593999997E+02  0.45594000000E+02  0.51100000000E-03 0. -1.
    9900012    2    1    2    0    0 -0.40892593535E+02 -0.10558331753E+02  0.99970269143E+01  0.47787272788E+02  0.20000007950E+02 0.  0.
        -12    1    1    2    0    0  0.40892593535E+02  0.10558331753E+02 -0.99970269143E+01  0.43400727212E+02  0.00000000000E+00 0.  1.
         11    1    3    3    0    0 -0.12667880116E+02 -0.60049241157E+00  0.54203149063E+01  0.13791866868E+02  0.51100000000E-03 0. -1.
        -11    1    3    3    0    0 -0.26026706096E+02 -0.13196766591E+02  0.60701158797E+01  0.29805878376E+02  0.51100000000E-03 0.  1.
        -12    1    3    3    0    0 -0.21980073228E+01  0.32389272502E+01 -0.14934038717E+01  0.41895275446E+01  0.00000000000E+00 0.  1.
</event>
<event>
 7    1  0.2530788E-009  0.4778727E+02  0.7816164E-02  0.1312668E+00
        -11   -1    0    0    0    0  0.00000000000E+00  0.00000000000E+00  0.45593999997E+02  0.45594000000E+02  0.51100000000E-03 0. -1.
         11   -1    0    0    0    0 -0.00000000000E+00 -0.00000000000E+00 -0.45593999997E+02  0.45594000000E+02  0.51100000000E-03 0.  1.
    9900012    2    1    2    0    0  0.38100372075E+02 -0.17956606830E+02  0.10466387986E+02  0.47787270068E+02  0.19999995550E+02 0.  0.
        -12    1    1    2    0    0 -0.38100372075E+02  0.17956606830E+02 -0.10466387986E+02  0.43400729932E+02  0.00000000000E+00 0.  1.
         11    1    3    3    0    0  0.38262939239E+01  0.11332970967E+01  0.39097064928E+01  0.55866530788E+01  0.51100000000E-03 0. -1.
        -11    1    3    3    0    0  0.24891204651E+02 -0.19730110500E+02  0.78215479747E+01  0.32711251005E+02  0.51100000000E-03 0.  1.
        -12    1    3    3    0    0  0.93828735002E+01  0.64020657318E+00 -0.12648664813E+01  0.94893659847E+01  0.00000000000E+00 0.  1.
</event>
<event>
 7    1  0.2530788E-009  0.4778727E+02  0.7816164E-02  0.1312668E+00
        -11   -1    0    0    0    0  0.00000000000E+00  0.00000000000E+00  0.45593999997E+02  0.45594000000E+02  0.51100000000E-03 0.  1.
         11   -1    0    0    0    0 -0.00000000000E+00 -0.00000000000E+00 -0.45593999997E+02  0.45594000000E+02  0.51100000000E-03 0. -1.
    9900012    2    1    2    0    0  0.87946885298E+01  0.34321079602E+02 -0.25066718601E+02  0.47787269213E+02  0.19999991652E+02 0.  0.
        -12    1    1    2    0    0 -0.87946885298E+01 -0.34321079602E+02  0.25066718601E+02  0.43400730787E+02  0.00000000000E+00 0.  1.
         11    1    3    3    0    0  0.11989754147E+02  0.24330132019E+02 -0.21254460774E+02  0.34459565169E+02  0.51100000000E-03 0. -1.
        -11    1    3    3    0    0 -0.10222220055E+01 -0.10378360030E+01  0.41197563991E-02  0.14567287432E+01  0.51100000000E-03 0.  1.
        -12    1    3    3    0    0 -0.21728436114E+01  0.11028783586E+02 -0.38163775830E+01  0.11870975301E+02  0.00000000000E+00 0.  1.
</event>
<event>
 7    1  0.2530788E-009  0.4778727E+02  0.7816164E-02  0.1312668E+00
        -11   -1    0    0    0    0  0.00000000000E+00  0.00000000000E+00  0.45593999997E+02  0.45594000000E+02  0.51100000000E-03 0. -1.
         11   -1    0    0    0    0 -0.00000000000E+00 -0.00000000000E+00 -0.45593999997E+02  0.45594000000E+02  0.51100000000E-03 0.  1.
    9900012    2    1    2    0    0 -0.18351486403E+02 -0.33648790582E+02  0.20361848782E+02  0.47787273662E+02  0.20000011934E+02 0.  0.
        -12    1    1    2    0    0  0.18351486403E+02  0.33648790582E+02 -0.20361848782E+02  0.43400726338E+02  0.00000000000E+00 0.  1.
         11    1    3    3    0    0 -0.19302070431E+01 -0.40926681644E+01  0.10562648322E+02  0.11491090974E+02  0.51100000000E-03 0. -1.
        -11    1    3    3    0    0 -0.23240943145E+01 -0.52788857307E+01 -0.16171755639E+01  0.59902676072E+01  0.51100000000E-03 0.  1.
         12    1    3    3    0    0 -0.14097185045E+02 -0.24277236687E+02  0.11416376024E+02  0.30305915081E+02  0.00000000000E+00 0. -1.
</event>
<event>
 7    1  0.2530788E-009  0.4778727E+02  0.7816164E-02  0.1312668E+00
        -11   -1    0    0    0    0  0.00000000000E+00  0.00000000000E+00  0.45593999997E+02  0.45594000000E+02  0.51100000000E-03 0.  1.
         11   -1    0    0    0    0 -0.00000000000E+00 -0.00000000000E+00 -0.45593999997E+02  0.45594000000E+02  0.51100000000E-03 0. -1.
    9900012    2    1    2    0    0 -0.17500323603E+02  0.54968172586E+01 -0.39333788400E+02  0.47787271480E+02  0.20000001985E+02 0.  0.
        -12    1    1    2    0    0  0.17500323603E+02 -0.54968172586E+01  0.39333788400E+02  0.43400728520E+02  0.00000000000E+00 0.  1.
         11    1    3    3    0    0 -0.19544094924E+01 -0.49913401713E+01 -0.15321146611E+02  0.16231781384E+02  0.51100000000E-03 0. -1.
        -11    1    3    3    0    0 -0.15116649459E+02  0.72695696205E+01 -0.22239007619E+02  0.27855577421E+02  0.51100000000E-03 0.  1.
         12    1    3    3    0    0 -0.42926465162E+00  0.32185878095E+01 -0.17736341701E+01  0.36999126743E+01  0.00000000000E+00 0. -1.
</event>
<event>
 7    1  0.2530788E-009  0.4778727E+02  0.7816164E-02  0.1312668E+00
        -11   -1    0    0    0    0  0.00000000000E+00  0.00000000000E+00  0.45593999997E+02  0.45594000000E+02  0.51100000000E-03 0. -1.
         11   -1    0    0    0    0 -0.00000000000E+00 -0.00000000000E+00 -0.45593999997E+02  0.45594000000E+02  0.51100000000E-03 0.  1.
    9900012    2    1    2    0    0  0.65170524021E+01 -0.27022413245E+02  0.33330772646E+02  0.47787271955E+02  0.20000004154E+02 0.  0.
        -12    1    1    2    0    0 -0.65170524021E+01  0.27022413245E+02 -0.33330772646E+02  0.43400728045E+02  0.00000000000E+00 0.  1.
         11    1    3    3    0    0  0.45240712992E+01 -0.24307149535E+02  0.15367662336E+02  0.29111334315E+02  0.51100000000E-03 0. -1.
        -11    1    3    3    0    0  0.30640522283E+01 -0.13118658089E+01  0.12339126733E+02  0.12781371474E+02  0.51100000000E-03 0.  1.
         12    1    3    3    0    0 -0.10710711254E+01 -0.14033979013E+01  0.56239835766E+01  0.58945661668E+01  0.00000000000E+00 0. -1.
</event>
<event>
 7    1  0.2530788E-009  0.4778727E+02  0.7816164E-02  0.1312668E+00
        -11   -1    0    0    0    0  0.00000000000E+00  0.00000000000E+00  0.45593999997E+02  0.45594000000E+02  0.51100000000E-03 0. -1.
         11   -1    0    0    0    0 -0.00000000000E+00 -0.00000000000E+00 -0.45593999997E+02  0.45594000000E+02  0.51100000000E-03 0.  1.
    9900012    2    1    2    0    0 -0.41802309758E+02 -0.53369054408E+00 -0.11657846170E+02  0.47787270697E+02  0.19999998416E+02 0.  0.
        -12    1    1    2    0    0  0.41802309758E+02  0.53369054408E+00  0.11657846170E+02  0.43400729303E+02  0.00000000000E+00 0.  1.
         11    1    3    3    0    0 -0.28363084482E+02 -0.52966487667E+00 -0.15538172959E+02  0.32344704750E+02  0.51100000000E-03 0. -1.
        -11    1    3    3    0    0 -0.14983156751E+01  0.75311272520E+00 -0.15678022106E+01  0.22956769528E+01  0.51100000000E-03 0.  1.
         12    1    3    3    0    0 -0.11940909601E+02 -0.75713839261E+00  0.54481289987E+01  0.13146888994E+02  0.00000000000E+00 0. -1.
</event>
<event>
 7    1  0.2530788E-009  0.4778727E+02  0.7816164E-02  0.1312668E+00
        -11   -1    0    0    0    0  0.00000000000E+00  0.00000000000E+00  0.45593999997E+02  0.45594000000E+02  0.51100000000E-03 0. -1.
         11   -1    0    0    0    0 -0.00000000000E+00 -0.00000000000E+00 -0.45593999997E+02  0.45594000000E+02  0.51100000000E-03 0.  1.
    9900012    2    1    2    0    0  0.37616492178E+02 -0.77620108840E+01  0.20208270020E+02  0.47787268739E+02  0.19999989490E+02 0.  0.
        -12    1    1    2    0    0 -0.37616492178E+02  0.77620108840E+01 -0.20208270020E+02  0.43400731261E+02  0.00000000000E+00 0.  1.
         11    1    3    3    0    0  0.13287330058E+02  0.19513448572E+01  0.10508738681E+02  0.17052697022E+02  0.51100000000E-03 0.  1.
        -11    1    3    3    0    0  0.18349757512E+02 -0.89931960148E+01  0.14038408215E+01  0.20483211287E+02  0.51100000000E-03 0. -1.
         12    1    3    3    0    0  0.59794046084E+01 -0.72015972644E+00  0.82956905177E+01  0.10251360430E+02  0.00000000000E+00 0. -1.
</event>
<event>
 7    1  0.2530788E-009  0.4778727E+02  0.7816164E-02  0.1312668E+00
        -11   -1    0    0    0    0  0.00000000000E+00  0.00000000000E+00  0.45593999997E+02  0.45594000000E+02  0.51100000000E-03 0.  1.
         11   -1    0    0    0    0 -0.00000000000E+00 -0.00000000000E+00 -0.45593999997E+02  0.45594000000E+02  0.51100000000E-03 0. -1.
    9900012    2    1    2    0    0  0.39170241298E+02 -0.15792388736E+02 -0.99958124496E+01  0.47787267151E+02  0.19999982246E+02 0.  0.
        -12    1    1    2    0    0 -0.39170241298E+02  0.15792388736E+02  0.99958124496E+01  0.43400732849E+02  0.00000000000E+00 0.  1.
         11    1    3    3    0    0  0.15619917759E+02 -0.84542487581E+01 -0.13271953575E+02  0.22172074887E+02  0.51100000000E-03 0. -1.
        -11    1    3    3    0    0  0.20950309982E+02 -0.82506779771E+01  0.20833313193E+01  0.22612594833E+02  0.51100000000E-03 0.  1.
         12    1    3    3    0    0  0.26000135576E+01  0.91253799920E+00  0.11928098057E+01  0.30025974309E+01  0.00000000000E+00 0. -1.
</event>
<event>
 7    1  0.2530788E-009  0.4778727E+02  0.7816164E-02  0.1312668E+00
        -11   -1    0    0    0    0  0.00000000000E+00  0.00000000000E+00  0.45593999997E+02  0.45594000000E+02  0.51100000000E-03 0.  1.
         11   -1    0    0    0    0 -0.00000000000E+00 -0.00000000000E+00 -0.45593999997E+02  0.45594000000E+02  0.51100000000E-03 0. -1.
    9900012    2    1    2    0    0 -0.35729460836E+02 -0.18316825405E+02 -0.16477947895E+02  0.47787271534E+02  0.20000002231E+02 0.  0.
        -12    1    1    2    0    0  0.35729460836E+02  0.18316825405E+02  0.16477947895E+02  0.43400728466E+02  0.00000000000E+00 0.  1.
         11    1    3    3    0    0 -0.88647121199E+01  0.91245102671E+00 -0.52034184641E+01  0.10319459861E+02  0.51100000000E-03 0. -1.
        -11    1    3    3    0    0 -0.23347757452E+02 -0.16476871929E+02 -0.38927803402E+01  0.28840229292E+02  0.51100000000E-03 0.  1.
        -12    1    3    3    0    0 -0.35169912647E+01 -0.27524045023E+01 -0.73817490902E+01  0.86275823805E+01  0.00000000000E+00 0.  1.
</event>
<event>
 7    1  0.2530788E-009  0.4778727E+02  0.7816164E-02  0.1312668E+00
        -11   -1    0    0    0    0  0.00000000000E+00  0.00000000000E+00  0.45593999997E+02  0.45594000000E+02  0.51100000000E-03 0.  1.
         11   -1    0    0    0    0 -0.00000000000E+00 -0.00000000000E+00 -0.45593999997E+02  0.45594000000E+02  0.51100000000E-03 0. -1.
    9900012    2    1    2    0    0 -0.10011256508E+02  0.39546092717E+02 -0.14815680516E+02  0.47787273103E+02  0.20000009386E+02 0.  0.
        -12    1    1    2    0    0  0.10011256508E+02 -0.39546092717E+02  0.14815680516E+02  0.43400726897E+02  0.00000000000E+00 0.  1.
         11    1    3    3    0    0 -0.11457464551E+02  0.32257211089E+02 -0.11790504217E+02  0.36205208895E+02  0.51100000000E-03 0. -1.
        -11    1    3    3    0    0  0.28631929699E+01  0.83571579680E+01 -0.10016181597E+01  0.88906244147E+01  0.51100000000E-03 0.  1.
         12    1    3    3    0    0 -0.14169849262E+01 -0.10682763398E+01 -0.20235581393E+01  0.26914397936E+01  0.00000000000E+00 0. -1.
</event>
<event>
 7    1  0.2530788E-009  0.4778727E+02  0.7816164E-02  0.1312668E+00
        -11   -1    0    0    0    0  0.00000000000E+00  0.00000000000E+00  0.45593999997E+02  0.45594000000E+02  0.51100000000E-03 0.  1.
         11   -1    0    0    0    0 -0.00000000000E+00 -0.00000000000E+00 -0.45593999997E+02  0.45594000000E+02  0.51100000000E-03 0. -1.
    9900012    2    1    2    0    0 -0.25715565374E+02  0.25603046139E+02 -0.23807918125E+02  0.47787271440E+02  0.20000001802E+02 0.  0.
        -12    1    1    2    0    0  0.25715565374E+02 -0.25603046139E+02  0.23807918125E+02  0.43400728560E+02  0.00000000000E+00 0.  1.
         11    1    3    3    0    0 -0.58920970747E+01  0.88859267159E+01 -0.92563769285E+01  0.14119384393E+02  0.51100000000E-03 0. -1.
        -11    1    3    3    0    0 -0.66987282275E+01 -0.13023577779E+00 -0.96641073539E+01  0.11759459700E+02  0.51100000000E-03 0.  1.
        -12    1    3    3    0    0 -0.13124740072E+02  0.16847355201E+02 -0.48874338424E+01  0.21908427347E+02  0.00000000000E+00 0.  1.
</event>
<event>
 7    1  0.2530788E-009  0.4778727E+02  0.7816164E-02  0.1312668E+00
        -11   -1    0    0    0    0  0.00000000000E+00  0.00000000000E+00  0.45593999997E+02  0.45594000000E+02  0.51100000000E-03 0.  1.
         11   -1    0    0    0    0 -0.00000000000E+00 -0.00000000000E+00 -0.45593999997E+02  0.45594000000E+02  0.51100000000E-03 0. -1.
    9900012    2    1    2    0    0  0.36744050233E+02  0.43256811402E+01 -0.22688903415E+02  0.47787273243E+02  0.20000010025E+02 0.  0.
        -12    1    1    2    0    0 -0.36744050233E+02 -0.43256811402E+01  0.22688903415E+02  0.43400726757E+02  0.00000000000E+00 0.  1.
         11    1    3    3    0    0 -0.22086263067E+00 -0.18619120147E+01 -0.38155057180E+01  0.42513034234E+01  0.51100000000E-03 0. -1.
        -11    1    3    3    0    0  0.57661602162E+00  0.13646296359E+01  0.10072107245E+01  0.17914166975E+01  0.51100000000E-03 0.  1.
         12    1    3    3    0    0  0.36388296842E+02  0.48229635191E+01 -0.19880608421E+02  0.41744553122E+02  0.00000000000E+00 0. -1.
</event>
<event>
 7    1  0.2530788E-009  0.4778727E+02  0.7816164E-02  0.1312668E+00
        -11   -1    0    0    0    0  0.00000000000E+00  0.00000000000E+00  0.45593999997E+02  0.45594000000E+02  0.51100000000E-03 0.  1.
         11   -1    0    0    0    0 -0.00000000000E+00 -0.00000000000E+00 -0.45593999997E+02  0.45594000000E+02  0.51100000000E-03 0. -1.
    9900012    2    1    2    0    0 -0.13755665849E+02  0.40264361232E+02 -0.85548893664E+01  0.47787271199E+02  0.20000000707E+02 0.  0.
        -12    1    1    2    0    0  0.13755665849E+02 -0.40264361232E+02  0.85548893664E+01  0.43400728801E+02  0.00000000000E+00 0.  1.
         11    1    3    3    0    0 -0.67611610035E+01  0.36311479644E+02 -0.15155552259E+01  0.36966657409E+02  0.51100000000E-03 0. -1.
        -11    1    3    3    0    0 -0.57451160259E+01  0.37200869332E+01 -0.52506177619E+01  0.86263776919E+01  0.51100000000E-03 0.  1.
         12    1    3    3    0    0 -0.12493888197E+01  0.23279465413E+00 -0.17887163786E+01  0.21942360987E+01  0.00000000000E+00 0. -1.
</event>
<event>
 7    1  0.2530788E-009  0.4778727E+02  0.7816164E-02  0.1312668E+00
        -11   -1    0    0    0    0  0.00000000000E+00  0.00000000000E+00  0.45593999997E+02  0.45594000000E+02  0.51100000000E-03 0.  1.
         11   -1    0    0    0    0 -0.00000000000E+00 -0.00000000000E+00 -0.45593999997E+02  0.45594000000E+02  0.51100000000E-03 0. -1.
    9900012    2    1    2    0    0  0.29465524702E+02  0.49859240836E+01 -0.31472950338E+02  0.47787272035E+02  0.20000004516E+02 0.  0.
        -12    1    1    2    0    0 -0.29465524702E+02 -0.49859240836E+01  0.31472950338E+02  0.43400727965E+02  0.00000000000E+00 0.  1.
         11    1    3    3    0    0  0.13990494565E+02  0.91950560439E+01 -0.99824219047E+01  0.19491837809E+02  0.51100000000E-03 0. -1.
        -11    1    3    3    0    0  0.11911659661E+02 -0.58360612823E+01 -0.11468012851E+02  0.17534610523E+02  0.51100000000E-03 0.  1.
         12    1    3    3    0    0  0.35633704754E+01  0.16269293220E+01 -0.10022515583E+02  0.10760823703E+02  0.00000000000E+00 0. -1.
</event>
<event>
 7    1  0.2530788E-009  0.4778726E+02  0.7816164E-02  0.1312668E+00
        -11   -1    0    0    0    0  0.00000000000E+00  0.00000000000E+00  0.45593999997E+02  0.45594000000E+02  0.51100000000E-03 0. -1.
         11   -1    0    0    0    0 -0.00000000000E+00 -0.00000000000E+00 -0.45593999997E+02  0.45594000000E+02  0.51100000000E-03 0.  1.
    9900012    2    1    2    0    0 -0.35206034437E+02 -0.84309200950E+01  0.23939069024E+02  0.47787259221E+02  0.19999946090E+02 0.  0.
        -12    1    1    2    0    0  0.35206034437E+02  0.84309200950E+01 -0.23939069024E+02  0.43400740779E+02  0.00000000000E+00 0.  1.
         11    1    3    3    0    0 -0.25669875934E+02 -0.58663365701E+01  0.25893818294E+02  0.36930289212E+02  0.51100000000E-03 0. -1.
        -11    1    3    3    0    0 -0.37685207032E+01  0.45935097814E+00 -0.21089563550E+01  0.43428618192E+01  0.51100000000E-03 0.  1.
         12    1    3    3    0    0 -0.57676378004E+01 -0.30239345031E+01  0.15420708560E+00  0.65141081892E+01  0.00000000000E+00 0. -1.
</event>
<event>
 7    1  0.2530788E-009  0.4778729E+02  0.7816164E-02  0.1312668E+00
        -11   -1    0    0    0    0  0.00000000000E+00  0.00000000000E+00  0.45593999997E+02  0.45594000000E+02  0.51100000000E-03 0. -1.
         11   -1    0    0    0    0 -0.00000000000E+00 -0.00000000000E+00 -0.45593999997E+02  0.45594000000E+02  0.51100000000E-03 0.  1.
    9900012    2    1    2    0    0 -0.34811164474E+02  0.57773788931E+01  0.25267102786E+02  0.47787288461E+02  0.20000079410E+02 0.  0.
        -12    1    1    2    0    0  0.34811164474E+02 -0.57773788931E+01 -0.25267102786E+02  0.43400711539E+02  0.00000000000E+00 0.  1.
         11    1    3    3    0    0 -0.29129490883E+02  0.24634794887E-01  0.18118773353E+02  0.34304778006E+02  0.51100000000E-03 0. -1.
        -11    1    3    3    0    0 -0.18714354148E+01  0.69570840941E+01  0.32626316978E+01  0.79087328606E+01  0.51100000000E-03 0.  1.
         12    1    3    3    0    0 -0.38102381755E+01 -0.12043399959E+01  0.38856977355E+01  0.55737775943E+01  0.00000000000E+00 0. -1.
</event>
<event>
 7    1  0.2530788E-009  0.4778727E+02  0.7816164E-02  0.1312668E+00
        -11   -1    0    0    0    0  0.00000000000E+00  0.00000000000E+00  0.45593999997E+02  0.45594000000E+02  0.51100000000E-03 0. -1.
         11   -1    0    0    0    0 -0.00000000000E+00 -0.00000000000E+00 -0.45593999997E+02  0.45594000000E+02  0.51100000000E-03 0.  1.
    9900012    2    1    2    0    0  0.41975007592E+02  0.10380327539E+02 -0.37377692181E+01  0.47787269811E+02  0.19999994378E+02 0.  0.
        -12    1    1    2    0    0 -0.41975007592E+02 -0.10380327539E+02  0.37377692181E+01  0.43400730189E+02  0.00000000000E+00 0.  1.
         11    1    3    3    0    0  0.14730123673E+02  0.82456096854E+01 -0.52982441987E+01  0.17692880329E+02  0.51100000000E-03 0. -1.
        -11    1    3    3    0    0  0.22613748414E+02  0.37981275829E+01  0.57401915904E+01  0.23638045397E+02  0.51100000000E-03 0.  1.
        -12    1    3    3    0    0  0.46311355061E+01 -0.16634097293E+01 -0.41797166098E+01  0.64563440848E+01  0.00000000000E+00 0.  1.
</event>
<event>
 7    1  0.2530788E-009  0.4778727E+02  0.7816164E-02  0.1312668E+00
        -11   -1    0    0    0    0  0.00000000000E+00  0.00000000000E+00  0.45593999997E+02  0.45594000000E+02  0.51100000000E-03 0. -1.
         11   -1    0    0    0    0 -0.00000000000E+00 -0.00000000000E+00 -0.45593999997E+02  0.45594000000E+02  0.51100000000E-03 0.  1.
    9900012    2    1    2    0    0  0.54622048148E+01  0.14481607648E+02  0.40547138504E+02  0.47787273251E+02  0.20000010060E+02 0.  0.
        -12    1    1    2    0    0 -0.54622048148E+01 -0.14481607648E+02 -0.40547138504E+02  0.43400726749E+02  0.00000000000E+00 0.  1.
         11    1    3    3    0    0 -0.31944737126E+01  0.13395738915E+01  0.15315016252E+02  0.15701873887E+02  0.51100000000E-03 0. -1.
        -11    1    3    3    0    0 -0.29099536989E+01  0.34926260461E+01  0.40166129995E+01  0.60662548147E+01  0.51100000000E-03 0.  1.
         12    1    3    3    0    0  0.11566632226E+02  0.96494077108E+01  0.21215509252E+02  0.26019144549E+02  0.00000000000E+00 0. -1.
</event>
<event>
 7    1  0.2530788E-009  0.4778726E+02  0.7816164E-02  0.1312668E+00
        -11   -1    0    0    0    0  0.00000000000E+00  0.00000000000E+00  0.45593999997E+02  0.45594000000E+02  0.51100000000E-03 0.  1.
         11   -1    0    0    0    0 -0.00000000000E+00 -0.00000000000E+00 -0.45593999997E+02  0.45594000000E+02  0.51100000000E-03 0. -1.
    9900012    2    1    2    0    0 -0.16436258613E+02 -0.22402473422E+02 -0.33340703252E+02  0.47787263763E+02  0.19999966801E+02 0.  0.
        -12    1    1    2    0    0  0.16436258613E+02  0.22402473422E+02  0.33340703252E+02  0.43400736237E+02  0.00000000000E+00 0.  1.
         11    1    3    3    0    0 -0.98618376198E+01 -0.42313671525E+01 -0.20056796993E+01  0.10917099456E+02  0.51100000000E-03 0.  1.
        -11    1    3    3    0    0 -0.54599668245E+01 -0.13887489877E+02 -0.25515368060E+02  0.29558545639E+02  0.51100000000E-03 0. -1.
        -12    1    3    3    0    0 -0.11144541686E+01 -0.42836163923E+01 -0.58196554923E+01  0.73116186675E+01  0.00000000000E+00 0.  1.
</event>
<event>
 7    1  0.2530788E-009  0.4778728E+02  0.7816164E-02  0.1312668E+00
        -11   -1    0    0    0    0  0.00000000000E+00  0.00000000000E+00  0.45593999997E+02  0.45594000000E+02  0.51100000000E-03 0.  1.
         11   -1    0    0    0    0 -0.00000000000E+00 -0.00000000000E+00 -0.45593999997E+02  0.45594000000E+02  0.51100000000E-03 0. -1.
    9900012    2    1    2    0    0 -0.58359285527E+01  0.13098662271E+02 -0.40963270563E+02  0.47787279377E+02  0.20000037994E+02 0.  0.
        -12    1    1    2    0    0  0.58359285527E+01 -0.13098662271E+02  0.40963270563E+02  0.43400720623E+02  0.00000000000E+00 0.  1.
         11    1    3    3    0    0  0.18412274246E+01  0.10945897153E+02 -0.14119726359E+02  0.17960218696E+02  0.51100000000E-03 0. -1.
        -11    1    3    3    0    0  0.73689288266E+00  0.71568612128E+00  0.52830616266E+00  0.11551300391E+01  0.51100000000E-03 0.  1.
         12    1    3    3    0    0 -0.84140488600E+01  0.14370789971E+01 -0.27371850367E+02  0.28671930642E+02  0.00000000000E+00 0. -1.
</event>
<event>
 7    1  0.2530788E-009  0.4778726E+02  0.7816164E-02  0.1312668E+00
        -11   -1    0    0    0    0  0.00000000000E+00  0.00000000000E+00  0.45593999997E+02  0.45594000000E+02  0.51100000000E-03 0.  1.
         11   -1    0    0    0    0 -0.00000000000E+00 -0.00000000000E+00 -0.45593999997E+02  0.45594000000E+02  0.51100000000E-03 0. -1.
    9900012    2    1    2    0    0 -0.39865701479E+02  0.25301022863E+00 -0.17154760643E+02  0.47787262894E+02  0.19999962841E+02 0.  0.
        -12    1    1    2    0    0  0.39865701479E+02 -0.25301022863E+00  0.17154760643E+02  0.43400737106E+02  0.00000000000E+00 0.  1.
         11    1    3    3    0    0 -0.10359635148E+02 -0.52108283624E+01 -0.11726607224E+02  0.16492061419E+02  0.51100000000E-03 0.  1.
        -11    1    3    3    0    0 -0.22940856834E+02  0.45644822617E+01 -0.11726530499E+01  0.23419917293E+02  0.51100000000E-03 0. -1.
        -12    1    3    3    0    0 -0.65652094975E+01  0.89935632931E+00 -0.42555003689E+01  0.78752841817E+01  0.00000000000E+00 0.  1.
</event>
<event>
 7    1  0.2530788E-009  0.4778727E+02  0.7816164E-02  0.1312668E+00
        -11   -1    0    0    0    0  0.00000000000E+00  0.00000000000E+00  0.45593999997E+02  0.45594000000E+02  0.51100000000E-03 0.  1.
         11   -1    0    0    0    0 -0.00000000000E+00 -0.00000000000E+00 -0.45593999997E+02  0.45594000000E+02  0.51100000000E-03 0. -1.
    9900012    2    1    2    0    0 -0.55716687567E+01  0.37471939509E+01 -0.42878181662E+02  0.47787269385E+02  0.19999992436E+02 0.  0.
        -12    1    1    2    0    0  0.55716687567E+01 -0.37471939509E+01  0.42878181662E+02  0.43400730615E+02  0.00000000000E+00 0.  1.
         11    1    3    3    0    0 -0.60998405932E+01  0.39244005326E+00 -0.23292219573E+02  0.24080896108E+02  0.51100000000E-03 0. -1.
        -11    1    3    3    0    0  0.62863003955E+01  0.10459138645E+01 -0.13899439306E+02  0.15290713579E+02  0.51100000000E-03 0.  1.
        -12    1    3    3    0    0 -0.57581285590E+01  0.23088400331E+01 -0.56865227829E+01  0.84156596985E+01  0.00000000000E+00 0.  1.
</event>
<event>
 7    1  0.2530788E-009  0.4778728E+02  0.7816164E-02  0.1312668E+00
        -11   -1    0    0    0    0  0.00000000000E+00  0.00000000000E+00  0.45593999997E+02  0.45594000000E+02  0.51100000000E-03 0. -1.
         11   -1    0    0    0    0 -0.00000000000E+00 -0.00000000000E+00 -0.45593999997E+02  0.45594000000E+02  0.51100000000E-03 0.  1.
    9900012    2    1    2    0    0 -0.47360623175E+01  0.43072477074E+02  0.24401396207E+01  0.47787275940E+02  0.20000022321E+02 0.  0.
        -12    1    1    2    0    0  0.47360623175E+01 -0.43072477074E+02 -0.24401396207E+01  0.43400724060E+02  0.00000000000E+00 0.  1.
         11    1    3    3    0    0  0.31887029353E+01  0.26002333714E+02  0.60354264755E+01  0.26883369543E+02  0.51100000000E-03 0. -1.
        -11    1    3    3    0    0 -0.66904118134E+01  0.17305370364E+02 -0.17019534923E+01  0.18631535085E+02  0.51100000000E-03 0.  1.
         12    1    3    3    0    0 -0.12343534394E+01 -0.23522700446E+00 -0.18933333625E+01  0.22723713117E+01  0.00000000000E+00 0. -1.
</event>
<event>
 7    1  0.2530788E-009  0.4778727E+02  0.7816164E-02  0.1312668E+00
        -11   -1    0    0    0    0  0.00000000000E+00  0.00000000000E+00  0.45593999997E+02  0.45594000000E+02  0.51100000000E-03 0. -1.
         11   -1    0    0    0    0 -0.00000000000E+00 -0.00000000000E+00 -0.45593999997E+02  0.45594000000E+02  0.51100000000E-03 0.  1.
    9900012    2    1    2    0    0  0.33130953317E+01  0.36718619724E+02 -0.22899556869E+02  0.47787270284E+02  0.19999996532E+02 0.  0.
        -12    1    1    2    0    0 -0.33130953317E+01 -0.36718619724E+02  0.22899556869E+02  0.43400729716E+02  0.00000000000E+00 0.  1.
         11    1    3    3    0    0  0.92821031380E+01  0.10012661838E+02 -0.90886473890E+01  0.16401656849E+02  0.51100000000E-03 0. -1.
        -11    1    3    3    0    0 -0.33447842698E+01  0.24578911881E+02 -0.12122008558E+02  0.27608940270E+02  0.51100000000E-03 0.  1.
         12    1    3    3    0    0 -0.26242235365E+01  0.21270460040E+01 -0.16889009223E+01  0.37766731653E+01  0.00000000000E+00 0. -1.
</event>
<event>
 7    1  0.2530788E-009  0.4778727E+02  0.7816164E-02  0.1312668E+00
        -11   -1    0    0    0    0  0.00000000000E+00  0.00000000000E+00  0.45593999997E+02  0.45594000000E+02  0.51100000000E-03 0.  1.
         11   -1    0    0    0    0 -0.00000000000E+00 -0.00000000000E+00 -0.45593999997E+02  0.45594000000E+02  0.51100000000E-03 0. -1.
    9900012    2    1    2    0    0  0.61629811991E+01 -0.27527710136E+02 -0.32982813465E+02  0.47787272510E+02  0.20000006683E+02 0.  0.
        -12    1    1    2    0    0 -0.61629811991E+01  0.27527710136E+02  0.32982813465E+02  0.43400727490E+02  0.00000000000E+00 0.  1.
         11    1    3    3    0    0  0.47400420695E+01 -0.94204164962E+01 -0.22181373594E+02  0.24560651061E+02  0.51100000000E-03 0. -1.
        -11    1    3    3    0    0  0.35659790825E+01 -0.17618156301E+02 -0.10907489899E+02  0.21025911976E+02  0.51100000000E-03 0.  1.
        -12    1    3    3    0    0 -0.21430399529E+01 -0.48913733864E+00  0.10605002777E+00  0.22007094729E+01  0.00000000000E+00 0.  1.
</event>
<event>
 7    1  0.2530788E-009  0.4778727E+02  0.7816164E-02  0.1312668E+00
        -11   -1    0    0    0    0  0.00000000000E+00  0.00000000000E+00  0.45593999997E+02  0.45594000000E+02  0.51100000000E-03 0.  1.
         11   -1    0    0    0    0 -0.00000000000E+00 -0.00000000000E+00 -0.45593999997E+02  0.45594000000E+02  0.51100000000E-03 0. -1.
    9900012    2    1    2    0    0  0.30196993749E+02  0.27571079735E+02  0.14546485208E+02  0.47787273034E+02  0.20000009072E+02 0.  0.
        -12    1    1    2    0    0 -0.30196993749E+02 -0.27571079735E+02 -0.14546485208E+02  0.43400726966E+02  0.00000000000E+00 0.  1.
         11    1    3    3    0    0  0.22243182585E+02  0.19000871689E+02  0.68756650092E+01  0.30051074290E+02  0.51100000000E-03 0. -1.
        -11    1    3    3    0    0  0.98335595908E+00  0.85256424206E+01  0.62640619313E+01  0.10625066577E+02  0.51100000000E-03 0.  1.
         12    1    3    3    0    0  0.69704552056E+01  0.44565625342E-01  0.14067582679E+01  0.71111321667E+01  0.00000000000E+00 0. -1.
</event>
<event>
 7    1  0.2530788E-009  0.4778728E+02  0.7816164E-02  0.1312668E+00
        -11   -1    0    0    0    0  0.00000000000E+00  0.00000000000E+00  0.45593999997E+02  0.45594000000E+02  0.51100000000E-03 0.  1.
         11   -1    0    0    0    0 -0.00000000000E+00 -0.00000000000E+00 -0.45593999997E+02  0.45594000000E+02  0.51100000000E-03 0. -1.
    9900012    2    1    2    0    0 -0.22185593442E+02  0.28755442636E+01 -0.37190768773E+02  0.47787278887E+02  0.20000035758E+02 0.  0.
        -12    1    1    2    0    0  0.22185593442E+02 -0.28755442636E+01  0.37190768773E+02  0.43400721113E+02  0.00000000000E+00 0.  1.
         11    1    3    3    0    0 -0.21886202460E+02  0.66892225698E+01 -0.23083578297E+02  0.32505432530E+02  0.51100000000E-03 0. -1.
        -11    1    3    3    0    0  0.17574653986E+01 -0.49939571211E+00 -0.62205470996E+01  0.64833083517E+01  0.51100000000E-03 0.  1.
         12    1    3    3    0    0 -0.20568563800E+01 -0.33142825941E+01 -0.78866433763E+01  0.87985380050E+01  0.00000000000E+00 0. -1.
</event>
<event>
 7    1  0.2530788E-009  0.4778727E+02  0.7816164E-02  0.1312668E+00
        -11   -1    0    0    0    0  0.00000000000E+00  0.00000000000E+00  0.45593999997E+02  0.45594000000E+02  0.51100000000E-03 0.  1.
         11   -1    0    0    0    0 -0.00000000000E+00 -0.00000000000E+00 -0.45593999997E+02  0.45594000000E+02  0.51100000000E-03 0. -1.
    9900012    2    1    2    0    0  0.22264620255E+02  0.10552562031E+02 -0.35728883578E+02  0.47787274174E+02  0.20000014267E+02 0.  0.
        -12    1    1    2    0    0 -0.22264620255E+02 -0.10552562031E+02  0.35728883578E+02  0.43400725826E+02  0.00000000000E+00 0.  1.
         11    1    3    3    0    0  0.11819753418E+02  0.65009348093E+01 -0.15463682800E+02  0.20520580163E+02  0.51100000000E-03 0. -1.
        -11    1    3    3    0    0  0.28533396048E+01 -0.53821781986E+01 -0.59263040894E+01  0.84988510684E+01  0.51100000000E-03 0.  1.
        -12    1    3    3    0    0  0.75915272321E+01  0.94338054200E+01 -0.14338896689E+02  0.18767842942E+02  0.00000000000E+00 0.  1.
</event>
<event>
 7    1  0.2530788E-009  0.4778727E+02  0.7816164E-02  0.1312668E+00
        -11   -1    0    0    0    0  0.00000000000E+00  0.00000000000E+00  0.45593999997E+02  0.45594000000E+02  0.51100000000E-03 0. -1.
         11   -1    0    0    0    0 -0.00000000000E+00 -0.00000000000E+00 -0.45593999997E+02  0.45594000000E+02  0.51100000000E-03 0.  1.
    9900012    2    1    2    0    0 -0.38655222686E+02  0.19335585397E+02 -0.39411190377E+01  0.47787268176E+02  0.19999986924E+02 0.  0.
        -12    1    1    2    0    0  0.38655222686E+02 -0.19335585397E+02  0.39411190377E+01  0.43400731824E+02  0.00000000000E+00 0.  1.
         11    1    3    3    0    0 -0.17728924146E+02  0.35399580622E+01  0.49646720470E+01  0.18748173864E+02  0.51100000000E-03 0. -1.
        -11    1    3    3    0    0 -0.12543857324E+02  0.41638903050E+01 -0.54124887475E+01  0.14282204793E+02  0.51100000000E-03 0.  1.
         12    1    3    3    0    0 -0.83824412163E+01  0.11631737030E+02 -0.34933023372E+01  0.14756889520E+02  0.00000000000E+00 0. -1.
</event>
<event>
 7    1  0.2530788E-009  0.4778727E+02  0.7816164E-02  0.1312668E+00
        -11   -1    0    0    0    0  0.00000000000E+00  0.00000000000E+00  0.45593999997E+02  0.45594000000E+02  0.51100000000E-03 0. -1.
         11   -1    0    0    0    0 -0.00000000000E+00 -0.00000000000E+00 -0.45593999997E+02  0.45594000000E+02  0.51100000000E-03 0.  1.
    9900012    2    1    2    0    0 -0.21975387928E+02 -0.18274553533E+02  0.32661083896E+02  0.47787269791E+02  0.19999994286E+02 0.  0.
        -12    1    1    2    0    0  0.21975387928E+02  0.18274553533E+02 -0.32661083896E+02  0.43400730209E+02  0.00000000000E+00 0.  1.
         11    1    3    3    0    0  0.14827767193E+01 -0.54282522769E+01  0.10827033310E+02  0.12202016232E+02  0.51100000000E-03 0. -1.
        -11    1    3    3    0    0 -0.53901947727E+01 -0.19901245594E+01  0.78979904023E+00  0.57998774327E+01  0.51100000000E-03 0.  1.
         12    1    3    3    0    0 -0.18067969874E+02 -0.10856176697E+02  0.21044251546E+02  0.29785376126E+02  0.00000000000E+00 0. -1.
</event>
<event>
 7    1  0.2530788E-009  0.4778727E+02  0.7816164E-02  0.1312668E+00
        -11   -1    0    0    0    0  0.00000000000E+00  0.00000000000E+00  0.45593999997E+02  0.45594000000E+02  0.51100000000E-03 0.  1.
         11   -1    0    0    0    0 -0.00000000000E+00 -0.00000000000E+00 -0.45593999997E+02  0.45594000000E+02  0.51100000000E-03 0. -1.
    9900012    2    1    2    0    0 -0.36881558990E+02 -0.21584724211E+02 -0.75811381942E+01  0.47787269948E+02  0.19999994999E+02 0.  0.
        -12    1    1    2    0    0  0.36881558990E+02  0.21584724211E+02  0.75811381942E+01  0.43400730052E+02  0.00000000000E+00 0.  1.
         11    1    3    3    0    0 -0.23795621929E+02 -0.78985063370E+01  0.37152652965E+01  0.25346029705E+02  0.51100000000E-03 0. -1.
        -11    1    3    3    0    0  0.26715148746E-01 -0.13597070350E+01 -0.46962210124E+00  0.14387710378E+01  0.51100000000E-03 0.  1.
         12    1    3    3    0    0 -0.13112652209E+02 -0.12326510839E+02 -0.10826781389E+02  0.21002469204E+02  0.00000000000E+00 0. -1.
</event>
<event>
 7    1  0.2530788E-009  0.4778727E+02  0.7816164E-02  0.1312668E+00
        -11   -1    0    0    0    0  0.00000000000E+00  0.00000000000E+00  0.45593999997E+02  0.45594000000E+02  0.51100000000E-03 0. -1.
         11   -1    0    0    0    0 -0.00000000000E+00 -0.00000000000E+00 -0.45593999997E+02  0.45594000000E+02  0.51100000000E-03 0.  1.
    9900012    2    1    2    0    0  0.32031042494E+02  0.23200851359E+02 -0.17870538549E+02  0.47787270340E+02  0.19999996787E+02 0.  0.
        -12    1    1    2    0    0 -0.32031042494E+02 -0.23200851359E+02  0.17870538549E+02  0.43400729660E+02  0.00000000000E+00 0.  1.
         11    1    3    3    0    0  0.84851032684E+01  0.10845743148E+02 -0.73790922735E+01  0.15622999870E+02  0.51100000000E-03 0. -1.
        -11    1    3    3    0    0  0.41565955071E+01 -0.25441633423E+01  0.12610519966E+01  0.50339155457E+01  0.51100000000E-03 0.  1.
        -12    1    3    3    0    0  0.19389343718E+02  0.14899271553E+02 -0.11752498272E+02  0.27130354924E+02  0.00000000000E+00 0.  1.
</event>
<event>
 7    1  0.2530788E-009  0.4778727E+02  0.7816164E-02  0.1312668E+00
        -11   -1    0    0    0    0  0.00000000000E+00  0.00000000000E+00  0.45593999997E+02  0.45594000000E+02  0.51100000000E-03 0.  1.
         11   -1    0    0    0    0 -0.00000000000E+00 -0.00000000000E+00 -0.45593999997E+02  0.45594000000E+02  0.51100000000E-03 0. -1.
    9900012    2    1    2    0    0  0.20376189063E+02  0.35465009665E+02 -0.14514380308E+02  0.47787271585E+02  0.20000002464E+02 0.  0.
        -12    1    1    2    0    0 -0.20376189063E+02 -0.35465009665E+02  0.14514380308E+02  0.43400728415E+02  0.00000000000E+00 0.  1.
         11    1    3    3    0    0  0.99074716974E+01  0.22359283251E+02 -0.17439544447E+02  0.30037197834E+02  0.51100000000E-03 0. -1.
        -11    1    3    3    0    0  0.44433849840E+01  0.24963000979E+01  0.21281554902E+01  0.55230634929E+01  0.51100000000E-03 0.  1.
         12    1    3    3    0    0  0.60253323817E+01  0.10609426316E+02  0.79700864896E+00  0.12227010258E+02  0.00000000000E+00 0. -1.
</event>
<event>
 7    1  0.2530788E-009  0.4778727E+02  0.7816164E-02  0.1312668E+00
        -11   -1    0    0    0    0  0.00000000000E+00  0.00000000000E+00  0.45593999997E+02  0.45594000000E+02  0.51100000000E-03 0.  1.
         11   -1    0    0    0    0 -0.00000000000E+00 -0.00000000000E+00 -0.45593999997E+02  0.45594000000E+02  0.51100000000E-03 0. -1.
    9900012    2    1    2    0    0  0.26614066496E+02  0.28833165931E+02 -0.18546250292E+02  0.47787269673E+02  0.19999993746E+02 0.  0.
        -12    1    1    2    0    0 -0.26614066496E+02 -0.28833165931E+02  0.18546250292E+02  0.43400730327E+02  0.00000000000E+00 0.  1.
         11    1    3    3    0    0  0.83483175969E+01  0.74311023270E+01 -0.11091009538E+02  0.15745671828E+02  0.51100000000E-03 0. -1.
        -11    1    3    3    0    0  0.18616981169E+02  0.13394596344E+02 -0.38615388568E+01  0.23257658559E+02  0.51100000000E-03 0.  1.
        -12    1    3    3    0    0 -0.35123227051E+00  0.80074672603E+01 -0.35937018977E+01  0.87839392850E+01  0.00000000000E+00 0.  1.
</event>
<event>
 7    1  0.2530788E-009  0.4778727E+02  0.7816164E-02  0.1312668E+00
        -11   -1    0    0    0    0  0.00000000000E+00  0.00000000000E+00  0.45593999997E+02  0.45594000000E+02  0.51100000000E-03 0.  1.
         11   -1    0    0    0    0 -0.00000000000E+00 -0.00000000000E+00 -0.45593999997E+02  0.45594000000E+02  0.51100000000E-03 0. -1.
    9900012    2    1    2    0    0 -0.75008990134E+01 -0.27296765088E+02 -0.32897509600E+02  0.47787274106E+02  0.20000013957E+02 0.  0.
        -12    1    1    2    0    0  0.75008990134E+01  0.27296765088E+02  0.32897509600E+02  0.43400725894E+02  0.00000000000E+00 0.  1.
         11    1    3    3    0    0 -0.50832435129E+01 -0.24367379507E+02 -0.20956302756E+02  0.32538825642E+02  0.51100000000E-03 0. -1.
        -11    1    3    3    0    0 -0.56198335492E+00 -0.24111180597E+01 -0.12872551327E+02  0.13108466482E+02  0.51100000000E-03 0.  1.
         12    1    3    3    0    0 -0.18556721456E+01 -0.51826752110E+00  0.93134448312E+00  0.21399819816E+01  0.00000000000E+00 0. -1.
</event>
<event>
 7    1  0.2530788E-009  0.4778727E+02  0.7816164E-02  0.1312668E+00
        -11   -1    0    0    0    0  0.00000000000E+00  0.00000000000E+00  0.45593999997E+02  0.45594000000E+02  0.51100000000E-03 0.  1.
         11   -1    0    0    0    0 -0.00000000000E+00 -0.00000000000E+00 -0.45593999997E+02  0.45594000000E+02  0.51100000000E-03 0. -1.
    9900012    2    1    2    0    0 -0.64046541668E+01 -0.39179546110E+01 -0.42746383086E+02  0.47787271547E+02  0.20000002292E+02 0.  0.
        -12    1    1    2    0    0  0.64046541668E+01  0.39179546110E+01  0.42746383086E+02  0.43400728453E+02  0.00000000000E+00 0.  1.
         11    1    3    3    0    0 -0.98113353367E+01 -0.15336444972E+01 -0.37514986418E+02  0.38807068592E+02  0.51100000000E-03 0. -1.
        -11    1    3    3    0    0  0.38350347360E+01 -0.33278632617E+01 -0.58712585942E+01  0.77623348972E+01  0.51100000000E-03 0.  1.
         12    1    3    3    0    0 -0.42835356609E+00  0.94355314791E+00  0.63986192667E+00  0.12178680576E+01  0.00000000000E+00 0. -1.
</event>
<event>
 7    1  0.2530788E-009  0.4778728E+02  0.7816164E-02  0.1312668E+00
        -11   -1    0    0    0    0  0.00000000000E+00  0.00000000000E+00  0.45593999997E+02  0.45594000000E+02  0.51100000000E-03 0. -1.
         11   -1    0    0    0    0 -0.00000000000E+00 -0.00000000000E+00 -0.45593999997E+02  0.45594000000E+02  0.51100000000E-03 0.  1.
    9900012    2    1    2    0    0 -0.52334735164E+01 -0.42505663871E+02  0.70357718278E+01  0.47787276603E+02  0.20000025346E+02 0.  0.
        -12    1    1    2    0    0  0.52334735164E+01  0.42505663871E+02 -0.70357718278E+01  0.43400723397E+02  0.00000000000E+00 0.  1.
         11    1    3    3    0    0  0.86250309483E+00 -0.27301028624E+02  0.28057185068E+01  0.27458370893E+02  0.51100000000E-03 0. -1.
        -11    1    3    3    0    0 -0.86585242707E+01 -0.87446843763E+01  0.22568633950E+00  0.12308146976E+02  0.51100000000E-03 0.  1.
        -12    1    3    3    0    0  0.25625476594E+01 -0.64599508707E+01  0.40043669815E+01  0.80207587348E+01  0.00000000000E+00 0.  1.
</event>
<event>
 7    1  0.2530788E-009  0.4778727E+02  0.7816164E-02  0.1312668E+00
        -11   -1    0    0    0    0  0.00000000000E+00  0.00000000000E+00  0.45593999997E+02  0.45594000000E+02  0.51100000000E-03 0.  1.
         11   -1    0    0    0    0 -0.00000000000E+00 -0.00000000000E+00 -0.45593999997E+02  0.45594000000E+02  0.51100000000E-03 0. -1.
    9900012    2    1    2    0    0 -0.17663767644E+02 -0.36831276649E+02  0.14665329038E+02  0.47787268408E+02  0.19999987978E+02 0.  0.
        -12    1    1    2    0    0  0.17663767644E+02  0.36831276649E+02 -0.14665329038E+02  0.43400731592E+02  0.00000000000E+00 0.  1.
         11    1    3    3    0    0 -0.21266414040E+01 -0.61282789209E+01  0.11678487974E+01  0.65910755775E+01  0.51100000000E-03 0. -1.
        -11    1    3    3    0    0 -0.14200500593E+02 -0.24673548797E+02  0.24929528635E+01  0.28577141942E+02  0.51100000000E-03 0.  1.
        -12    1    3    3    0    0 -0.13366256465E+01 -0.60294489312E+01  0.11004527377E+02  0.12619050888E+02  0.00000000000E+00 0.  1.
</event>
<event>
 7    1  0.2530788E-009  0.4778725E+02  0.7816164E-02  0.1312668E+00
        -11   -1    0    0    0    0  0.00000000000E+00  0.00000000000E+00  0.45593999997E+02  0.45594000000E+02  0.51100000000E-03 0. -1.
         11   -1    0    0    0    0 -0.00000000000E+00 -0.00000000000E+00 -0.45593999997E+02  0.45594000000E+02  0.51100000000E-03 0.  1.
    9900012    2    1    2    0    0 -0.40496642829E+02  0.12691227941E+02  0.90873299155E+01  0.47787252171E+02  0.19999913950E+02 0.  0.
        -12    1    1    2    0    0  0.40496642829E+02 -0.12691227941E+02 -0.90873299155E+01  0.43400747829E+02  0.00000000000E+00 0.  1.
         11    1    3    3    0    0 -0.52884948710E+01  0.11511986593E+01  0.82227686702E+01  0.98441536567E+01  0.51100000000E-03 0. -1.
        -11    1    3    3    0    0 -0.86398718106E+00  0.21414527889E+01 -0.22005042586E+00  0.23196371154E+01  0.51100000000E-03 0.  1.
         12    1    3    3    0    0 -0.34344160777E+02  0.93985764926E+01  0.10846116712E+01  0.35623461399E+02  0.00000000000E+00 0. -1.
</event>
<event>
 7    1  0.2530788E-009  0.4778728E+02  0.7816164E-02  0.1312668E+00
        -11   -1    0    0    0    0  0.00000000000E+00  0.00000000000E+00  0.45593999997E+02  0.45594000000E+02  0.51100000000E-03 0.  1.
         11   -1    0    0    0    0 -0.00000000000E+00 -0.00000000000E+00 -0.45593999997E+02  0.45594000000E+02  0.51100000000E-03 0. -1.
    9900012    2    1    2    0    0 -0.38842046554E+02 -0.69122083153E+00 -0.19350465374E+02  0.47787275617E+02  0.20000020849E+02 0.  0.
        -12    1    1    2    0    0  0.38842046554E+02  0.69122083153E+00  0.19350465374E+02  0.43400724383E+02  0.00000000000E+00 0.  1.
         11    1    3    3    0    0 -0.63938512048E+01  0.15959281971E+01 -0.15811737988E+01  0.67770517840E+01  0.51100000000E-03 0. -1.
        -11    1    3    3    0    0 -0.31250263587E+02 -0.95388902028E+00 -0.20755746294E+02  0.37527188584E+02  0.51100000000E-03 0.  1.
        -12    1    3    3    0    0 -0.11979317624E+01 -0.13332600084E+01  0.29864547191E+01  0.34830352491E+01  0.00000000000E+00 0.  1.
</event>
<event>
 7    1  0.2530788E-009  0.4778727E+02  0.7816164E-02  0.1312668E+00
        -11   -1    0    0    0    0  0.00000000000E+00  0.00000000000E+00  0.45593999997E+02  0.45594000000E+02  0.51100000000E-03 0. -1.
         11   -1    0    0    0    0 -0.00000000000E+00 -0.00000000000E+00 -0.45593999997E+02  0.45594000000E+02  0.51100000000E-03 0.  1.
    9900012    2    1    2    0    0  0.37286551742E+02 -0.20178666936E+02 -0.92821212782E+01  0.47787270564E+02  0.19999997811E+02 0.  0.
        -12    1    1    2    0    0 -0.37286551742E+02  0.20178666936E+02  0.92821212782E+01  0.43400729436E+02  0.00000000000E+00 0.  1.
         11    1    3    3    0    0  0.34616425936E+02 -0.19301296998E+02 -0.88848163697E+01  0.40617446653E+02  0.51100000000E-03 0. -1.
        -11    1    3    3    0    0 -0.80163903139E+00  0.58916433771E+00  0.23195120341E+01  0.25238613454E+01  0.51100000000E-03 0.  1.
        -12    1    3    3    0    0  0.34717648373E+01 -0.14665342756E+01 -0.27168169426E+01  0.46459625662E+01  0.00000000000E+00 0.  1.
</event>
<event>
 7    1  0.2530788E-009  0.4778727E+02  0.7816164E-02  0.1312668E+00
        -11   -1    0    0    0    0  0.00000000000E+00  0.00000000000E+00  0.45593999997E+02  0.45594000000E+02  0.51100000000E-03 0.  1.
         11   -1    0    0    0    0 -0.00000000000E+00 -0.00000000000E+00 -0.45593999997E+02  0.45594000000E+02  0.51100000000E-03 0. -1.
    9900012    2    1    2    0    0  0.41231255821E+02  0.75474184068E-01 -0.13549950864E+02  0.47787270498E+02  0.19999997507E+02 0.  0.
        -12    1    1    2    0    0 -0.41231255821E+02 -0.75474184068E-01  0.13549950864E+02  0.43400729502E+02  0.00000000000E+00 0.  1.
         11    1    3    3    0    0  0.27992562179E+01 -0.11271442243E+01  0.32173170154E+01  0.44110563944E+01  0.51100000000E-03 0. -1.
        -11    1    3    3    0    0  0.56108201185E+01  0.22227606381E+01  0.87789032429E+00  0.60985784360E+01  0.51100000000E-03 0.  1.
         12    1    3    3    0    0  0.32821179484E+02 -0.10201422297E+01 -0.17645158204E+02  0.37277635667E+02  0.00000000000E+00 0. -1.
</event>
<event>
 7    1  0.2530788E-009  0.4778727E+02  0.7816164E-02  0.1312668E+00
        -11   -1    0    0    0    0  0.00000000000E+00  0.00000000000E+00  0.45593999997E+02  0.45594000000E+02  0.51100000000E-03 0. -1.
         11   -1    0    0    0    0 -0.00000000000E+00 -0.00000000000E+00 -0.45593999997E+02  0.45594000000E+02  0.51100000000E-03 0.  1.
    9900012    2    1    2    0    0 -0.30075156583E+02  0.10382449493E+02  0.29518009019E+02  0.47787272386E+02  0.20000006118E+02 0.  0.
        -12    1    1    2    0    0  0.30075156583E+02 -0.10382449493E+02 -0.29518009019E+02  0.43400727614E+02  0.00000000000E+00 0.  1.
         11    1    3    3    0    0 -0.18175090692E+02  0.14944695241E+02  0.20059545214E+02  0.30920271538E+02  0.51100000000E-03 0. -1.
        -11    1    3    3    0    0 -0.78681356144E+01 -0.54547652001E+01  0.50414837594E+01  0.10820285587E+02  0.51100000000E-03 0.  1.
        -12    1    3    3    0    0 -0.40319302759E+01  0.89251945120E+00  0.44169800462E+01  0.60467152611E+01  0.00000000000E+00 0.  1.
</event>
<event>
 7    1  0.2530788E-009  0.4778727E+02  0.7816164E-02  0.1312668E+00
        -11   -1    0    0    0    0  0.00000000000E+00  0.00000000000E+00  0.45593999997E+02  0.45594000000E+02  0.51100000000E-03 0.  1.
         11   -1    0    0    0    0 -0.00000000000E+00 -0.00000000000E+00 -0.45593999997E+02  0.45594000000E+02  0.51100000000E-03 0. -1.
    9900012    2    1    2    0    0 -0.21510498902E+02  0.35439103566E+02 -0.12844904463E+02  0.47787271950E+02  0.20000004129E+02 0.  0.
        -12    1    1    2    0    0  0.21510498902E+02 -0.35439103566E+02  0.12844904463E+02  0.43400728050E+02  0.00000000000E+00 0.  1.
         11    1    3    3    0    0 -0.16623761436E+02  0.35120628974E+02 -0.61429705459E+01  0.39338837187E+02  0.51100000000E-03 0. -1.
        -11    1    3    3    0    0 -0.47516481060E+01  0.45047923399E+00 -0.57260659647E+01  0.74544565836E+01  0.51100000000E-03 0.  1.
        -12    1    3    3    0    0 -0.13508936035E+00 -0.13200464216E+00 -0.97586795245E+00  0.99397817956E+00  0.00000000000E+00 0.  1.
</event>
<event>
 7    1  0.2530788E-009  0.4778727E+02  0.7816164E-02  0.1312668E+00
        -11   -1    0    0    0    0  0.00000000000E+00  0.00000000000E+00  0.45593999997E+02  0.45594000000E+02  0.51100000000E-03 0.  1.
         11   -1    0    0    0    0 -0.00000000000E+00 -0.00000000000E+00 -0.45593999997E+02  0.45594000000E+02  0.51100000000E-03 0. -1.
    9900012    2    1    2    0    0 -0.17840734685E+02  0.38483005164E+02  0.91863947244E+01  0.47787270183E+02  0.19999996074E+02 0.  0.
        -12    1    1    2    0    0  0.17840734685E+02 -0.38483005164E+02 -0.91863947244E+01  0.43400729817E+02  0.00000000000E+00 0.  1.
         11    1    3    3    0    0 -0.10419000486E+02  0.82483817342E+01 -0.17633620360E+01  0.13405253384E+02  0.51100000000E-03 0. -1.
        -11    1    3    3    0    0  0.68654109089E+00  0.15769279575E+02  0.33268136171E+01  0.16131001397E+02  0.51100000000E-03 0.  1.
        -12    1    3    3    0    0 -0.81082752899E+01  0.14465343856E+02  0.76229431433E+01  0.18251015402E+02  0.00000000000E+00 0.  1.
</event>
<event>
 7    1  0.2530788E-009  0.4778727E+02  0.7816164E-02  0.1312668E+00
        -11   -1    0    0    0    0  0.00000000000E+00  0.00000000000E+00  0.45593999997E+02  0.45594000000E+02  0.51100000000E-03 0. -1.
         11   -1    0    0    0    0 -0.00000000000E+00 -0.00000000000E+00 -0.45593999997E+02  0.45594000000E+02  0.51100000000E-03 0.  1.
    9900012    2    1    2    0    0  0.74193150232E+01  0.42412416762E+02  0.54556612292E+01  0.47787267628E+02  0.19999984422E+02 0.  0.
        -12    1    1    2    0    0 -0.74193150232E+01 -0.42412416762E+02 -0.54556612292E+01  0.43400732372E+02  0.00000000000E+00 0.  1.
         11    1    3    3    0    0  0.37037250489E+01  0.34714490899E+02  0.38912677982E+01  0.35127701646E+02  0.51100000000E-03 0. -1.
        -11    1    3    3    0    0  0.40090830847E+01  0.13431439774E+01  0.40260773019E+01  0.58383286672E+01  0.51100000000E-03 0.  1.
        -12    1    3    3    0    0 -0.29349311042E+00  0.63547818859E+01 -0.24616838709E+01  0.68212373147E+01  0.00000000000E+00 0.  1.
</event>
<event>
 7    1  0.2530788E-009  0.4778728E+02  0.7816164E-02  0.1312668E+00
        -11   -1    0    0    0    0  0.00000000000E+00  0.00000000000E+00  0.45593999997E+02  0.45594000000E+02  0.51100000000E-03 0.  1.
         11   -1    0    0    0    0 -0.00000000000E+00 -0.00000000000E+00 -0.45593999997E+02  0.45594000000E+02  0.51100000000E-03 0. -1.
    9900012    2    1    2    0    0 -0.22807019394E+02  0.21940092761E+02 -0.29700078639E+02  0.47787280246E+02  0.20000041953E+02 0.  0.
        -12    1    1    2    0    0  0.22807019394E+02 -0.21940092761E+02  0.29700078639E+02  0.43400719754E+02  0.00000000000E+00 0.  1.
         11    1    3    3    0    0 -0.95803841002E+01  0.18014178404E+02 -0.10302912438E+02  0.22857042416E+02  0.51100000000E-03 0. -1.
        -11    1    3    3    0    0 -0.11372277656E+02  0.10671907479E+01 -0.17841143933E+02  0.21184286919E+02  0.51100000000E-03 0.  1.
        -12    1    3    3    0    0 -0.18543576373E+01  0.28587236092E+01 -0.15560222689E+01  0.37459509102E+01  0.00000000000E+00 0.  1.
</event>
<event>
 7    1  0.2530788E-009  0.4778727E+02  0.7816164E-02  0.1312668E+00
        -11   -1    0    0    0    0  0.00000000000E+00  0.00000000000E+00  0.45593999997E+02  0.45594000000E+02  0.51100000000E-03 0. -1.
         11   -1    0    0    0    0 -0.00000000000E+00 -0.00000000000E+00 -0.45593999997E+02  0.45594000000E+02  0.51100000000E-03 0.  1.
    9900012    2    1    2    0    0  0.25056166371E+02  0.34495809051E+02  0.81148539666E+01  0.47787272239E+02  0.20000005445E+02 0.  0.
        -12    1    1    2    0    0 -0.25056166371E+02 -0.34495809051E+02 -0.81148539666E+01  0.43400727761E+02  0.00000000000E+00 0.  1.
         11    1    3    3    0    0  0.49801983972E+01  0.11788420773E+02  0.42969114159E+01  0.13499358814E+02  0.51100000000E-03 0. -1.
        -11    1    3    3    0    0  0.79086089005E+01  0.54155289762E+01  0.82943975634E+01  0.12675609651E+02  0.51100000000E-03 0.  1.
        -12    1    3    3    0    0  0.12167359073E+02  0.17291859302E+02 -0.44764550127E+01  0.21612303774E+02  0.00000000000E+00 0.  1.
</event>
<event>
 7    1  0.2530788E-009  0.4778727E+02  0.7816164E-02  0.1312668E+00
        -11   -1    0    0    0    0  0.00000000000E+00  0.00000000000E+00  0.45593999997E+02  0.45594000000E+02  0.51100000000E-03 0.  1.
         11   -1    0    0    0    0 -0.00000000000E+00 -0.00000000000E+00 -0.45593999997E+02  0.45594000000E+02  0.51100000000E-03 0. -1.
    9900012    2    1    2    0    0  0.27408473485E+02 -0.23494689862E+02 -0.24091460730E+02  0.47787270161E+02  0.19999995970E+02 0.  0.
        -12    1    1    2    0    0 -0.27408473485E+02  0.23494689862E+02  0.24091460730E+02  0.43400729839E+02  0.00000000000E+00 0.  1.
         11    1    3    3    0    0  0.96110018407E+01 -0.53031141636E+00 -0.34158526977E+01  0.10213747427E+02  0.51100000000E-03 0. -1.
        -11    1    3    3    0    0  0.30074388671E+01  0.10036081090E+01 -0.26779513321E+01  0.41501013691E+01  0.51100000000E-03 0.  1.
         12    1    3    3    0    0  0.14790032777E+02 -0.23967986555E+02 -0.17997656700E+02  0.33423421365E+02  0.00000000000E+00 0. -1.
</event>
<event>
 7    1  0.2530788E-009  0.4778726E+02  0.7816164E-02  0.1312668E+00
        -11   -1    0    0    0    0  0.00000000000E+00  0.00000000000E+00  0.45593999997E+02  0.45594000000E+02  0.51100000000E-03 0. -1.
         11   -1    0    0    0    0 -0.00000000000E+00 -0.00000000000E+00 -0.45593999997E+02  0.45594000000E+02  0.51100000000E-03 0.  1.
    9900012    2    1    2    0    0 -0.31664244135E+02  0.29663552744E+02 -0.10359197448E+01  0.47787264434E+02  0.19999969858E+02 0.  0.
        -12    1    1    2    0    0  0.31664244135E+02 -0.29663552744E+02  0.10359197448E+01  0.43400735566E+02  0.00000000000E+00 0.  1.
         11    1    3    3    0    0 -0.74406531480E+01  0.81763683521E+01  0.84342421862E+01  0.13905134311E+02  0.51100000000E-03 0. -1.
        -11    1    3    3    0    0 -0.22089593668E+02  0.18269198106E+02 -0.85357581669E+01  0.29909411823E+02  0.51100000000E-03 0.  1.
         12    1    3    3    0    0 -0.21339973187E+01  0.32179862861E+01 -0.93440376404E+00  0.39727182997E+01  0.00000000000E+00 0. -1.
</event>
<event>
 7    1  0.2530788E-009  0.4778726E+02  0.7816164E-02  0.1312668E+00
        -11   -1    0    0    0    0  0.00000000000E+00  0.00000000000E+00  0.45593999997E+02  0.45594000000E+02  0.51100000000E-03 0.  1.
         11   -1    0    0    0    0 -0.00000000000E+00 -0.00000000000E+00 -0.45593999997E+02  0.45594000000E+02  0.51100000000E-03 0. -1.
    9900012    2    1    2    0    0 -0.19233327198E+02  0.35845390519E+02 -0.15126517977E+02  0.47787257579E+02  0.19999938606E+02 0.  0.
        -12    1    1    2    0    0  0.19233327198E+02 -0.35845390519E+02  0.15126517977E+02  0.43400742421E+02  0.00000000000E+00 0.  1.
         11    1    3    3    0    0 -0.11207544792E+02  0.72974152384E+01 -0.70016904801E+01  0.15095860335E+02  0.51100000000E-03 0. -1.
        -11    1    3    3    0    0 -0.70392489970E+01  0.23066103323E+02 -0.16822809452E+01  0.24174908860E+02  0.51100000000E-03 0.  1.
        -12    1    3    3    0    0 -0.98653340967E+00  0.54818719583E+01 -0.64425465514E+01  0.85164883844E+01  0.00000000000E+00 0.  1.
</event>
<event>
 7    1  0.2530788E-009  0.4778727E+02  0.7816164E-02  0.1312668E+00
        -11   -1    0    0    0    0  0.00000000000E+00  0.00000000000E+00  0.45593999997E+02  0.45594000000E+02  0.51100000000E-03 0.  1.
         11   -1    0    0    0    0 -0.00000000000E+00 -0.00000000000E+00 -0.45593999997E+02  0.45594000000E+02  0.51100000000E-03 0. -1.
    9900012    2    1    2    0    0  0.32621255775E+02 -0.20675636008E+02 -0.19798870440E+02  0.47787268170E+02  0.19999986895E+02 0.  0.
        -12    1    1    2    0    0 -0.32621255775E+02  0.20675636008E+02  0.19798870440E+02  0.43400731830E+02  0.00000000000E+00 0.  1.
         11    1    3    3    0    0  0.10599280672E+02 -0.35287978122E+01 -0.86402687850E+01  0.14122726709E+02  0.51100000000E-03 0. -1.
        -11    1    3    3    0    0  0.61094665233E+01 -0.13137870546E+02 -0.13616791491E+01  0.14552779598E+02  0.51100000000E-03 0.  1.
        -12    1    3    3    0    0  0.15912508579E+02 -0.40089676502E+01 -0.97969225061E+01  0.19111761863E+02  0.00000000000E+00 0.  1.
</event>
<event>
 7    1  0.2530788E-009  0.4778727E+02  0.7816164E-02  0.1312668E+00
        -11   -1    0    0    0    0  0.00000000000E+00  0.00000000000E+00  0.45593999997E+02  0.45594000000E+02  0.51100000000E-03 0.  1.
         11   -1    0    0    0    0 -0.00000000000E+00 -0.00000000000E+00 -0.45593999997E+02  0.45594000000E+02  0.51100000000E-03 0. -1.
    9900012    2    1    2    0    0 -0.21733558057E+02  0.35464771258E+02 -0.12390541886E+02  0.47787273342E+02  0.20000010476E+02 0.  0.
        -12    1    1    2    0    0  0.21733558057E+02 -0.35464771258E+02  0.12390541886E+02  0.43400726658E+02  0.00000000000E+00 0.  1.
         11    1    3    3    0    0 -0.78307604688E+01  0.47308173830E+01 -0.56504958848E+01  0.10753117996E+02  0.51100000000E-03 0. -1.
        -11    1    3    3    0    0 -0.11407813676E+02  0.95043844948E+01 -0.46359123760E+01  0.15555167030E+02  0.51100000000E-03 0.  1.
        -12    1    3    3    0    0 -0.24949839122E+01  0.21229569380E+02 -0.21041336253E+01  0.21478988316E+02  0.00000000000E+00 0.  1.
</event>
<event>
 7    1  0.2530788E-009  0.4778726E+02  0.7816164E-02  0.1312668E+00
        -11   -1    0    0    0    0  0.00000000000E+00  0.00000000000E+00  0.45593999997E+02  0.45594000000E+02  0.51100000000E-03 0.  1.
         11   -1    0    0    0    0 -0.00000000000E+00 -0.00000000000E+00 -0.45593999997E+02  0.45594000000E+02  0.51100000000E-03 0. -1.
    9900012    2    1    2    0    0  0.13124204630E+02  0.34036753802E+02 -0.23513377640E+02  0.47787259400E+02  0.19999946910E+02 0.  0.
        -12    1    1    2    0    0 -0.13124204630E+02 -0.34036753802E+02  0.23513377640E+02  0.43400740600E+02  0.00000000000E+00 0.  1.
         11    1    3    3    0    0  0.72147113597E+01  0.19661476379E+02 -0.23184189282E+02  0.31243116783E+02  0.51100000000E-03 0. -1.
        -11    1    3    3    0    0  0.29709966343E+01  0.11308260913E+02  0.17376695923E+01  0.11820451842E+02  0.51100000000E-03 0.  1.
        -12    1    3    3    0    0  0.29384966359E+01  0.30670165095E+01 -0.20668579506E+01  0.47236907749E+01  0.00000000000E+00 0.  1.
</event>
<event>
 7    1  0.2530788E-009  0.4778727E+02  0.7816164E-02  0.1312668E+00
        -11   -1    0    0    0    0  0.00000000000E+00  0.00000000000E+00  0.45593999997E+02  0.45594000000E+02  0.51100000000E-03 0.  1.
         11   -1    0    0    0    0 -0.00000000000E+00 -0.00000000000E+00 -0.45593999997E+02  0.45594000000E+02  0.51100000000E-03 0. -1.
    9900012    2    1    2    0    0  0.40770349948E+02 -0.23216083698E+01 -0.14697338829E+02  0.47787273405E+02  0.20000010764E+02 0.  0.
        -12    1    1    2    0    0 -0.40770349948E+02  0.23216083698E+01  0.14697338829E+02  0.43400726595E+02  0.00000000000E+00 0.  1.
         11    1    3    3    0    0  0.20995088365E+02  0.42128121601E+01 -0.10049080391E+02  0.23654292184E+02  0.51100000000E-03 0. -1.
        -11    1    3    3    0    0  0.64229471143E+01 -0.75628118796E+01 -0.40822320591E+01  0.10729165485E+02  0.51100000000E-03 0.  1.
        -12    1    3    3    0    0  0.13352314469E+02  0.10283913496E+01 -0.56602637922E+00  0.13403815737E+02  0.00000000000E+00 0.  1.
</event>
<event>
 7    1  0.2530788E-009  0.4778725E+02  0.7816164E-02  0.1312668E+00
        -11   -1    0    0    0    0  0.00000000000E+00  0.00000000000E+00  0.45593999997E+02  0.45594000000E+02  0.51100000000E-03 0. -1.
         11   -1    0    0    0    0 -0.00000000000E+00 -0.00000000000E+00 -0.45593999997E+02  0.45594000000E+02  0.51100000000E-03 0.  1.
    9900012    2    1    2    0    0 -0.38509819793E+02 -0.18074175740E+02  0.85989931723E+01  0.47787254238E+02  0.19999923371E+02 0.  0.
        -12    1    1    2    0    0  0.38509819793E+02  0.18074175740E+02 -0.85989931723E+01  0.43400745762E+02  0.00000000000E+00 0.  1.
         11    1    3    3    0    0 -0.25333772633E+02 -0.15047082671E+02 -0.12007549789E+01  0.29489939734E+02  0.51100000000E-03 0. -1.
        -11    1    3    3    0    0 -0.95318049189E+01  0.14903578966E+01  0.61300932057E+01  0.11430420580E+02  0.51100000000E-03 0.  1.
         12    1    3    3    0    0 -0.36442422407E+01 -0.45174509658E+01  0.36696549455E+01  0.68668939235E+01  0.00000000000E+00 0. -1.
</event>
<event>
 7    1  0.2530788E-009  0.4778727E+02  0.7816164E-02  0.1312668E+00
        -11   -1    0    0    0    0  0.00000000000E+00  0.00000000000E+00  0.45593999997E+02  0.45594000000E+02  0.51100000000E-03 0. -1.
         11   -1    0    0    0    0 -0.00000000000E+00 -0.00000000000E+00 -0.45593999997E+02  0.45594000000E+02  0.51100000000E-03 0.  1.
    9900012    2    1    2    0    0  0.40892595565E+01 -0.42494196697E+02  0.78194874303E+01  0.47787272123E+02  0.20000004915E+02 0.  0.
        -12    1    1    2    0    0 -0.40892595565E+01  0.42494196697E+02 -0.78194874303E+01  0.43400727877E+02  0.00000000000E+00 0.  1.
         11    1    3    3    0    0 -0.39591780739E+01 -0.16103048992E+02  0.81185882308E+01  0.18463335370E+02  0.51100000000E-03 0. -1.
        -11    1    3    3    0    0  0.35876688612E+01 -0.13891362089E+02 -0.50758658779E+01  0.15218597939E+02  0.51100000000E-03 0.  1.
         12    1    3    3    0    0  0.44607687692E+01 -0.12499785615E+02  0.47767650774E+01  0.14105338813E+02  0.00000000000E+00 0. -1.
</event>
<event>
 7    1  0.2530788E-009  0.4778727E+02  0.7816164E-02  0.1312668E+00
        -11   -1    0    0    0    0  0.00000000000E+00  0.00000000000E+00  0.45593999997E+02  0.45594000000E+02  0.51100000000E-03 0.  1.
         11   -1    0    0    0    0 -0.00000000000E+00 -0.00000000000E+00 -0.45593999997E+02  0.45594000000E+02  0.51100000000E-03 0. -1.
    9900012    2    1    2    0    0 -0.20536147230E+02  0.22154367699E+01 -0.38170431733E+02  0.47787270032E+02  0.19999995383E+02 0.  0.
        -12    1    1    2    0    0  0.20536147230E+02 -0.22154367699E+01  0.38170431733E+02  0.43400729968E+02  0.00000000000E+00 0.  1.
         11    1    3    3    0    0 -0.15707111701E+02  0.89230882012E+01 -0.26344879865E+02  0.31943505700E+02  0.51100000000E-03 0. -1.
        -11    1    3    3    0    0  0.11120932343E+01 -0.37410377122E+01 -0.44717136483E+01  0.59353464717E+01  0.51100000000E-03 0.  1.
         12    1    3    3    0    0 -0.59411287625E+01 -0.29666137191E+01 -0.73538382196E+01  0.99084178601E+01  0.00000000000E+00 0. -1.
</event>
<event>
 7    1  0.2530788E-009  0.4778727E+02  0.7816164E-02  0.1312668E+00
        -11   -1    0    0    0    0  0.00000000000E+00  0.00000000000E+00  0.45593999997E+02  0.45594000000E+02  0.51100000000E-03 0.  1.
         11   -1    0    0    0    0 -0.00000000000E+00 -0.00000000000E+00 -0.45593999997E+02  0.45594000000E+02  0.51100000000E-03 0. -1.
    9900012    2    1    2    0    0  0.37459635250E+02 -0.15471653484E+02 -0.15525041114E+02  0.47787271479E+02  0.20000001979E+02 0.  0.
        -12    1    1    2    0    0 -0.37459635250E+02  0.15471653484E+02  0.15525041114E+02  0.43400728521E+02  0.00000000000E+00 0.  1.
         11    1    3    3    0    0  0.26267294706E+02 -0.14635017189E+02 -0.53740445406E+01  0.30545619232E+02  0.51100000000E-03 0. -1.
        -11    1    3    3    0    0 -0.30320928811E+00  0.20586598388E+01 -0.14329063204E+01  0.25265068748E+01  0.51100000000E-03 0.  1.
         12    1    3    3    0    0  0.11495549832E+02 -0.28952961338E+01 -0.87180902527E+01  0.14715145371E+02  0.00000000000E+00 0. -1.
</event>
<event>
 7    1  0.2530788E-009  0.4778728E+02  0.7816164E-02  0.1312668E+00
        -11   -1    0    0    0    0  0.00000000000E+00  0.00000000000E+00  0.45593999997E+02  0.45594000000E+02  0.51100000000E-03 0. -1.
         11   -1    0    0    0    0 -0.00000000000E+00 -0.00000000000E+00 -0.45593999997E+02  0.45594000000E+02  0.51100000000E-03 0.  1.
    9900012    2    1    2    0    0  0.11841931718E+02 -0.20228870765E+02  0.36526487212E+02  0.47787276189E+02  0.20000023458E+02 0.  0.
        -12    1    1    2    0    0 -0.11841931718E+02  0.20228870765E+02 -0.36526487212E+02  0.43400723811E+02  0.00000000000E+00 0.  1.
         11    1    3    3    0    0  0.92788259493E+01 -0.97057805907E+01  0.13911845281E+02  0.19334896619E+02  0.51100000000E-03 0. -1.
        -11    1    3    3    0    0  0.82812843029E-02  0.74406776551E+00  0.14052816702E+02  0.14072503791E+02  0.51100000000E-03 0.  1.
        -12    1    3    3    0    0  0.25548244843E+01 -0.11267157940E+02  0.85618252284E+01  0.14379875780E+02  0.00000000000E+00 0.  1.
</event>
<event>
 7    1  0.2530788E-009  0.4778727E+02  0.7816164E-02  0.1312668E+00
        -11   -1    0    0    0    0  0.00000000000E+00  0.00000000000E+00  0.45593999997E+02  0.45594000000E+02  0.51100000000E-03 0. -1.
         11   -1    0    0    0    0 -0.00000000000E+00 -0.00000000000E+00 -0.45593999997E+02  0.45594000000E+02  0.51100000000E-03 0.  1.
    9900012    2    1    2    0    0  0.36321212807E+02  0.23754855610E+02  0.31546893443E+00  0.47787272063E+02  0.20000004645E+02 0.  0.
        -12    1    1    2    0    0 -0.36321212807E+02 -0.23754855610E+02 -0.31546893443E+00  0.43400727937E+02  0.00000000000E+00 0.  1.
         11    1    3    3    0    0  0.22378891833E+02  0.72792100505E+01  0.20109361972E+00  0.23533850886E+02  0.51100000000E-03 0. -1.
        -11    1    3    3    0    0  0.60369442710E+01  0.14591418798E+02 -0.18317090598E+01  0.15896834811E+02  0.51100000000E-03 0.  1.
        -12    1    3    3    0    0  0.79053767031E+01  0.18842267613E+01  0.19460843745E+01  0.83565863663E+01  0.00000000000E+00 0.  1.
</event>
<event>
 7    1  0.2530788E-009  0.4778727E+02  0.7816164E-02  0.1312668E+00
        -11   -1    0    0    0    0  0.00000000000E+00  0.00000000000E+00  0.45593999997E+02  0.45594000000E+02  0.51100000000E-03 0. -1.
         11   -1    0    0    0    0 -0.00000000000E+00 -0.00000000000E+00 -0.45593999997E+02  0.45594000000E+02  0.51100000000E-03 0.  1.
    9900012    2    1    2    0    0 -0.27716551335E+02  0.75261685851E+01  0.32538790404E+02  0.47787270600E+02  0.19999997975E+02 0.  0.
        -12    1    1    2    0    0  0.27716551335E+02 -0.75261685851E+01 -0.32538790404E+02  0.43400729400E+02  0.00000000000E+00 0.  1.
         11    1    3    3    0    0 -0.93484024825E+00  0.49715882958E+01  0.10924948711E+02  0.12039315639E+02  0.51100000000E-03 0.  1.
        -11    1    3    3    0    0 -0.12979014307E+02  0.32582867956E+01  0.15928674604E+02  0.20803699674E+02  0.51100000000E-03 0. -1.
         12    1    3    3    0    0 -0.13802696780E+02 -0.70370650634E+00  0.56851670892E+01  0.14944255287E+02  0.00000000000E+00 0. -1.
</event>
<event>
 7    1  0.2530788E-009  0.4778727E+02  0.7816164E-02  0.1312668E+00
        -11   -1    0    0    0    0  0.00000000000E+00  0.00000000000E+00  0.45593999997E+02  0.45594000000E+02  0.51100000000E-03 0.  1.
         11   -1    0    0    0    0 -0.00000000000E+00 -0.00000000000E+00 -0.45593999997E+02  0.45594000000E+02  0.51100000000E-03 0. -1.
    9900012    2    1    2    0    0 -0.23343151593E+02  0.24278282304E+02 -0.27373088750E+02  0.47787266071E+02  0.19999977324E+02 0.  0.
        -12    1    1    2    0    0  0.23343151593E+02 -0.24278282304E+02  0.27373088750E+02  0.43400733929E+02  0.00000000000E+00 0.  1.
         11    1    3    3    0    0 -0.15335160184E+02  0.12372866951E+02 -0.16906829050E+02  0.25963355778E+02  0.51100000000E-03 0. -1.
        -11    1    3    3    0    0 -0.19096363479E+01  0.90744649839E+01  0.13055690747E+00  0.92741399112E+01  0.51100000000E-03 0.  1.
        -12    1    3    3    0    0 -0.60983550608E+01  0.28309503682E+01 -0.10596816607E+02  0.12549770382E+02  0.00000000000E+00 0.  1.
</event>
<event>
 7    1  0.2530788E-009  0.4778728E+02  0.7816164E-02  0.1312668E+00
        -11   -1    0    0    0    0  0.00000000000E+00  0.00000000000E+00  0.45593999997E+02  0.45594000000E+02  0.51100000000E-03 0. -1.
         11   -1    0    0    0    0 -0.00000000000E+00 -0.00000000000E+00 -0.45593999997E+02  0.45594000000E+02  0.51100000000E-03 0.  1.
    9900012    2    1    2    0    0  0.30778838658E+02  0.26324130230E+02  0.15598895952E+02  0.47787282305E+02  0.20000051341E+02 0.  0.
        -12    1    1    2    0    0 -0.30778838658E+02 -0.26324130230E+02 -0.15598895952E+02  0.43400717695E+02  0.00000000000E+00 0.  1.
         11    1    3    3    0    0  0.11714282136E+02  0.20062276314E+02  0.76264187035E+01  0.24451617520E+02  0.51100000000E-03 0. -1.
        -11    1    3    3    0    0  0.27367731095E+01 -0.22143944839E+01  0.97471412958E+00  0.36528807644E+01  0.51100000000E-03 0.  1.
        -12    1    3    3    0    0  0.16327783413E+02  0.84762484003E+01  0.69977631188E+01  0.19682784020E+02  0.00000000000E+00 0.  1.
</event>
<event>
 7    1  0.2530788E-009  0.4778726E+02  0.7816164E-02  0.1312668E+00
        -11   -1    0    0    0    0  0.00000000000E+00  0.00000000000E+00  0.45593999997E+02  0.45594000000E+02  0.51100000000E-03 0.  1.
         11   -1    0    0    0    0 -0.00000000000E+00 -0.00000000000E+00 -0.45593999997E+02  0.45594000000E+02  0.51100000000E-03 0. -1.
    9900012    2    1    2    0    0  0.57088652779E+01  0.36587796957E+02 -0.22635501790E+02  0.47787263023E+02  0.19999963425E+02 0.  0.
        -12    1    1    2    0    0 -0.57088652779E+01 -0.36587796957E+02  0.22635501790E+02  0.43400736977E+02  0.00000000000E+00 0.  1.
         11    1    3    3    0    0  0.72192515302E+01  0.31789934372E+02 -0.24042241694E+02  0.40506134177E+02  0.51100000000E-03 0. -1.
        -11    1    3    3    0    0 -0.32322623409E+01  0.42171276067E+01  0.12414688776E+01  0.54564576720E+01  0.51100000000E-03 0.  1.
         12    1    3    3    0    0  0.17218760886E+01  0.58073497793E+00  0.16527102643E+00  0.18246711735E+01  0.00000000000E+00 0. -1.
</event>
<event>
 7    1  0.2530788E-009  0.4778727E+02  0.7816164E-02  0.1312668E+00
        -11   -1    0    0    0    0  0.00000000000E+00  0.00000000000E+00  0.45593999997E+02  0.45594000000E+02  0.51100000000E-03 0.  1.
         11   -1    0    0    0    0 -0.00000000000E+00 -0.00000000000E+00 -0.45593999997E+02  0.45594000000E+02  0.51100000000E-03 0. -1.
    9900012    2    1    2    0    0  0.17960069977E+02  0.29132161078E+02 -0.26690376766E+02  0.47787272650E+02  0.20000007319E+02 0.  0.
        -12    1    1    2    0    0 -0.17960069977E+02 -0.29132161078E+02  0.26690376766E+02  0.43400727350E+02  0.00000000000E+00 0.  1.
         11    1    3    3    0    0  0.14666584307E+02  0.30198410720E+02 -0.24339811874E+02  0.41466602798E+02  0.51100000000E-03 0. -1.
        -11    1    3    3    0    0 -0.10189047482E+01 -0.96055280527E+00  0.16137674671E-01  0.14003889686E+01  0.51100000000E-03 0.  1.
        -12    1    3    3    0    0  0.43123904172E+01 -0.10569683658E+00 -0.23667025658E+01  0.49202808829E+01  0.00000000000E+00 0.  1.
</event>
<event>
 7    1  0.2530788E-009  0.4778727E+02  0.7816164E-02  0.1312668E+00
        -11   -1    0    0    0    0  0.00000000000E+00  0.00000000000E+00  0.45593999997E+02  0.45594000000E+02  0.51100000000E-03 0. -1.
         11   -1    0    0    0    0 -0.00000000000E+00 -0.00000000000E+00 -0.45593999997E+02  0.45594000000E+02  0.51100000000E-03 0.  1.
    9900012    2    1    2    0    0  0.35745858186E+02 -0.13263017924E+02  0.20735216727E+02  0.47787271497E+02  0.20000002062E+02 0.  0.
        -12    1    1    2    0    0 -0.35745858186E+02  0.13263017924E+02 -0.20735216727E+02  0.43400728503E+02  0.00000000000E+00 0.  1.
         11    1    3    3    0    0  0.13321734729E+02 -0.71551617020E+01  0.78655830897E+01  0.17045009615E+02  0.51100000000E-03 0. -1.
        -11    1    3    3    0    0  0.58266960675E+00 -0.55981542407E+01  0.49758703145E+01  0.75125308932E+01  0.51100000000E-03 0.  1.
        -12    1    3    3    0    0  0.21841453850E+02 -0.50970198176E+00  0.78937633227E+01  0.23229730988E+02  0.00000000000E+00 0.  1.
</event>
<event>
 7    1  0.2530788E-009  0.4778727E+02  0.7816164E-02  0.1312668E+00
        -11   -1    0    0    0    0  0.00000000000E+00  0.00000000000E+00  0.45593999997E+02  0.45594000000E+02  0.51100000000E-03 0.  1.
         11   -1    0    0    0    0 -0.00000000000E+00 -0.00000000000E+00 -0.45593999997E+02  0.45594000000E+02  0.51100000000E-03 0. -1.
    9900012    2    1    2    0    0 -0.27245705698E+02 -0.27835860752E+02 -0.19143138436E+02  0.47787269915E+02  0.19999994848E+02 0.  0.
        -12    1    1    2    0    0  0.27245705698E+02  0.27835860752E+02  0.19143138436E+02  0.43400730085E+02  0.00000000000E+00 0.  1.
         11    1    3    3    0    0 -0.16382604100E+02 -0.18740364066E+02 -0.12576663382E+02  0.27888410218E+02  0.51100000000E-03 0. -1.
        -11    1    3    3    0    0  0.25778398968E+01 -0.21920576766E+01  0.95715479947E-01  0.33851938062E+01  0.51100000000E-03 0.  1.
        -12    1    3    3    0    0 -0.13440941495E+02 -0.69034390097E+01 -0.66621905339E+01  0.16513665890E+02  0.00000000000E+00 0.  1.
</event>
<event>
 7    1  0.2530788E-009  0.4778727E+02  0.7816164E-02  0.1312668E+00
        -11   -1    0    0    0    0  0.00000000000E+00  0.00000000000E+00  0.45593999997E+02  0.45594000000E+02  0.51100000000E-03 0.  1.
         11   -1    0    0    0    0 -0.00000000000E+00 -0.00000000000E+00 -0.45593999997E+02  0.45594000000E+02  0.51100000000E-03 0. -1.
    9900012    2    1    2    0    0  0.26635769022E+02  0.29262059241E+02 -0.17829490462E+02  0.47787273825E+02  0.20000012676E+02 0.  0.
        -12    1    1    2    0    0 -0.26635769022E+02 -0.29262059241E+02  0.17829490462E+02  0.43400726175E+02  0.00000000000E+00 0.  1.
         11    1    3    3    0    0  0.23320949596E+02  0.28738294737E+02 -0.15403231091E+02  0.40087601609E+02  0.51100000000E-03 0. -1.
        -11    1    3    3    0    0  0.21379758625E+01 -0.24823433773E+01  0.53432566744E+00  0.33194086237E+01  0.51100000000E-03 0.  1.
        -12    1    3    3    0    0  0.11768435638E+01  0.30061078817E+01 -0.29605850376E+01  0.43802635920E+01  0.00000000000E+00 0.  1.
</event>
<event>
 7    1  0.2530788E-009  0.4778727E+02  0.7816164E-02  0.1312668E+00
        -11   -1    0    0    0    0  0.00000000000E+00  0.00000000000E+00  0.45593999997E+02  0.45594000000E+02  0.51100000000E-03 0.  1.
         11   -1    0    0    0    0 -0.00000000000E+00 -0.00000000000E+00 -0.45593999997E+02  0.45594000000E+02  0.51100000000E-03 0. -1.
    9900012    2    1    2    0    0 -0.30322361318E+02 -0.37830250904E+00 -0.31048902006E+02  0.47787273917E+02  0.20000013099E+02 0.  0.
        -12    1    1    2    0    0  0.30322361318E+02  0.37830250904E+00  0.31048902006E+02  0.43400726083E+02  0.00000000000E+00 0.  1.
         11    1    3    3    0    0 -0.17287101233E+02 -0.31336653685E+01 -0.79114702132E+01  0.19267980924E+02  0.51100000000E-03 0. -1.
        -11    1    3    3    0    0 -0.85318642133E+01  0.65267156553E+01 -0.16067507196E+02  0.19327584224E+02  0.51100000000E-03 0.  1.
        -12    1    3    3    0    0 -0.45033958721E+01 -0.37713527958E+01 -0.70699245969E+01  0.91917087692E+01  0.00000000000E+00 0.  1.
</event>
<event>
 7    1  0.2530788E-009  0.4778727E+02  0.7816164E-02  0.1312668E+00
        -11   -1    0    0    0    0  0.00000000000E+00  0.00000000000E+00  0.45593999997E+02  0.45594000000E+02  0.51100000000E-03 0.  1.
         11   -1    0    0    0    0 -0.00000000000E+00 -0.00000000000E+00 -0.45593999997E+02  0.45594000000E+02  0.51100000000E-03 0. -1.
    9900012    2    1    2    0    0 -0.54437832814E+01  0.37519803574E+02 -0.21124703421E+02  0.47787268079E+02  0.19999986479E+02 0.  0.
        -12    1    1    2    0    0  0.54437832814E+01 -0.37519803574E+02  0.21124703421E+02  0.43400731921E+02  0.00000000000E+00 0.  1.
         11    1    3    3    0    0 -0.11004193121E+01  0.21866502702E+02 -0.16939610479E+02  0.27682219321E+02  0.51100000000E-03 0. -1.
        -11    1    3    3    0    0 -0.11794004538E+01  0.14377183659E+02  0.35033364236E+00  0.14429730743E+02  0.51100000000E-03 0.  1.
        -12    1    3    3    0    0 -0.31639635154E+01  0.12761172128E+01 -0.45354265840E+01  0.56753180146E+01  0.00000000000E+00 0.  1.
</event>
<event>
 7    1  0.2530788E-009  0.4778727E+02  0.7816164E-02  0.1312668E+00
        -11   -1    0    0    0    0  0.00000000000E+00  0.00000000000E+00  0.45593999997E+02  0.45594000000E+02  0.51100000000E-03 0.  1.
         11   -1    0    0    0    0 -0.00000000000E+00 -0.00000000000E+00 -0.45593999997E+02  0.45594000000E+02  0.51100000000E-03 0. -1.
    9900012    2    1    2    0    0  0.72267452126E+01 -0.30057608056E+02 -0.30462068888E+02  0.47787270866E+02  0.19999999186E+02 0.  0.
        -12    1    1    2    0    0 -0.72267452126E+01  0.30057608056E+02  0.30462068888E+02  0.43400729134E+02  0.00000000000E+00 0.  1.
         11    1    3    3    0    0  0.36746266440E+01 -0.24874764437E+02 -0.26144825426E+02  0.36274077295E+02  0.51100000000E-03 0. -1.
        -11    1    3    3    0    0 -0.14074130505E+01  0.13826050110E+01 -0.23212921431E+01  0.30464414627E+01  0.51100000000E-03 0.  1.
         12    1    3    3    0    0  0.49595316192E+01 -0.65654486301E+01 -0.19959513186E+01  0.84667521082E+01  0.00000000000E+00 0. -1.
</event>
<event>
 7    1  0.2530788E-009  0.4778727E+02  0.7816164E-02  0.1312668E+00
        -11   -1    0    0    0    0  0.00000000000E+00  0.00000000000E+00  0.45593999997E+02  0.45594000000E+02  0.51100000000E-03 0. -1.
         11   -1    0    0    0    0 -0.00000000000E+00 -0.00000000000E+00 -0.45593999997E+02  0.45594000000E+02  0.51100000000E-03 0.  1.
    9900012    2    1    2    0    0  0.24458330596E+02 -0.35347600648E+02 -0.59966809416E+01  0.47787274321E+02  0.20000014941E+02 0.  0.
        -12    1    1    2    0    0 -0.24458330596E+02  0.35347600648E+02  0.59966809416E+01  0.43400725679E+02  0.00000000000E+00 0.  1.
         11    1    3    3    0    0  0.15582980820E+02 -0.11804818973E+02  0.19099010234E+01  0.19642575300E+02  0.51100000000E-03 0. -1.
        -11    1    3    3    0    0  0.74567071062E+01 -0.14279236013E+02 -0.94059359978E+01  0.18653972613E+02  0.51100000000E-03 0.  1.
         12    1    3    3    0    0  0.14186426700E+01 -0.92635456617E+01  0.14993540328E+01  0.94907264088E+01  0.00000000000E+00 0. -1.
</event>
<event>
 7    1  0.2530788E-009  0.4778725E+02  0.7816164E-02  0.1312668E+00
        -11   -1    0    0    0    0  0.00000000000E+00  0.00000000000E+00  0.45593999997E+02  0.45594000000E+02  0.51100000000E-03 0.  1.
         11   -1    0    0    0    0 -0.00000000000E+00 -0.00000000000E+00 -0.45593999997E+02  0.45594000000E+02  0.51100000000E-03 0. -1.
    9900012    2    1    2    0    0  0.51890054613E+01  0.40891756558E+02 -0.13585431630E+02  0.47787245576E+02  0.19999883877E+02 0.  0.
        -12    1    1    2    0    0 -0.51890054613E+01 -0.40891756558E+02  0.13585431630E+02  0.43400754424E+02  0.00000000000E+00 0.  1.
         11    1    3    3    0    0  0.76073578100E+00  0.24071839669E+02 -0.76244877053E+00  0.24095923148E+02  0.51100000000E-03 0. -1.
        -11    1    3    3    0    0  0.82053207187E+00  0.72039965528E+00 -0.55573047427E+01  0.56635576106E+01  0.51100000000E-03 0.  1.
        -12    1    3    3    0    0  0.36077376085E+01  0.16099517233E+02 -0.72656781165E+01  0.18027764817E+02  0.00000000000E+00 0.  1.
</event>
<event>
 7    1  0.2530788E-009  0.4778727E+02  0.7816164E-02  0.1312668E+00
        -11   -1    0    0    0    0  0.00000000000E+00  0.00000000000E+00  0.45593999997E+02  0.45594000000E+02  0.51100000000E-03 0.  1.
         11   -1    0    0    0    0 -0.00000000000E+00 -0.00000000000E+00 -0.45593999997E+02  0.45594000000E+02  0.51100000000E-03 0. -1.
    9900012    2    1    2    0    0 -0.38863136124E+02 -0.18454881813E+02 -0.57181779021E+01  0.47787267625E+02  0.19999984409E+02 0.  0.
        -12    1    1    2    0    0  0.38863136124E+02  0.18454881813E+02  0.57181779021E+01  0.43400732375E+02  0.00000000000E+00 0.  1.
         11    1    3    3    0    0 -0.32686963169E+02 -0.19795689106E+02 -0.44456363229E-01  0.38213987558E+02  0.51100000000E-03 0. -1.
        -11    1    3    3    0    0 -0.14165141218E+01  0.23555490817E+01 -0.13450800049E+01  0.30601248691E+01  0.51100000000E-03 0.  1.
        -12    1    3    3    0    0 -0.47596588335E+01 -0.10147417886E+01 -0.43286415340E+01  0.65131551984E+01  0.00000000000E+00 0.  1.
</event>
<event>
 7    1  0.2530788E-009  0.4778727E+02  0.7816164E-02  0.1312668E+00
        -11   -1    0    0    0    0  0.00000000000E+00  0.00000000000E+00  0.45593999997E+02  0.45594000000E+02  0.51100000000E-03 0.  1.
         11   -1    0    0    0    0 -0.00000000000E+00 -0.00000000000E+00 -0.45593999997E+02  0.45594000000E+02  0.51100000000E-03 0. -1.
    9900012    2    1    2    0    0 -0.30588709365E+02  0.76886261468E+01 -0.29813400658E+02  0.47787274529E+02  0.20000015886E+02 0.  0.
        -12    1    1    2    0    0  0.30588709365E+02 -0.76886261468E+01  0.29813400658E+02  0.43400725471E+02  0.00000000000E+00 0.  1.
         11    1    3    3    0    0 -0.17756707104E+02 -0.35247665938E+01 -0.18289273067E+02  0.25733677085E+02  0.51100000000E-03 0. -1.
        -11    1    3    3    0    0 -0.22722702856E+01 -0.11475821055E+01 -0.15351730702E+01  0.29726946625E+01  0.51100000000E-03 0.  1.
         12    1    3    3    0    0 -0.10559731975E+02  0.12360974846E+02 -0.99889545204E+01  0.19080902781E+02  0.00000000000E+00 0. -1.
</event>
<event>
 7    1  0.2530788E-009  0.4778727E+02  0.7816164E-02  0.1312668E+00
        -11   -1    0    0    0    0  0.00000000000E+00  0.00000000000E+00  0.45593999997E+02  0.45594000000E+02  0.51100000000E-03 0. -1.
         11   -1    0    0    0    0 -0.00000000000E+00 -0.00000000000E+00 -0.45593999997E+02  0.45594000000E+02  0.51100000000E-03 0.  1.
    9900012    2    1    2    0    0 -0.36322317338E+02  0.11425806197E+02  0.20826989275E+02  0.47787271131E+02  0.20000000396E+02 0.  0.
        -12    1    1    2    0    0  0.36322317338E+02 -0.11425806197E+02 -0.20826989275E+02  0.43400728869E+02  0.00000000000E+00 0.  1.
         11    1    3    3    0    0 -0.15180228347E+02 -0.22177062904E+01  0.13368991209E+02  0.20349139541E+02  0.51100000000E-03 0. -1.
        -11    1    3    3    0    0 -0.12357720701E+02  0.90471359698E+01  0.84198659520E+01  0.17477358870E+02  0.51100000000E-03 0.  1.
         12    1    3    3    0    0 -0.87843682900E+01  0.45963765173E+01 -0.96186788525E+00  0.99607727196E+01  0.00000000000E+00 0. -1.
</event>
<event>
 7    1  0.2530788E-009  0.4778727E+02  0.7816164E-02  0.1312668E+00
        -11   -1    0    0    0    0  0.00000000000E+00  0.00000000000E+00  0.45593999997E+02  0.45594000000E+02  0.51100000000E-03 0. -1.
         11   -1    0    0    0    0 -0.00000000000E+00 -0.00000000000E+00 -0.45593999997E+02  0.45594000000E+02  0.51100000000E-03 0.  1.
    9900012    2    1    2    0    0  0.33135939136E+01  0.29103951956E+02  0.32025038880E+02  0.47787273746E+02  0.20000012318E+02 0.  0.
        -12    1    1    2    0    0 -0.33135939136E+01 -0.29103951956E+02 -0.32025038880E+02  0.43400726254E+02  0.00000000000E+00 0.  1.
         11    1    3    3    0    0  0.65700802128E+01  0.19340243005E+02  0.14466402570E+02  0.25029737455E+02  0.51100000000E-03 0. -1.
        -11    1    3    3    0    0 -0.21565039991E+00  0.19528443473E+01  0.13132725371E+02  0.13278877289E+02  0.51100000000E-03 0.  1.
        -12    1    3    3    0    0 -0.30408358993E+01  0.78108646036E+01  0.44259109398E+01  0.94786590016E+01  0.00000000000E+00 0.  1.
</event>
<event>
 7    1  0.2530788E-009  0.4778726E+02  0.7816164E-02  0.1312668E+00
        -11   -1    0    0    0    0  0.00000000000E+00  0.00000000000E+00  0.45593999997E+02  0.45594000000E+02  0.51100000000E-03 0. -1.
         11   -1    0    0    0    0 -0.00000000000E+00 -0.00000000000E+00 -0.45593999997E+02  0.45594000000E+02  0.51100000000E-03 0.  1.
    9900012    2    1    2    0    0 -0.20301326026E+02 -0.11457107066E+02  0.36608943234E+02  0.47787264229E+02  0.19999968926E+02 0.  0.
        -12    1    1    2    0    0  0.20301326026E+02  0.11457107066E+02 -0.36608943234E+02  0.43400735771E+02  0.00000000000E+00 0.  1.
         11    1    3    3    0    0 -0.12295488233E+02 -0.27303875709E+01  0.12857502684E+02  0.17998595020E+02  0.51100000000E-03 0. -1.
        -11    1    3    3    0    0  0.18196935828E+01  0.24383622527E+01  0.50298663205E+01  0.58784734987E+01  0.51100000000E-03 0.  1.
        -12    1    3    3    0    0 -0.98255313763E+01 -0.11165081748E+02  0.18721574230E+02  0.23910195710E+02  0.00000000000E+00 0.  1.
</event>
<event>
 7    1  0.2530788E-009  0.4778728E+02  0.7816164E-02  0.1312668E+00
        -11   -1    0    0    0    0  0.00000000000E+00  0.00000000000E+00  0.45593999997E+02  0.45594000000E+02  0.51100000000E-03 0. -1.
         11   -1    0    0    0    0 -0.00000000000E+00 -0.00000000000E+00 -0.45593999997E+02  0.45594000000E+02  0.51100000000E-03 0.  1.
    9900012    2    1    2    0    0  0.16323320499E+02 -0.29319187443E+02  0.27523760167E+02  0.47787275142E+02  0.20000018684E+02 0.  0.
        -12    1    1    2    0    0 -0.16323320499E+02  0.29319187443E+02 -0.27523760167E+02  0.43400724858E+02  0.00000000000E+00 0.  1.
         11    1    3    3    0    0  0.13438279012E+02 -0.98358815264E+01  0.86706777710E+01  0.18775317880E+02  0.51100000000E-03 0. -1.
        -11    1    3    3    0    0  0.18769371640E+01 -0.34395000798E+01 -0.39009803729E+00  0.39376681750E+01  0.51100000000E-03 0.  1.
         12    1    3    3    0    0  0.10081043230E+01 -0.16043805837E+02  0.19243180433E+02  0.25074289088E+02  0.00000000000E+00 0. -1.
</event>
<event>
 7    1  0.2530788E-009  0.4778727E+02  0.7816164E-02  0.1312668E+00
        -11   -1    0    0    0    0  0.00000000000E+00  0.00000000000E+00  0.45593999997E+02  0.45594000000E+02  0.51100000000E-03 0.  1.
         11   -1    0    0    0    0 -0.00000000000E+00 -0.00000000000E+00 -0.45593999997E+02  0.45594000000E+02  0.51100000000E-03 0. -1.
    9900012    2    1    2    0    0 -0.50954254196E+01  0.62501520350E+01 -0.42644990223E+02  0.47787274755E+02  0.20000016919E+02 0.  0.
        -12    1    1    2    0    0  0.50954254196E+01 -0.62501520350E+01  0.42644990223E+02  0.43400725245E+02  0.00000000000E+00 0.  1.
         11    1    3    3    0    0 -0.55002379210E+01 -0.64179831689E+01 -0.12989675485E+02  0.15497573830E+02  0.51100000000E-03 0. -1.
        -11    1    3    3    0    0 -0.41067429221E+00  0.66427695573E+01 -0.14238453437E+02  0.15717143420E+02  0.51100000000E-03 0.  1.
         12    1    3    3    0    0  0.81548679365E+00  0.60253656466E+01 -0.15416861301E+02  0.16572557505E+02  0.00000000000E+00 0. -1.
</event>
<event>
 7    1  0.2530788E-009  0.4778727E+02  0.7816164E-02  0.1312668E+00
        -11   -1    0    0    0    0  0.00000000000E+00  0.00000000000E+00  0.45593999997E+02  0.45594000000E+02  0.51100000000E-03 0.  1.
         11   -1    0    0    0    0 -0.00000000000E+00 -0.00000000000E+00 -0.45593999997E+02  0.45594000000E+02  0.51100000000E-03 0. -1.
    9900012    2    1    2    0    0 -0.61009944079E+01  0.86433382483E+01 -0.42091498849E+02  0.47787266087E+02  0.19999977397E+02 0.  0.
        -12    1    1    2    0    0  0.61009944079E+01 -0.86433382483E+01  0.42091498849E+02  0.43400733913E+02  0.00000000000E+00 0.  1.
         11    1    3    3    0    0 -0.12677155440E+02  0.50121910498E+01 -0.33777896360E+02  0.36424972367E+02  0.51100000000E-03 0. -1.
        -11    1    3    3    0    0  0.51130319404E+01  0.22013355791E+01 -0.69462584039E+01  0.89016560274E+01  0.51100000000E-03 0.  1.
         12    1    3    3    0    0  0.14631290919E+01  0.14298116194E+01 -0.13673440850E+01  0.24606376924E+01  0.00000000000E+00 0. -1.
</event>
<event>
 7    1  0.2530788E-009  0.4778725E+02  0.7816164E-02  0.1312668E+00
        -11   -1    0    0    0    0  0.00000000000E+00  0.00000000000E+00  0.45593999997E+02  0.45594000000E+02  0.51100000000E-03 0. -1.
         11   -1    0    0    0    0 -0.00000000000E+00 -0.00000000000E+00 -0.45593999997E+02  0.45594000000E+02  0.51100000000E-03 0.  1.
    9900012    2    1    2    0    0  0.18957940447E+02  0.54898166446E+01  0.38653372100E+02  0.47787253837E+02  0.19999921545E+02 0.  0.
        -12    1    1    2    0    0 -0.18957940447E+02 -0.54898166446E+01 -0.38653372100E+02  0.43400746163E+02  0.00000000000E+00 0.  1.
         11    1    3    3    0    0  0.14222999422E+02  0.72819601007E+01  0.27932053602E+02  0.32179500838E+02  0.51100000000E-03 0. -1.
        -11    1    3    3    0    0 -0.29455018882E+01 -0.94141634507E+00  0.11333225512E+01  0.32934277546E+01  0.51100000000E-03 0.  1.
        -12    1    3    3    0    0  0.76804429132E+01 -0.85072711094E+00  0.95879959468E+01  0.12314325245E+02  0.00000000000E+00 0.  1.
</event>
<event>
 7    1  0.2530788E-009  0.4778727E+02  0.7816164E-02  0.1312668E+00
        -11   -1    0    0    0    0  0.00000000000E+00  0.00000000000E+00  0.45593999997E+02  0.45594000000E+02  0.51100000000E-03 0.  1.
         11   -1    0    0    0    0 -0.00000000000E+00 -0.00000000000E+00 -0.45593999997E+02  0.45594000000E+02  0.51100000000E-03 0. -1.
    9900012    2    1    2    0    0  0.22980339354E+02 -0.33512779764E+02 -0.15245360807E+02  0.47787269241E+02  0.19999991776E+02 0.  0.
        -12    1    1    2    0    0 -0.22980339354E+02  0.33512779764E+02  0.15245360807E+02  0.43400730759E+02  0.00000000000E+00 0.  1.
         11    1    3    3    0    0  0.14040843579E+02 -0.30694578071E+02 -0.11240405435E+02  0.35575962756E+02  0.51100000000E-03 0. -1.
        -11    1    3    3    0    0  0.92596823443E+01 -0.58720248109E+00 -0.30982605584E+01  0.97819089456E+01  0.51100000000E-03 0.  1.
        -12    1    3    3    0    0 -0.32018656915E+00 -0.22309992113E+01 -0.90669481356E+00  0.24293975394E+01  0.00000000000E+00 0.  1.
</event>
<event>
 7    1  0.2530788E-009  0.4778727E+02  0.7816164E-02  0.1312668E+00
        -11   -1    0    0    0    0  0.00000000000E+00  0.00000000000E+00  0.45593999997E+02  0.45594000000E+02  0.51100000000E-03 0. -1.
         11   -1    0    0    0    0 -0.00000000000E+00 -0.00000000000E+00 -0.45593999997E+02  0.45594000000E+02  0.51100000000E-03 0.  1.
    9900012    2    1    2    0    0 -0.12726350648E+02 -0.22140529422E+02  0.35092164256E+02  0.47787273784E+02  0.20000012492E+02 0.  0.
        -12    1    1    2    0    0  0.12726350648E+02  0.22140529422E+02 -0.35092164256E+02  0.43400726216E+02  0.00000000000E+00 0.  1.
         11    1    3    3    0    0 -0.84027477918E+00 -0.11901559261E+02  0.15957772712E+02  0.19924951311E+02  0.51100000000E-03 0. -1.
        -11    1    3    3    0    0 -0.10633380574E+02 -0.20518939333E+01  0.61291203940E+01  0.12443679850E+02  0.51100000000E-03 0.  1.
        -12    1    3    3    0    0 -0.12526952942E+01 -0.81870762272E+01  0.13005271150E+02  0.15418642623E+02  0.00000000000E+00 0.  1.
</event>
<event>
 7    1  0.2530788E-009  0.4778728E+02  0.7816164E-02  0.1312668E+00
        -11   -1    0    0    0    0  0.00000000000E+00  0.00000000000E+00  0.45593999997E+02  0.45594000000E+02  0.51100000000E-03 0.  1.
         11   -1    0    0    0    0 -0.00000000000E+00 -0.00000000000E+00 -0.45593999997E+02  0.45594000000E+02  0.51100000000E-03 0. -1.
    9900012    2    1    2    0    0 -0.31311378112E+02 -0.22716392756E+02 -0.19677042715E+02  0.47787275246E+02  0.20000019158E+02 0.  0.
        -12    1    1    2    0    0  0.31311378112E+02  0.22716392756E+02  0.19677042715E+02  0.43400724754E+02  0.00000000000E+00 0.  1.
         11    1    3    3    0    0 -0.56251129862E+01 -0.10162731793E+02  0.39640439355E+00  0.11622398647E+02  0.51100000000E-03 0. -1.
        -11    1    3    3    0    0 -0.29655531683E+01  0.12351054113E+01 -0.73247979600E+00  0.32949230467E+01  0.51100000000E-03 0.  1.
         12    1    3    3    0    0 -0.22720711958E+02 -0.13788766375E+02 -0.19340967312E+02  0.32869953553E+02  0.00000000000E+00 0. -1.
</event>
<event>
 7    1  0.2530788E-009  0.4778727E+02  0.7816164E-02  0.1312668E+00
        -11   -1    0    0    0    0  0.00000000000E+00  0.00000000000E+00  0.45593999997E+02  0.45594000000E+02  0.51100000000E-03 0.  1.
         11   -1    0    0    0    0 -0.00000000000E+00 -0.00000000000E+00 -0.45593999997E+02  0.45594000000E+02  0.51100000000E-03 0. -1.
    9900012    2    1    2    0    0 -0.38939669504E+02 -0.93070117994E+01 -0.16754254420E+02  0.47787269927E+02  0.19999994905E+02 0.  0.
        -12    1    1    2    0    0  0.38939669504E+02  0.93070117994E+01  0.16754254420E+02  0.43400730073E+02  0.00000000000E+00 0.  1.
         11    1    3    3    0    0 -0.17183822919E+02 -0.12839584587E+02 -0.81142413358E+01  0.22934245468E+02  0.51100000000E-03 0. -1.
        -11    1    3    3    0    0 -0.18117415344E+02  0.46256058540E+01 -0.94766646897E+01  0.20962923035E+02  0.51100000000E-03 0.  1.
         12    1    3    3    0    0 -0.36384312411E+01 -0.10930330666E+01  0.83665160583E+00  0.38901014242E+01  0.00000000000E+00 0. -1.
</event>
<event>
 7    1  0.2530788E-009  0.4778727E+02  0.7816164E-02  0.1312668E+00
        -11   -1    0    0    0    0  0.00000000000E+00  0.00000000000E+00  0.45593999997E+02  0.45594000000E+02  0.51100000000E-03 0.  1.
         11   -1    0    0    0    0 -0.00000000000E+00 -0.00000000000E+00 -0.45593999997E+02  0.45594000000E+02  0.51100000000E-03 0. -1.
    9900012    2    1    2    0    0 -0.21082551782E+02  0.34801327476E+02  0.15100227747E+02  0.47787271184E+02  0.20000000638E+02 0.  0.
        -12    1    1    2    0    0  0.21082551782E+02 -0.34801327476E+02 -0.15100227747E+02  0.43400728816E+02  0.00000000000E+00 0.  1.
         11    1    3    3    0    0 -0.19143798414E+02  0.29059438959E+02  0.12230962125E+02  0.36885396095E+02  0.51100000000E-03 0. -1.
        -11    1    3    3    0    0 -0.25795963346E+01 -0.11312692614E+01 -0.99934667503E+00  0.29887759081E+01  0.51100000000E-03 0.  1.
         12    1    3    3    0    0  0.64084296636E+00  0.68731577780E+01  0.38686122965E+01  0.79130991811E+01  0.00000000000E+00 0. -1.
</event>
<event>
 7    1  0.2530788E-009  0.4778728E+02  0.7816164E-02  0.1312668E+00
        -11   -1    0    0    0    0  0.00000000000E+00  0.00000000000E+00  0.45593999997E+02  0.45594000000E+02  0.51100000000E-03 0.  1.
         11   -1    0    0    0    0 -0.00000000000E+00 -0.00000000000E+00 -0.45593999997E+02  0.45594000000E+02  0.51100000000E-03 0. -1.
    9900012    2    1    2    0    0 -0.36438016270E+02 -0.99722378575E+01 -0.21364649292E+02  0.47787276539E+02  0.20000025050E+02 0.  0.
        -12    1    1    2    0    0  0.36438016270E+02  0.99722378575E+01  0.21364649292E+02  0.43400723461E+02  0.00000000000E+00 0.  1.
         11    1    3    3    0    0 -0.49248793586E+01  0.39435318190E+01 -0.13045175424E+01  0.64426427950E+01  0.51100000000E-03 0. -1.
        -11    1    3    3    0    0 -0.28620283435E+02 -0.15428582319E+02 -0.19803095831E+02  0.38069993184E+02  0.51100000000E-03 0.  1.
        -12    1    3    3    0    0 -0.28928534770E+01  0.15128126429E+01 -0.25703591912E+00  0.32746405598E+01  0.00000000000E+00 0.  1.
</event>
<event>
 7    1  0.2530788E-009  0.4778724E+02  0.7816164E-02  0.1312668E+00
        -11   -1    0    0    0    0  0.00000000000E+00  0.00000000000E+00  0.45593999997E+02  0.45594000000E+02  0.51100000000E-03 0. -1.
         11   -1    0    0    0    0 -0.00000000000E+00 -0.00000000000E+00 -0.45593999997E+02  0.45594000000E+02  0.51100000000E-03 0.  1.
    9900012    2    1    2    0    0 -0.13406716612E+02 -0.38742108603E+02  0.14245533971E+02  0.47787236557E+02  0.19999842756E+02 0.  0.
        -12    1    1    2    0    0  0.13406716612E+02  0.38742108603E+02 -0.14245533971E+02  0.43400763443E+02  0.00000000000E+00 0.  1.
         11    1    3    3    0    0 -0.11160181182E+02 -0.12160187694E+02 -0.32254311237E-01  0.16505176442E+02  0.51100000000E-03 0. -1.
        -11    1    3    3    0    0 -0.17279823597E+01 -0.87098986465E+00  0.20083283053E+01  0.27888939067E+01  0.51100000000E-03 0.  1.
         12    1    3    3    0    0 -0.51855307092E+00 -0.25710931045E+02  0.12269459977E+02  0.28493166208E+02  0.00000000000E+00 0. -1.
</event>
<event>
 7    1  0.2972998E-009  0.4778729E+02  0.7816164E-02  0.1312668E+00
        -11   -1    0    0    0    0  0.00000000000E+00  0.00000000000E+00  0.45593999997E+02  0.45594000000E+02  0.51100000000E-03 0.  1.
         11   -1    0    0    0    0 -0.00000000000E+00 -0.00000000000E+00 -0.45593999997E+02  0.45594000000E+02  0.51100000000E-03 0. -1.
    9900012    2    1    2    0    0  0.35323364579E+02 -0.25216009672E+02 -0.18608884077E+00  0.47787287356E+02  0.20000074372E+02 0.  0.
        -12    1    1    2    0    0 -0.35323364579E+02  0.25216009672E+02  0.18608884077E+00  0.43400712644E+02  0.00000000000E+00 0.  1.
         11    1    3    3    0    0  0.21944029145E+02 -0.89922682092E+01 -0.14352568494E+01  0.23758393573E+02  0.51100000000E-03 0. -1.
        -11    1    3    3    0    0 -0.17088045631E+01 -0.14896496307E+01  0.18580577588E+01  0.29311171852E+01  0.51100000000E-03 0.  1.
        -12    1    3    3    0    0  0.15088139996E+02 -0.14734091832E+02 -0.60888975013E+00  0.21097776598E+02  0.00000000000E+00 0.  1.
</event>
<event>
 7    1  0.2530788E-009  0.4778727E+02  0.7816164E-02  0.1312668E+00
        -11   -1    0    0    0    0  0.00000000000E+00  0.00000000000E+00  0.45593999997E+02  0.45594000000E+02  0.51100000000E-03 0.  1.
         11   -1    0    0    0    0 -0.00000000000E+00 -0.00000000000E+00 -0.45593999997E+02  0.45594000000E+02  0.51100000000E-03 0. -1.
    9900012    2    1    2    0    0 -0.20358422530E+02  0.15098760268E+02 -0.35230460034E+02  0.47787271392E+02  0.20000001584E+02 0.  0.
        -12    1    1    2    0    0  0.20358422530E+02 -0.15098760268E+02  0.35230460034E+02  0.43400728608E+02  0.00000000000E+00 0.  1.
         11    1    3    3    0    0 -0.44456622479E+01  0.37843222110E+01 -0.39483267744E+01  0.70479991485E+01  0.51100000000E-03 0. -1.
        -11    1    3    3    0    0 -0.81642873782E+01  0.45042133737E+01 -0.17894708975E+01  0.94945106700E+01  0.51100000000E-03 0.  1.
        -12    1    3    3    0    0 -0.77484729037E+01  0.68102246832E+01 -0.29492662362E+02  0.31244761573E+02  0.00000000000E+00 0.  1.
</event>
<event>
 7    1  0.2530788E-009  0.4778727E+02  0.7816164E-02  0.1312668E+00
        -11   -1    0    0    0    0  0.00000000000E+00  0.00000000000E+00  0.45593999997E+02  0.45594000000E+02  0.51100000000E-03 0.  1.
         11   -1    0    0    0    0 -0.00000000000E+00 -0.00000000000E+00 -0.45593999997E+02  0.45594000000E+02  0.51100000000E-03 0. -1.
    9900012    2    1    2    0    0  0.56715121060E-01  0.14725496914E+02 -0.40826216827E+02  0.47787268942E+02  0.19999990414E+02 0.  0.
        -12    1    1    2    0    0 -0.56715121060E-01 -0.14725496914E+02  0.40826216827E+02  0.43400731058E+02  0.00000000000E+00 0.  1.
         11    1    3    3    0    0  0.25137402860E+01  0.18466467790E+01 -0.28910966671E+02  0.29078737742E+02  0.51100000000E-03 0. -1.
        -11    1    3    3    0    0  0.65620052282E+00  0.10400762562E+02 -0.90861286558E+01  0.13826214059E+02  0.51100000000E-03 0.  1.
        -12    1    3    3    0    0 -0.31132256878E+01  0.24780875724E+01 -0.28291215006E+01  0.48823171409E+01  0.00000000000E+00 0.  1.
</event>
<event>
 7    1  0.2530788E-009  0.4778727E+02  0.7816164E-02  0.1312668E+00
        -11   -1    0    0    0    0  0.00000000000E+00  0.00000000000E+00  0.45593999997E+02  0.45594000000E+02  0.51100000000E-03 0. -1.
         11   -1    0    0    0    0 -0.00000000000E+00 -0.00000000000E+00 -0.45593999997E+02  0.45594000000E+02  0.51100000000E-03 0.  1.
    9900012    2    1    2    0    0 -0.22669166177E+02 -0.30175727678E+02  0.21427958815E+02  0.47787273565E+02  0.20000011494E+02 0.  0.
        -12    1    1    2    0    0  0.22669166177E+02  0.30175727678E+02 -0.21427958815E+02  0.43400726435E+02  0.00000000000E+00 0.  1.
         11    1    3    3    0    0 -0.69276805374E+01 -0.13084670230E+02  0.18522619251E+02  0.23712629058E+02  0.51100000000E-03 0. -1.
        -11    1    3    3    0    0 -0.99869754686E+01 -0.12143330645E+02  0.44281387537E+01  0.16334275964E+02  0.51100000000E-03 0.  1.
         12    1    3    3    0    0 -0.57545101712E+01 -0.49477268026E+01 -0.15227991896E+01  0.77403685439E+01  0.00000000000E+00 0. -1.
</event>
<event>
 7    1  0.2530788E-009  0.4778726E+02  0.7816164E-02  0.1312668E+00
        -11   -1    0    0    0    0  0.00000000000E+00  0.00000000000E+00  0.45593999997E+02  0.45594000000E+02  0.51100000000E-03 0.  1.
         11   -1    0    0    0    0 -0.00000000000E+00 -0.00000000000E+00 -0.45593999997E+02  0.45594000000E+02  0.51100000000E-03 0. -1.
    9900012    2    1    2    0    0 -0.24466534976E+02  0.26453001703E+02 -0.24191969204E+02  0.47787262601E+02  0.19999961502E+02 0.  0.
        -12    1    1    2    0    0  0.24466534976E+02 -0.26453001703E+02  0.24191969204E+02  0.43400737399E+02  0.00000000000E+00 0.  1.
         11    1    3    3    0    0 -0.10154268408E+02  0.54221332052E+01 -0.17179381849E+02  0.20679454934E+02  0.51100000000E-03 0. -1.
        -11    1    3    3    0    0 -0.97728046454E+01  0.88619200739E+01 -0.32822518198E+01  0.13594650246E+02  0.51100000000E-03 0.  1.
         12    1    3    3    0    0 -0.45394619233E+01  0.12168948424E+02 -0.37303355356E+01  0.13513157422E+02  0.00000000000E+00 0. -1.
</event>
<event>
 7    1  0.2530788E-009  0.4778727E+02  0.7816164E-02  0.1312668E+00
        -11   -1    0    0    0    0  0.00000000000E+00  0.00000000000E+00  0.45593999997E+02  0.45594000000E+02  0.51100000000E-03 0. -1.
         11   -1    0    0    0    0 -0.00000000000E+00 -0.00000000000E+00 -0.45593999997E+02  0.45594000000E+02  0.51100000000E-03 0.  1.
    9900012    2    1    2    0    0 -0.21210476750E+02 -0.13845161662E+02  0.35242734088E+02  0.47787272686E+02  0.20000007484E+02 0.  0.
        -12    1    1    2    0    0  0.21210476750E+02  0.13845161662E+02 -0.35242734088E+02  0.43400727314E+02  0.00000000000E+00 0.  1.
         11    1    3    3    0    0  0.57103282798E+00 -0.35522635916E+01  0.17127835750E+00  0.36019427608E+01  0.51100000000E-03 0. -1.
        -11    1    3    3    0    0 -0.13664565259E+02 -0.12124513173E+02  0.26948662684E+02  0.32556943715E+02  0.51100000000E-03 0.  1.
         12    1    3    3    0    0 -0.81169443192E+01  0.18316151022E+01  0.81227930467E+01  0.11628386210E+02  0.00000000000E+00 0. -1.
</event>
<event>
 7    1  0.2530788E-009  0.4778728E+02  0.7816164E-02  0.1312668E+00
        -11   -1    0    0    0    0  0.00000000000E+00  0.00000000000E+00  0.45593999997E+02  0.45594000000E+02  0.51100000000E-03 0.  1.
         11   -1    0    0    0    0 -0.00000000000E+00 -0.00000000000E+00 -0.45593999997E+02  0.45594000000E+02  0.51100000000E-03 0. -1.
    9900012    2    1    2    0    0 -0.33778732250E+02  0.22949693147E+02  0.14694616743E+02  0.47787275016E+02  0.20000018106E+02 0.  0.
        -12    1    1    2    0    0  0.33778732250E+02 -0.22949693147E+02 -0.14694616743E+02  0.43400724984E+02  0.00000000000E+00 0.  1.
         11    1    3    3    0    0 -0.16008732530E+02  0.45891540808E+01  0.17314534459E+01  0.16743290707E+02  0.51100000000E-03 0. -1.
        -11    1    3    3    0    0 -0.90401214534E+01  0.17103240831E+02  0.81058787238E+01  0.20974983026E+02  0.51100000000E-03 0.  1.
        -12    1    3    3    0    0 -0.87298782666E+01  0.12572982354E+01  0.48572845734E+01  0.10069001283E+02  0.00000000000E+00 0.  1.
</event>
<event>
 7    1  0.2530788E-009  0.4778728E+02  0.7816164E-02  0.1312668E+00
        -11   -1    0    0    0    0  0.00000000000E+00  0.00000000000E+00  0.45593999997E+02  0.45594000000E+02  0.51100000000E-03 0.  1.
         11   -1    0    0    0    0 -0.00000000000E+00 -0.00000000000E+00 -0.45593999997E+02  0.45594000000E+02  0.51100000000E-03 0. -1.
    9900012    2    1    2    0    0 -0.33288368712E+02 -0.16923345729E+02 -0.22115781761E+02  0.47787275063E+02  0.20000018322E+02 0.  0.
        -12    1    1    2    0    0  0.33288368712E+02  0.16923345729E+02  0.22115781761E+02  0.43400724937E+02  0.00000000000E+00 0.  1.
         11    1    3    3    0    0 -0.44545156057E+01  0.26101542965E+01 -0.76052120214E+01  0.91921088377E+01  0.51100000000E-03 0. -1.
        -11    1    3    3    0    0 -0.21948934940E+02 -0.13941934750E+02 -0.68858798922E+01  0.26898859302E+02  0.51100000000E-03 0.  1.
        -12    1    3    3    0    0 -0.68849181664E+01 -0.55915652756E+01 -0.76246898470E+01  0.11696306924E+02  0.00000000000E+00 0.  1.
</event>
<event>
 7    1  0.2530788E-009  0.4778727E+02  0.7816164E-02  0.1312668E+00
        -11   -1    0    0    0    0  0.00000000000E+00  0.00000000000E+00  0.45593999997E+02  0.45594000000E+02  0.51100000000E-03 0. -1.
         11   -1    0    0    0    0 -0.00000000000E+00 -0.00000000000E+00 -0.45593999997E+02  0.45594000000E+02  0.51100000000E-03 0.  1.
    9900012    2    1    2    0    0 -0.10589631284E+02  0.17437340311E+02  0.38306947502E+02  0.47787270113E+02  0.19999995752E+02 0.  0.
        -12    1    1    2    0    0  0.10589631284E+02 -0.17437340311E+02 -0.38306947502E+02  0.43400729887E+02  0.00000000000E+00 0.  1.
         11    1    3    3    0    0 -0.41310500127E+01  0.19523953930E+02  0.23546276274E+02  0.30865473881E+02  0.51100000000E-03 0.  1.
        -11    1    3    3    0    0 -0.24515052849E+01 -0.32765688935E+01  0.75080714351E+01  0.85508431638E+01  0.51100000000E-03 0. -1.
        -12    1    3    3    0    0 -0.40070759868E+01  0.11899552745E+01  0.72525997921E+01  0.83709530679E+01  0.00000000000E+00 0.  1.
</event>
<event>
 7    1  0.2530788E-009  0.4778727E+02  0.7816164E-02  0.1312668E+00
        -11   -1    0    0    0    0  0.00000000000E+00  0.00000000000E+00  0.45593999997E+02  0.45594000000E+02  0.51100000000E-03 0.  1.
         11   -1    0    0    0    0 -0.00000000000E+00 -0.00000000000E+00 -0.45593999997E+02  0.45594000000E+02  0.51100000000E-03 0. -1.
    9900012    2    1    2    0    0 -0.63199604390E+01 -0.28815946732E+02 -0.31832724604E+02  0.47787273719E+02  0.20000012195E+02 0.  0.
        -12    1    1    2    0    0  0.63199604390E+01  0.28815946732E+02  0.31832724604E+02  0.43400726281E+02  0.00000000000E+00 0.  1.
         11    1    3    3    0    0 -0.48167993951E+01 -0.13730790578E+02 -0.25862006931E+02  0.29674560975E+02  0.51100000000E-03 0. -1.
        -11    1    3    3    0    0 -0.24385643365E+01 -0.21143685484E+01 -0.37027150422E+01  0.49119496462E+01  0.51100000000E-03 0.  1.
         12    1    3    3    0    0  0.93540329266E+00 -0.12970787606E+02 -0.22680026305E+01  0.13200763098E+02  0.00000000000E+00 0. -1.
</event>
<event>
 7    1  0.2530788E-009  0.4778728E+02  0.7816164E-02  0.1312668E+00
        -11   -1    0    0    0    0  0.00000000000E+00  0.00000000000E+00  0.45593999997E+02  0.45594000000E+02  0.51100000000E-03 0.  1.
         11   -1    0    0    0    0 -0.00000000000E+00 -0.00000000000E+00 -0.45593999997E+02  0.45594000000E+02  0.51100000000E-03 0. -1.
    9900012    2    1    2    0    0  0.19104178791E+02  0.69857300087E+01  0.38338658965E+02  0.47787276017E+02  0.20000022670E+02 0.  0.
        -12    1    1    2    0    0 -0.19104178791E+02 -0.69857300087E+01 -0.38338658965E+02  0.43400723983E+02  0.00000000000E+00 0.  1.
         11    1    3    3    0    0  0.19818790376E+02  0.11981570823E+02  0.31324651266E+02  0.38956081279E+02  0.51100000000E-03 0. -1.
        -11    1    3    3    0    0 -0.58910443590E+00 -0.45751475184E+01  0.70106657547E+01  0.83921661945E+01  0.51100000000E-03 0.  1.
         12    1    3    3    0    0 -0.12550714893E+00 -0.42069329568E+00  0.33419440371E-02  0.43902854355E+00  0.00000000000E+00 0. -1.
</event>
<event>
 7    1  0.2530788E-009  0.4778727E+02  0.7816164E-02  0.1312668E+00
        -11   -1    0    0    0    0  0.00000000000E+00  0.00000000000E+00  0.45593999997E+02  0.45594000000E+02  0.51100000000E-03 0.  1.
         11   -1    0    0    0    0 -0.00000000000E+00 -0.00000000000E+00 -0.45593999997E+02  0.45594000000E+02  0.51100000000E-03 0. -1.
    9900012    2    1    2    0    0 -0.11626766812E+02 -0.30652707900E+02 -0.28440341086E+02  0.47787271789E+02  0.20000003397E+02 0.  0.
        -12    1    1    2    0    0  0.11626766812E+02  0.30652707900E+02  0.28440341086E+02  0.43400728211E+02  0.00000000000E+00 0.  1.
         11    1    3    3    0    0 -0.92971534811E+01 -0.69310720133E+01 -0.53646281328E+01  0.12777169380E+02  0.51100000000E-03 0. -1.
        -11    1    3    3    0    0  0.18647471442E+01 -0.20207797807E+02 -0.20871702292E+02  0.29111171927E+02  0.51100000000E-03 0.  1.
        -12    1    3    3    0    0 -0.41943604747E+01 -0.35138380801E+01 -0.22040106614E+01  0.58989304828E+01  0.00000000000E+00 0.  1.
</event>
<event>
 7    1  0.2530788E-009  0.4778727E+02  0.7816164E-02  0.1312668E+00
        -11   -1    0    0    0    0  0.00000000000E+00  0.00000000000E+00  0.45593999997E+02  0.45594000000E+02  0.51100000000E-03 0.  1.
         11   -1    0    0    0    0 -0.00000000000E+00 -0.00000000000E+00 -0.45593999997E+02  0.45594000000E+02  0.51100000000E-03 0. -1.
    9900012    2    1    2    0    0 -0.28867446407E+02  0.51874215565E+01 -0.31990383518E+02  0.47787269106E+02  0.19999991163E+02 0.  0.
        -12    1    1    2    0    0  0.28867446407E+02 -0.51874215565E+01  0.31990383518E+02  0.43400730894E+02  0.00000000000E+00 0.  1.
         11    1    3    3    0    0 -0.24274165263E+02  0.82209835755E+01 -0.32060683746E+02  0.41045183794E+02  0.51100000000E-03 0. -1.
        -11    1    3    3    0    0 -0.19973610397E+01  0.62322936378E+00 -0.66974604232E+00  0.21969128306E+01  0.51100000000E-03 0.  1.
         12    1    3    3    0    0 -0.25959201049E+01 -0.36567913828E+01  0.74004627034E+00  0.45451724820E+01  0.00000000000E+00 0. -1.
</event>
<event>
 7    1  0.2530788E-009  0.4778728E+02  0.7816164E-02  0.1312668E+00
        -11   -1    0    0    0    0  0.00000000000E+00  0.00000000000E+00  0.45593999997E+02  0.45594000000E+02  0.51100000000E-03 0.  1.
         11   -1    0    0    0    0 -0.00000000000E+00 -0.00000000000E+00 -0.45593999997E+02  0.45594000000E+02  0.51100000000E-03 0. -1.
    9900012    2    1    2    0    0 -0.12888625781E+02 -0.39597392049E+02 -0.12229158714E+02  0.47787280484E+02  0.20000043040E+02 0.  0.
        -12    1    1    2    0    0  0.12888625781E+02  0.39597392049E+02  0.12229158714E+02  0.43400719516E+02  0.00000000000E+00 0.  1.
         11    1    3    3    0    0 -0.16569425723E+02 -0.25381644184E+02 -0.66023051419E+01  0.31021994838E+02  0.51100000000E-03 0. -1.
        -11    1    3    3    0    0  0.45251947357E+01 -0.81378665589E+01 -0.16593131861E+01  0.94580960048E+01  0.51100000000E-03 0.  1.
         12    1    3    3    0    0 -0.84439479384E+00 -0.60778813063E+01 -0.39675403859E+01  0.73071896413E+01  0.00000000000E+00 0. -1.
</event>
<event>
 7    1  0.2530788E-009  0.4778727E+02  0.7816164E-02  0.1312668E+00
        -11   -1    0    0    0    0  0.00000000000E+00  0.00000000000E+00  0.45593999997E+02  0.45594000000E+02  0.51100000000E-03 0.  1.
         11   -1    0    0    0    0 -0.00000000000E+00 -0.00000000000E+00 -0.45593999997E+02  0.45594000000E+02  0.51100000000E-03 0. -1.
    9900012    2    1    2    0    0 -0.19309011479E+02 -0.38710474963E+02  0.35049303039E+01  0.47787270368E+02  0.19999996916E+02 0.  0.
        -12    1    1    2    0    0  0.19309011479E+02  0.38710474963E+02 -0.35049303039E+01  0.43400729632E+02  0.00000000000E+00 0.  1.
         11    1    3    3    0    0 -0.17841127245E+02 -0.33283465738E+02  0.28124953730E+01  0.37868259049E+02  0.51100000000E-03 0. -1.
        -11    1    3    3    0    0 -0.32106709058E+01 -0.11460179205E+01 -0.25633848222E+01  0.42652909335E+01  0.51100000000E-03 0.  1.
         12    1    3    3    0    0  0.17427866722E+01 -0.42809913047E+01  0.32558197532E+01  0.56537203858E+01  0.00000000000E+00 0. -1.
</event>
<event>
 7    1  0.2530788E-009  0.4778727E+02  0.7816164E-02  0.1312668E+00
        -11   -1    0    0    0    0  0.00000000000E+00  0.00000000000E+00  0.45593999997E+02  0.45594000000E+02  0.51100000000E-03 0.  1.
         11   -1    0    0    0    0 -0.00000000000E+00 -0.00000000000E+00 -0.45593999997E+02  0.45594000000E+02  0.51100000000E-03 0. -1.
    9900012    2    1    2    0    0  0.15724700484E+02  0.37922984398E+02 -0.14078504252E+02  0.47787271516E+02  0.20000002148E+02 0.  0.
        -12    1    1    2    0    0 -0.15724700484E+02 -0.37922984398E+02  0.14078504252E+02  0.43400728484E+02  0.00000000000E+00 0.  1.
         11    1    3    3    0    0  0.11415097164E+02  0.18990023256E+02 -0.68703051125E+01  0.23197554162E+02  0.51100000000E-03 0. -1.
        -11    1    3    3    0    0 -0.22813167438E+01  0.15084190336E+02 -0.20855702901E+01  0.15397623449E+02  0.51100000000E-03 0.  1.
        -12    1    3    3    0    0  0.65909200643E+01  0.38487708066E+01 -0.51226288499E+01  0.91920939045E+01  0.00000000000E+00 0.  1.
</event>
<event>
 7    1  0.2530788E-009  0.4778727E+02  0.7816164E-02  0.1312668E+00
        -11   -1    0    0    0    0  0.00000000000E+00  0.00000000000E+00  0.45593999997E+02  0.45594000000E+02  0.51100000000E-03 0.  1.
         11   -1    0    0    0    0 -0.00000000000E+00 -0.00000000000E+00 -0.45593999997E+02  0.45594000000E+02  0.51100000000E-03 0. -1.
    9900012    2    1    2    0    0 -0.60135685358E+01  0.22096700710E+02 -0.36867279306E+02  0.47787268759E+02  0.19999989582E+02 0.  0.
        -12    1    1    2    0    0  0.60135685358E+01 -0.22096700710E+02  0.36867279306E+02  0.43400731241E+02  0.00000000000E+00 0.  1.
         11    1    3    3    0    0 -0.17113789609E+01  0.43278584729E+01 -0.11115220848E+02  0.12050199653E+02  0.51100000000E-03 0. -1.
        -11    1    3    3    0    0 -0.19824138932E+01  0.13195772532E+02 -0.27295007878E+02  0.30382163071E+02  0.51100000000E-03 0.  1.
        -12    1    3    3    0    0 -0.23197756817E+01  0.45730697045E+01  0.15429494200E+01  0.53549060354E+01  0.00000000000E+00 0.  1.
</event>
<event>
 7    1  0.2530788E-009  0.4778729E+02  0.7816164E-02  0.1312668E+00
        -11   -1    0    0    0    0  0.00000000000E+00  0.00000000000E+00  0.45593999997E+02  0.45594000000E+02  0.51100000000E-03 0.  1.
         11   -1    0    0    0    0 -0.00000000000E+00 -0.00000000000E+00 -0.45593999997E+02  0.45594000000E+02  0.51100000000E-03 0. -1.
    9900012    2    1    2    0    0  0.33838988714E+02 -0.16509257500E+02 -0.21586771707E+02  0.47787292021E+02  0.20000095640E+02 0.  0.
        -12    1    1    2    0    0 -0.33838988714E+02  0.16509257500E+02  0.21586771707E+02  0.43400707979E+02  0.00000000000E+00 0.  1.
         11    1    3    3    0    0  0.13584323297E+02 -0.11627459330E+02 -0.10749662109E+02  0.20863530038E+02  0.51100000000E-03 0. -1.
        -11    1    3    3    0    0  0.14656472982E+02  0.27802990864E+01 -0.84255941613E+01  0.17132801887E+02  0.51100000000E-03 0.  1.
        -12    1    3    3    0    0  0.55981924345E+01 -0.76620972564E+01 -0.24115154362E+01  0.97909600959E+01  0.00000000000E+00 0.  1.
</event>
<event>
 7    1  0.2530788E-009  0.4778728E+02  0.7816164E-02  0.1312668E+00
        -11   -1    0    0    0    0  0.00000000000E+00  0.00000000000E+00  0.45593999997E+02  0.45594000000E+02  0.51100000000E-03 0.  1.
         11   -1    0    0    0    0 -0.00000000000E+00 -0.00000000000E+00 -0.45593999997E+02  0.45594000000E+02  0.51100000000E-03 0. -1.
    9900012    2    1    2    0    0  0.16429125263E+02  0.94402634116E+01 -0.39045975431E+02  0.47787275034E+02  0.20000018190E+02 0.  0.
        -12    1    1    2    0    0 -0.16429125263E+02 -0.94402634116E+01  0.39045975431E+02  0.43400724966E+02  0.00000000000E+00 0.  1.
         11    1    3    3    0    0  0.15746305402E+02  0.51216820168E+01 -0.38318923601E+02  0.41743474540E+02  0.51100000000E-03 0. -1.
        -11    1    3    3    0    0  0.20595773032E+01  0.31646475812E+01  0.58284878252E+00  0.38205452419E+01  0.51100000000E-03 0.  1.
         12    1    3    3    0    0 -0.13767574417E+01  0.11539338136E+01 -0.13099006127E+01  0.22232552518E+01  0.00000000000E+00 0. -1.
</event>
<event>
 7    1  0.2530788E-009  0.4778727E+02  0.7816164E-02  0.1312668E+00
        -11   -1    0    0    0    0  0.00000000000E+00  0.00000000000E+00  0.45593999997E+02  0.45594000000E+02  0.51100000000E-03 0.  1.
         11   -1    0    0    0    0 -0.00000000000E+00 -0.00000000000E+00 -0.45593999997E+02  0.45594000000E+02  0.51100000000E-03 0. -1.
    9900012    2    1    2    0    0 -0.10423655618E+02  0.38032748514E+02 -0.18124032013E+02  0.47787273136E+02  0.20000009535E+02 0.  0.
        -12    1    1    2    0    0  0.10423655618E+02 -0.38032748514E+02  0.18124032013E+02  0.43400726864E+02  0.00000000000E+00 0.  1.
         11    1    3    3    0    0  0.17343527916E+01  0.14292257835E+02  0.15366292528E+01  0.14478875763E+02  0.51100000000E-03 0.  1.
        -11    1    3    3    0    0 -0.55255737165E+01  0.12407533583E+02 -0.11883286586E+02  0.18046920924E+02  0.51100000000E-03 0. -1.
         12    1    3    3    0    0 -0.66324346933E+01  0.11332957095E+02 -0.77773746799E+01  0.15261476449E+02  0.00000000000E+00 0. -1.
</event>
<event>
 7    1  0.2530788E-009  0.4778727E+02  0.7816164E-02  0.1312668E+00
        -11   -1    0    0    0    0  0.00000000000E+00  0.00000000000E+00  0.45593999997E+02  0.45594000000E+02  0.51100000000E-03 0. -1.
         11   -1    0    0    0    0 -0.00000000000E+00 -0.00000000000E+00 -0.45593999997E+02  0.45594000000E+02  0.51100000000E-03 0.  1.
    9900012    2    1    2    0    0  0.18662945369E+02 -0.38638772767E+02  0.65086977349E+01  0.47787269165E+02  0.19999991430E+02 0.  0.
        -12    1    1    2    0    0 -0.18662945369E+02  0.38638772767E+02 -0.65086977349E+01  0.43400730835E+02  0.00000000000E+00 0.  1.
         11    1    3    3    0    0  0.20496321660E+02 -0.37671450785E+02  0.91948970515E+01  0.43860956874E+02  0.51100000000E-03 0. -1.
        -11    1    3    3    0    0 -0.60474778092E+00 -0.13843599163E+01 -0.18245420373E+01  0.23687815778E+01  0.51100000000E-03 0.  1.
         12    1    3    3    0    0 -0.12286285102E+01  0.41703793420E+00 -0.86165727937E+00  0.15575307130E+01  0.00000000000E+00 0. -1.
</event>
<event>
 7    1  0.2530788E-009  0.4778723E+02  0.7816164E-02  0.1312668E+00
        -11   -1    0    0    0    0  0.00000000000E+00  0.00000000000E+00  0.45593999997E+02  0.45594000000E+02  0.51100000000E-03 0. -1.
         11   -1    0    0    0    0 -0.00000000000E+00 -0.00000000000E+00 -0.45593999997E+02  0.45594000000E+02  0.51100000000E-03 0.  1.
    9900012    2    1    2    0    0 -0.15741589624E+02  0.43055357867E+01  0.40215559157E+02  0.47787234101E+02  0.19999831561E+02 0.  0.
        -12    1    1    2    0    0  0.15741589624E+02 -0.43055357867E+01 -0.40215559157E+02  0.43400765899E+02  0.00000000000E+00 0.  1.
         11    1    3    3    0    0 -0.92802380068E+00 -0.54629257502E+01  0.10316377732E+02  0.11710355917E+02  0.51100000000E-03 0. -1.
        -11    1    3    3    0    0 -0.11985022651E+02  0.60998767701E+01  0.13575922473E+02  0.19109027599E+02  0.51100000000E-03 0.  1.
        -12    1    3    3    0    0 -0.28285431723E+01  0.36685847669E+01  0.16323258952E+02  0.16967850585E+02  0.00000000000E+00 0.  1.
</event>
<event>
 7    1  0.2530788E-009  0.4778729E+02  0.7816164E-02  0.1312668E+00
        -11   -1    0    0    0    0  0.00000000000E+00  0.00000000000E+00  0.45593999997E+02  0.45594000000E+02  0.51100000000E-03 0.  1.
         11   -1    0    0    0    0 -0.00000000000E+00 -0.00000000000E+00 -0.45593999997E+02  0.45594000000E+02  0.51100000000E-03 0. -1.
    9900012    2    1    2    0    0  0.12068089619E+02 -0.58903334154E+01 -0.41270895664E+02  0.47787289825E+02  0.20000085628E+02 0.  0.
        -12    1    1    2    0    0 -0.12068089619E+02  0.58903334154E+01  0.41270895664E+02  0.43400710175E+02  0.00000000000E+00 0.  1.
         11    1    3    3    0    0  0.91943909046E+01  0.17261259775E+01 -0.18813940570E+02  0.21011442002E+02  0.51100000000E-03 0. -1.
        -11    1    3    3    0    0  0.32951415602E+01 -0.69491695385E+01 -0.47249736870E+01  0.90263110837E+01  0.51100000000E-03 0.  1.
        -12    1    3    3    0    0 -0.42144284587E+00 -0.66728985437E+00 -0.17731981407E+02  0.17749536739E+02  0.00000000000E+00 0.  1.
</event>
<event>
 7    1  0.2530788E-009  0.4778728E+02  0.7816164E-02  0.1312668E+00
        -11   -1    0    0    0    0  0.00000000000E+00  0.00000000000E+00  0.45593999997E+02  0.45594000000E+02  0.51100000000E-03 0. -1.
         11   -1    0    0    0    0 -0.00000000000E+00 -0.00000000000E+00 -0.45593999997E+02  0.45594000000E+02  0.51100000000E-03 0.  1.
    9900012    2    1    2    0    0 -0.25714843061E+02  0.23883958598E+02  0.25532845240E+02  0.47787276296E+02  0.20000023945E+02 0.  0.
        -12    1    1    2    0    0  0.25714843061E+02 -0.23883958598E+02 -0.25532845240E+02  0.43400723704E+02  0.00000000000E+00 0.  1.
         11    1    3    3    0    0 -0.12984401286E+02  0.13904375078E+02  0.12737552232E+02  0.22894793298E+02  0.51100000000E-03 0. -1.
        -11    1    3    3    0    0 -0.10017106599E+02  0.95854053328E+00  0.14831980910E+01  0.10171583034E+02  0.51100000000E-03 0.  1.
        -12    1    3    3    0    0 -0.27133351766E+01  0.90210429872E+01  0.11312094917E+02  0.14720899964E+02  0.00000000000E+00 0.  1.
</event>
<event>
 7    1  0.2530788E-009  0.4778727E+02  0.7816164E-02  0.1312668E+00
        -11   -1    0    0    0    0  0.00000000000E+00  0.00000000000E+00  0.45593999997E+02  0.45594000000E+02  0.51100000000E-03 0. -1.
         11   -1    0    0    0    0 -0.00000000000E+00 -0.00000000000E+00 -0.45593999997E+02  0.45594000000E+02  0.51100000000E-03 0.  1.
    9900012    2    1    2    0    0  0.27471807298E+02  0.32566909403E+02 -0.82655808528E+01  0.47787267159E+02  0.19999982285E+02 0.  0.
        -12    1    1    2    0    0 -0.27471807298E+02 -0.32566909403E+02  0.82655808528E+01  0.43400732841E+02  0.00000000000E+00 0.  1.
         11    1    3    3    0    0  0.19975082592E+01  0.47251660255E+01  0.53778671053E+01  0.74322734125E+01  0.51100000000E-03 0. -1.
        -11    1    3    3    0    0  0.21720370704E+02  0.21753951380E+02 -0.99883223419E+01  0.32322986985E+02  0.51100000000E-03 0.  1.
        -12    1    3    3    0    0  0.37539283346E+01  0.60877919976E+01 -0.36551256162E+01  0.80320067615E+01  0.00000000000E+00 0.  1.
</event>
<event>
 7    1  0.2530788E-009  0.4778727E+02  0.7816164E-02  0.1312668E+00
        -11   -1    0    0    0    0  0.00000000000E+00  0.00000000000E+00  0.45593999997E+02  0.45594000000E+02  0.51100000000E-03 0.  1.
         11   -1    0    0    0    0 -0.00000000000E+00 -0.00000000000E+00 -0.45593999997E+02  0.45594000000E+02  0.51100000000E-03 0. -1.
    9900012    2    1    2    0    0 -0.14419917352E+02 -0.70133103794E+01 -0.40329927498E+02  0.47787267392E+02  0.19999983347E+02 0.  0.
        -12    1    1    2    0    0  0.14419917352E+02  0.70133103794E+01  0.40329927498E+02  0.43400732608E+02  0.00000000000E+00 0.  1.
         11    1    3    3    0    0 -0.71510364606E+01 -0.91849846548E+01 -0.27029803710E+02  0.29429773265E+02  0.51100000000E-03 0. -1.
        -11    1    3    3    0    0  0.24697642774E+01  0.13946124211E+01 -0.36832399994E+01  0.46487564515E+01  0.51100000000E-03 0.  1.
         12    1    3    3    0    0 -0.97386451690E+01  0.77706185430E+00 -0.96168837880E+01  0.13708737675E+02  0.00000000000E+00 0. -1.
</event>
<event>
 7    1  0.2530788E-009  0.4778727E+02  0.7816164E-02  0.1312668E+00
        -11   -1    0    0    0    0  0.00000000000E+00  0.00000000000E+00  0.45593999997E+02  0.45594000000E+02  0.51100000000E-03 0.  1.
         11   -1    0    0    0    0 -0.00000000000E+00 -0.00000000000E+00 -0.45593999997E+02  0.45594000000E+02  0.51100000000E-03 0. -1.
    9900012    2    1    2    0    0 -0.13527936166E+02  0.26992590119E+02 -0.31177202732E+02  0.47787274793E+02  0.20000017093E+02 0.  0.
        -12    1    1    2    0    0  0.13527936166E+02 -0.26992590119E+02  0.31177202732E+02  0.43400725207E+02  0.00000000000E+00 0.  1.
         11    1    3    3    0    0 -0.78663659894E+00  0.20291652722E+01 -0.24400406624E+01  0.32695729898E+01  0.51100000000E-03 0. -1.
        -11    1    3    3    0    0 -0.16065929747E+01 -0.24702251581E+01 -0.75667311035E+01  0.81202569646E+01  0.51100000000E-03 0.  1.
        -12    1    3    3    0    0 -0.11134706592E+02  0.27433650005E+02 -0.21170430966E+02  0.36397444839E+02  0.00000000000E+00 0.  1.
</event>
<event>
 7    1  0.2530788E-009  0.4778727E+02  0.7816164E-02  0.1312668E+00
        -11   -1    0    0    0    0  0.00000000000E+00  0.00000000000E+00  0.45593999997E+02  0.45594000000E+02  0.51100000000E-03 0.  1.
         11   -1    0    0    0    0 -0.00000000000E+00 -0.00000000000E+00 -0.45593999997E+02  0.45594000000E+02  0.51100000000E-03 0. -1.
    9900012    2    1    2    0    0 -0.18432817192E+02 -0.37596820291E+02  0.11416366724E+02  0.47787273338E+02  0.20000010458E+02 0.  0.
        -12    1    1    2    0    0  0.18432817192E+02  0.37596820291E+02 -0.11416366724E+02  0.43400726662E+02  0.00000000000E+00 0.  1.
         11    1    3    3    0    0  0.43281602093E+00 -0.25899451678E+01 -0.34727181975E+01  0.43537245687E+01  0.51100000000E-03 0.  1.
        -11    1    3    3    0    0 -0.78547483029E+01 -0.65541993362E+01  0.27049968240E+01  0.10581663759E+02  0.51100000000E-03 0. -1.
         12    1    3    3    0    0 -0.11010884910E+02 -0.28452675787E+02  0.12184088098E+02  0.32851885010E+02  0.00000000000E+00 0. -1.
</event>
<event>
 7    1  0.2530788E-009  0.4778728E+02  0.7816164E-02  0.1312668E+00
        -11   -1    0    0    0    0  0.00000000000E+00  0.00000000000E+00  0.45593999997E+02  0.45594000000E+02  0.51100000000E-03 0.  1.
         11   -1    0    0    0    0 -0.00000000000E+00 -0.00000000000E+00 -0.45593999997E+02  0.45594000000E+02  0.51100000000E-03 0. -1.
    9900012    2    1    2    0    0 -0.10050160673E+02  0.27641775464E+02 -0.31914719637E+02  0.47787276390E+02  0.20000024372E+02 0.  0.
        -12    1    1    2    0    0  0.10050160673E+02 -0.27641775464E+02  0.31914719637E+02  0.43400723610E+02  0.00000000000E+00 0.  1.
         11    1    3    3    0    0 -0.61199046169E+01  0.32673857560E+01 -0.16130440573E+02  0.17559047683E+02  0.51100000000E-03 0. -1.
        -11    1    3    3    0    0 -0.51301741370E+01  0.91417547434E+01 -0.58822329155E+01  0.12020442205E+02  0.51100000000E-03 0.  1.
         12    1    3    3    0    0  0.11999180807E+01  0.15232634965E+02 -0.99020461486E+01  0.18207786502E+02  0.00000000000E+00 0. -1.
</event>
<event>
 7    1  0.2530788E-009  0.4778727E+02  0.7816164E-02  0.1312668E+00
        -11   -1    0    0    0    0  0.00000000000E+00  0.00000000000E+00  0.45593999997E+02  0.45594000000E+02  0.51100000000E-03 0.  1.
         11   -1    0    0    0    0 -0.00000000000E+00 -0.00000000000E+00 -0.45593999997E+02  0.45594000000E+02  0.51100000000E-03 0. -1.
    9900012    2    1    2    0    0 -0.32680073213E+02 -0.18779197848E+02 -0.21516926190E+02  0.47787267637E+02  0.19999984463E+02 0.  0.
        -12    1    1    2    0    0  0.32680073213E+02  0.18779197848E+02  0.21516926190E+02  0.43400732363E+02  0.00000000000E+00 0.  1.
         11    1    3    3    0    0 -0.22233185907E+02 -0.18872693353E+02 -0.13250008402E+02  0.32032106283E+02  0.51100000000E-03 0. -1.
        -11    1    3    3    0    0 -0.24980807825E+01  0.37578736425E+01 -0.17380622017E+01  0.48355850098E+01  0.51100000000E-03 0.  1.
        -12    1    3    3    0    0 -0.79488065228E+01 -0.36643781374E+01 -0.65288555864E+01  0.10919576344E+02  0.00000000000E+00 0.  1.
</event>
<event>
 7    1  0.2530788E-009  0.4778727E+02  0.7816164E-02  0.1312668E+00
        -11   -1    0    0    0    0  0.00000000000E+00  0.00000000000E+00  0.45593999997E+02  0.45594000000E+02  0.51100000000E-03 0.  1.
         11   -1    0    0    0    0 -0.00000000000E+00 -0.00000000000E+00 -0.45593999997E+02  0.45594000000E+02  0.51100000000E-03 0. -1.
    9900012    2    1    2    0    0  0.39768959914E+02 -0.16670391776E+02 -0.49143793881E+01  0.47787271212E+02  0.20000000764E+02 0.  0.
        -12    1    1    2    0    0 -0.39768959914E+02  0.16670391776E+02  0.49143793881E+01  0.43400728788E+02  0.00000000000E+00 0.  1.
         11    1    3    3    0    0  0.14501122045E+02  0.60872814108E+00 -0.86602517286E+01  0.16901273644E+02  0.51100000000E-03 0. -1.
        -11    1    3    3    0    0  0.11216205226E+02 -0.73684561963E+01  0.83197730870E+00  0.13445802054E+02  0.51100000000E-03 0.  1.
         12    1    3    3    0    0  0.14051632643E+02 -0.99106637204E+01  0.29138950318E+01  0.17440195514E+02  0.00000000000E+00 0. -1.
</event>
<event>
 7    1  0.2530788E-009  0.4778727E+02  0.7816164E-02  0.1312668E+00
        -11   -1    0    0    0    0  0.00000000000E+00  0.00000000000E+00  0.45593999997E+02  0.45594000000E+02  0.51100000000E-03 0.  1.
         11   -1    0    0    0    0 -0.00000000000E+00 -0.00000000000E+00 -0.45593999997E+02  0.45594000000E+02  0.51100000000E-03 0. -1.
    9900012    2    1    2    0    0  0.13415654228E+02 -0.41050916320E+02 -0.42971721542E+01  0.47787271923E+02  0.20000004007E+02 0.  0.
        -12    1    1    2    0    0 -0.13415654228E+02  0.41050916320E+02  0.42971721542E+01  0.43400728077E+02  0.00000000000E+00 0.  1.
         11    1    3    3    0    0  0.64987733914E+00 -0.10848006616E+02 -0.81157813613E+01  0.13563461780E+02  0.51100000000E-03 0.  1.
        -11    1    3    3    0    0  0.44452839212E+01 -0.27501050807E+01 -0.33849040264E+00  0.52381488246E+01  0.51100000000E-03 0. -1.
         12    1    3    3    0    0  0.83204929679E+01 -0.27452804623E+02  0.41570996097E+01  0.28985661319E+02  0.00000000000E+00 0. -1.
</event>
<event>
 7    1  0.2530788E-009  0.4778727E+02  0.7816164E-02  0.1312668E+00
        -11   -1    0    0    0    0  0.00000000000E+00  0.00000000000E+00  0.45593999997E+02  0.45594000000E+02  0.51100000000E-03 0.  1.
         11   -1    0    0    0    0 -0.00000000000E+00 -0.00000000000E+00 -0.45593999997E+02  0.45594000000E+02  0.51100000000E-03 0. -1.
    9900012    2    1    2    0    0 -0.17881340490E+02 -0.24075424439E+02 -0.31372835186E+02  0.47787272042E+02  0.20000004549E+02 0.  0.
        -12    1    1    2    0    0  0.17881340490E+02  0.24075424439E+02  0.31372835186E+02  0.43400727958E+02  0.00000000000E+00 0.  1.
         11    1    3    3    0    0  0.17367320598E+01  0.16876112499E+01 -0.32488346490E+01  0.40520608110E+01  0.51100000000E-03 0. -1.
        -11    1    3    3    0    0  0.61337904091E+00 -0.77539674460E+00 -0.22784604078E+01  0.24837181906E+01  0.51100000000E-03 0.  1.
         12    1    3    3    0    0 -0.20231451591E+02 -0.24987638945E+02 -0.25845540129E+02  0.41251493041E+02  0.00000000000E+00 0. -1.
</event>
<event>
 7    1  0.2530788E-009  0.4778727E+02  0.7816164E-02  0.1312668E+00
        -11   -1    0    0    0    0  0.00000000000E+00  0.00000000000E+00  0.45593999997E+02  0.45594000000E+02  0.51100000000E-03 0.  1.
         11   -1    0    0    0    0 -0.00000000000E+00 -0.00000000000E+00 -0.45593999997E+02  0.45594000000E+02  0.51100000000E-03 0. -1.
    9900012    2    1    2    0    0 -0.41503341250E+02 -0.88969064723E+01 -0.90521392860E+01  0.47787268378E+02  0.19999987842E+02 0.  0.
        -12    1    1    2    0    0  0.41503341250E+02  0.88969064723E+01  0.90521392860E+01  0.43400731622E+02  0.00000000000E+00 0.  1.
         11    1    3    3    0    0 -0.15483758854E+02 -0.72369074287E+01 -0.54793567830E+01  0.17948341661E+02  0.51100000000E-03 0. -1.
        -11    1    3    3    0    0 -0.63021950782E+00  0.36333397254E+01 -0.34980956444E+00  0.37041464848E+01  0.51100000000E-03 0.  1.
        -12    1    3    3    0    0 -0.25389362888E+02 -0.52933387691E+01 -0.32229729386E+01  0.26134780232E+02  0.00000000000E+00 0.  1.
</event>
<event>
 7    1  0.2530788E-009  0.4778727E+02  0.7816164E-02  0.1312668E+00
        -11   -1    0    0    0    0  0.00000000000E+00  0.00000000000E+00  0.45593999997E+02  0.45594000000E+02  0.51100000000E-03 0. -1.
         11   -1    0    0    0    0 -0.00000000000E+00 -0.00000000000E+00 -0.45593999997E+02  0.45594000000E+02  0.51100000000E-03 0.  1.
    9900012    2    1    2    0    0  0.25074529656E+02  0.19850477707E+02  0.29340243163E+02  0.47787269919E+02  0.19999994870E+02 0.  0.
        -12    1    1    2    0    0 -0.25074529656E+02 -0.19850477707E+02 -0.29340243163E+02  0.43400730081E+02  0.00000000000E+00 0.  1.
         11    1    3    3    0    0  0.86923644069E+01  0.16353531327E+01  0.15761249204E+02  0.18073421247E+02  0.51100000000E-03 0. -1.
        -11    1    3    3    0    0  0.14261043039E+02  0.16883315154E+02  0.15115961841E+02  0.26775286774E+02  0.51100000000E-03 0.  1.
         12    1    3    3    0    0  0.21211222099E+01  0.13318094199E+01 -0.15369678819E+01  0.29385618983E+01  0.00000000000E+00 0. -1.
</event>
<event>
 7    1  0.2530788E-009  0.4778728E+02  0.7816164E-02  0.1312668E+00
        -11   -1    0    0    0    0  0.00000000000E+00  0.00000000000E+00  0.45593999997E+02  0.45594000000E+02  0.51100000000E-03 0.  1.
         11   -1    0    0    0    0 -0.00000000000E+00 -0.00000000000E+00 -0.45593999997E+02  0.45594000000E+02  0.51100000000E-03 0. -1.
    9900012    2    1    2    0    0  0.19380014190E+02  0.26089529319E+02 -0.28764110848E+02  0.47787279235E+02  0.20000037343E+02 0.  0.
        -12    1    1    2    0    0 -0.19380014190E+02 -0.26089529319E+02  0.28764110848E+02  0.43400720765E+02  0.00000000000E+00 0.  1.
         11    1    3    3    0    0  0.12981133872E+02  0.19234782999E+02 -0.19431322540E+02  0.30266532830E+02  0.51100000000E-03 0. -1.
        -11    1    3    3    0    0  0.79603235699E+01  0.27284343776E+00 -0.40362584265E+01  0.89293100084E+01  0.51100000000E-03 0.  1.
         12    1    3    3    0    0 -0.15614432513E+01  0.65819028822E+01 -0.52965298809E+01  0.85914363966E+01  0.00000000000E+00 0. -1.
</event>
<event>
 7    1  0.2530788E-009  0.4778725E+02  0.7816164E-02  0.1312668E+00
        -11   -1    0    0    0    0  0.00000000000E+00  0.00000000000E+00  0.45593999997E+02  0.45594000000E+02  0.51100000000E-03 0.  1.
         11   -1    0    0    0    0 -0.00000000000E+00 -0.00000000000E+00 -0.45593999997E+02  0.45594000000E+02  0.51100000000E-03 0. -1.
    9900012    2    1    2    0    0  0.35086744410E+02 -0.92471602195E+01 -0.23812504976E+02  0.47787251174E+02  0.19999909405E+02 0.  0.
        -12    1    1    2    0    0 -0.35086744410E+02  0.92471602195E+01  0.23812504976E+02  0.43400748826E+02  0.00000000000E+00 0.  1.
         11    1    3    3    0    0  0.95353076959E+01 -0.62188213815E+01 -0.14676868445E+02  0.18574345206E+02  0.51100000000E-03 0. -1.
        -11    1    3    3    0    0  0.12013643003E+01  0.22727037610E+01 -0.20971117993E+01  0.33175799504E+01  0.51100000000E-03 0.  1.
         12    1    3    3    0    0  0.24350072414E+02 -0.53010425989E+01 -0.70385247317E+01  0.25895326018E+02  0.00000000000E+00 0. -1.
</event>
<event>
 7    1  0.2530788E-009  0.4778726E+02  0.7816164E-02  0.1312668E+00
        -11   -1    0    0    0    0  0.00000000000E+00  0.00000000000E+00  0.45593999997E+02  0.45594000000E+02  0.51100000000E-03 0.  1.
         11   -1    0    0    0    0 -0.00000000000E+00 -0.00000000000E+00 -0.45593999997E+02  0.45594000000E+02  0.51100000000E-03 0. -1.
    9900012    2    1    2    0    0  0.15439366996E+02  0.36830185043E+02  0.16993740772E+02  0.47787264880E+02  0.19999971892E+02 0.  0.
        -12    1    1    2    0    0 -0.15439366996E+02 -0.36830185043E+02 -0.16993740772E+02  0.43400735120E+02  0.00000000000E+00 0.  1.
         11    1    3    3    0    0  0.69676022411E+01  0.18161436870E+02  0.12666855518E+02  0.23212808945E+02  0.51100000000E-03 0.  1.
        -11    1    3    3    0    0  0.87094393649E+01  0.13973980393E+02 -0.21135023210E+01  0.16601004620E+02  0.51100000000E-03 0. -1.
         12    1    3    3    0    0 -0.23767460977E+00  0.46947677803E+01  0.64403875757E+01  0.79734513140E+01  0.00000000000E+00 0. -1.
</event>
<event>
 7    1  0.2530788E-009  0.4778727E+02  0.7816164E-02  0.1312668E+00
        -11   -1    0    0    0    0  0.00000000000E+00  0.00000000000E+00  0.45593999997E+02  0.45594000000E+02  0.51100000000E-03 0.  1.
         11   -1    0    0    0    0 -0.00000000000E+00 -0.00000000000E+00 -0.45593999997E+02  0.45594000000E+02  0.51100000000E-03 0. -1.
    9900012    2    1    2    0    0  0.27577139701E+02 -0.13432707847E+02 -0.30703210142E+02  0.47787269738E+02  0.19999994046E+02 0.  0.
        -12    1    1    2    0    0 -0.27577139701E+02  0.13432707847E+02  0.30703210142E+02  0.43400730262E+02  0.00000000000E+00 0.  1.
         11    1    3    3    0    0  0.11909053924E+02 -0.44533943517E+01 -0.97053582701E+01  0.15995382647E+02  0.51100000000E-03 0. -1.
        -11    1    3    3    0    0  0.97770018601E+01 -0.91203900051E+01 -0.22068244190E+02  0.25802687478E+02  0.51100000000E-03 0.  1.
        -12    1    3    3    0    0  0.58910839165E+01  0.14107650973E+00  0.10703923172E+01  0.59891996131E+01  0.00000000000E+00 0.  1.
</event>
<event>
 7    1  0.2642008E-009  0.4778727E+02  0.7816164E-02  0.1312668E+00
        -11   -1    0    0    0    0  0.00000000000E+00  0.00000000000E+00  0.45593999997E+02  0.45594000000E+02  0.51100000000E-03 0.  1.
         11   -1    0    0    0    0 -0.00000000000E+00 -0.00000000000E+00 -0.45593999997E+02  0.45594000000E+02  0.51100000000E-03 0. -1.
    9900012    2    1    2    0    0  0.36188266938E+02  0.13375063156E+02 -0.19878137161E+02  0.47787270566E+02  0.19999997820E+02 0.  0.
        -12    1    1    2    0    0 -0.36188266938E+02 -0.13375063156E+02  0.19878137161E+02  0.43400729434E+02  0.00000000000E+00 0.  1.
         11    1    3    3    0    0  0.23047995819E+02  0.70559375995E+01 -0.14447546781E+02  0.28102099120E+02  0.51100000000E-03 0. -1.
        -11    1    3    3    0    0  0.92139892597E+01  0.14767007181E+01  0.24394248548E+01  0.96451561404E+01  0.51100000000E-03 0.  1.
        -12    1    3    3    0    0  0.39262818591E+01  0.48424248386E+01 -0.78700152344E+01  0.10040015306E+02  0.00000000000E+00 0.  1.
</event>
<event>
 7    1  0.2530788E-009  0.4778727E+02  0.7816164E-02  0.1312668E+00
        -11   -1    0    0    0    0  0.00000000000E+00  0.00000000000E+00  0.45593999997E+02  0.45594000000E+02  0.51100000000E-03 0. -1.
         11   -1    0    0    0    0 -0.00000000000E+00 -0.00000000000E+00 -0.45593999997E+02  0.45594000000E+02  0.51100000000E-03 0.  1.
    9900012    2    1    2    0    0  0.31432020993E+02  0.24185524374E+02  0.17627016582E+02  0.47787271359E+02  0.20000001436E+02 0.  0.
        -12    1    1    2    0    0 -0.31432020993E+02 -0.24185524374E+02 -0.17627016582E+02  0.43400728641E+02  0.00000000000E+00 0.  1.
         11    1    3    3    0    0  0.51013258484E+01  0.77183016208E+01  0.84977339786E+01  0.12562133113E+02  0.51100000000E-03 0. -1.
        -11    1    3    3    0    0  0.24148441240E+02  0.85682437381E+01  0.85398208021E+01  0.27009082818E+02  0.51100000000E-03 0.  1.
        -12    1    3    3    0    0  0.21822539049E+01  0.78989790153E+01  0.58946180087E+00  0.82160554285E+01  0.00000000000E+00 0.  1.
</event>
<event>
 7    1  0.2530788E-009  0.4778727E+02  0.7816164E-02  0.1312668E+00
        -11   -1    0    0    0    0  0.00000000000E+00  0.00000000000E+00  0.45593999997E+02  0.45594000000E+02  0.51100000000E-03 0.  1.
         11   -1    0    0    0    0 -0.00000000000E+00 -0.00000000000E+00 -0.45593999997E+02  0.45594000000E+02  0.51100000000E-03 0. -1.
    9900012    2    1    2    0    0 -0.15667401996E+02  0.38711751251E+02 -0.11813396647E+02  0.47787268317E+02  0.19999987566E+02 0.  0.
        -12    1    1    2    0    0  0.15667401996E+02 -0.38711751251E+02  0.11813396647E+02  0.43400731683E+02  0.00000000000E+00 0.  1.
         11    1    3    3    0    0 -0.49441611286E+01  0.17469117444E+02 -0.11284968892E+02  0.21376747103E+02  0.51100000000E-03 0. -1.
        -11    1    3    3    0    0 -0.21142481501E+01  0.87577370234E+01  0.49577537692E+01  0.10283351871E+02  0.51100000000E-03 0.  1.
        -12    1    3    3    0    0 -0.86089927175E+01  0.12484896784E+02 -0.54861815242E+01  0.16127169343E+02  0.00000000000E+00 0.  1.
</event>
<event>
 7    1  0.2530788E-009  0.4778727E+02  0.7816164E-02  0.1312668E+00
        -11   -1    0    0    0    0  0.00000000000E+00  0.00000000000E+00  0.45593999997E+02  0.45594000000E+02  0.51100000000E-03 0. -1.
         11   -1    0    0    0    0 -0.00000000000E+00 -0.00000000000E+00 -0.45593999997E+02  0.45594000000E+02  0.51100000000E-03 0.  1.
    9900012    2    1    2    0    0  0.41205527023E+02  0.10220645350E+02  0.90147838876E+01  0.47787269855E+02  0.19999994575E+02 0.  0.
        -12    1    1    2    0    0 -0.41205527023E+02 -0.10220645350E+02 -0.90147838876E+01  0.43400730145E+02  0.00000000000E+00 0.  1.
         11    1    3    3    0    0  0.34607036026E+02  0.11718038813E+02  0.11140853131E+02  0.38197879324E+02  0.51100000000E-03 0. -1.
        -11    1    3    3    0    0  0.63005186603E+01  0.49348801083E+00 -0.34303032144E+01  0.71907611704E+01  0.51100000000E-03 0.  1.
         12    1    3    3    0    0  0.29797233687E+00 -0.19908814737E+01  0.13042339706E+01  0.23986293599E+01  0.00000000000E+00 0. -1.
</event>
<event>
 7    1  0.2530788E-009  0.4778728E+02  0.7816164E-02  0.1312668E+00
        -11   -1    0    0    0    0  0.00000000000E+00  0.00000000000E+00  0.45593999997E+02  0.45594000000E+02  0.51100000000E-03 0.  1.
         11   -1    0    0    0    0 -0.00000000000E+00 -0.00000000000E+00 -0.45593999997E+02  0.45594000000E+02  0.51100000000E-03 0. -1.
    9900012    2    1    2    0    0  0.14480814972E+02  0.18149774340E+02 -0.36667620427E+02  0.47787277671E+02  0.20000030214E+02 0.  0.
        -12    1    1    2    0    0 -0.14480814972E+02 -0.18149774340E+02  0.36667620427E+02  0.43400722329E+02  0.00000000000E+00 0.  1.
         11    1    3    3    0    0  0.67434684819E+01  0.86676682597E+01 -0.21893220135E+01  0.11198034263E+02  0.51100000000E-03 0.  1.
        -11    1    3    3    0    0  0.72785917095E+01  0.88116378477E+01 -0.32477974963E+02  0.34430244217E+02  0.51100000000E-03 0. -1.
        -12    1    3    3    0    0  0.45875478098E+00  0.67046823270E+00 -0.20003234505E+01  0.21589991910E+01  0.00000000000E+00 0.  1.
</event>
<event>
 7    1  0.2530788E-009  0.4778727E+02  0.7816164E-02  0.1312668E+00
        -11   -1    0    0    0    0  0.00000000000E+00  0.00000000000E+00  0.45593999997E+02  0.45594000000E+02  0.51100000000E-03 0. -1.
         11   -1    0    0    0    0 -0.00000000000E+00 -0.00000000000E+00 -0.45593999997E+02  0.45594000000E+02  0.51100000000E-03 0.  1.
    9900012    2    1    2    0    0 -0.15475720033E+02 -0.38549671612E+02  0.12571711617E+02  0.47787273913E+02  0.20000013078E+02 0.  0.
        -12    1    1    2    0    0  0.15475720033E+02  0.38549671612E+02 -0.12571711617E+02  0.43400726087E+02  0.00000000000E+00 0.  1.
         11    1    3    3    0    0 -0.16083519036E+02 -0.30753816488E+02  0.99871076624E+01  0.36113974205E+02  0.51100000000E-03 0. -1.
        -11    1    3    3    0    0  0.28549187857E+01 -0.22961473982E+01  0.41436564508E+01  0.55310707093E+01  0.51100000000E-03 0.  1.
         12    1    3    3    0    0 -0.22471197829E+01 -0.54997077256E+01 -0.15590524965E+01  0.61422289987E+01  0.00000000000E+00 0. -1.
</event>
<event>
 7    1  0.2530788E-009  0.4778728E+02  0.7816164E-02  0.1312668E+00
        -11   -1    0    0    0    0  0.00000000000E+00  0.00000000000E+00  0.45593999997E+02  0.45594000000E+02  0.51100000000E-03 0. -1.
         11   -1    0    0    0    0 -0.00000000000E+00 -0.00000000000E+00 -0.45593999997E+02  0.45594000000E+02  0.51100000000E-03 0.  1.
    9900012    2    1    2    0    0 -0.10418770325E+02  0.33790192203E+02  0.25165352547E+02  0.47787276123E+02  0.20000023156E+02 0.  0.
        -12    1    1    2    0    0  0.10418770325E+02 -0.33790192203E+02 -0.25165352547E+02  0.43400723877E+02  0.00000000000E+00 0.  1.
         11    1    3    3    0    0 -0.13708189058E+02  0.24211307625E+02  0.22487822208E+02  0.35774348521E+02  0.51100000000E-03 0. -1.
        -11    1    3    3    0    0  0.27646863129E+01  0.73539617172E+01  0.45314990591E+01  0.90696597141E+01  0.51100000000E-03 0.  1.
         12    1    3    3    0    0  0.52473242007E+00  0.22249228609E+01 -0.18539687199E+01  0.29432678886E+01  0.00000000000E+00 0. -1.
</event>
<event>
 7    1  0.2530788E-009  0.4778727E+02  0.7816164E-02  0.1312668E+00
        -11   -1    0    0    0    0  0.00000000000E+00  0.00000000000E+00  0.45593999997E+02  0.45594000000E+02  0.51100000000E-03 0. -1.
         11   -1    0    0    0    0 -0.00000000000E+00 -0.00000000000E+00 -0.45593999997E+02  0.45594000000E+02  0.51100000000E-03 0.  1.
    9900012    2    1    2    0    0  0.29646513780E+02 -0.15317157918E+02  0.27750535435E+02  0.47787270479E+02  0.19999997423E+02 0.  0.
        -12    1    1    2    0    0 -0.29646513780E+02  0.15317157918E+02 -0.27750535435E+02  0.43400729521E+02  0.00000000000E+00 0.  1.
         11    1    3    3    0    0  0.95638850231E+01  0.56386182833E+00  0.36119293061E+01  0.10238743598E+02  0.51100000000E-03 0. -1.
        -11    1    3    3    0    0 -0.30716494080E+00 -0.54303466506E+01  0.73518217004E+01  0.91450695800E+01  0.51100000000E-03 0.  1.
         12    1    3    3    0    0  0.20389793698E+02 -0.10450673096E+02  0.16786784429E+02  0.28403457301E+02  0.00000000000E+00 0. -1.
</event>
<event>
 7    1  0.2530788E-009  0.4778727E+02  0.7816164E-02  0.1312668E+00
        -11   -1    0    0    0    0  0.00000000000E+00  0.00000000000E+00  0.45593999997E+02  0.45594000000E+02  0.51100000000E-03 0.  1.
         11   -1    0    0    0    0 -0.00000000000E+00 -0.00000000000E+00 -0.45593999997E+02  0.45594000000E+02  0.51100000000E-03 0. -1.
    9900012    2    1    2    0    0 -0.41131847875E+02  0.38937347321E+01 -0.13290347606E+02  0.47787269369E+02  0.19999992362E+02 0.  0.
        -12    1    1    2    0    0  0.41131847875E+02 -0.38937347321E+01  0.13290347606E+02  0.43400730631E+02  0.00000000000E+00 0.  1.
         11    1    3    3    0    0 -0.31014352422E+02  0.69957248701E+01 -0.70028462275E+01  0.32555645872E+02  0.51100000000E-03 0. -1.
        -11    1    3    3    0    0 -0.45035414086E+01 -0.57733705419E+01 -0.17321615700E+01  0.75242326253E+01  0.51100000000E-03 0.  1.
        -12    1    3    3    0    0 -0.56139540450E+01  0.26713804039E+01 -0.45553398086E+01  0.77073908720E+01  0.00000000000E+00 0.  1.
</event>
<event>
 7    1  0.2530788E-009  0.4778727E+02  0.7816164E-02  0.1312668E+00
        -11   -1    0    0    0    0  0.00000000000E+00  0.00000000000E+00  0.45593999997E+02  0.45594000000E+02  0.51100000000E-03 0.  1.
         11   -1    0    0    0    0 -0.00000000000E+00 -0.00000000000E+00 -0.45593999997E+02  0.45594000000E+02  0.51100000000E-03 0. -1.
    9900012    2    1    2    0    0  0.17695548686E+02 -0.33964119871E+02  0.20418850060E+02  0.47787270516E+02  0.19999997591E+02 0.  0.
        -12    1    1    2    0    0 -0.17695548686E+02  0.33964119871E+02 -0.20418850060E+02  0.43400729484E+02  0.00000000000E+00 0.  1.
         11    1    3    3    0    0  0.16505934123E+02 -0.25681593722E+02  0.14989298607E+02  0.34009839611E+02  0.51100000000E-03 0. -1.
        -11    1    3    3    0    0 -0.19457745495E+01 -0.84450698014E+01  0.15787513212E+01  0.88089555875E+01  0.51100000000E-03 0.  1.
         12    1    3    3    0    0  0.31353891122E+01  0.16254365179E+00  0.38508001321E+01  0.49684753175E+01  0.00000000000E+00 0. -1.
</event>
<event>
 7    1  0.2530788E-009  0.4778727E+02  0.7816164E-02  0.1312668E+00
        -11   -1    0    0    0    0  0.00000000000E+00  0.00000000000E+00  0.45593999997E+02  0.45594000000E+02  0.51100000000E-03 0.  1.
         11   -1    0    0    0    0 -0.00000000000E+00 -0.00000000000E+00 -0.45593999997E+02  0.45594000000E+02  0.51100000000E-03 0. -1.
    9900012    2    1    2    0    0 -0.20586653770E+02 -0.15076298370E+02 -0.35107242911E+02  0.47787267393E+02  0.19999983353E+02 0.  0.
        -12    1    1    2    0    0  0.20586653770E+02  0.15076298370E+02  0.35107242911E+02  0.43400732607E+02  0.00000000000E+00 0.  1.
         11    1    3    3    0    0 -0.51900416563E+01 -0.47471314687E+01 -0.24674356053E+02  0.25657272584E+02  0.51100000000E-03 0. -1.
        -11    1    3    3    0    0 -0.12304840433E+02 -0.96636029981E+01 -0.10702064132E+02  0.18955962068E+02  0.51100000000E-03 0.  1.
         12    1    3    3    0    0 -0.30917716808E+01 -0.66556390276E+00  0.26917727385E+00  0.31740327408E+01  0.00000000000E+00 0. -1.
</event>
<event>
 7    1  0.2530788E-009  0.4778727E+02  0.7816164E-02  0.1312668E+00
        -11   -1    0    0    0    0  0.00000000000E+00  0.00000000000E+00  0.45593999997E+02  0.45594000000E+02  0.51100000000E-03 0.  1.
         11   -1    0    0    0    0 -0.00000000000E+00 -0.00000000000E+00 -0.45593999997E+02  0.45594000000E+02  0.51100000000E-03 0. -1.
    9900012    2    1    2    0    0 -0.31627782608E+02  0.19999739499E+02 -0.21984479290E+02  0.47787267951E+02  0.19999985896E+02 0.  0.
        -12    1    1    2    0    0  0.31627782608E+02 -0.19999739499E+02  0.21984479290E+02  0.43400732049E+02  0.00000000000E+00 0.  1.
         11    1    3    3    0    0 -0.84691681259E+01  0.10773774440E+02 -0.14140050499E+02  0.19691166873E+02  0.51100000000E-03 0. -1.
        -11    1    3    3    0    0 -0.62872535481E+01 -0.89590238955E+00  0.11648973137E+01  0.64567162151E+01  0.51100000000E-03 0.  1.
        -12    1    3    3    0    0 -0.16871360934E+02  0.10121867448E+02 -0.90093261048E+01  0.21639384863E+02  0.00000000000E+00 0.  1.
</event>
<event>
 7    1  0.2530788E-009  0.4778727E+02  0.7816164E-02  0.1312668E+00
        -11   -1    0    0    0    0  0.00000000000E+00  0.00000000000E+00  0.45593999997E+02  0.45594000000E+02  0.51100000000E-03 0.  1.
         11   -1    0    0    0    0 -0.00000000000E+00 -0.00000000000E+00 -0.45593999997E+02  0.45594000000E+02  0.51100000000E-03 0. -1.
    9900012    2    1    2    0    0  0.51036129332E+01 -0.12446418381E+02 -0.41263337778E+02  0.47787271434E+02  0.20000001774E+02 0.  0.
        -12    1    1    2    0    0 -0.51036129332E+01  0.12446418381E+02  0.41263337778E+02  0.43400728566E+02  0.00000000000E+00 0.  1.
         11    1    3    3    0    0  0.33215136420E+01 -0.30241710487E+01 -0.21312936274E+01  0.49719690458E+01  0.51100000000E-03 0. -1.
        -11    1    3    3    0    0  0.25821203453E+01 -0.13121149778E+02 -0.33037238440E+02  0.35641142532E+02  0.51100000000E-03 0.  1.
        -12    1    3    3    0    0 -0.80002105408E+00  0.36989024452E+01 -0.60948057109E+01  0.71741598560E+01  0.00000000000E+00 0.  1.
</event>
<event>
 7    1  0.2530788E-009  0.4778727E+02  0.7816164E-02  0.1312668E+00
        -11   -1    0    0    0    0  0.00000000000E+00  0.00000000000E+00  0.45593999997E+02  0.45594000000E+02  0.51100000000E-03 0.  1.
         11   -1    0    0    0    0 -0.00000000000E+00 -0.00000000000E+00 -0.45593999997E+02  0.45594000000E+02  0.51100000000E-03 0. -1.
    9900012    2    1    2    0    0  0.26294994997E+02  0.22168346389E+02  0.26471891892E+02  0.47787269547E+02  0.19999993174E+02 0.  0.
        -12    1    1    2    0    0 -0.26294994997E+02 -0.22168346389E+02 -0.26471891892E+02  0.43400730453E+02  0.00000000000E+00 0.  1.
         11    1    3    3    0    0  0.18197730653E+02  0.54069272143E+01  0.15285625902E+02  0.24372989605E+02  0.51100000000E-03 0. -1.
        -11    1    3    3    0    0 -0.17849196013E+01  0.36280708049E+01  0.13653716110E+01  0.42676780157E+01  0.51100000000E-03 0.  1.
         12    1    3    3    0    0  0.98821839450E+01  0.13133348370E+02  0.98208943793E+01  0.19146601927E+02  0.00000000000E+00 0. -1.
</event>
<event>
 7    1  0.2530788E-009  0.4778727E+02  0.7816164E-02  0.1312668E+00
        -11   -1    0    0    0    0  0.00000000000E+00  0.00000000000E+00  0.45593999997E+02  0.45594000000E+02  0.51100000000E-03 0.  1.
         11   -1    0    0    0    0 -0.00000000000E+00 -0.00000000000E+00 -0.45593999997E+02  0.45594000000E+02  0.51100000000E-03 0. -1.
    9900012    2    1    2    0    0 -0.30072616402E+02 -0.16790031049E+02 -0.26407497314E+02  0.47787270579E+02  0.19999997879E+02 0.  0.
        -12    1    1    2    0    0  0.30072616402E+02  0.16790031049E+02  0.26407497314E+02  0.43400729421E+02  0.00000000000E+00 0.  1.
         11    1    3    3    0    0 -0.22085186074E+02 -0.19058689883E+02 -0.14146131576E+02  0.32420705464E+02  0.51100000000E-03 0. -1.
        -11    1    3    3    0    0 -0.69067153755E+01  0.80670019118E+00 -0.72965189680E+01  0.10079319014E+02  0.51100000000E-03 0.  1.
         12    1    3    3    0    0 -0.10807149522E+01  0.14619586429E+01 -0.49648467702E+01  0.52872461010E+01  0.00000000000E+00 0. -1.
</event>
<event>
 7    1  0.2530788E-009  0.4778727E+02  0.7816164E-02  0.1312668E+00
        -11   -1    0    0    0    0  0.00000000000E+00  0.00000000000E+00  0.45593999997E+02  0.45594000000E+02  0.51100000000E-03 0. -1.
         11   -1    0    0    0    0 -0.00000000000E+00 -0.00000000000E+00 -0.45593999997E+02  0.45594000000E+02  0.51100000000E-03 0.  1.
    9900012    2    1    2    0    0 -0.30050874402E+02  0.85627055867E+01  0.30120565063E+02  0.47787269372E+02  0.19999992376E+02 0.  0.
        -12    1    1    2    0    0  0.30050874402E+02 -0.85627055867E+01 -0.30120565063E+02  0.43400730628E+02  0.00000000000E+00 0.  1.
         11    1    3    3    0    0 -0.49583900683E+01  0.35010873664E+01  0.18035275752E+02  0.19029304152E+02  0.51100000000E-03 0. -1.
        -11    1    3    3    0    0 -0.11468308084E+02  0.17753115400E+01  0.27739757682E+01  0.11931838216E+02  0.51100000000E-03 0.  1.
         12    1    3    3    0    0 -0.13624176249E+02  0.32863066802E+01  0.93113135438E+01  0.16826127005E+02  0.00000000000E+00 0. -1.
</event>
<event>
 7    1  0.2530788E-009  0.4778727E+02  0.7816164E-02  0.1312668E+00
        -11   -1    0    0    0    0  0.00000000000E+00  0.00000000000E+00  0.45593999997E+02  0.45594000000E+02  0.51100000000E-03 0. -1.
         11   -1    0    0    0    0 -0.00000000000E+00 -0.00000000000E+00 -0.45593999997E+02  0.45594000000E+02  0.51100000000E-03 0.  1.
    9900012    2    1    2    0    0  0.33815409596E+02  0.22665445645E+02  0.15047219678E+02  0.47787272213E+02  0.20000005328E+02 0.  0.
        -12    1    1    2    0    0 -0.33815409596E+02 -0.22665445645E+02 -0.15047219678E+02  0.43400727787E+02  0.00000000000E+00 0.  1.
         11    1    3    3    0    0  0.12023420818E+02  0.13270620109E+02  0.11931694204E+02  0.21518302282E+02  0.51100000000E-03 0. -1.
        -11    1    3    3    0    0  0.42473052913E+01 -0.22442768434E+01 -0.75224217436E+00  0.48623296204E+01  0.51100000000E-03 0.  1.
         12    1    3    3    0    0  0.17544683486E+02  0.11639102379E+02  0.38677676484E+01  0.21406640311E+02  0.00000000000E+00 0. -1.
</event>
<event>
 7    1  0.2530788E-009  0.4778728E+02  0.7816164E-02  0.1312668E+00
        -11   -1    0    0    0    0  0.00000000000E+00  0.00000000000E+00  0.45593999997E+02  0.45594000000E+02  0.51100000000E-03 0.  1.
         11   -1    0    0    0    0 -0.00000000000E+00 -0.00000000000E+00 -0.45593999997E+02  0.45594000000E+02  0.51100000000E-03 0. -1.
    9900012    2    1    2    0    0  0.28408083123E+02 -0.42778113147E+01 -0.32531581903E+02  0.47787277916E+02  0.20000031328E+02 0.  0.
        -12    1    1    2    0    0 -0.28408083123E+02  0.42778113147E+01  0.32531581903E+02  0.43400722084E+02  0.00000000000E+00 0.  1.
         11    1    3    3    0    0  0.22362814072E+02 -0.76912638314E+01 -0.20753974453E+02  0.31463922966E+02  0.51100000000E-03 0. -1.
        -11    1    3    3    0    0  0.14780087756E+01 -0.28034213234E+01 -0.56237823360E+01  0.64552776146E+01  0.51100000000E-03 0.  1.
         12    1    3    3    0    0  0.45672602753E+01  0.62168738401E+01 -0.61538251139E+01  0.98680773355E+01  0.00000000000E+00 0. -1.
</event>
<event>
 7    1  0.2530788E-009  0.4778727E+02  0.7816164E-02  0.1312668E+00
        -11   -1    0    0    0    0  0.00000000000E+00  0.00000000000E+00  0.45593999997E+02  0.45594000000E+02  0.51100000000E-03 0. -1.
         11   -1    0    0    0    0 -0.00000000000E+00 -0.00000000000E+00 -0.45593999997E+02  0.45594000000E+02  0.51100000000E-03 0.  1.
    9900012    2    1    2    0    0 -0.38718262175E+02 -0.18747078707E+02  0.57503485857E+01  0.47787270804E+02  0.19999998904E+02 0.  0.
        -12    1    1    2    0    0  0.38718262175E+02  0.18747078707E+02 -0.57503485857E+01  0.43400729196E+02  0.00000000000E+00 0.  1.
         11    1    3    3    0    0 -0.59483766649E+01 -0.41600807463E+01  0.30307559903E+01  0.78660624773E+01  0.51100000000E-03 0. -1.
        -11    1    3    3    0    0 -0.37410291291E+01 -0.59087519681E+01  0.62992539185E+01  0.94121861943E+01  0.51100000000E-03 0.  1.
        -12    1    3    3    0    0 -0.29028856381E+02 -0.86782459924E+01 -0.35796613232E+01  0.30509022132E+02  0.00000000000E+00 0.  1.
</event>
<event>
 7    1  0.2673671E-009  0.4778727E+02  0.7816164E-02  0.1312668E+00
        -11   -1    0    0    0    0  0.00000000000E+00  0.00000000000E+00  0.45593999997E+02  0.45594000000E+02  0.51100000000E-03 0. -1.
         11   -1    0    0    0    0 -0.00000000000E+00 -0.00000000000E+00 -0.45593999997E+02  0.45594000000E+02  0.51100000000E-03 0.  1.
    9900012    2    1    2    0    0  0.42589868509E+02 -0.77031870357E+01  0.32229414574E+01  0.47787270262E+02  0.19999996433E+02 0.  0.
        -12    1    1    2    0    0 -0.42589868509E+02  0.77031870357E+01 -0.32229414574E+01  0.43400729738E+02  0.00000000000E+00 0.  1.
         11    1    3    3    0    0  0.36297491504E+02 -0.78370252541E+01  0.14707877860E+01  0.37163020212E+02  0.51100000000E-03 0. -1.
        -11    1    3    3    0    0  0.34145316273E+01 -0.26403478562E+00  0.51304939288E+01  0.61685256598E+01  0.51100000000E-03 0.  1.
        -12    1    3    3    0    0  0.28778453782E+01  0.39787300400E+00 -0.33783402574E+01  0.44557243904E+01  0.00000000000E+00 0.  1.
</event>
<event>
 7    1  0.2530788E-009  0.4778727E+02  0.7816164E-02  0.1312668E+00
        -11   -1    0    0    0    0  0.00000000000E+00  0.00000000000E+00  0.45593999997E+02  0.45594000000E+02  0.51100000000E-03 0.  1.
         11   -1    0    0    0    0 -0.00000000000E+00 -0.00000000000E+00 -0.45593999997E+02  0.45594000000E+02  0.51100000000E-03 0. -1.
    9900012    2    1    2    0    0 -0.16480774718E+02 -0.15411056340E+02 -0.37074338302E+02  0.47787272433E+02  0.20000006329E+02 0.  0.
        -12    1    1    2    0    0  0.16480774718E+02  0.15411056340E+02  0.37074338302E+02  0.43400727567E+02  0.00000000000E+00 0.  1.
         11    1    3    3    0    0 -0.10213708645E+02 -0.86356914068E+01 -0.65724100798E+01  0.14902737496E+02  0.51100000000E-03 0. -1.
        -11    1    3    3    0    0 -0.19790994411E+01 -0.12983791603E+00 -0.78478009657E+00  0.21329727010E+01  0.51100000000E-03 0.  1.
         12    1    3    3    0    0 -0.42879666314E+01 -0.66455270176E+01 -0.29717148126E+02  0.30751562235E+02  0.00000000000E+00 0. -1.
</event>
<event>
 7    1  0.2530788E-009  0.4778728E+02  0.7816164E-02  0.1312668E+00
        -11   -1    0    0    0    0  0.00000000000E+00  0.00000000000E+00  0.45593999997E+02  0.45594000000E+02  0.51100000000E-03 0. -1.
         11   -1    0    0    0    0 -0.00000000000E+00 -0.00000000000E+00 -0.45593999997E+02  0.45594000000E+02  0.51100000000E-03 0.  1.
    9900012    2    1    2    0    0  0.15718187376E+02 -0.32126840038E+02 -0.24585104539E+02  0.47787278458E+02  0.20000033800E+02 0.  0.
        -12    1    1    2    0    0 -0.15718187376E+02  0.32126840038E+02  0.24585104539E+02  0.43400721542E+02  0.00000000000E+00 0.  1.
         11    1    3    3    0    0  0.92114832429E+01 -0.19557352150E+02 -0.18202444003E+02  0.28260757503E+02  0.51100000000E-03 0. -1.
        -11    1    3    3    0    0 -0.13845316553E+01 -0.62519989360E+01  0.16527796341E+01  0.66133274061E+01  0.51100000000E-03 0.  1.
         12    1    3    3    0    0  0.78912357881E+01 -0.63174889517E+01 -0.80354401693E+01  0.12913193549E+02  0.00000000000E+00 0. -1.
</event>
<event>
 7    1  0.2530788E-009  0.4778727E+02  0.7816164E-02  0.1312668E+00
        -11   -1    0    0    0    0  0.00000000000E+00  0.00000000000E+00  0.45593999997E+02  0.45594000000E+02  0.51100000000E-03 0. -1.
         11   -1    0    0    0    0 -0.00000000000E+00 -0.00000000000E+00 -0.45593999997E+02  0.45594000000E+02  0.51100000000E-03 0.  1.
    9900012    2    1    2    0    0  0.16367004661E+02  0.27692123776E+02  0.29135729934E+02  0.47787270517E+02  0.19999997597E+02 0.  0.
        -12    1    1    2    0    0 -0.16367004661E+02 -0.27692123776E+02 -0.29135729934E+02  0.43400729483E+02  0.00000000000E+00 0.  1.
         11    1    3    3    0    0  0.55863690362E+01  0.29312737404E-01  0.76250066778E+00  0.56382431462E+01  0.51100000000E-03 0. -1.
        -11    1    3    3    0    0 -0.16544479329E+01  0.56417787985E+01  0.53161659135E+01  0.79264422193E+01  0.51100000000E-03 0.  1.
         12    1    3    3    0    0  0.12435083558E+02  0.22021032240E+02  0.23057063353E+02  0.34222585152E+02  0.00000000000E+00 0. -1.
</event>
<event>
 7    1  0.2530788E-009  0.4778727E+02  0.7816164E-02  0.1312668E+00
        -11   -1    0    0    0    0  0.00000000000E+00  0.00000000000E+00  0.45593999997E+02  0.45594000000E+02  0.51100000000E-03 0. -1.
         11   -1    0    0    0    0 -0.00000000000E+00 -0.00000000000E+00 -0.45593999997E+02  0.45594000000E+02  0.51100000000E-03 0.  1.
    9900012    2    1    2    0    0  0.38801094620E+02  0.12244015188E+02  0.15105715983E+02  0.47787268359E+02  0.19999987756E+02 0.  0.
        -12    1    1    2    0    0 -0.38801094620E+02 -0.12244015188E+02 -0.15105715983E+02  0.43400731641E+02  0.00000000000E+00 0.  1.
         11    1    3    3    0    0  0.29875719738E+02  0.80233597874E+01  0.64181304827E+01  0.31593121582E+02  0.51100000000E-03 0. -1.
        -11    1    3    3    0    0  0.93778034105E+01  0.55612853250E+01  0.95863677400E+01  0.14517904049E+02  0.51100000000E-03 0.  1.
         12    1    3    3    0    0 -0.45242852878E+00 -0.13406299246E+01 -0.89878223937E+00  0.16762427277E+01  0.00000000000E+00 0. -1.
</event>
<event>
 7    1  0.2530788E-009  0.4778727E+02  0.7816164E-02  0.1312668E+00
        -11   -1    0    0    0    0  0.00000000000E+00  0.00000000000E+00  0.45593999997E+02  0.45594000000E+02  0.51100000000E-03 0.  1.
         11   -1    0    0    0    0 -0.00000000000E+00 -0.00000000000E+00 -0.45593999997E+02  0.45594000000E+02  0.51100000000E-03 0. -1.
    9900012    2    1    2    0    0 -0.29569216926E+02 -0.31609889468E+02 -0.31779755759E+01  0.47787271543E+02  0.20000002275E+02 0.  0.
        -12    1    1    2    0    0  0.29569216926E+02  0.31609889468E+02  0.31779755759E+01  0.43400728457E+02  0.00000000000E+00 0.  1.
         11    1    3    3    0    0 -0.93795300303E+01 -0.79151719756E+01 -0.53860265814E+01  0.13402791261E+02  0.51100000000E-03 0. -1.
        -11    1    3    3    0    0  0.84359435060E+00 -0.35562985613E+01  0.37336896078E+01  0.52248779157E+01  0.51100000000E-03 0.  1.
        -12    1    3    3    0    0 -0.21033281247E+02 -0.20138418931E+02 -0.15256386024E+01  0.29159602367E+02  0.00000000000E+00 0.  1.
</event>
<event>
 7    1  0.2530788E-009  0.4778727E+02  0.7816164E-02  0.1312668E+00
        -11   -1    0    0    0    0  0.00000000000E+00  0.00000000000E+00  0.45593999997E+02  0.45594000000E+02  0.51100000000E-03 0.  1.
         11   -1    0    0    0    0 -0.00000000000E+00 -0.00000000000E+00 -0.45593999997E+02  0.45594000000E+02  0.51100000000E-03 0. -1.
    9900012    2    1    2    0    0 -0.92430252735E+01 -0.89246399775E+01 -0.41455285487E+02  0.47787269480E+02  0.19999992865E+02 0.  0.
        -12    1    1    2    0    0  0.92430252735E+01  0.89246399775E+01  0.41455285487E+02  0.43400730520E+02  0.00000000000E+00 0.  1.
         11    1    3    3    0    0  0.21038877480E+01  0.18396536764E+01  0.68287111969E-01  0.27955916540E+01  0.51100000000E-03 0.  1.
        -11    1    3    3    0    0 -0.65710254347E+01 -0.95748505427E+01 -0.34601450495E+02  0.36498171390E+02  0.51100000000E-03 0. -1.
        -12    1    3    3    0    0 -0.47758875868E+01 -0.11894431112E+01 -0.69221221031E+01  0.84935064353E+01  0.00000000000E+00 0.  1.
</event>
<event>
 7    1  0.2530788E-009  0.4778727E+02  0.7816164E-02  0.1312668E+00
        -11   -1    0    0    0    0  0.00000000000E+00  0.00000000000E+00  0.45593999997E+02  0.45594000000E+02  0.51100000000E-03 0.  1.
         11   -1    0    0    0    0 -0.00000000000E+00 -0.00000000000E+00 -0.45593999997E+02  0.45594000000E+02  0.51100000000E-03 0. -1.
    9900012    2    1    2    0    0  0.47808031985E+01 -0.24266778184E+02 -0.35663578918E+02  0.47787268855E+02  0.19999990018E+02 0.  0.
        -12    1    1    2    0    0 -0.47808031985E+01  0.24266778184E+02  0.35663578918E+02  0.43400731145E+02  0.00000000000E+00 0.  1.
         11    1    3    3    0    0  0.25438632585E+01 -0.16208046816E+02 -0.16571888877E+02  0.23319509495E+02  0.51100000000E-03 0. -1.
        -11    1    3    3    0    0  0.58826134287E+01  0.44913811556E+00 -0.58213428471E+01  0.82882385706E+01  0.51100000000E-03 0.  1.
        -12    1    3    3    0    0 -0.36456734888E+01 -0.85078694837E+01 -0.13270347194E+02  0.16179520790E+02  0.00000000000E+00 0.  1.
</event>
<event>
 7    1  0.2530788E-009  0.4778727E+02  0.7816164E-02  0.1312668E+00
        -11   -1    0    0    0    0  0.00000000000E+00  0.00000000000E+00  0.45593999997E+02  0.45594000000E+02  0.51100000000E-03 0.  1.
         11   -1    0    0    0    0 -0.00000000000E+00 -0.00000000000E+00 -0.45593999997E+02  0.45594000000E+02  0.51100000000E-03 0. -1.
    9900012    2    1    2    0    0  0.53657864728E+01  0.10625447953E+02 -0.41736450448E+02  0.47787272994E+02  0.20000008887E+02 0.  0.
        -12    1    1    2    0    0 -0.53657864728E+01 -0.10625447953E+02  0.41736450448E+02  0.43400727006E+02  0.00000000000E+00 0.  1.
         11    1    3    3    0    0 -0.81568964599E+00  0.71216416110E+01 -0.72404340422E+01  0.10188572727E+02  0.51100000000E-03 0. -1.
        -11    1    3    3    0    0  0.18725307917E+00 -0.47357545453E+01 -0.99143321469E+01  0.10988922468E+02  0.51100000000E-03 0.  1.
        -12    1    3    3    0    0  0.59942230396E+01  0.82395608871E+01 -0.24581684259E+02  0.26609777798E+02  0.00000000000E+00 0.  1.
</event>
<event>
 7    1  0.2530788E-009  0.4778727E+02  0.7816164E-02  0.1312668E+00
        -11   -1    0    0    0    0  0.00000000000E+00  0.00000000000E+00  0.45593999997E+02  0.45594000000E+02  0.51100000000E-03 0. -1.
         11   -1    0    0    0    0 -0.00000000000E+00 -0.00000000000E+00 -0.45593999997E+02  0.45594000000E+02  0.51100000000E-03 0.  1.
    9900012    2    1    2    0    0 -0.26953539739E+02 -0.32575988700E+02  0.97946400772E+01  0.47787270530E+02  0.19999997656E+02 0.  0.
        -12    1    1    2    0    0  0.26953539739E+02  0.32575988700E+02 -0.97946400772E+01  0.43400729470E+02  0.00000000000E+00 0.  1.
         11    1    3    3    0    0 -0.86384928130E+01 -0.21054819866E+01  0.76672186532E+01  0.11740649667E+02  0.51100000000E-03 0. -1.
        -11    1    3    3    0    0 -0.70162528716E+01 -0.16884208794E+02  0.35608267929E+00  0.18287457617E+02  0.51100000000E-03 0.  1.
         12    1    3    3    0    0 -0.11298794055E+02 -0.13586297919E+02  0.17713387448E+01  0.17759163246E+02  0.00000000000E+00 0. -1.
</event>
<event>
 7    1  0.2530788E-009  0.4778727E+02  0.7816164E-02  0.1312668E+00
        -11   -1    0    0    0    0  0.00000000000E+00  0.00000000000E+00  0.45593999997E+02  0.45594000000E+02  0.51100000000E-03 0.  1.
         11   -1    0    0    0    0 -0.00000000000E+00 -0.00000000000E+00 -0.45593999997E+02  0.45594000000E+02  0.51100000000E-03 0. -1.
    9900012    2    1    2    0    0  0.13789268284E+02 -0.12789017758E+02 -0.39114196391E+02  0.47787271270E+02  0.20000001028E+02 0.  0.
        -12    1    1    2    0    0 -0.13789268284E+02  0.12789017758E+02  0.39114196391E+02  0.43400728730E+02  0.00000000000E+00 0.  1.
         11    1    3    3    0    0  0.83373631444E+01 -0.59526908282E+01 -0.13355264756E+02  0.16831792812E+02  0.51100000000E-03 0. -1.
        -11    1    3    3    0    0 -0.49998509332E+00 -0.58962083295E+01 -0.17047329960E+01  0.61580331768E+01  0.51100000000E-03 0.  1.
        -12    1    3    3    0    0  0.59518902325E+01 -0.94011860008E+00 -0.24054198639E+02  0.24797445281E+02  0.00000000000E+00 0.  1.
</event>
<event>
 7    1  0.2530788E-009  0.4778727E+02  0.7816164E-02  0.1312668E+00
        -11   -1    0    0    0    0  0.00000000000E+00  0.00000000000E+00  0.45593999997E+02  0.45594000000E+02  0.51100000000E-03 0.  1.
         11   -1    0    0    0    0 -0.00000000000E+00 -0.00000000000E+00 -0.45593999997E+02  0.45594000000E+02  0.51100000000E-03 0. -1.
    9900012    2    1    2    0    0 -0.68716751312E+01 -0.36778903013E+02 -0.21993545365E+02  0.47787266554E+02  0.19999979527E+02 0.  0.
        -12    1    1    2    0    0  0.68716751312E+01  0.36778903013E+02  0.21993545365E+02  0.43400733446E+02  0.00000000000E+00 0.  1.
         11    1    3    3    0    0 -0.75956472030E+01 -0.12375963784E+02 -0.13536640938E+02  0.19851926459E+02  0.51100000000E-03 0. -1.
        -11    1    3    3    0    0 -0.19725586574E+01 -0.19757926276E+02 -0.26613575171E+01  0.20033708156E+02  0.51100000000E-03 0.  1.
        -12    1    3    3    0    0  0.26965307292E+01 -0.46450129529E+01 -0.57955469101E+01  0.79016319386E+01  0.00000000000E+00 0.  1.
</event>
<event>
 7    1  0.2530788E-009  0.4778727E+02  0.7816164E-02  0.1312668E+00
        -11   -1    0    0    0    0  0.00000000000E+00  0.00000000000E+00  0.45593999997E+02  0.45594000000E+02  0.51100000000E-03 0. -1.
         11   -1    0    0    0    0 -0.00000000000E+00 -0.00000000000E+00 -0.45593999997E+02  0.45594000000E+02  0.51100000000E-03 0.  1.
    9900012    2    1    2    0    0 -0.40883939973E+02  0.11505737498E+00 -0.14564125210E+02  0.47787268105E+02  0.19999986596E+02 0.  0.
        -12    1    1    2    0    0  0.40883939973E+02 -0.11505737498E+00  0.14564125210E+02  0.43400731895E+02  0.00000000000E+00 0.  1.
         11    1    3    3    0    0 -0.33236216073E+02  0.56315138792E+01 -0.14758195932E+02  0.36798972198E+02  0.51100000000E-03 0. -1.
        -11    1    3    3    0    0 -0.10461701654E+01 -0.45288168329E+00 -0.20723846900E+01  0.23652383386E+01  0.51100000000E-03 0.  1.
         12    1    3    3    0    0 -0.66015537348E+01 -0.50635748209E+01  0.22664554122E+01  0.86230575676E+01  0.00000000000E+00 0. -1.
</event>
<event>
 7    1  0.2530788E-009  0.4778727E+02  0.7816164E-02  0.1312668E+00
        -11   -1    0    0    0    0  0.00000000000E+00  0.00000000000E+00  0.45593999997E+02  0.45594000000E+02  0.51100000000E-03 0.  1.
         11   -1    0    0    0    0 -0.00000000000E+00 -0.00000000000E+00 -0.45593999997E+02  0.45594000000E+02  0.51100000000E-03 0. -1.
    9900012    2    1    2    0    0  0.28861453085E+02 -0.32380343788E+02 -0.14673584938E+01  0.47787270986E+02  0.19999999735E+02 0.  0.
        -12    1    1    2    0    0 -0.28861453085E+02  0.32380343788E+02  0.14673584938E+01  0.43400729014E+02  0.00000000000E+00 0.  1.
         11    1    3    3    0    0  0.12256364439E+02 -0.21754923984E+02 -0.25725097606E+01  0.25102051580E+02  0.51100000000E-03 0. -1.
        -11    1    3    3    0    0 -0.77316618526E+00  0.10022552959E+01  0.12446994405E+01  0.17752685956E+01  0.51100000000E-03 0.  1.
         12    1    3    3    0    0  0.17378254831E+02 -0.11627675099E+02 -0.13954817371E+00  0.20909950810E+02  0.00000000000E+00 0. -1.
</event>
<event>
 7    1  0.2530788E-009  0.4778727E+02  0.7816164E-02  0.1312668E+00
        -11   -1    0    0    0    0  0.00000000000E+00  0.00000000000E+00  0.45593999997E+02  0.45594000000E+02  0.51100000000E-03 0. -1.
         11   -1    0    0    0    0 -0.00000000000E+00 -0.00000000000E+00 -0.45593999997E+02  0.45594000000E+02  0.51100000000E-03 0.  1.
    9900012    2    1    2    0    0  0.75315385529E+01 -0.40720435367E+02  0.12990204712E+02  0.47787270191E+02  0.19999996109E+02 0.  0.
        -12    1    1    2    0    0 -0.75315385529E+01  0.40720435367E+02 -0.12990204712E+02  0.43400729809E+02  0.00000000000E+00 0.  1.
         11    1    3    3    0    0 -0.47437847110E+01 -0.11226760426E+02  0.49089173511E+01  0.13139296514E+02  0.51100000000E-03 0.  1.
        -11    1    3    3    0    0  0.89056502599E+01 -0.28874392360E+02  0.66785372910E+01  0.30945823649E+02  0.51100000000E-03 0. -1.
         12    1    3    3    0    0  0.33696730040E+01 -0.61928258073E+00  0.14027500704E+01  0.37021500278E+01  0.00000000000E+00 0. -1.
</event>
<event>
 7    1  0.2530788E-009  0.4778727E+02  0.7816164E-02  0.1312668E+00
        -11   -1    0    0    0    0  0.00000000000E+00  0.00000000000E+00  0.45593999997E+02  0.45594000000E+02  0.51100000000E-03 0.  1.
         11   -1    0    0    0    0 -0.00000000000E+00 -0.00000000000E+00 -0.45593999997E+02  0.45594000000E+02  0.51100000000E-03 0. -1.
    9900012    2    1    2    0    0  0.26643959139E+02  0.19295343318E+02 -0.28309232942E+02  0.47787268414E+02  0.19999988007E+02 0.  0.
        -12    1    1    2    0    0 -0.26643959139E+02 -0.19295343318E+02  0.28309232942E+02  0.43400731586E+02  0.00000000000E+00 0.  1.
         11    1    3    3    0    0  0.12109811699E+01  0.17766236718E+01 -0.10967361817E+02  0.11176130483E+02  0.51100000000E-03 0. -1.
        -11    1    3    3    0    0  0.13877873388E+02  0.10758176693E+02 -0.46523728551E+01  0.18165305089E+02  0.51100000000E-03 0.  1.
        -12    1    3    3    0    0  0.11555104581E+02  0.67605429537E+01 -0.12689498270E+02  0.18445832842E+02  0.00000000000E+00 0.  1.
</event>
<event>
 7    1  0.2530788E-009  0.4778728E+02  0.7816164E-02  0.1312668E+00
        -11   -1    0    0    0    0  0.00000000000E+00  0.00000000000E+00  0.45593999997E+02  0.45594000000E+02  0.51100000000E-03 0.  1.
         11   -1    0    0    0    0 -0.00000000000E+00 -0.00000000000E+00 -0.45593999997E+02  0.45594000000E+02  0.51100000000E-03 0. -1.
    9900012    2    1    2    0    0 -0.15705210639E+01 -0.11610387342E+02 -0.41789413588E+02  0.47787277441E+02  0.20000029164E+02 0.  0.
        -12    1    1    2    0    0  0.15705210639E+01  0.11610387342E+02  0.41789413588E+02  0.43400722559E+02  0.00000000000E+00 0.  1.
         11    1    3    3    0    0  0.49008116611E+01 -0.11593678922E+02 -0.19736629701E+02  0.23408671429E+02  0.51100000000E-03 0. -1.
        -11    1    3    3    0    0 -0.84082440630E+01  0.31155616058E+00 -0.17376876749E+02  0.19306772938E+02  0.51100000000E-03 0.  1.
        -12    1    3    3    0    0  0.19369113381E+01 -0.32826458123E+00 -0.46759071373E+01  0.50718330733E+01  0.00000000000E+00 0.  1.
</event>
<event>
 7    1  0.2530788E-009  0.4778727E+02  0.7816164E-02  0.1312668E+00
        -11   -1    0    0    0    0  0.00000000000E+00  0.00000000000E+00  0.45593999997E+02  0.45594000000E+02  0.51100000000E-03 0.  1.
         11   -1    0    0    0    0 -0.00000000000E+00 -0.00000000000E+00 -0.45593999997E+02  0.45594000000E+02  0.51100000000E-03 0. -1.
    9900012    2    1    2    0    0  0.11503395983E+01 -0.43267451982E+02  0.31980312295E+01  0.47787273210E+02  0.20000009873E+02 0.  0.
        -12    1    1    2    0    0 -0.11503395983E+01  0.43267451982E+02 -0.31980312295E+01  0.43400726790E+02  0.00000000000E+00 0.  1.
         11    1    3    3    0    0 -0.21014379671E+01 -0.12261479240E+02  0.34898944940E+01  0.12920498385E+02  0.51100000000E-03 0. -1.
        -11    1    3    3    0    0 -0.41977285729E+01 -0.75001875342E+01  0.45694365054E+01  0.97341403553E+01  0.51100000000E-03 0.  1.
        -12    1    3    3    0    0  0.74495061382E+01 -0.23505785207E+02 -0.48612997699E+01  0.25132634469E+02  0.00000000000E+00 0.  1.
</event>
<event>
 7    1  0.2530788E-009  0.4778727E+02  0.7816164E-02  0.1312668E+00
        -11   -1    0    0    0    0  0.00000000000E+00  0.00000000000E+00  0.45593999997E+02  0.45594000000E+02  0.51100000000E-03 0.  1.
         11   -1    0    0    0    0 -0.00000000000E+00 -0.00000000000E+00 -0.45593999997E+02  0.45594000000E+02  0.51100000000E-03 0. -1.
    9900012    2    1    2    0    0 -0.59132920866E+01  0.30388894117E+02 -0.30416627618E+02  0.47787272534E+02  0.20000006791E+02 0.  0.
        -12    1    1    2    0    0  0.59132920866E+01 -0.30388894117E+02  0.30416627618E+02  0.43400727466E+02  0.00000000000E+00 0.  1.
         11    1    3    3    0    0  0.53188737123E+01  0.79042142401E+01 -0.74054812777E+01  0.12066821186E+02  0.51100000000E-03 0. -1.
        -11    1    3    3    0    0 -0.10538849736E+02  0.13643249738E+02 -0.98651952225E+01  0.19862721218E+02  0.51100000000E-03 0.  1.
         12    1    3    3    0    0 -0.69331606318E+00  0.88414301386E+01 -0.13145951118E+02  0.15857730129E+02  0.00000000000E+00 0. -1.
</event>
<event>
 7    1  0.2530788E-009  0.4778727E+02  0.7816164E-02  0.1312668E+00
        -11   -1    0    0    0    0  0.00000000000E+00  0.00000000000E+00  0.45593999997E+02  0.45594000000E+02  0.51100000000E-03 0.  1.
         11   -1    0    0    0    0 -0.00000000000E+00 -0.00000000000E+00 -0.45593999997E+02  0.45594000000E+02  0.51100000000E-03 0. -1.
    9900012    2    1    2    0    0 -0.31901926920E+02 -0.40487820548E+01 -0.29146148783E+02  0.47787267677E+02  0.19999984644E+02 0.  0.
        -12    1    1    2    0    0  0.31901926920E+02  0.40487820548E+01  0.29146148783E+02  0.43400732323E+02  0.00000000000E+00 0.  1.
         11    1    3    3    0    0 -0.11682606482E+02 -0.77920631795E+01 -0.37682091424E+01  0.14539564753E+02  0.51100000000E-03 0. -1.
        -11    1    3    3    0    0  0.18513152461E-01  0.65147688698E+00 -0.23334194490E+01  0.24227281022E+01  0.51100000000E-03 0.  1.
         12    1    3    3    0    0 -0.20237833591E+02  0.30918042377E+01 -0.23044520191E+02  0.30824974822E+02  0.00000000000E+00 0. -1.
</event>
<event>
 7    1  0.2530788E-009  0.4778727E+02  0.7816164E-02  0.1312668E+00
        -11   -1    0    0    0    0  0.00000000000E+00  0.00000000000E+00  0.45593999997E+02  0.45594000000E+02  0.51100000000E-03 0. -1.
         11   -1    0    0    0    0 -0.00000000000E+00 -0.00000000000E+00 -0.45593999997E+02  0.45594000000E+02  0.51100000000E-03 0.  1.
    9900012    2    1    2    0    0  0.13071086252E+02 -0.52151532194E+01  0.41055723583E+02  0.47787267773E+02  0.19999985084E+02 0.  0.
        -12    1    1    2    0    0 -0.13071086252E+02  0.52151532194E+01 -0.41055723583E+02  0.43400732227E+02  0.00000000000E+00 0.  1.
         11    1    3    3    0    0 -0.34663679570E+01 -0.39192588309E+01  0.19972497371E+02  0.20646475440E+02  0.51100000000E-03 0. -1.
        -11    1    3    3    0    0  0.10811929159E+02 -0.23665108723E+01  0.11773208431E+02  0.16158793980E+02  0.51100000000E-03 0.  1.
         12    1    3    3    0    0  0.57255250494E+01  0.10706164838E+01  0.93100177812E+01  0.10981998353E+02  0.00000000000E+00 0. -1.
</event>
<event>
 7    1  0.2530788E-009  0.4778727E+02  0.7816164E-02  0.1312668E+00
        -11   -1    0    0    0    0  0.00000000000E+00  0.00000000000E+00  0.45593999997E+02  0.45594000000E+02  0.51100000000E-03 0. -1.
         11   -1    0    0    0    0 -0.00000000000E+00 -0.00000000000E+00 -0.45593999997E+02  0.45594000000E+02  0.51100000000E-03 0.  1.
    9900012    2    1    2    0    0 -0.25500167919E+02  0.31120164307E+02  0.16275743905E+02  0.47787273854E+02  0.20000012809E+02 0.  0.
        -12    1    1    2    0    0  0.25500167919E+02 -0.31120164307E+02 -0.16275743905E+02  0.43400726146E+02  0.00000000000E+00 0.  1.
         11    1    3    3    0    0 -0.12097014639E+02  0.74560670174E+01  0.13990019839E+02  0.19941197404E+02  0.51100000000E-03 0. -1.
        -11    1    3    3    0    0 -0.78829027102E+01  0.97346897252E+01 -0.78711317736E+00  0.12550852027E+02  0.51100000000E-03 0.  1.
         12    1    3    3    0    0 -0.55202505694E+01  0.13929407564E+02  0.30728372439E+01  0.15295224423E+02  0.00000000000E+00 0. -1.
</event>
<event>
 7    1  0.2530788E-009  0.4778727E+02  0.7816164E-02  0.1312668E+00
        -11   -1    0    0    0    0  0.00000000000E+00  0.00000000000E+00  0.45593999997E+02  0.45594000000E+02  0.51100000000E-03 0. -1.
         11   -1    0    0    0    0 -0.00000000000E+00 -0.00000000000E+00 -0.45593999997E+02  0.45594000000E+02  0.51100000000E-03 0.  1.
    9900012    2    1    2    0    0  0.13227671584E+02 -0.30720365831E+02  0.27657024267E+02  0.47787272314E+02  0.20000005790E+02 0.  0.
        -12    1    1    2    0    0 -0.13227671584E+02  0.30720365831E+02 -0.27657024267E+02  0.43400727686E+02  0.00000000000E+00 0.  1.
         11    1    3    3    0    0 -0.29843470369E+01  0.90179523257E+00  0.37416105649E+01  0.48702373411E+01  0.51100000000E-03 0.  1.
        -11    1    3    3    0    0  0.11475150375E+02 -0.19878195281E+02  0.16098765589E+02  0.28035548461E+02  0.51100000000E-03 0. -1.
        -12    1    3    3    0    0  0.47368682458E+01 -0.11743965783E+02  0.78166481129E+01  0.14881486512E+02  0.00000000000E+00 0.  1.
</event>
<event>
 7    1  0.2530788E-009  0.4778727E+02  0.7816164E-02  0.1312668E+00
        -11   -1    0    0    0    0  0.00000000000E+00  0.00000000000E+00  0.45593999997E+02  0.45594000000E+02  0.51100000000E-03 0. -1.
         11   -1    0    0    0    0 -0.00000000000E+00 -0.00000000000E+00 -0.45593999997E+02  0.45594000000E+02  0.51100000000E-03 0.  1.
    9900012    2    1    2    0    0  0.11434722745E+02 -0.18692458168E+02  0.37462819545E+02  0.47787265849E+02  0.19999976311E+02 0.  0.
        -12    1    1    2    0    0 -0.11434722745E+02  0.18692458168E+02 -0.37462819545E+02  0.43400734151E+02  0.00000000000E+00 0.  1.
         11    1    3    3    0    0  0.30242796185E+01 -0.70095289316E+01  0.28174007000E+02  0.29189971459E+02  0.51100000000E-03 0. -1.
        -11    1    3    3    0    0  0.43412739975E+01 -0.12043722261E+01  0.95832324240E+00  0.46060347457E+01  0.51100000000E-03 0.  1.
         12    1    3    3    0    0  0.40691691289E+01 -0.10478557010E+02  0.83304893023E+01  0.13991259644E+02  0.00000000000E+00 0. -1.
</event>
<event>
 7    1  0.2530788E-009  0.4778727E+02  0.7816164E-02  0.1312668E+00
        -11   -1    0    0    0    0  0.00000000000E+00  0.00000000000E+00  0.45593999997E+02  0.45594000000E+02  0.51100000000E-03 0. -1.
         11   -1    0    0    0    0 -0.00000000000E+00 -0.00000000000E+00 -0.45593999997E+02  0.45594000000E+02  0.51100000000E-03 0.  1.
    9900012    2    1    2    0    0  0.21619992311E+02 -0.22837997766E+02  0.29910278047E+02  0.47787274864E+02  0.20000017415E+02 0.  0.
        -12    1    1    2    0    0 -0.21619992311E+02  0.22837997766E+02 -0.29910278047E+02  0.43400725136E+02  0.00000000000E+00 0.  1.
         11    1    3    3    0    0 -0.14810795767E+01 -0.79054189630E+01  0.14397334083E+01  0.81708064621E+01  0.51100000000E-03 0.  1.
        -11    1    3    3    0    0  0.18616286982E+02 -0.11806022262E+02  0.21973446670E+02  0.31125241549E+02  0.51100000000E-03 0. -1.
        -12    1    3    3    0    0  0.44847849055E+01 -0.31265565408E+01  0.64970979693E+01  0.84912268533E+01  0.00000000000E+00 0.  1.
</event>
<event>
 7    1  0.2530788E-009  0.4778729E+02  0.7816164E-02  0.1312668E+00
        -11   -1    0    0    0    0  0.00000000000E+00  0.00000000000E+00  0.45593999997E+02  0.45594000000E+02  0.51100000000E-03 0. -1.
         11   -1    0    0    0    0 -0.00000000000E+00 -0.00000000000E+00 -0.45593999997E+02  0.45594000000E+02  0.51100000000E-03 0.  1.
    9900012    2    1    2    0    0  0.25625766910E+01  0.42556628549E+02  0.81232940548E+01  0.47787293334E+02  0.20000101629E+02 0.  0.
        -12    1    1    2    0    0 -0.25625766910E+01 -0.42556628549E+02 -0.81232940548E+01  0.43400706666E+02  0.00000000000E+00 0.  1.
         11    1    3    3    0    0 -0.63572182045E+01  0.91222916065E+01  0.16883215750E+01  0.11246370857E+02  0.51100000000E-03 0. -1.
        -11    1    3    3    0    0  0.62924250551E+01  0.27016353608E+02  0.10475435177E+01  0.27759238517E+02  0.51100000000E-03 0.  1.
         12    1    3    3    0    0  0.26273698404E+01  0.64179833350E+01  0.53874289621E+01  0.87816839608E+01  0.00000000000E+00 0. -1.
</event>
<event>
 7    1  0.2530788E-009  0.4778727E+02  0.7816164E-02  0.1312668E+00
        -11   -1    0    0    0    0  0.00000000000E+00  0.00000000000E+00  0.45593999997E+02  0.45594000000E+02  0.51100000000E-03 0. -1.
         11   -1    0    0    0    0 -0.00000000000E+00 -0.00000000000E+00 -0.45593999997E+02  0.45594000000E+02  0.51100000000E-03 0.  1.
    9900012    2    1    2    0    0 -0.14732207091E+02  0.17207612080E+02  0.37020041855E+02  0.47787270303E+02  0.19999996619E+02 0.  0.
        -12    1    1    2    0    0  0.14732207091E+02 -0.17207612080E+02 -0.37020041855E+02  0.43400729697E+02  0.00000000000E+00 0.  1.
         11    1    3    3    0    0 -0.24845808680E+01  0.59391014770E+01  0.90336193629E+01  0.11092896263E+02  0.51100000000E-03 0. -1.
        -11    1    3    3    0    0 -0.98174877299E+01  0.32707921959E+01  0.26168481324E+02  0.28140194775E+02  0.51100000000E-03 0.  1.
        -12    1    3    3    0    0 -0.24301384932E+01  0.79977184068E+01  0.18179411690E+01  0.85541792653E+01  0.00000000000E+00 0.  1.
</event>
<event>
 7    1  0.2530788E-009  0.4778727E+02  0.7816164E-02  0.1312668E+00
        -11   -1    0    0    0    0  0.00000000000E+00  0.00000000000E+00  0.45593999997E+02  0.45594000000E+02  0.51100000000E-03 0.  1.
         11   -1    0    0    0    0 -0.00000000000E+00 -0.00000000000E+00 -0.45593999997E+02  0.45594000000E+02  0.51100000000E-03 0. -1.
    9900012    2    1    2    0    0 -0.42490354402E+02 -0.66847779445E+00  0.88173787487E+01  0.47787271345E+02  0.20000001371E+02 0.  0.
        -12    1    1    2    0    0  0.42490354402E+02  0.66847779445E+00 -0.88173787487E+01  0.43400728655E+02  0.00000000000E+00 0.  1.
         11    1    3    3    0    0 -0.96403921093E+01 -0.61398056131E+01  0.27764653247E+00  0.11432911302E+02  0.51100000000E-03 0. -1.
        -11    1    3    3    0    0 -0.20701784776E+02  0.70998935965E+01  0.99034423874E+01  0.24021876558E+02  0.51100000000E-03 0.  1.
        -12    1    3    3    0    0 -0.12148177517E+02 -0.16285657779E+01 -0.13637101711E+01  0.12332483485E+02  0.00000000000E+00 0.  1.
</event>
<event>
 7    1  0.2530788E-009  0.4778727E+02  0.7816164E-02  0.1312668E+00
        -11   -1    0    0    0    0  0.00000000000E+00  0.00000000000E+00  0.45593999997E+02  0.45594000000E+02  0.51100000000E-03 0.  1.
         11   -1    0    0    0    0 -0.00000000000E+00 -0.00000000000E+00 -0.45593999997E+02  0.45594000000E+02  0.51100000000E-03 0. -1.
    9900012    2    1    2    0    0  0.33310190629E+02 -0.62133237533E+01 -0.27119164258E+02  0.47787271183E+02  0.20000000631E+02 0.  0.
        -12    1    1    2    0    0 -0.33310190629E+02  0.62133237533E+01  0.27119164258E+02  0.43400728817E+02  0.00000000000E+00 0.  1.
         11    1    3    3    0    0  0.26165772056E+02 -0.53858103255E+01 -0.27157679452E+02  0.38094542045E+02  0.51100000000E-03 0. -1.
        -11    1    3    3    0    0  0.22246871398E+01  0.27155113243E+01 -0.71754798485E+00  0.35830308391E+01  0.51100000000E-03 0.  1.
         12    1    3    3    0    0  0.49197314337E+01 -0.35430247521E+01  0.75606317901E+00  0.61096982990E+01  0.00000000000E+00 0. -1.
</event>
<event>
 7    1  0.2530788E-009  0.4778728E+02  0.7816164E-02  0.1312668E+00
        -11   -1    0    0    0    0  0.00000000000E+00  0.00000000000E+00  0.45593999997E+02  0.45594000000E+02  0.51100000000E-03 0.  1.
         11   -1    0    0    0    0 -0.00000000000E+00 -0.00000000000E+00 -0.45593999997E+02  0.45594000000E+02  0.51100000000E-03 0. -1.
    9900012    2    1    2    0    0 -0.35138616393E+02  0.24991583307E+02 -0.49316572296E+01  0.47787276029E+02  0.20000022727E+02 0.  0.
        -12    1    1    2    0    0  0.35138616393E+02 -0.24991583307E+02  0.49316572296E+01  0.43400723971E+02  0.00000000000E+00 0.  1.
         11    1    3    3    0    0 -0.59779574987E+01 -0.33662591275E+00 -0.67480784665E+01  0.90214109824E+01  0.51100000000E-03 0. -1.
        -11    1    3    3    0    0 -0.14636170518E+02  0.13911407936E+02  0.19911183774E+01  0.20290621254E+02  0.51100000000E-03 0.  1.
         12    1    3    3    0    0 -0.14524488376E+02  0.11416801283E+02 -0.17469714051E+00  0.18475243793E+02  0.00000000000E+00 0. -1.
</event>
<event>
 7    1  0.2530788E-009  0.4778727E+02  0.7816164E-02  0.1312668E+00
        -11   -1    0    0    0    0  0.00000000000E+00  0.00000000000E+00  0.45593999997E+02  0.45594000000E+02  0.51100000000E-03 0.  1.
         11   -1    0    0    0    0 -0.00000000000E+00 -0.00000000000E+00 -0.45593999997E+02  0.45594000000E+02  0.51100000000E-03 0. -1.
    9900012    2    1    2    0    0  0.10847724970E+02  0.33748492141E+02 -0.25039758212E+02  0.47787270166E+02  0.19999995993E+02 0.  0.
        -12    1    1    2    0    0 -0.10847724970E+02 -0.33748492141E+02  0.25039758212E+02  0.43400729834E+02  0.00000000000E+00 0.  1.
         11    1    3    3    0    0  0.44979647295E+00  0.86445814128E+01 -0.10075883020E+01  0.87147196810E+01  0.51100000000E-03 0.  1.
        -11    1    3    3    0    0  0.10097757263E+02  0.12414873280E+02 -0.20286822814E+02  0.25838904010E+02  0.51100000000E-03 0. -1.
         12    1    3    3    0    0  0.30017123401E+00  0.12689037449E+02 -0.37453470967E+01  0.13233646475E+02  0.00000000000E+00 0. -1.
</event>
<event>
 7    1  0.2530788E-009  0.4778727E+02  0.7816164E-02  0.1312668E+00
        -11   -1    0    0    0    0  0.00000000000E+00  0.00000000000E+00  0.45593999997E+02  0.45594000000E+02  0.51100000000E-03 0.  1.
         11   -1    0    0    0    0 -0.00000000000E+00 -0.00000000000E+00 -0.45593999997E+02  0.45594000000E+02  0.51100000000E-03 0. -1.
    9900012    2    1    2    0    0  0.25571977222E+02  0.63803081677E+01 -0.34481718886E+02  0.47787270873E+02  0.19999999220E+02 0.  0.
        -12    1    1    2    0    0 -0.25571977222E+02 -0.63803081677E+01  0.34481718886E+02  0.43400729127E+02  0.00000000000E+00 0.  1.
         11    1    3    3    0    0 -0.21596318114E+00  0.35545358460E+00  0.12725840960E+01  0.13388270571E+01  0.51100000000E-03 0.  1.
        -11    1    3    3    0    0  0.14341700881E+02  0.89520769822E+01 -0.26531814430E+02  0.31460471129E+02  0.51100000000E-03 0. -1.
        -12    1    3    3    0    0  0.11446239522E+02 -0.29272223991E+01 -0.92224885520E+01  0.14987972687E+02  0.00000000000E+00 0.  1.
</event>
<event>
 7    1  0.2530788E-009  0.4778727E+02  0.7816164E-02  0.1312668E+00
        -11   -1    0    0    0    0  0.00000000000E+00  0.00000000000E+00  0.45593999997E+02  0.45594000000E+02  0.51100000000E-03 0.  1.
         11   -1    0    0    0    0 -0.00000000000E+00 -0.00000000000E+00 -0.45593999997E+02  0.45594000000E+02  0.51100000000E-03 0. -1.
    9900012    2    1    2    0    0 -0.19565382469E+01 -0.39280323640E+02 -0.18353523811E+02  0.47787266095E+02  0.19999977434E+02 0.  0.
        -12    1    1    2    0    0  0.19565382469E+01  0.39280323640E+02  0.18353523811E+02  0.43400733905E+02  0.00000000000E+00 0.  1.
         11    1    3    3    0    0  0.45602780933E+01 -0.16712347079E+02 -0.37549244783E+01  0.17725635088E+02  0.51100000000E-03 0. -1.
        -11    1    3    3    0    0 -0.76657363906E+01 -0.20207669145E+02 -0.16178883815E+02  0.26997586715E+02  0.51100000000E-03 0.  1.
         12    1    3    3    0    0  0.11489200505E+01 -0.23603074153E+01  0.15802844815E+01  0.30640442914E+01  0.00000000000E+00 0. -1.
</event>
<event>
 7    1  0.2530788E-009  0.4778727E+02  0.7816164E-02  0.1312668E+00
        -11   -1    0    0    0    0  0.00000000000E+00  0.00000000000E+00  0.45593999997E+02  0.45594000000E+02  0.51100000000E-03 0.  1.
         11   -1    0    0    0    0 -0.00000000000E+00 -0.00000000000E+00 -0.45593999997E+02  0.45594000000E+02  0.51100000000E-03 0. -1.
    9900012    2    1    2    0    0 -0.30579327345E+02 -0.82465606193E+01 -0.29673595003E+02  0.47787271166E+02  0.20000000555E+02 0.  0.
        -12    1    1    2    0    0  0.30579327345E+02  0.82465606193E+01  0.29673595003E+02  0.43400728834E+02  0.00000000000E+00 0.  1.
         11    1    3    3    0    0 -0.68392753826E+01 -0.97983853312E+01 -0.72527684549E+01  0.13978079030E+02  0.51100000000E-03 0.  1.
        -11    1    3    3    0    0 -0.42189687029E+01 -0.28084886888E+01 -0.28001848594E+01  0.57903662353E+01  0.51100000000E-03 0. -1.
         12    1    3    3    0    0 -0.19521083259E+02  0.43603134008E+01 -0.19620641689E+02  0.28018825901E+02  0.00000000000E+00 0. -1.
</event>
<event>
 7    1  0.2530788E-009  0.4778727E+02  0.7816164E-02  0.1312668E+00
        -11   -1    0    0    0    0  0.00000000000E+00  0.00000000000E+00  0.45593999997E+02  0.45594000000E+02  0.51100000000E-03 0. -1.
         11   -1    0    0    0    0 -0.00000000000E+00 -0.00000000000E+00 -0.45593999997E+02  0.45594000000E+02  0.51100000000E-03 0.  1.
    9900012    2    1    2    0    0 -0.14204854387E+02 -0.38217410076E+02 -0.14875318205E+02  0.47787269444E+02  0.19999992705E+02 0.  0.
        -12    1    1    2    0    0  0.14204854387E+02  0.38217410076E+02  0.14875318205E+02  0.43400730556E+02  0.00000000000E+00 0.  1.
         11    1    3    3    0    0 -0.66192057420E+01 -0.20290317226E+02 -0.13211029840E+02  0.25100640778E+02  0.51100000000E-03 0. -1.
        -11    1    3    3    0    0 -0.12326599105E+01  0.44328520196E+00  0.24865492170E+01  0.28104945286E+01  0.51100000000E-03 0.  1.
         12    1    3    3    0    0 -0.63529887348E+01 -0.18370378052E+02 -0.41508375819E+01  0.19876134138E+02  0.00000000000E+00 0. -1.
</event>
<event>
 7    1  0.2530788E-009  0.4778727E+02  0.7816164E-02  0.1312668E+00
        -11   -1    0    0    0    0  0.00000000000E+00  0.00000000000E+00  0.45593999997E+02  0.45594000000E+02  0.51100000000E-03 0. -1.
         11   -1    0    0    0    0 -0.00000000000E+00 -0.00000000000E+00 -0.45593999997E+02  0.45594000000E+02  0.51100000000E-03 0.  1.
    9900012    2    1    2    0    0 -0.18161783718E+02 -0.38867984356E+02 -0.65614425876E+01  0.47787272765E+02  0.20000007845E+02 0.  0.
        -12    1    1    2    0    0  0.18161783718E+02  0.38867984356E+02  0.65614425876E+01  0.43400727235E+02  0.00000000000E+00 0.  1.
         11    1    3    3    0    0 -0.58295450069E+01 -0.73736614369E+01 -0.19555575322E+01  0.96009730495E+01  0.51100000000E-03 0.  1.
        -11    1    3    3    0    0 -0.14408763665E+02 -0.14024490857E+02 -0.46417055732E+00  0.20112540086E+02  0.51100000000E-03 0. -1.
        -12    1    3    3    0    0  0.20765249541E+01 -0.17469832062E+02 -0.41417144981E+01  0.18073759629E+02  0.00000000000E+00 0.  1.
</event>
<event>
 7    1  0.2530788E-009  0.4778727E+02  0.7816164E-02  0.1312668E+00
        -11   -1    0    0    0    0  0.00000000000E+00  0.00000000000E+00  0.45593999997E+02  0.45594000000E+02  0.51100000000E-03 0.  1.
         11   -1    0    0    0    0 -0.00000000000E+00 -0.00000000000E+00 -0.45593999997E+02  0.45594000000E+02  0.51100000000E-03 0. -1.
    9900012    2    1    2    0    0 -0.12839645612E+01 -0.41560409854E+02 -0.12438136852E+02  0.47787268663E+02  0.19999989143E+02 0.  0.
        -12    1    1    2    0    0  0.12839645612E+01  0.41560409854E+02  0.12438136852E+02  0.43400731337E+02  0.00000000000E+00 0.  1.
         11    1    3    3    0    0 -0.24606669739E+01 -0.21966893198E+02 -0.15932535364E+00  0.22104856108E+02  0.51100000000E-03 0. -1.
        -11    1    3    3    0    0  0.25638828419E+01 -0.19723503720E+01 -0.61956198618E+01  0.69892322146E+01  0.51100000000E-03 0.  1.
         12    1    3    3    0    0 -0.13871804293E+01 -0.17621166284E+02 -0.60831916362E+01  0.18693180341E+02  0.00000000000E+00 0. -1.
</event>
<event>
 7    1  0.2530788E-009  0.4778728E+02  0.7816164E-02  0.1312668E+00
        -11   -1    0    0    0    0  0.00000000000E+00  0.00000000000E+00  0.45593999997E+02  0.45594000000E+02  0.51100000000E-03 0.  1.
         11   -1    0    0    0    0 -0.00000000000E+00 -0.00000000000E+00 -0.45593999997E+02  0.45594000000E+02  0.51100000000E-03 0. -1.
    9900012    2    1    2    0    0  0.17441620833E+02 -0.38517602087E+02  0.97880721989E+01  0.47787283817E+02  0.20000058235E+02 0.  0.
        -12    1    1    2    0    0 -0.17441620833E+02  0.38517602087E+02 -0.97880721989E+01  0.43400716183E+02  0.00000000000E+00 0.  1.
         11    1    3    3    0    0  0.75590051315E+01 -0.18960150113E+02 -0.16996894654E+01  0.20482060331E+02  0.51100000000E-03 0. -1.
        -11    1    3    3    0    0  0.15005354750E+01 -0.75166580914E+01  0.99409340312E+01  0.12552845305E+02  0.51100000000E-03 0.  1.
        -12    1    3    3    0    0  0.83820802262E+01 -0.12040793883E+02  0.15468276330E+01  0.14752378181E+02  0.00000000000E+00 0.  1.
</event>
<event>
 7    1  0.2530788E-009  0.4778727E+02  0.7816164E-02  0.1312668E+00
        -11   -1    0    0    0    0  0.00000000000E+00  0.00000000000E+00  0.45593999997E+02  0.45594000000E+02  0.51100000000E-03 0.  1.
         11   -1    0    0    0    0 -0.00000000000E+00 -0.00000000000E+00 -0.45593999997E+02  0.45594000000E+02  0.51100000000E-03 0. -1.
    9900012    2    1    2    0    0  0.10009014087E+02  0.32831991447E+02 -0.26561311364E+02  0.47787270897E+02  0.19999999326E+02 0.  0.
        -12    1    1    2    0    0 -0.10009014087E+02 -0.32831991447E+02  0.26561311364E+02  0.43400729103E+02  0.00000000000E+00 0.  1.
         11    1    3    3    0    0  0.72235658939E+01  0.17171869923E+02 -0.39047703637E+01  0.19034186422E+02  0.51100000000E-03 0. -1.
        -11    1    3    3    0    0  0.81737631126E+00 -0.44379482855E+00 -0.55243263698E-01  0.93172418846E+00  0.51100000000E-03 0.  1.
         12    1    3    3    0    0  0.19680718817E+01  0.16103916352E+02 -0.22601297737E+02  0.27821360286E+02  0.00000000000E+00 0. -1.
</event>
<event>
 7    1  0.2530788E-009  0.4778727E+02  0.7816164E-02  0.1312668E+00
        -11   -1    0    0    0    0  0.00000000000E+00  0.00000000000E+00  0.45593999997E+02  0.45594000000E+02  0.51100000000E-03 0.  1.
         11   -1    0    0    0    0 -0.00000000000E+00 -0.00000000000E+00 -0.45593999997E+02  0.45594000000E+02  0.51100000000E-03 0. -1.
    9900012    2    1    2    0    0 -0.29692903556E+02  0.30891644274E+02  0.69037098434E+01  0.47787269394E+02  0.19999992476E+02 0.  0.
        -12    1    1    2    0    0  0.29692903556E+02 -0.30891644274E+02 -0.69037098434E+01  0.43400730606E+02  0.00000000000E+00 0.  1.
         11    1    3    3    0    0 -0.13337364749E+02  0.21140788035E+02  0.74330236921E+01  0.26078114553E+02  0.51100000000E-03 0. -1.
        -11    1    3    3    0    0 -0.25642525631E+00  0.48711534241E+01  0.15996973500E-01  0.48779243288E+01  0.51100000000E-03 0.  1.
         12    1    3    3    0    0 -0.16099113550E+02  0.48797028151E+01 -0.54531082222E+00  0.16831230512E+02  0.00000000000E+00 0. -1.
</event>
<event>
 7    1  0.2530788E-009  0.4778727E+02  0.7816164E-02  0.1312668E+00
        -11   -1    0    0    0    0  0.00000000000E+00  0.00000000000E+00  0.45593999997E+02  0.45594000000E+02  0.51100000000E-03 0. -1.
         11   -1    0    0    0    0 -0.00000000000E+00 -0.00000000000E+00 -0.45593999997E+02  0.45594000000E+02  0.51100000000E-03 0.  1.
    9900012    2    1    2    0    0  0.30930576084E+02  0.19843095580E+02  0.23090568332E+02  0.47787270456E+02  0.19999997315E+02 0.  0.
        -12    1    1    2    0    0 -0.30930576084E+02 -0.19843095580E+02 -0.23090568332E+02  0.43400729544E+02  0.00000000000E+00 0.  1.
         11    1    3    3    0    0 -0.10050813553E+01 -0.13937359470E+01  0.91936553443E+00  0.19488257151E+01  0.51100000000E-03 0.  1.
        -11    1    3    3    0    0  0.32665193395E+02  0.19329509277E+02  0.21774695596E+02  0.43758223878E+02  0.51100000000E-03 0. -1.
         12    1    3    3    0    0 -0.72953595541E+00  0.19073222498E+01  0.39650720194E+00  0.20802208623E+01  0.00000000000E+00 0. -1.
</event>
<event>
 7    1  0.2530788E-009  0.4778727E+02  0.7816164E-02  0.1312668E+00
        -11   -1    0    0    0    0  0.00000000000E+00  0.00000000000E+00  0.45593999997E+02  0.45594000000E+02  0.51100000000E-03 0. -1.
         11   -1    0    0    0    0 -0.00000000000E+00 -0.00000000000E+00 -0.45593999997E+02  0.45594000000E+02  0.51100000000E-03 0.  1.
    9900012    2    1    2    0    0  0.16327521013E+02 -0.79571280673E+01  0.39417247043E+02  0.47787271966E+02  0.20000004200E+02 0.  0.
        -12    1    1    2    0    0 -0.16327521013E+02  0.79571280673E+01 -0.39417247043E+02  0.43400728034E+02  0.00000000000E+00 0.  1.
         11    1    3    3    0    0  0.10191270610E+02 -0.82883738874E+01  0.37597976889E+02  0.39826712201E+02  0.51100000000E-03 0. -1.
        -11    1    3    3    0    0  0.55860440661E+01 -0.12902393642E-01 -0.44631306164E+00  0.56038603115E+01  0.51100000000E-03 0.  1.
         12    1    3    3    0    0  0.55020633650E+00  0.34414821374E+00  0.22655832151E+01  0.23566994527E+01  0.00000000000E+00 0. -1.
</event>
<event>
 7    1  0.2530788E-009  0.4778727E+02  0.7816164E-02  0.1312668E+00
        -11   -1    0    0    0    0  0.00000000000E+00  0.00000000000E+00  0.45593999997E+02  0.45594000000E+02  0.51100000000E-03 0.  1.
         11   -1    0    0    0    0 -0.00000000000E+00 -0.00000000000E+00 -0.45593999997E+02  0.45594000000E+02  0.51100000000E-03 0. -1.
    9900012    2    1    2    0    0  0.58425109745E+01  0.41978794572E+02  0.93418016897E+01  0.47787269741E+02  0.19999994057E+02 0.  0.
        -12    1    1    2    0    0 -0.58425109745E+01 -0.41978794572E+02 -0.93418016897E+01  0.43400730259E+02  0.00000000000E+00 0.  1.
         11    1    3    3    0    0 -0.16869358595E+00  0.32652513685E+02  0.47237331678E+01  0.32992859269E+02  0.51100000000E-03 0.  1.
        -11    1    3    3    0    0  0.50918418196E+01  0.54079847631E+01  0.69251602347E+01  0.10155343266E+02  0.51100000000E-03 0. -1.
         12    1    3    3    0    0  0.91936274077E+00  0.39182961241E+01 -0.23070917128E+01  0.46390672055E+01  0.00000000000E+00 0. -1.
</event>
<event>
 7    1  0.2530788E-009  0.4778727E+02  0.7816164E-02  0.1312668E+00
        -11   -1    0    0    0    0  0.00000000000E+00  0.00000000000E+00  0.45593999997E+02  0.45594000000E+02  0.51100000000E-03 0.  1.
         11   -1    0    0    0    0 -0.00000000000E+00 -0.00000000000E+00 -0.45593999997E+02  0.45594000000E+02  0.51100000000E-03 0. -1.
    9900012    2    1    2    0    0 -0.73613907828E+01  0.42683566841E+02 -0.27470312911E+01  0.47787272662E+02  0.20000007376E+02 0.  0.
        -12    1    1    2    0    0  0.73613907828E+01 -0.42683566841E+02  0.27470312911E+01  0.43400727338E+02  0.00000000000E+00 0.  1.
         11    1    3    3    0    0 -0.25520032132E+01  0.27083086869E+02 -0.61866691148E+01  0.27897691477E+02  0.51100000000E-03 0. -1.
        -11    1    3    3    0    0 -0.74182095173E+01  0.11734394598E+02  0.53115324344E+01  0.14863990920E+02  0.51100000000E-03 0.  1.
        -12    1    3    3    0    0  0.26088219477E+01  0.38660853744E+01 -0.18718946108E+01  0.50255902649E+01  0.00000000000E+00 0.  1.
</event>
<event>
 7    1  0.2530788E-009  0.4778727E+02  0.7816164E-02  0.1312668E+00
        -11   -1    0    0    0    0  0.00000000000E+00  0.00000000000E+00  0.45593999997E+02  0.45594000000E+02  0.51100000000E-03 0.  1.
         11   -1    0    0    0    0 -0.00000000000E+00 -0.00000000000E+00 -0.45593999997E+02  0.45594000000E+02  0.51100000000E-03 0. -1.
    9900012    2    1    2    0    0  0.43158853748E+01  0.44180895709E+01 -0.42959011467E+02  0.47787273644E+02  0.20000011851E+02 0.  0.
        -12    1    1    2    0    0 -0.43158853748E+01 -0.44180895709E+01  0.42959011467E+02  0.43400726356E+02  0.00000000000E+00 0.  1.
         11    1    3    3    0    0  0.87464335260E+01  0.51541424122E+01 -0.14842495768E+02  0.17982351468E+02  0.51100000000E-03 0. -1.
        -11    1    3    3    0    0 -0.45477115069E+01 -0.17954006009E+01 -0.28303621989E+02  0.28722816039E+02  0.51100000000E-03 0.  1.
        -12    1    3    3    0    0  0.11716335570E+00  0.10593477595E+01  0.18710628971E+00  0.10821061368E+01  0.00000000000E+00 0.  1.
</event>
<event>
 7    1  0.2530788E-009  0.4778727E+02  0.7816164E-02  0.1312668E+00
        -11   -1    0    0    0    0  0.00000000000E+00  0.00000000000E+00  0.45593999997E+02  0.45594000000E+02  0.51100000000E-03 0.  1.
         11   -1    0    0    0    0 -0.00000000000E+00 -0.00000000000E+00 -0.45593999997E+02  0.45594000000E+02  0.51100000000E-03 0. -1.
    9900012    2    1    2    0    0 -0.26917951765E+02  0.67033044977E+01 -0.33378327917E+02  0.47787271976E+02  0.20000004249E+02 0.  0.
        -12    1    1    2    0    0  0.26917951765E+02 -0.67033044977E+01  0.33378327917E+02  0.43400728024E+02  0.00000000000E+00 0.  1.
         11    1    3    3    0    0  0.51471257830E-01  0.60475090428E+01 -0.59457320277E+01  0.84809636551E+01  0.51100000000E-03 0. -1.
        -11    1    3    3    0    0 -0.33282276370E+01 -0.79269111754E+00 -0.52880798265E+00  0.34619498198E+01  0.51100000000E-03 0.  1.
         12    1    3    3    0    0 -0.23641195386E+02  0.14484865725E+01 -0.26903787907E+02  0.35844358501E+02  0.00000000000E+00 0. -1.
</event>
<event>
 7    1  0.2530788E-009  0.4778727E+02  0.7816164E-02  0.1312668E+00
        -11   -1    0    0    0    0  0.00000000000E+00  0.00000000000E+00  0.45593999997E+02  0.45594000000E+02  0.51100000000E-03 0.  1.
         11   -1    0    0    0    0 -0.00000000000E+00 -0.00000000000E+00 -0.45593999997E+02  0.45594000000E+02  0.51100000000E-03 0. -1.
    9900012    2    1    2    0    0 -0.96730398165E+01 -0.10693424495E+02 -0.40935393951E+02  0.47787268386E+02  0.19999987878E+02 0.  0.
        -12    1    1    2    0    0  0.96730398165E+01  0.10693424495E+02  0.40935393951E+02  0.43400731614E+02  0.00000000000E+00 0.  1.
         11    1    3    3    0    0 -0.42030993607E+00 -0.69518104964E+00 -0.13085732022E+02  0.13110923687E+02  0.51100000000E-03 0. -1.
        -11    1    3    3    0    0 -0.11378619402E+02 -0.12306406292E+02 -0.26274481603E+02  0.31165188899E+02  0.51100000000E-03 0.  1.
        -12    1    3    3    0    0  0.21258895220E+01  0.23081628470E+01 -0.15751803270E+01  0.35111557997E+01  0.00000000000E+00 0.  1.
</event>
<event>
 7    1  0.2530788E-009  0.4778728E+02  0.7816164E-02  0.1312668E+00
        -11   -1    0    0    0    0  0.00000000000E+00  0.00000000000E+00  0.45593999997E+02  0.45594000000E+02  0.51100000000E-03 0. -1.
         11   -1    0    0    0    0 -0.00000000000E+00 -0.00000000000E+00 -0.45593999997E+02  0.45594000000E+02  0.51100000000E-03 0.  1.
    9900012    2    1    2    0    0  0.11045143200E+02  0.34278779653E+02  0.24219670504E+02  0.47787281548E+02  0.20000047890E+02 0.  0.
        -12    1    1    2    0    0 -0.11045143200E+02 -0.34278779653E+02 -0.24219670504E+02  0.43400718452E+02  0.00000000000E+00 0.  1.
         11    1    3    3    0    0  0.10262655514E+02  0.32149968632E+02  0.20148580979E+02  0.39305316396E+02  0.51100000000E-03 0. -1.
        -11    1    3    3    0    0 -0.29633765867E+01 -0.11391178026E+00  0.94583313124E+00  0.31127443296E+01  0.51100000000E-03 0.  1.
         12    1    3    3    0    0  0.37458642727E+01  0.22427228015E+01  0.31252563934E+01  0.53692208223E+01  0.00000000000E+00 0. -1.
</event>
<event>
 7    1  0.2530788E-009  0.4778728E+02  0.7816164E-02  0.1312668E+00
        -11   -1    0    0    0    0  0.00000000000E+00  0.00000000000E+00  0.45593999997E+02  0.45594000000E+02  0.51100000000E-03 0. -1.
         11   -1    0    0    0    0 -0.00000000000E+00 -0.00000000000E+00 -0.45593999997E+02  0.45594000000E+02  0.51100000000E-03 0.  1.
    9900012    2    1    2    0    0  0.22874603161E+01  0.34520873234E+02  0.26204953916E+02  0.47787276811E+02  0.20000026292E+02 0.  0.
        -12    1    1    2    0    0 -0.22874603161E+01 -0.34520873234E+02 -0.26204953916E+02  0.43400723189E+02  0.00000000000E+00 0.  1.
         11    1    3    3    0    0  0.61830550331E+01  0.15272997267E+02  0.18808789897E+02  0.25005303292E+02  0.51100000000E-03 0. -1.
        -11    1    3    3    0    0 -0.56395040225E+01  0.15432496878E+02  0.84219424880E+01  0.18463344254E+02  0.51100000000E-03 0.  1.
         12    1    3    3    0    0  0.17439093055E+01  0.38153790892E+01 -0.10257784688E+01  0.43186292649E+01  0.00000000000E+00 0. -1.
</event>
<event>
 7    1  0.2530788E-009  0.4778727E+02  0.7816164E-02  0.1312668E+00
        -11   -1    0    0    0    0  0.00000000000E+00  0.00000000000E+00  0.45593999997E+02  0.45594000000E+02  0.51100000000E-03 0.  1.
         11   -1    0    0    0    0 -0.00000000000E+00 -0.00000000000E+00 -0.45593999997E+02  0.45594000000E+02  0.51100000000E-03 0. -1.
    9900012    2    1    2    0    0 -0.42979020745E+02  0.24923425007E+01 -0.54968283595E+01  0.47787272848E+02  0.20000008222E+02 0.  0.
        -12    1    1    2    0    0  0.42979020745E+02 -0.24923425007E+01  0.54968283595E+01  0.43400727152E+02  0.00000000000E+00 0.  1.
         11    1    3    3    0    0 -0.28025440336E+02  0.10065845574E+01 -0.77324229861E+01  0.29090013475E+02  0.51100000000E-03 0. -1.
        -11    1    3    3    0    0 -0.96330765260E+01  0.10227694358E+01 -0.40058299428E+01  0.10482790395E+02  0.51100000000E-03 0.  1.
         12    1    3    3    0    0 -0.53205038829E+01  0.46298850751E+00  0.62414245694E+01  0.82144689775E+01  0.00000000000E+00 0. -1.
</event>
<event>
 7    1  0.2530788E-009  0.4778726E+02  0.7816164E-02  0.1312668E+00
        -11   -1    0    0    0    0  0.00000000000E+00  0.00000000000E+00  0.45593999997E+02  0.45594000000E+02  0.51100000000E-03 0.  1.
         11   -1    0    0    0    0 -0.00000000000E+00 -0.00000000000E+00 -0.45593999997E+02  0.45594000000E+02  0.51100000000E-03 0. -1.
    9900012    2    1    2    0    0  0.52926279289E+00 -0.19570679203E+02 -0.38734131510E+02  0.47787256373E+02  0.19999933106E+02 0.  0.
        -12    1    1    2    0    0 -0.52926279289E+00  0.19570679203E+02  0.38734131510E+02  0.43400743627E+02  0.00000000000E+00 0.  1.
         11    1    3    3    0    0  0.55042903027E+00 -0.13107776975E+02 -0.21566634091E+02  0.25243543642E+02  0.51100000000E-03 0. -1.
        -11    1    3    3    0    0 -0.27684841745E+01 -0.22455611006E+01  0.99154265449E+00  0.37000278888E+01  0.51100000000E-03 0.  1.
        -12    1    3    3    0    0  0.27473179371E+01 -0.42173411273E+01 -0.18159040074E+02  0.18843684842E+02  0.00000000000E+00 0.  1.
</event>
<event>
 7    1  0.2530788E-009  0.4778727E+02  0.7816164E-02  0.1312668E+00
        -11   -1    0    0    0    0  0.00000000000E+00  0.00000000000E+00  0.45593999997E+02  0.45594000000E+02  0.51100000000E-03 0.  1.
         11   -1    0    0    0    0 -0.00000000000E+00 -0.00000000000E+00 -0.45593999997E+02  0.45594000000E+02  0.51100000000E-03 0. -1.
    9900012    2    1    2    0    0 -0.25492830061E+02  0.24075379653E+02 -0.25575670063E+02  0.47787272021E+02  0.20000004451E+02 0.  0.
        -12    1    1    2    0    0  0.25492830061E+02 -0.24075379653E+02  0.25575670063E+02  0.43400727979E+02  0.00000000000E+00 0.  1.
         11    1    3    3    0    0 -0.36296591693E+01  0.27629491922E+01 -0.58175241876E+01  0.73926924634E+01  0.51100000000E-03 0. -1.
        -11    1    3    3    0    0  0.15351976628E+01 -0.13334293921E+01 -0.33814908714E+01  0.39458011331E+01  0.51100000000E-03 0.  1.
        -12    1    3    3    0    0 -0.23398368555E+02  0.22645859853E+02 -0.16376655004E+02  0.36448778424E+02  0.00000000000E+00 0.  1.
</event>
<event>
 7    1  0.2530788E-009  0.4778728E+02  0.7816164E-02  0.1312668E+00
        -11   -1    0    0    0    0  0.00000000000E+00  0.00000000000E+00  0.45593999997E+02  0.45594000000E+02  0.51100000000E-03 0.  1.
         11   -1    0    0    0    0 -0.00000000000E+00 -0.00000000000E+00 -0.45593999997E+02  0.45594000000E+02  0.51100000000E-03 0. -1.
    9900012    2    1    2    0    0 -0.20350261885E+02 -0.12652114674E+02 -0.36185814868E+02  0.47787281548E+02  0.20000047889E+02 0.  0.
        -12    1    1    2    0    0  0.20350261885E+02  0.12652114674E+02  0.36185814868E+02  0.43400718452E+02  0.00000000000E+00 0.  1.
         11    1    3    3    0    0  0.16946299220E+01 -0.34847483945E+01 -0.75580074893E+01  0.84934515608E+01  0.51100000000E-03 0. -1.
        -11    1    3    3    0    0 -0.23161152377E+02 -0.10238039779E+02 -0.27474278668E+02  0.37364320234E+02  0.51100000000E-03 0.  1.
        -12    1    3    3    0    0  0.11162605697E+01  0.10706734996E+01 -0.11535287103E+01  0.19295097532E+01  0.00000000000E+00 0.  1.
</event>
<event>
 7    1  0.2530788E-009  0.4778727E+02  0.7816164E-02  0.1312668E+00
        -11   -1    0    0    0    0  0.00000000000E+00  0.00000000000E+00  0.45593999997E+02  0.45594000000E+02  0.51100000000E-03 0.  1.
         11   -1    0    0    0    0 -0.00000000000E+00 -0.00000000000E+00 -0.45593999997E+02  0.45594000000E+02  0.51100000000E-03 0. -1.
    9900012    2    1    2    0    0 -0.10120322575E+02  0.22654844935E+02 -0.35608432004E+02  0.47787270077E+02  0.19999995591E+02 0.  0.
        -12    1    1    2    0    0  0.10120322575E+02 -0.22654844935E+02  0.35608432004E+02  0.43400729923E+02  0.00000000000E+00 0.  1.
         11    1    3    3    0    0 -0.12312229283E+01  0.53978100079E+01 -0.24861981170E+02  0.25470971139E+02  0.51100000000E-03 0. -1.
        -11    1    3    3    0    0 -0.59395179338E+01  0.10813655249E+02 -0.55474097723E+01  0.13527260202E+02  0.51100000000E-03 0.  1.
         12    1    3    3    0    0 -0.29495817131E+01  0.64433796777E+01 -0.51990410615E+01  0.87890387365E+01  0.00000000000E+00 0. -1.
</event>
<event>
 7    1  0.2530788E-009  0.4778724E+02  0.7816164E-02  0.1312668E+00
        -11   -1    0    0    0    0  0.00000000000E+00  0.00000000000E+00  0.45593999997E+02  0.45594000000E+02  0.51100000000E-03 0. -1.
         11   -1    0    0    0    0 -0.00000000000E+00 -0.00000000000E+00 -0.45593999997E+02  0.45594000000E+02  0.51100000000E-03 0.  1.
    9900012    2    1    2    0    0  0.36287807729E+02  0.18776740781E+02  0.14637455476E+02  0.47787238636E+02  0.19999852236E+02 0.  0.
        -12    1    1    2    0    0 -0.36287807729E+02 -0.18776740781E+02 -0.14637455476E+02  0.43400761364E+02  0.00000000000E+00 0.  1.
         11    1    3    3    0    0  0.26215343105E+02  0.17890934316E+02  0.67716139257E+01  0.32452804197E+02  0.51100000000E-03 0. -1.
        -11    1    3    3    0    0  0.38442173332E+01 -0.70958301847E+00  0.79996566577E+01  0.89037083211E+01  0.51100000000E-03 0.  1.
        -12    1    3    3    0    0  0.62282472909E+01  0.15953894838E+01 -0.13381510717E+00  0.64307261180E+01  0.00000000000E+00 0.  1.
</event>
<event>
 7    1  0.2530788E-009  0.4778729E+02  0.7816164E-02  0.1312668E+00
        -11   -1    0    0    0    0  0.00000000000E+00  0.00000000000E+00  0.45593999997E+02  0.45594000000E+02  0.51100000000E-03 0. -1.
         11   -1    0    0    0    0 -0.00000000000E+00 -0.00000000000E+00 -0.45593999997E+02  0.45594000000E+02  0.51100000000E-03 0.  1.
    9900012    2    1    2    0    0 -0.32328802934E+02  0.10374253688E+02  0.27034148030E+02  0.47787288042E+02  0.20000077501E+02 0.  0.
        -12    1    1    2    0    0  0.32328802934E+02 -0.10374253688E+02 -0.27034148030E+02  0.43400711958E+02  0.00000000000E+00 0.  1.
         11    1    3    3    0    0 -0.21726156069E+01  0.32449605756E+01  0.40852200712E+01  0.56514645009E+01  0.51100000000E-03 0. -1.
        -11    1    3    3    0    0 -0.27312748762E+02  0.96761723648E+01  0.24567880162E+02  0.37989410268E+02  0.51100000000E-03 0.  1.
        -12    1    3    3    0    0 -0.28434385651E+01 -0.25468792529E+01 -0.16189522032E+01  0.41464132740E+01  0.00000000000E+00 0.  1.
</event>
<event>
 7    1  0.2530788E-009  0.4778727E+02  0.7816164E-02  0.1312668E+00
        -11   -1    0    0    0    0  0.00000000000E+00  0.00000000000E+00  0.45593999997E+02  0.45594000000E+02  0.51100000000E-03 0.  1.
         11   -1    0    0    0    0 -0.00000000000E+00 -0.00000000000E+00 -0.45593999997E+02  0.45594000000E+02  0.51100000000E-03 0. -1.
    9900012    2    1    2    0    0 -0.71869827840E+01 -0.38282714171E+02 -0.19141691794E+02  0.47787270852E+02  0.19999999123E+02 0.  0.
        -12    1    1    2    0    0  0.71869827840E+01  0.38282714171E+02  0.19141691794E+02  0.43400729148E+02  0.00000000000E+00 0.  1.
         11    1    3    3    0    0 -0.36180372704E+01 -0.29031697818E+02 -0.82976949311E+01  0.30410218896E+02  0.51100000000E-03 0. -1.
        -11    1    3    3    0    0  0.23315572750E+01 -0.57226798067E+00 -0.45371333991E+01  0.51331500768E+01  0.51100000000E-03 0.  1.
        -12    1    3    3    0    0 -0.59005027887E+01 -0.86787483722E+01 -0.63068634639E+01  0.12243901879E+02  0.00000000000E+00 0.  1.
</event>
<event>
 7    1  0.2530788E-009  0.4778727E+02  0.7816164E-02  0.1312668E+00
        -11   -1    0    0    0    0  0.00000000000E+00  0.00000000000E+00  0.45593999997E+02  0.45594000000E+02  0.51100000000E-03 0.  1.
         11   -1    0    0    0    0 -0.00000000000E+00 -0.00000000000E+00 -0.45593999997E+02  0.45594000000E+02  0.51100000000E-03 0. -1.
    9900012    2    1    2    0    0  0.23631124204E+02 -0.17063953859E+02 -0.32156098502E+02  0.47787271627E+02  0.20000002657E+02 0.  0.
        -12    1    1    2    0    0 -0.23631124204E+02  0.17063953859E+02  0.32156098502E+02  0.43400728373E+02  0.00000000000E+00 0.  1.
         11    1    3    3    0    0  0.22208399788E+02 -0.83837755863E+01 -0.24245877093E+02  0.33931744289E+02  0.51100000000E-03 0. -1.
        -11    1    3    3    0    0  0.62699121370E-01 -0.23605928851E+01  0.12283233777E+01  0.26617867176E+01  0.51100000000E-03 0.  1.
         12    1    3    3    0    0  0.13600252947E+01 -0.63195853871E+01 -0.91385447863E+01  0.11193740620E+02  0.00000000000E+00 0. -1.
</event>
<event>
 7    1  0.2530788E-009  0.4778727E+02  0.7816164E-02  0.1312668E+00
        -11   -1    0    0    0    0  0.00000000000E+00  0.00000000000E+00  0.45593999997E+02  0.45594000000E+02  0.51100000000E-03 0.  1.
         11   -1    0    0    0    0 -0.00000000000E+00 -0.00000000000E+00 -0.45593999997E+02  0.45594000000E+02  0.51100000000E-03 0. -1.
    9900012    2    1    2    0    0 -0.10796511123E+02 -0.31633334048E+02 -0.27683762996E+02  0.47787271791E+02  0.20000003404E+02 0.  0.
        -12    1    1    2    0    0  0.10796511123E+02  0.31633334048E+02  0.27683762996E+02  0.43400728209E+02  0.00000000000E+00 0.  1.
         11    1    3    3    0    0 -0.14469520188E+00 -0.52444473348E+01 -0.11033718068E+01  0.53612120042E+01  0.51100000000E-03 0. -1.
        -11    1    3    3    0    0 -0.11619749173E+02 -0.24461237343E+02 -0.28659498312E+02  0.39430160372E+02  0.51100000000E-03 0.  1.
        -12    1    3    3    0    0  0.96793325167E+00 -0.19276493707E+01  0.20791071229E+01  0.29958994149E+01  0.00000000000E+00 0.  1.
</event>
<event>
 7    1  0.2530788E-009  0.4778727E+02  0.7816164E-02  0.1312668E+00
        -11   -1    0    0    0    0  0.00000000000E+00  0.00000000000E+00  0.45593999997E+02  0.45594000000E+02  0.51100000000E-03 0. -1.
         11   -1    0    0    0    0 -0.00000000000E+00 -0.00000000000E+00 -0.45593999997E+02  0.45594000000E+02  0.51100000000E-03 0.  1.
    9900012    2    1    2    0    0 -0.26806482706E+02  0.24817706294E+01  0.34042274024E+02  0.47787272803E+02  0.20000008016E+02 0.  0.
        -12    1    1    2    0    0  0.26806482706E+02 -0.24817706294E+01 -0.34042274024E+02  0.43400727197E+02  0.00000000000E+00 0.  1.
         11    1    3    3    0    0 -0.10511728311E+01 -0.22587917334E+01  0.12514536128E+02  0.12760122224E+02  0.51100000000E-03 0. -1.
        -11    1    3    3    0    0 -0.27140905876E+00  0.39267184616E+00 -0.75763964209E+00  0.89547313993E+00  0.51100000000E-03 0.  1.
         12    1    3    3    0    0 -0.25483900816E+02  0.43478905167E+01  0.22285377538E+02  0.34131677438E+02  0.00000000000E+00 0. -1.
</event>
<event>
 7    1  0.2530788E-009  0.4778728E+02  0.7816164E-02  0.1312668E+00
        -11   -1    0    0    0    0  0.00000000000E+00  0.00000000000E+00  0.45593999997E+02  0.45594000000E+02  0.51100000000E-03 0.  1.
         11   -1    0    0    0    0 -0.00000000000E+00 -0.00000000000E+00 -0.45593999997E+02  0.45594000000E+02  0.51100000000E-03 0. -1.
    9900012    2    1    2    0    0  0.12719629977E+02  0.14753968050E+02 -0.38783425763E+02  0.47787277957E+02  0.20000031516E+02 0.  0.
        -12    1    1    2    0    0 -0.12719629977E+02 -0.14753968050E+02  0.38783425763E+02  0.43400722043E+02  0.00000000000E+00 0.  1.
         11    1    3    3    0    0  0.93670932159E+01 -0.16487912290E+01 -0.11452565012E+02  0.14886980669E+02  0.51100000000E-03 0. -1.
        -11    1    3    3    0    0  0.26513619108E+01  0.11057223333E+02 -0.11481651281E+02  0.16159214839E+02  0.51100000000E-03 0.  1.
        -12    1    3    3    0    0  0.70117485045E+00  0.53455359462E+01 -0.15849209470E+02  0.16741082448E+02  0.00000000000E+00 0.  1.
</event>
<event>
 7    1  0.2530788E-009  0.4778730E+02  0.7816164E-02  0.1312668E+00
        -11   -1    0    0    0    0  0.00000000000E+00  0.00000000000E+00  0.45593999997E+02  0.45594000000E+02  0.51100000000E-03 0. -1.
         11   -1    0    0    0    0 -0.00000000000E+00 -0.00000000000E+00 -0.45593999997E+02  0.45594000000E+02  0.51100000000E-03 0.  1.
    9900012    2    1    2    0    0 -0.33672272161E+02 -0.26198801957E+02  0.79637588729E+01  0.47787301942E+02  0.20000140875E+02 0.  0.
        -12    1    1    2    0    0  0.33672272161E+02  0.26198801957E+02 -0.79637588729E+01  0.43400698058E+02  0.00000000000E+00 0.  1.
         11    1    3    3    0    0 -0.25962482540E+01  0.10187389707E+01  0.69572010959E+00  0.28744322602E+01  0.51100000000E-03 0. -1.
        -11    1    3    3    0    0 -0.20223951733E+01 -0.25964472256E+01  0.59589725730E+01  0.68074205702E+01  0.51100000000E-03 0.  1.
        -12    1    3    3    0    0 -0.29053628734E+02 -0.24621093703E+02  0.13090661902E+01  0.38105449112E+02  0.00000000000E+00 0.  1.
</event>
<event>
 7    1  0.2530788E-009  0.4778727E+02  0.7816164E-02  0.1312668E+00
        -11   -1    0    0    0    0  0.00000000000E+00  0.00000000000E+00  0.45593999997E+02  0.45594000000E+02  0.51100000000E-03 0. -1.
         11   -1    0    0    0    0 -0.00000000000E+00 -0.00000000000E+00 -0.45593999997E+02  0.45594000000E+02  0.51100000000E-03 0.  1.
    9900012    2    1    2    0    0 -0.26349478052E+02 -0.16762523220E+02  0.30138782813E+02  0.47787269502E+02  0.19999992968E+02 0.  0.
        -12    1    1    2    0    0  0.26349478052E+02  0.16762523220E+02 -0.30138782813E+02  0.43400730498E+02  0.00000000000E+00 0.  1.
         11    1    3    3    0    0 -0.81568632338E+01  0.11677631891E+01  0.16975142242E+02  0.18869381099E+02  0.51100000000E-03 0. -1.
        -11    1    3    3    0    0 -0.96027299782E+01 -0.10769225191E+02  0.88792868249E+01  0.16941970636E+02  0.51100000000E-03 0.  1.
         12    1    3    3    0    0 -0.85898848400E+01 -0.71610612178E+01  0.42843537461E+01  0.11975917767E+02  0.00000000000E+00 0. -1.
</event>
<event>
 7    1  0.2530788E-009  0.4778727E+02  0.7816164E-02  0.1312668E+00
        -11   -1    0    0    0    0  0.00000000000E+00  0.00000000000E+00  0.45593999997E+02  0.45594000000E+02  0.51100000000E-03 0. -1.
         11   -1    0    0    0    0 -0.00000000000E+00 -0.00000000000E+00 -0.45593999997E+02  0.45594000000E+02  0.51100000000E-03 0.  1.
    9900012    2    1    2    0    0 -0.32501736157E+02  0.21096511653E+02  0.19549875324E+02  0.47787270947E+02  0.19999999554E+02 0.  0.
        -12    1    1    2    0    0  0.32501736157E+02 -0.21096511653E+02 -0.19549875324E+02  0.43400729053E+02  0.00000000000E+00 0.  1.
         11    1    3    3    0    0 -0.17592533743E+02  0.25855937387E+01  0.10232822444E+02  0.20515681658E+02  0.51100000000E-03 0. -1.
        -11    1    3    3    0    0 -0.37531273842E+01  0.11371476671E+02  0.68601548876E+01  0.13800658396E+02  0.51100000000E-03 0.  1.
         12    1    3    3    0    0 -0.11156075030E+02  0.71394412437E+01  0.24568979931E+01  0.13470930892E+02  0.00000000000E+00 0. -1.
</event>
<event>
 7    1  0.2530788E-009  0.4778726E+02  0.7816164E-02  0.1312668E+00
        -11   -1    0    0    0    0  0.00000000000E+00  0.00000000000E+00  0.45593999997E+02  0.45594000000E+02  0.51100000000E-03 0.  1.
         11   -1    0    0    0    0 -0.00000000000E+00 -0.00000000000E+00 -0.45593999997E+02  0.45594000000E+02  0.51100000000E-03 0. -1.
    9900012    2    1    2    0    0  0.30864340654E+01 -0.15038131542E+02 -0.40594986678E+02  0.47787257853E+02  0.19999939854E+02 0.  0.
        -12    1    1    2    0    0 -0.30864340654E+01  0.15038131542E+02  0.40594986678E+02  0.43400742147E+02  0.00000000000E+00 0.  1.
         11    1    3    3    0    0  0.21860868322E+01 -0.15539450534E+02 -0.23082691425E+02  0.27911720517E+02  0.51100000000E-03 0. -1.
        -11    1    3    3    0    0  0.79285190322E+00 -0.34746767796E+01 -0.14373516117E+02  0.14808779784E+02  0.51100000000E-03 0.  1.
         12    1    3    3    0    0  0.10749533003E+00  0.39759957714E+01 -0.31387791359E+01  0.50667575514E+01  0.00000000000E+00 0. -1.
</event>
<event>
 7    1  0.2530788E-009  0.4778727E+02  0.7816164E-02  0.1312668E+00
        -11   -1    0    0    0    0  0.00000000000E+00  0.00000000000E+00  0.45593999997E+02  0.45594000000E+02  0.51100000000E-03 0.  1.
         11   -1    0    0    0    0 -0.00000000000E+00 -0.00000000000E+00 -0.45593999997E+02  0.45594000000E+02  0.51100000000E-03 0. -1.
    9900012    2    1    2    0    0  0.41130839374E+02  0.10417547368E+02  0.91297258269E+01  0.47787272651E+02  0.20000007325E+02 0.  0.
        -12    1    1    2    0    0 -0.41130839374E+02 -0.10417547368E+02 -0.91297258269E+01  0.43400727349E+02  0.00000000000E+00 0.  1.
         11    1    3    3    0    0  0.23767527189E+02  0.25008329412E+00 -0.26231857212E+01  0.23913155249E+02  0.51100000000E-03 0. -1.
        -11    1    3    3    0    0  0.10090296362E+02  0.48065449216E+01  0.92246937152E+01  0.14491788336E+02  0.51100000000E-03 0.  1.
         12    1    3    3    0    0  0.72730158219E+01  0.53609191525E+01  0.25282178329E+01  0.93823290667E+01  0.00000000000E+00 0. -1.
</event>
<event>
 7    1  0.2530788E-009  0.4778728E+02  0.7816164E-02  0.1312668E+00
        -11   -1    0    0    0    0  0.00000000000E+00  0.00000000000E+00  0.45593999997E+02  0.45594000000E+02  0.51100000000E-03 0.  1.
         11   -1    0    0    0    0 -0.00000000000E+00 -0.00000000000E+00 -0.45593999997E+02  0.45594000000E+02  0.51100000000E-03 0. -1.
    9900012    2    1    2    0    0  0.14532549226E+02  0.77937441303E+01 -0.40145800857E+02  0.47787276953E+02  0.20000026939E+02 0.  0.
        -12    1    1    2    0    0 -0.14532549226E+02 -0.77937441303E+01  0.40145800857E+02  0.43400723047E+02  0.00000000000E+00 0.  1.
         11    1    3    3    0    0 -0.38972035714E+00  0.71532116235E+01 -0.13294274019E+02  0.15101590660E+02  0.51100000000E-03 0. -1.
        -11    1    3    3    0    0  0.16770694830E+02  0.47892914275E+00 -0.24383222915E+02  0.29597755628E+02  0.51100000000E-03 0.  1.
        -12    1    3    3    0    0 -0.18484252472E+01  0.16160336404E+00 -0.24683039225E+01  0.30879306656E+01  0.00000000000E+00 0.  1.
</event>
<event>
 7    1  0.2530788E-009  0.4778727E+02  0.7816164E-02  0.1312668E+00
        -11   -1    0    0    0    0  0.00000000000E+00  0.00000000000E+00  0.45593999997E+02  0.45594000000E+02  0.51100000000E-03 0.  1.
         11   -1    0    0    0    0 -0.00000000000E+00 -0.00000000000E+00 -0.45593999997E+02  0.45594000000E+02  0.51100000000E-03 0. -1.
    9900012    2    1    2    0    0 -0.18540678528E+02  0.22289723136E+02 -0.32296056230E+02  0.47787265378E+02  0.19999974164E+02 0.  0.
        -12    1    1    2    0    0  0.18540678528E+02 -0.22289723136E+02  0.32296056230E+02  0.43400734622E+02  0.00000000000E+00 0.  1.
         11    1    3    3    0    0 -0.18044734476E+02  0.17447303732E+02 -0.16212986876E+02  0.29881127715E+02  0.51100000000E-03 0. -1.
        -11    1    3    3    0    0  0.35834179450E+00 -0.13372126736E+01 -0.49982931692E+01  0.51864710008E+01  0.51100000000E-03 0.  1.
         12    1    3    3    0    0 -0.85428584596E+00  0.61796320780E+01 -0.11084776185E+02  0.12719666662E+02  0.00000000000E+00 0. -1.
</event>
<event>
 7    1  0.2530788E-009  0.4778727E+02  0.7816164E-02  0.1312668E+00
        -11   -1    0    0    0    0  0.00000000000E+00  0.00000000000E+00  0.45593999997E+02  0.45594000000E+02  0.51100000000E-03 0.  1.
         11   -1    0    0    0    0 -0.00000000000E+00 -0.00000000000E+00 -0.45593999997E+02  0.45594000000E+02  0.51100000000E-03 0. -1.
    9900012    2    1    2    0    0 -0.55752631683E+01 -0.19315173531E+02 -0.38463797845E+02  0.47787271520E+02  0.20000002168E+02 0.  0.
        -12    1    1    2    0    0  0.55752631683E+01  0.19315173531E+02  0.38463797845E+02  0.43400728480E+02  0.00000000000E+00 0.  1.
         11    1    3    3    0    0  0.45311204257E+01 -0.10033205471E+02 -0.11873996499E+02  0.16192222129E+02  0.51100000000E-03 0. -1.
        -11    1    3    3    0    0 -0.97740828336E+01 -0.70392773637E+01 -0.12631820788E+02  0.17454140418E+02  0.51100000000E-03 0.  1.
         12    1    3    3    0    0 -0.33230076034E+00 -0.22426906969E+01 -0.13957980557E+02  0.14140908973E+02  0.00000000000E+00 0. -1.
</event>
<event>
 7    1  0.2530788E-009  0.4778727E+02  0.7816164E-02  0.1312668E+00
        -11   -1    0    0    0    0  0.00000000000E+00  0.00000000000E+00  0.45593999997E+02  0.45594000000E+02  0.51100000000E-03 0.  1.
         11   -1    0    0    0    0 -0.00000000000E+00 -0.00000000000E+00 -0.45593999997E+02  0.45594000000E+02  0.51100000000E-03 0. -1.
    9900012    2    1    2    0    0  0.17022997532E+02  0.17454716037E+01 -0.39884767414E+02  0.47787265124E+02  0.19999973007E+02 0.  0.
        -12    1    1    2    0    0 -0.17022997532E+02 -0.17454716037E+01  0.39884767414E+02  0.43400734876E+02  0.00000000000E+00 0.  1.
         11    1    3    3    0    0  0.12072633423E+02  0.49340261055E+01 -0.21784231927E+02  0.25389876965E+02  0.51100000000E-03 0. -1.
        -11    1    3    3    0    0  0.14720090343E+01 -0.47140745729E+01 -0.12093963822E+01  0.50844812465E+01  0.51100000000E-03 0.  1.
        -12    1    3    3    0    0  0.34783550751E+01  0.15255200710E+01 -0.16891139105E+02  0.17312906913E+02  0.00000000000E+00 0.  1.
</event>
<event>
 7    1  0.2530788E-009  0.4778727E+02  0.7816164E-02  0.1312668E+00
        -11   -1    0    0    0    0  0.00000000000E+00  0.00000000000E+00  0.45593999997E+02  0.45594000000E+02  0.51100000000E-03 0.  1.
         11   -1    0    0    0    0 -0.00000000000E+00 -0.00000000000E+00 -0.45593999997E+02  0.45594000000E+02  0.51100000000E-03 0. -1.
    9900012    2    1    2    0    0 -0.39835379425E+02 -0.13317139755E+02  0.10927925476E+02  0.47787271660E+02  0.20000002807E+02 0.  0.
        -12    1    1    2    0    0  0.39835379425E+02  0.13317139755E+02 -0.10927925476E+02  0.43400728340E+02  0.00000000000E+00 0.  1.
         11    1    3    3    0    0 -0.25133547306E+02 -0.27278095815E+01  0.92601315303E+01  0.26923710396E+02  0.51100000000E-03 0. -1.
        -11    1    3    3    0    0 -0.79482356049E+01 -0.11372742171E+02  0.21811573859E+01  0.14045325255E+02  0.51100000000E-03 0.  1.
         12    1    3    3    0    0 -0.67535965147E+01  0.78341199791E+00 -0.51336344012E+00  0.68182360082E+01  0.00000000000E+00 0. -1.
</event>
<event>
 7    1  0.2530788E-009  0.4778723E+02  0.7816164E-02  0.1312668E+00
        -11   -1    0    0    0    0  0.00000000000E+00  0.00000000000E+00  0.45593999997E+02  0.45594000000E+02  0.51100000000E-03 0. -1.
         11   -1    0    0    0    0 -0.00000000000E+00 -0.00000000000E+00 -0.45593999997E+02  0.45594000000E+02  0.51100000000E-03 0.  1.
    9900012    2    1    2    0    0  0.24317554968E+02 -0.34230497423E+01  0.35784994466E+02  0.47787232978E+02  0.19999826438E+02 0.  0.
        -12    1    1    2    0    0 -0.24317554968E+02  0.34230497423E+01 -0.35784994466E+02  0.43400767022E+02  0.00000000000E+00 0.  1.
         11    1    3    3    0    0  0.54758443234E+01 -0.90744440424E+00  0.58025114785E+01  0.80297861814E+01  0.51100000000E-03 0. -1.
        -11    1    3    3    0    0  0.21158561582E+02  0.81732034354E+00  0.20632464940E+02  0.29564359464E+02  0.51100000000E-03 0.  1.
        -12    1    3    3    0    0 -0.23168509370E+01 -0.33329256816E+01  0.93500180482E+01  0.10193087332E+02  0.00000000000E+00 0.  1.
</event>
<event>
 7    1  0.2530788E-009  0.4778727E+02  0.7816164E-02  0.1312668E+00
        -11   -1    0    0    0    0  0.00000000000E+00  0.00000000000E+00  0.45593999997E+02  0.45594000000E+02  0.51100000000E-03 0.  1.
         11   -1    0    0    0    0 -0.00000000000E+00 -0.00000000000E+00 -0.45593999997E+02  0.45594000000E+02  0.51100000000E-03 0. -1.
    9900012    2    1    2    0    0  0.34947880225E+02 -0.11150505209E+02 -0.23193427724E+02  0.47787272031E+02  0.20000004497E+02 0.  0.
        -12    1    1    2    0    0 -0.34947880225E+02  0.11150505209E+02  0.23193427724E+02  0.43400727969E+02  0.00000000000E+00 0.  1.
         11    1    3    3    0    0  0.39522582399E+01 -0.70863547268E+00 -0.63826719328E+01  0.75406240253E+01  0.51100000000E-03 0. -1.
        -11    1    3    3    0    0  0.24301910391E+02 -0.61179506363E+01 -0.19588507872E+02  0.31807574720E+02  0.51100000000E-03 0.  1.
        -12    1    3    3    0    0  0.66937115946E+01 -0.43239191003E+01  0.27777520809E+01  0.84390732856E+01  0.00000000000E+00 0.  1.
</event>
<event>
 7    1  0.2530788E-009  0.4778729E+02  0.7816164E-02  0.1312668E+00
        -11   -1    0    0    0    0  0.00000000000E+00  0.00000000000E+00  0.45593999997E+02  0.45594000000E+02  0.51100000000E-03 0.  1.
         11   -1    0    0    0    0 -0.00000000000E+00 -0.00000000000E+00 -0.45593999997E+02  0.45594000000E+02  0.51100000000E-03 0. -1.
    9900012    2    1    2    0    0  0.21893269732E+02 -0.92292485103E+01 -0.36319796634E+02  0.47787286697E+02  0.20000071366E+02 0.  0.
        -12    1    1    2    0    0 -0.21893269732E+02  0.92292485103E+01  0.36319796634E+02  0.43400713303E+02  0.00000000000E+00 0.  1.
         11    1    3    3    0    0  0.14919917603E+02  0.85033680027E+00 -0.11177378361E+02  0.18661747004E+02  0.51100000000E-03 0. -1.
        -11    1    3    3    0    0  0.82016636116E+01 -0.97264515806E+01 -0.19100684094E+02  0.22950104128E+02  0.51100000000E-03 0.  1.
         12    1    3    3    0    0 -0.12283114823E+01 -0.35313372999E+00 -0.60417341791E+01  0.61754355651E+01  0.00000000000E+00 0. -1.
</event>
<event>
 7    1  0.2530788E-009  0.4778727E+02  0.7816164E-02  0.1312668E+00
        -11   -1    0    0    0    0  0.00000000000E+00  0.00000000000E+00  0.45593999997E+02  0.45594000000E+02  0.51100000000E-03 0. -1.
         11   -1    0    0    0    0 -0.00000000000E+00 -0.00000000000E+00 -0.45593999997E+02  0.45594000000E+02  0.51100000000E-03 0.  1.
    9900012    2    1    2    0    0 -0.35363585926E+02  0.11419096861E+02  0.22419727436E+02  0.47787272345E+02  0.20000005929E+02 0.  0.
        -12    1    1    2    0    0  0.35363585926E+02 -0.11419096861E+02 -0.22419727436E+02  0.43400727655E+02  0.00000000000E+00 0.  1.
         11    1    3    3    0    0 -0.22361352695E+02  0.14279201980E+02  0.20498583760E+02  0.33527863635E+02  0.51100000000E-03 0. -1.
        -11    1    3    3    0    0 -0.13316873027E+02 -0.31682194803E+01  0.18812135984E+01  0.13817224278E+02  0.51100000000E-03 0.  1.
         12    1    3    3    0    0  0.31463979531E+00  0.30811436132E+00  0.39930077975E-01  0.44218443162E+00  0.00000000000E+00 0. -1.
</event>
<event>
 7    1  0.2530788E-009  0.4778726E+02  0.7816164E-02  0.1312668E+00
        -11   -1    0    0    0    0  0.00000000000E+00  0.00000000000E+00  0.45593999997E+02  0.45594000000E+02  0.51100000000E-03 0.  1.
         11   -1    0    0    0    0 -0.00000000000E+00 -0.00000000000E+00 -0.45593999997E+02  0.45594000000E+02  0.51100000000E-03 0. -1.
    9900012    2    1    2    0    0 -0.30664491755E+02  0.19800682547E+02 -0.23478623241E+02  0.47787264601E+02  0.19999970621E+02 0.  0.
        -12    1    1    2    0    0  0.30664491755E+02 -0.19800682547E+02  0.23478623241E+02  0.43400735399E+02  0.00000000000E+00 0.  1.
         11    1    3    3    0    0 -0.23696272233E+02  0.14367861774E+02 -0.89525754679E+01  0.29122111487E+02  0.51100000000E-03 0. -1.
        -11    1    3    3    0    0 -0.19056044360E+01 -0.13169677531E+01 -0.69489532163E+01  0.73248674659E+01  0.51100000000E-03 0.  1.
         12    1    3    3    0    0 -0.50626150859E+01  0.67497885263E+01 -0.75770945568E+01  0.11340285648E+02  0.00000000000E+00 0. -1.
</event>
<event>
 7    1  0.2530788E-009  0.4778728E+02  0.7816164E-02  0.1312668E+00
        -11   -1    0    0    0    0  0.00000000000E+00  0.00000000000E+00  0.45593999997E+02  0.45594000000E+02  0.51100000000E-03 0.  1.
         11   -1    0    0    0    0 -0.00000000000E+00 -0.00000000000E+00 -0.45593999997E+02  0.45594000000E+02  0.51100000000E-03 0. -1.
    9900012    2    1    2    0    0  0.41391691637E+02  0.93793846168E+01 -0.90762274396E+01  0.47787275387E+02  0.20000019801E+02 0.  0.
        -12    1    1    2    0    0 -0.41391691637E+02 -0.93793846168E+01  0.90762274396E+01  0.43400724613E+02  0.00000000000E+00 0.  1.
         11    1    3    3    0    0  0.15348197518E+02 -0.20595784140E+01 -0.18179525941E+01  0.15592112820E+02  0.51100000000E-03 0. -1.
        -11    1    3    3    0    0  0.51772972671E+00 -0.20290156769E+01 -0.19275013724E+01  0.28460868730E+01  0.51100000000E-03 0.  1.
         12    1    3    3    0    0  0.25525764392E+02  0.13467978708E+02 -0.53307734731E+01  0.29349075694E+02  0.00000000000E+00 0. -1.
</event>
<event>
 7    1  0.2530788E-009  0.4778727E+02  0.7816164E-02  0.1312668E+00
        -11   -1    0    0    0    0  0.00000000000E+00  0.00000000000E+00  0.45593999997E+02  0.45594000000E+02  0.51100000000E-03 0. -1.
         11   -1    0    0    0    0 -0.00000000000E+00 -0.00000000000E+00 -0.45593999997E+02  0.45594000000E+02  0.51100000000E-03 0.  1.
    9900012    2    1    2    0    0 -0.23058889236E+02 -0.24550642028E+02 -0.27371100564E+02  0.47787267945E+02  0.19999985870E+02 0.  0.
        -12    1    1    2    0    0  0.23058889236E+02  0.24550642028E+02  0.27371100564E+02  0.43400732055E+02  0.00000000000E+00 0.  1.
         11    1    3    3    0    0 -0.99184711018E+01 -0.56786384951E+01 -0.35455556985E+01  0.11966368272E+02  0.51100000000E-03 0. -1.
        -11    1    3    3    0    0  0.43122450792E+00 -0.59507838326E+01 -0.12691001990E+02  0.14023527180E+02  0.51100000000E-03 0.  1.
        -12    1    3    3    0    0 -0.13571642642E+02 -0.12921219700E+02 -0.11134542875E+02  0.21797372493E+02  0.00000000000E+00 0.  1.
</event>
<event>
 7    1  0.2530788E-009  0.4778727E+02  0.7816164E-02  0.1312668E+00
        -11   -1    0    0    0    0  0.00000000000E+00  0.00000000000E+00  0.45593999997E+02  0.45594000000E+02  0.51100000000E-03 0.  1.
         11   -1    0    0    0    0 -0.00000000000E+00 -0.00000000000E+00 -0.45593999997E+02  0.45594000000E+02  0.51100000000E-03 0. -1.
    9900012    2    1    2    0    0 -0.25894023906E+01  0.42718162101E+02 -0.72164375699E+01  0.47787270177E+02  0.19999996043E+02 0.  0.
        -12    1    1    2    0    0  0.25894023906E+01 -0.42718162101E+02  0.72164375699E+01  0.43400729823E+02  0.00000000000E+00 0.  1.
         11    1    3    3    0    0 -0.75432064498E+00  0.43355193713E+02 -0.56302909702E+01  0.43725758977E+02  0.51100000000E-03 0. -1.
        -11    1    3    3    0    0 -0.38236334791E+00 -0.10574291364E+00 -0.23170020929E+01  0.23507195181E+01  0.51100000000E-03 0.  1.
         12    1    3    3    0    0 -0.14527183977E+01 -0.53128869818E+00  0.73085549311E+00  0.17107916810E+01  0.00000000000E+00 0. -1.
</event>
<event>
 7    1  0.2530788E-009  0.4778730E+02  0.7816164E-02  0.1312668E+00
        -11   -1    0    0    0    0  0.00000000000E+00  0.00000000000E+00  0.45593999997E+02  0.45594000000E+02  0.51100000000E-03 0. -1.
         11   -1    0    0    0    0 -0.00000000000E+00 -0.00000000000E+00 -0.45593999997E+02  0.45594000000E+02  0.51100000000E-03 0.  1.
    9900012    2    1    2    0    0  0.32184113957E+02 -0.29086357953E+02  0.13368044560E+01  0.47787303504E+02  0.20000147996E+02 0.  0.
        -12    1    1    2    0    0 -0.32184113957E+02  0.29086357953E+02 -0.13368044560E+01  0.43400696496E+02  0.00000000000E+00 0.  1.
         11    1    3    3    0    0  0.40901351735E+01 -0.96309620139E+00  0.25792353739E+01  0.49304376485E+01  0.51100000000E-03 0. -1.
        -11    1    3    3    0    0  0.25817545407E+02 -0.20727118207E+02  0.42320492673E+01  0.33377676990E+02  0.51100000000E-03 0.  1.
        -12    1    3    3    0    0  0.22764333772E+01 -0.73961435447E+01 -0.54744801852E+01  0.94791888658E+01  0.00000000000E+00 0.  1.
</event>
<event>
 7    1  0.2530788E-009  0.4778728E+02  0.7816164E-02  0.1312668E+00
        -11   -1    0    0    0    0  0.00000000000E+00  0.00000000000E+00  0.45593999997E+02  0.45594000000E+02  0.51100000000E-03 0. -1.
         11   -1    0    0    0    0 -0.00000000000E+00 -0.00000000000E+00 -0.45593999997E+02  0.45594000000E+02  0.51100000000E-03 0.  1.
    9900012    2    1    2    0    0  0.12230329435E+02 -0.40889036171E+02 -0.78821683211E+01  0.47787276336E+02  0.20000024128E+02 0.  0.
        -12    1    1    2    0    0 -0.12230329435E+02  0.40889036171E+02  0.78821683211E+01  0.43400723664E+02  0.00000000000E+00 0.  1.
         11    1    3    3    0    0  0.12849008905E+02 -0.30702398233E+02 -0.72864382747E+01  0.34070903570E+02  0.51100000000E-03 0. -1.
        -11    1    3    3    0    0 -0.24026063142E+01 -0.65749684534E+01 -0.43236880394E+01  0.82278190176E+01  0.51100000000E-03 0.  1.
         12    1    3    3    0    0  0.17839268444E+01 -0.36116694850E+01  0.37279579930E+01  0.54885537487E+01  0.00000000000E+00 0. -1.
</event>
<event>
 7    1  0.2530788E-009  0.4778727E+02  0.7816164E-02  0.1312668E+00
        -11   -1    0    0    0    0  0.00000000000E+00  0.00000000000E+00  0.45593999997E+02  0.45594000000E+02  0.51100000000E-03 0. -1.
         11   -1    0    0    0    0 -0.00000000000E+00 -0.00000000000E+00 -0.45593999997E+02  0.45594000000E+02  0.51100000000E-03 0.  1.
    9900012    2    1    2    0    0 -0.28684409313E+02  0.30939240186E+02  0.10177976102E+02  0.47787272835E+02  0.20000008163E+02 0.  0.
        -12    1    1    2    0    0  0.28684409313E+02 -0.30939240186E+02 -0.10177976102E+02  0.43400727165E+02  0.00000000000E+00 0.  1.
         11    1    3    3    0    0 -0.21784574294E+02  0.26910752375E+02  0.23057465608E+01  0.34699751268E+02  0.51100000000E-03 0. -1.
        -11    1    3    3    0    0 -0.47715315821E+01  0.41462852840E+01  0.87397262462E+01  0.10786195363E+02  0.51100000000E-03 0.  1.
        -12    1    3    3    0    0 -0.21283034364E+01 -0.11779747299E+00 -0.86749670506E+00  0.23013262036E+01  0.00000000000E+00 0.  1.
</event>
<event>
 7    1  0.2530788E-009  0.4778727E+02  0.7816164E-02  0.1312668E+00
        -11   -1    0    0    0    0  0.00000000000E+00  0.00000000000E+00  0.45593999997E+02  0.45594000000E+02  0.51100000000E-03 0.  1.
         11   -1    0    0    0    0 -0.00000000000E+00 -0.00000000000E+00 -0.45593999997E+02  0.45594000000E+02  0.51100000000E-03 0. -1.
    9900012    2    1    2    0    0  0.34553514599E+02 -0.66052017655E+01 -0.25417502426E+02  0.47787268542E+02  0.19999988591E+02 0.  0.
        -12    1    1    2    0    0 -0.34553514599E+02  0.66052017655E+01  0.25417502426E+02  0.43400731458E+02  0.00000000000E+00 0.  1.
         11    1    3    3    0    0  0.22412272666E+01  0.76648580452E+00  0.27142004315E+01  0.36024275694E+01  0.51100000000E-03 0. -1.
        -11    1    3    3    0    0  0.36057099480E+01  0.96306318825E+00 -0.11206698010E+01  0.38967340168E+01  0.51100000000E-03 0.  1.
         12    1    3    3    0    0  0.28706577384E+02 -0.83347507583E+01 -0.27011033056E+02  0.40288106956E+02  0.00000000000E+00 0. -1.
</event>
<event>
 7    1  0.2530788E-009  0.4778727E+02  0.7816164E-02  0.1312668E+00
        -11   -1    0    0    0    0  0.00000000000E+00  0.00000000000E+00  0.45593999997E+02  0.45594000000E+02  0.51100000000E-03 0.  1.
         11   -1    0    0    0    0 -0.00000000000E+00 -0.00000000000E+00 -0.45593999997E+02  0.45594000000E+02  0.51100000000E-03 0. -1.
    9900012    2    1    2    0    0 -0.14824259705E+02  0.38391226070E+02 -0.13783255303E+02  0.47787273719E+02  0.20000012194E+02 0.  0.
        -12    1    1    2    0    0  0.14824259705E+02 -0.38391226070E+02  0.13783255303E+02  0.43400726281E+02  0.00000000000E+00 0.  1.
         11    1    3    3    0    0  0.87208681336E+00  0.92804704135E+01  0.21198518848E+01  0.95593639318E+01  0.51100000000E-03 0. -1.
        -11    1    3    3    0    0 -0.98613964938E+01  0.13974002981E+02 -0.13582276683E+02  0.21840287093E+02  0.51100000000E-03 0.  1.
        -12    1    3    3    0    0 -0.58349500245E+01  0.15136752675E+02 -0.23208305050E+01  0.16387622694E+02  0.00000000000E+00 0.  1.
</event>
<event>
 7    1  0.2530788E-009  0.4778728E+02  0.7816164E-02  0.1312668E+00
        -11   -1    0    0    0    0  0.00000000000E+00  0.00000000000E+00  0.45593999997E+02  0.45594000000E+02  0.51100000000E-03 0. -1.
         11   -1    0    0    0    0 -0.00000000000E+00 -0.00000000000E+00 -0.45593999997E+02  0.45594000000E+02  0.51100000000E-03 0.  1.
    9900012    2    1    2    0    0 -0.40453028803E+02  0.15707302110E+02  0.67497072884E+00  0.47787280370E+02  0.20000042520E+02 0.  0.
        -12    1    1    2    0    0  0.40453028803E+02 -0.15707302110E+02 -0.67497072884E+00  0.43400719630E+02  0.00000000000E+00 0.  1.
         11    1    3    3    0    0 -0.21729557501E+02  0.13756282359E+02  0.35571345808E+01  0.25962707491E+02  0.51100000000E-03 0. -1.
        -11    1    3    3    0    0 -0.22167733876E+01 -0.17509916607E+01 -0.39704854362E+01  0.48728647537E+01  0.51100000000E-03 0.  1.
        -12    1    3    3    0    0 -0.16506697914E+02  0.37020114110E+01  0.10883215842E+01  0.16951708126E+02  0.00000000000E+00 0.  1.
</event>
<event>
 7    1  0.2530788E-009  0.4778727E+02  0.7816164E-02  0.1312668E+00
        -11   -1    0    0    0    0  0.00000000000E+00  0.00000000000E+00  0.45593999997E+02  0.45594000000E+02  0.51100000000E-03 0.  1.
         11   -1    0    0    0    0 -0.00000000000E+00 -0.00000000000E+00 -0.45593999997E+02  0.45594000000E+02  0.51100000000E-03 0. -1.
    9900012    2    1    2    0    0  0.21462188655E+02  0.10777288146E+02 -0.36150352086E+02  0.47787269158E+02  0.19999991400E+02 0.  0.
        -12    1    1    2    0    0 -0.21462188655E+02 -0.10777288146E+02  0.36150352086E+02  0.43400730842E+02  0.00000000000E+00 0.  1.
         11    1    3    3    0    0  0.20478804162E+02  0.67842028277E+01 -0.19290958061E+02  0.28940419677E+02  0.51100000000E-03 0. -1.
        -11    1    3    3    0    0  0.16793983608E+01  0.45258196039E+01 -0.17231295769E+02  0.17894719223E+02  0.51100000000E-03 0.  1.
        -12    1    3    3    0    0 -0.69601386724E+00 -0.53273428521E+00  0.37190174373E+00  0.95213025843E+00  0.00000000000E+00 0.  1.
</event>
<event>
 7    1  0.2530788E-009  0.4778727E+02  0.7816164E-02  0.1312668E+00
        -11   -1    0    0    0    0  0.00000000000E+00  0.00000000000E+00  0.45593999997E+02  0.45594000000E+02  0.51100000000E-03 0.  1.
         11   -1    0    0    0    0 -0.00000000000E+00 -0.00000000000E+00 -0.45593999997E+02  0.45594000000E+02  0.51100000000E-03 0. -1.
    9900012    2    1    2    0    0 -0.23281134580E+02 -0.33115865572E+02 -0.15650931530E+02  0.47787269157E+02  0.19999991396E+02 0.  0.
        -12    1    1    2    0    0  0.23281134580E+02  0.33115865572E+02  0.15650931530E+02  0.43400730843E+02  0.00000000000E+00 0.  1.
         11    1    3    3    0    0 -0.40522144264E+01  0.15742047351E+00  0.12258844956E+01  0.42365098867E+01  0.51100000000E-03 0. -1.
        -11    1    3    3    0    0 -0.69661205062E+01 -0.31947954707E+01 -0.30606227277E+01  0.82523308676E+01  0.51100000000E-03 0.  1.
         12    1    3    3    0    0 -0.12262799647E+02 -0.30078490575E+02 -0.13816193298E+02  0.35298428403E+02  0.00000000000E+00 0. -1.
</event>
<event>
 7    1  0.2530788E-009  0.4778727E+02  0.7816164E-02  0.1312668E+00
        -11   -1    0    0    0    0  0.00000000000E+00  0.00000000000E+00  0.45593999997E+02  0.45594000000E+02  0.51100000000E-03 0.  1.
         11   -1    0    0    0    0 -0.00000000000E+00 -0.00000000000E+00 -0.45593999997E+02  0.45594000000E+02  0.51100000000E-03 0. -1.
    9900012    2    1    2    0    0  0.75709580287E+01 -0.25340026759E+02 -0.34412015508E+02  0.47787272207E+02  0.20000005302E+02 0.  0.
        -12    1    1    2    0    0 -0.75709580287E+01  0.25340026759E+02  0.34412015508E+02  0.43400727793E+02  0.00000000000E+00 0.  1.
         11    1    3    3    0    0  0.22670399313E+01 -0.86554276144E+01 -0.86785698767E+01  0.12464889595E+02  0.51100000000E-03 0. -1.
        -11    1    3    3    0    0  0.14210351876E+01 -0.16682105835E+02 -0.26517968018E+02  0.31361036720E+02  0.51100000000E-03 0.  1.
        -12    1    3    3    0    0  0.38828829098E+01 -0.24933094066E-02  0.78452238629E+00  0.39613458928E+01  0.00000000000E+00 0.  1.
</event>
<event>
 7    1  0.2530788E-009  0.4778727E+02  0.7816164E-02  0.1312668E+00
        -11   -1    0    0    0    0  0.00000000000E+00  0.00000000000E+00  0.45593999997E+02  0.45594000000E+02  0.51100000000E-03 0.  1.
         11   -1    0    0    0    0 -0.00000000000E+00 -0.00000000000E+00 -0.45593999997E+02  0.45594000000E+02  0.51100000000E-03 0. -1.
    9900012    2    1    2    0    0  0.31061139961E+02  0.25458949541E+02 -0.16452076708E+02  0.47787270105E+02  0.19999995716E+02 0.  0.
        -12    1    1    2    0    0 -0.31061139961E+02 -0.25458949541E+02  0.16452076708E+02  0.43400729895E+02  0.00000000000E+00 0.  1.
         11    1    3    3    0    0  0.24019532710E+02  0.11051978382E+02 -0.97934918884E+01  0.28195685155E+02  0.51100000000E-03 0. -1.
        -11    1    3    3    0    0  0.54676972241E+01  0.31206255951E+01  0.18629224031E+00  0.62983110513E+01  0.51100000000E-03 0.  1.
         12    1    3    3    0    0  0.15739100273E+01  0.11286345564E+02 -0.68448770603E+01  0.13293273899E+02  0.00000000000E+00 0. -1.
</event>
<event>
 7    1  0.2530788E-009  0.4778727E+02  0.7816164E-02  0.1312668E+00
        -11   -1    0    0    0    0  0.00000000000E+00  0.00000000000E+00  0.45593999997E+02  0.45594000000E+02  0.51100000000E-03 0.  1.
         11   -1    0    0    0    0 -0.00000000000E+00 -0.00000000000E+00 -0.45593999997E+02  0.45594000000E+02  0.51100000000E-03 0. -1.
    9900012    2    1    2    0    0 -0.88417150628E+01  0.39629735873E+02 -0.15327474241E+02  0.47787270085E+02  0.19999995624E+02 0.  0.
        -12    1    1    2    0    0  0.88417150628E+01 -0.39629735873E+02  0.15327474241E+02  0.43400729915E+02  0.00000000000E+00 0.  1.
         11    1    3    3    0    0  0.44702401817E+01  0.10997662879E+02 -0.54370254317E+00  0.11883907135E+02  0.51100000000E-03 0. -1.
        -11    1    3    3    0    0 -0.34100683518E+01  0.14772535896E+01 -0.26057085320E+01  0.45387841485E+01  0.51100000000E-03 0.  1.
         12    1    3    3    0    0 -0.99018868926E+01  0.27154819404E+02 -0.12178063165E+02  0.31364578801E+02  0.00000000000E+00 0. -1.
</event>
<event>
 7    1  0.2530788E-009  0.4778727E+02  0.7816164E-02  0.1312668E+00
        -11   -1    0    0    0    0  0.00000000000E+00  0.00000000000E+00  0.45593999997E+02  0.45594000000E+02  0.51100000000E-03 0.  1.
         11   -1    0    0    0    0 -0.00000000000E+00 -0.00000000000E+00 -0.45593999997E+02  0.45594000000E+02  0.51100000000E-03 0. -1.
    9900012    2    1    2    0    0 -0.91487940666E+01  0.41264540673E+02 -0.98570118872E+01  0.47787269209E+02  0.19999991633E+02 0.  0.
        -12    1    1    2    0    0  0.91487940666E+01 -0.41264540673E+02  0.98570118872E+01  0.43400730791E+02  0.00000000000E+00 0.  1.
         11    1    3    3    0    0 -0.17953516792E+01  0.30427959258E+02  0.20380382148E+00  0.30481560467E+02  0.51100000000E-03 0. -1.
        -11    1    3    3    0    0 -0.61660273397E+00  0.14201579043E+01 -0.38877747632E+01  0.41847150770E+01  0.51100000000E-03 0.  1.
         12    1    3    3    0    0 -0.67368396535E+01  0.94164235103E+01 -0.61730409455E+01  0.13120993665E+02  0.00000000000E+00 0. -1.
</event>
<event>
 7    1  0.2530788E-009  0.4778727E+02  0.7816164E-02  0.1312668E+00
        -11   -1    0    0    0    0  0.00000000000E+00  0.00000000000E+00  0.45593999997E+02  0.45594000000E+02  0.51100000000E-03 0.  1.
         11   -1    0    0    0    0 -0.00000000000E+00 -0.00000000000E+00 -0.45593999997E+02  0.45594000000E+02  0.51100000000E-03 0. -1.
    9900012    2    1    2    0    0  0.40302193636E+02 -0.16087432978E+02  0.74241318678E+00  0.47787268566E+02  0.19999988698E+02 0.  0.
        -12    1    1    2    0    0 -0.40302193636E+02  0.16087432978E+02 -0.74241318678E+00  0.43400731434E+02  0.00000000000E+00 0.  1.
         11    1    3    3    0    0  0.35032740113E+02 -0.10214818567E+02  0.11870953482E+01  0.36510883224E+02  0.51100000000E-03 0. -1.
        -11    1    3    3    0    0  0.61491083371E+01 -0.56678208357E+01  0.20609275778E+01  0.86129640141E+01  0.51100000000E-03 0.  1.
         12    1    3    3    0    0 -0.87965481417E+00 -0.20479357555E+00 -0.25056097393E+01  0.26634213272E+01  0.00000000000E+00 0. -1.
</event>
<event>
 7    1  0.3030408E-009  0.4778727E+02  0.7816164E-02  0.1312668E+00
        -11   -1    0    0    0    0  0.00000000000E+00  0.00000000000E+00  0.45593999997E+02  0.45594000000E+02  0.51100000000E-03 0.  1.
         11   -1    0    0    0    0 -0.00000000000E+00 -0.00000000000E+00 -0.45593999997E+02  0.45594000000E+02  0.51100000000E-03 0. -1.
    9900012    2    1    2    0    0 -0.26395894417E+02  0.15646548512E+02 -0.30693089300E+02  0.47787268979E+02  0.19999990582E+02 0.  0.
        -12    1    1    2    0    0  0.26395894417E+02 -0.15646548512E+02  0.30693089300E+02  0.43400731021E+02  0.00000000000E+00 0.  1.
         11    1    3    3    0    0 -0.10075533063E+02  0.92397335522E+01 -0.11984465778E+02  0.18180111739E+02  0.51100000000E-03 0. -1.
        -11    1    3    3    0    0  0.11975497291E+01  0.33092849305E+01  0.34925089290E+00  0.35365899610E+01  0.51100000000E-03 0.  1.
        -12    1    3    3    0    0 -0.17517911083E+02  0.30975300290E+01 -0.19057874415E+02  0.26070567278E+02  0.00000000000E+00 0.  1.
</event>
<event>
 7    1  0.2530788E-009  0.4778727E+02  0.7816164E-02  0.1312668E+00
        -11   -1    0    0    0    0  0.00000000000E+00  0.00000000000E+00  0.45593999997E+02  0.45594000000E+02  0.51100000000E-03 0. -1.
         11   -1    0    0    0    0 -0.00000000000E+00 -0.00000000000E+00 -0.45593999997E+02  0.45594000000E+02  0.51100000000E-03 0.  1.
    9900012    2    1    2    0    0 -0.26774158093E+02  0.31769916111E+02  0.12547507720E+02  0.47787273494E+02  0.20000011167E+02 0.  0.
        -12    1    1    2    0    0  0.26774158093E+02 -0.31769916111E+02 -0.12547507720E+02  0.43400726506E+02  0.00000000000E+00 0.  1.
         11    1    3    3    0    0 -0.18802104916E+02  0.19281966548E+02  0.11252046011E+02  0.29187701570E+02  0.51100000000E-03 0. -1.
        -11    1    3    3    0    0 -0.60014911663E+01  0.61887318049E+00 -0.15643373846E+01  0.62328205451E+01  0.51100000000E-03 0.  1.
        -12    1    3    3    0    0 -0.19705620108E+01  0.11869076383E+02  0.28597990940E+01  0.12366751379E+02  0.00000000000E+00 0.  1.
</event>
<event>
 7    1  0.2530788E-009  0.4778727E+02  0.7816164E-02  0.1312668E+00
        -11   -1    0    0    0    0  0.00000000000E+00  0.00000000000E+00  0.45593999997E+02  0.45594000000E+02  0.51100000000E-03 0.  1.
         11   -1    0    0    0    0 -0.00000000000E+00 -0.00000000000E+00 -0.45593999997E+02  0.45594000000E+02  0.51100000000E-03 0. -1.
    9900012    2    1    2    0    0  0.22193348199E+02 -0.76062575069E+01 -0.36513327979E+02  0.47787274457E+02  0.20000015559E+02 0.  0.
        -12    1    1    2    0    0 -0.22193348199E+02  0.76062575069E+01  0.36513327979E+02  0.43400725543E+02  0.00000000000E+00 0.  1.
         11    1    3    3    0    0  0.19936731912E+00 -0.70772584509E+01 -0.14541508467E+02  0.16173521671E+02  0.51100000000E-03 0. -1.
        -11    1    3    3    0    0  0.15819535459E+02  0.21903014714E+00 -0.18988236765E+02  0.24715558097E+02  0.51100000000E-03 0.  1.
         12    1    3    3    0    0  0.61744454212E+01 -0.74802920311E+00 -0.29835827473E+01  0.68981946884E+01  0.00000000000E+00 0. -1.
</event>
<event>
 7    1  0.2530788E-009  0.4778727E+02  0.7816164E-02  0.1312668E+00
        -11   -1    0    0    0    0  0.00000000000E+00  0.00000000000E+00  0.45593999997E+02  0.45594000000E+02  0.51100000000E-03 0. -1.
         11   -1    0    0    0    0 -0.00000000000E+00 -0.00000000000E+00 -0.45593999997E+02  0.45594000000E+02  0.51100000000E-03 0.  1.
    9900012    2    1    2    0    0  0.77501448569E+01  0.13373170090E+02  0.40555108771E+02  0.47787271077E+02  0.20000000151E+02 0.  0.
        -12    1    1    2    0    0 -0.77501448569E+01 -0.13373170090E+02 -0.40555108771E+02  0.43400728923E+02  0.00000000000E+00 0.  1.
         11    1    3    3    0    0  0.90755388779E+01  0.10451937410E+02  0.13655997047E+02  0.19444656262E+02  0.51100000000E-03 0. -1.
        -11    1    3    3    0    0  0.43441089509E+00 -0.82734773763E+00  0.21586398996E+02  0.21606615630E+02  0.51100000000E-03 0.  1.
         12    1    3    3    0    0 -0.17598049161E+01  0.37485804177E+01  0.53127127288E+01  0.67359991856E+01  0.00000000000E+00 0. -1.
</event>
<event>
 7    1  0.2530788E-009  0.4778727E+02  0.7816164E-02  0.1312668E+00
        -11   -1    0    0    0    0  0.00000000000E+00  0.00000000000E+00  0.45593999997E+02  0.45594000000E+02  0.51100000000E-03 0.  1.
         11   -1    0    0    0    0 -0.00000000000E+00 -0.00000000000E+00 -0.45593999997E+02  0.45594000000E+02  0.51100000000E-03 0. -1.
    9900012    2    1    2    0    0 -0.19849523321E+02  0.17250536315E+02 -0.34525912324E+02  0.47787271884E+02  0.20000003828E+02 0.  0.
        -12    1    1    2    0    0  0.19849523321E+02 -0.17250536315E+02  0.34525912324E+02  0.43400728116E+02  0.00000000000E+00 0.  1.
         11    1    3    3    0    0 -0.12761027815E+02  0.82191888453E+01 -0.96960586541E+01  0.18011453296E+02  0.51100000000E-03 0. -1.
        -11    1    3    3    0    0 -0.72677034463E+01  0.51574655629E+01 -0.24273960962E+02  0.25858154332E+02  0.51100000000E-03 0.  1.
         12    1    3    3    0    0  0.17920794052E+00  0.38738819071E+01 -0.55589270728E+00  0.39176642554E+01  0.00000000000E+00 0. -1.
</event>
<event>
 7    1  0.2530788E-009  0.4778728E+02  0.7816164E-02  0.1312668E+00
        -11   -1    0    0    0    0  0.00000000000E+00  0.00000000000E+00  0.45593999997E+02  0.45594000000E+02  0.51100000000E-03 0.  1.
         11   -1    0    0    0    0 -0.00000000000E+00 -0.00000000000E+00 -0.45593999997E+02  0.45594000000E+02  0.51100000000E-03 0. -1.
    9900012    2    1    2    0    0 -0.20940906576E+02  0.17470041160E+02 -0.33762388711E+02  0.47787276529E+02  0.20000025006E+02 0.  0.
        -12    1    1    2    0    0  0.20940906576E+02 -0.17470041160E+02  0.33762388711E+02  0.43400723471E+02  0.00000000000E+00 0.  1.
         11    1    3    3    0    0 -0.21202917955E+02  0.14339206235E+02 -0.35457680888E+02  0.43731266840E+02  0.51100000000E-03 0. -1.
        -11    1    3    3    0    0  0.98682067921E+00  0.10772477507E+01  0.99836899455E+00  0.17694684738E+01  0.51100000000E-03 0.  1.
         12    1    3    3    0    0 -0.72480930017E+00  0.20535871743E+01  0.69692318283E+00  0.22865412148E+01  0.00000000000E+00 0. -1.
</event>
<event>
 7    1  0.2530788E-009  0.4778727E+02  0.7816164E-02  0.1312668E+00
        -11   -1    0    0    0    0  0.00000000000E+00  0.00000000000E+00  0.45593999997E+02  0.45594000000E+02  0.51100000000E-03 0.  1.
         11   -1    0    0    0    0 -0.00000000000E+00 -0.00000000000E+00 -0.45593999997E+02  0.45594000000E+02  0.51100000000E-03 0. -1.
    9900012    2    1    2    0    0  0.37500780858E+02  0.10348889531E+02 -0.19240975121E+02  0.47787271860E+02  0.20000003718E+02 0.  0.
        -12    1    1    2    0    0 -0.37500780858E+02 -0.10348889531E+02  0.19240975121E+02  0.43400728140E+02  0.00000000000E+00 0.  1.
         11    1    3    3    0    0  0.10773868651E+02 -0.40181200675E+00 -0.17114020924E-01  0.10781372443E+02  0.51100000000E-03 0. -1.
        -11    1    3    3    0    0  0.23888537742E+01  0.10007528858E+01  0.20011828014E+01  0.32730508029E+01  0.51100000000E-03 0.  1.
         12    1    3    3    0    0  0.24338058433E+02  0.97499486522E+01 -0.21225043902E+02  0.33732848614E+02  0.00000000000E+00 0. -1.
</event>
<event>
 7    1  0.2530788E-009  0.4778727E+02  0.7816164E-02  0.1312668E+00
        -11   -1    0    0    0    0  0.00000000000E+00  0.00000000000E+00  0.45593999997E+02  0.45594000000E+02  0.51100000000E-03 0.  1.
         11   -1    0    0    0    0 -0.00000000000E+00 -0.00000000000E+00 -0.45593999997E+02  0.45594000000E+02  0.51100000000E-03 0. -1.
    9900012    2    1    2    0    0 -0.15010267262E+02  0.39069513851E+01 -0.40534565704E+02  0.47787269485E+02  0.19999992892E+02 0.  0.
        -12    1    1    2    0    0  0.15010267262E+02 -0.39069513851E+01  0.40534565704E+02  0.43400730515E+02  0.00000000000E+00 0.  1.
         11    1    3    3    0    0 -0.15193205845E+01  0.33194460986E+01 -0.16011845106E+01  0.39863328433E+01  0.51100000000E-03 0.  1.
        -11    1    3    3    0    0  0.89003823985E+00  0.44128461625E+01 -0.14597160280E+02  0.15275551310E+02  0.51100000000E-03 0. -1.
         12    1    3    3    0    0 -0.14380984918E+02 -0.38253408760E+01 -0.24336220913E+02  0.28525385332E+02  0.00000000000E+00 0. -1.
</event>
<event>
 7    1  0.2530788E-009  0.4778726E+02  0.7816164E-02  0.1312668E+00
        -11   -1    0    0    0    0  0.00000000000E+00  0.00000000000E+00  0.45593999997E+02  0.45594000000E+02  0.51100000000E-03 0.  1.
         11   -1    0    0    0    0 -0.00000000000E+00 -0.00000000000E+00 -0.45593999997E+02  0.45594000000E+02  0.51100000000E-03 0. -1.
    9900012    2    1    2    0    0  0.12338933244E+02  0.56808701136E+01 -0.41220171451E+02  0.47787261604E+02  0.19999956958E+02 0.  0.
        -12    1    1    2    0    0 -0.12338933244E+02 -0.56808701136E+01  0.41220171451E+02  0.43400738396E+02  0.00000000000E+00 0.  1.
         11    1    3    3    0    0  0.67194668423E+01  0.39099107594E+01 -0.28020182583E+01  0.82637729502E+01  0.51100000000E-03 0. -1.
        -11    1    3    3    0    0  0.19479723306E+01  0.28755902778E+01 -0.64453531735E+01  0.73216250545E+01  0.51100000000E-03 0.  1.
         12    1    3    3    0    0  0.36714940710E+01 -0.11046309237E+01 -0.31972800019E+02  0.32201863599E+02  0.00000000000E+00 0. -1.
</event>
<event>
 7    1  0.2530788E-009  0.4778728E+02  0.7816164E-02  0.1312668E+00
        -11   -1    0    0    0    0  0.00000000000E+00  0.00000000000E+00  0.45593999997E+02  0.45594000000E+02  0.51100000000E-03 0.  1.
         11   -1    0    0    0    0 -0.00000000000E+00 -0.00000000000E+00 -0.45593999997E+02  0.45594000000E+02  0.51100000000E-03 0. -1.
    9900012    2    1    2    0    0  0.35488340877E+02 -0.12685798894E+02 -0.21523732245E+02  0.47787275564E+02  0.20000020607E+02 0.  0.
        -12    1    1    2    0    0 -0.35488340877E+02  0.12685798894E+02  0.21523732245E+02  0.43400724436E+02  0.00000000000E+00 0.  1.
         11    1    3    3    0    0  0.17532555948E+02 -0.11105114508E+02 -0.17503148851E+02  0.27149112440E+02  0.51100000000E-03 0. -1.
        -11    1    3    3    0    0  0.75919982204E+01  0.21634944464E+01  0.19130983964E+01  0.81227514386E+01  0.51100000000E-03 0.  1.
         12    1    3    3    0    0  0.10363786709E+02 -0.37441788324E+01 -0.59336817904E+01  0.12515411686E+02  0.00000000000E+00 0. -1.
</event>
<event>
 7    1  0.2530788E-009  0.4778727E+02  0.7816164E-02  0.1312668E+00
        -11   -1    0    0    0    0  0.00000000000E+00  0.00000000000E+00  0.45593999997E+02  0.45594000000E+02  0.51100000000E-03 0. -1.
         11   -1    0    0    0    0 -0.00000000000E+00 -0.00000000000E+00 -0.45593999997E+02  0.45594000000E+02  0.51100000000E-03 0.  1.
    9900012    2    1    2    0    0  0.29471736505E+02 -0.87231385642E+01  0.30642238925E+02  0.47787271834E+02  0.20000003599E+02 0.  0.
        -12    1    1    2    0    0 -0.29471736505E+02  0.87231385642E+01 -0.30642238925E+02  0.43400728166E+02  0.00000000000E+00 0.  1.
         11    1    3    3    0    0  0.18914435198E+01  0.27171100668E+01 -0.72610741755E+00  0.33893182127E+01  0.51100000000E-03 0.  1.
        -11    1    3    3    0    0  0.17985420172E+02 -0.32420543258E+01  0.22432193936E+02  0.28934228520E+02  0.51100000000E-03 0. -1.
         12    1    3    3    0    0  0.95948728126E+01 -0.81981943052E+01  0.89361524073E+01  0.15463725101E+02  0.00000000000E+00 0. -1.
</event>
<event>
 7    1  0.2530788E-009  0.4778727E+02  0.7816164E-02  0.1312668E+00
        -11   -1    0    0    0    0  0.00000000000E+00  0.00000000000E+00  0.45593999997E+02  0.45594000000E+02  0.51100000000E-03 0. -1.
         11   -1    0    0    0    0 -0.00000000000E+00 -0.00000000000E+00 -0.45593999997E+02  0.45594000000E+02  0.51100000000E-03 0.  1.
    9900012    2    1    2    0    0  0.12268663824E+02  0.15188471379E+02  0.38760978064E+02  0.47787271950E+02  0.20000004127E+02 0.  0.
        -12    1    1    2    0    0 -0.12268663824E+02 -0.15188471379E+02 -0.38760978064E+02  0.43400728050E+02  0.00000000000E+00 0.  1.
         11    1    3    3    0    0  0.14570372619E+00  0.11861570828E+02  0.23967342623E+02  0.26742318612E+02  0.51100000000E-03 0. -1.
        -11    1    3    3    0    0  0.18778013920E+01 -0.23299630620E+01  0.15456812189E+01  0.33680850093E+01  0.51100000000E-03 0.  1.
         12    1    3    3    0    0  0.10245158705E+02  0.56568636126E+01  0.13247954222E+02  0.17676868329E+02  0.00000000000E+00 0. -1.
</event>
<event>
 7    1  0.2530788E-009  0.4778728E+02  0.7816164E-02  0.1312668E+00
        -11   -1    0    0    0    0  0.00000000000E+00  0.00000000000E+00  0.45593999997E+02  0.45594000000E+02  0.51100000000E-03 0.  1.
         11   -1    0    0    0    0 -0.00000000000E+00 -0.00000000000E+00 -0.45593999997E+02  0.45594000000E+02  0.51100000000E-03 0. -1.
    9900012    2    1    2    0    0 -0.27574645663E+02 -0.28585583973E+02 -0.17496454676E+02  0.47787278568E+02  0.20000034305E+02 0.  0.
        -12    1    1    2    0    0  0.27574645663E+02  0.28585583973E+02  0.17496454676E+02  0.43400721432E+02  0.00000000000E+00 0.  1.
         11    1    3    3    0    0 -0.22334038560E+02 -0.27317867097E+02 -0.97963224301E+01  0.36620254976E+02  0.51100000000E-03 0. -1.
        -11    1    3    3    0    0  0.10174406840E+01  0.89724593227E+00 -0.68336835125E+00  0.15189563434E+01  0.51100000000E-03 0.  1.
         12    1    3    3    0    0 -0.62580477879E+01 -0.21649628083E+01 -0.70167638951E+01  0.96480672488E+01  0.00000000000E+00 0. -1.
</event>
<event>
 7    1  0.2530788E-009  0.4778727E+02  0.7816164E-02  0.1312668E+00
        -11   -1    0    0    0    0  0.00000000000E+00  0.00000000000E+00  0.45593999997E+02  0.45594000000E+02  0.51100000000E-03 0. -1.
         11   -1    0    0    0    0 -0.00000000000E+00 -0.00000000000E+00 -0.45593999997E+02  0.45594000000E+02  0.51100000000E-03 0.  1.
    9900012    2    1    2    0    0  0.10369157112E+02  0.35097822796E+02  0.23329095864E+02  0.47787270766E+02  0.19999998730E+02 0.  0.
        -12    1    1    2    0    0 -0.10369157112E+02 -0.35097822796E+02 -0.23329095864E+02  0.43400729234E+02  0.00000000000E+00 0.  1.
         11    1    3    3    0    0  0.92245569713E+01  0.92167181872E+01  0.14700782151E+02  0.19650784757E+02  0.51100000000E-03 0. -1.
        -11    1    3    3    0    0  0.23513223635E+01  0.18925296390E+02  0.89562425030E+01  0.21069168003E+02  0.51100000000E-03 0.  1.
         12    1    3    3    0    0 -0.12067222231E+01  0.69558082190E+01 -0.32792879013E+00  0.70673180058E+01  0.00000000000E+00 0. -1.
</event>
<event>
 7    1  0.2530788E-009  0.4778727E+02  0.7816164E-02  0.1312668E+00
        -11   -1    0    0    0    0  0.00000000000E+00  0.00000000000E+00  0.45593999997E+02  0.45594000000E+02  0.51100000000E-03 0.  1.
         11   -1    0    0    0    0 -0.00000000000E+00 -0.00000000000E+00 -0.45593999997E+02  0.45594000000E+02  0.51100000000E-03 0. -1.
    9900012    2    1    2    0    0  0.82509226064E+01  0.90948892267E+01 -0.41627260728E+02  0.47787267638E+02  0.19999984466E+02 0.  0.
        -12    1    1    2    0    0 -0.82509226064E+01 -0.90948892267E+01  0.41627260728E+02  0.43400732362E+02  0.00000000000E+00 0.  1.
         11    1    3    3    0    0 -0.31550507320E+00 -0.16971106544E+01 -0.76947356356E+00  0.18899253558E+01  0.51100000000E-03 0. -1.
        -11    1    3    3    0    0  0.51885320452E+01 -0.92193000332E+00 -0.26694903660E+02  0.27210084554E+02  0.51100000000E-03 0.  1.
        -12    1    3    3    0    0  0.33778956344E+01  0.11713929884E+02 -0.14162883504E+02  0.18687257728E+02  0.00000000000E+00 0.  1.
</event>
<event>
 7    1  0.2530788E-009  0.4778727E+02  0.7816164E-02  0.1312668E+00
        -11   -1    0    0    0    0  0.00000000000E+00  0.00000000000E+00  0.45593999997E+02  0.45594000000E+02  0.51100000000E-03 0.  1.
         11   -1    0    0    0    0 -0.00000000000E+00 -0.00000000000E+00 -0.45593999997E+02  0.45594000000E+02  0.51100000000E-03 0. -1.
    9900012    2    1    2    0    0  0.24493359504E+02  0.35828710554E+02 -0.48055633770E-01  0.47787268795E+02  0.19999989744E+02 0.  0.
        -12    1    1    2    0    0 -0.24493359504E+02 -0.35828710554E+02  0.48055633770E-01  0.43400731205E+02  0.00000000000E+00 0.  1.
         11    1    3    3    0    0  0.20207861204E+02  0.27138555708E+02 -0.29864537774E+01  0.33967304379E+02  0.51100000000E-03 0. -1.
        -11    1    3    3    0    0  0.40240592984E+01  0.62654113186E+01  0.62400332812E+01  0.97152687991E+01  0.51100000000E-03 0.  1.
         12    1    3    3    0    0  0.26143900205E+00  0.24247435279E+01 -0.33016351376E+01  0.41046956172E+01  0.00000000000E+00 0. -1.
</event>
<event>
 7    1  0.2530788E-009  0.4778727E+02  0.7816164E-02  0.1312668E+00
        -11   -1    0    0    0    0  0.00000000000E+00  0.00000000000E+00  0.45593999997E+02  0.45594000000E+02  0.51100000000E-03 0. -1.
         11   -1    0    0    0    0 -0.00000000000E+00 -0.00000000000E+00 -0.45593999997E+02  0.45594000000E+02  0.51100000000E-03 0.  1.
    9900012    2    1    2    0    0 -0.31056069548E+02  0.13634348761E+02  0.27078557866E+02  0.47787271688E+02  0.20000002934E+02 0.  0.
        -12    1    1    2    0    0  0.31056069548E+02 -0.13634348761E+02 -0.27078557866E+02  0.43400728312E+02  0.00000000000E+00 0.  1.
         11    1    3    3    0    0  0.10649193995E+01  0.35581295088E+01  0.66479147421E+01  0.76150580830E+01  0.51100000000E-03 0. -1.
        -11    1    3    3    0    0 -0.30928568224E+02  0.11145749102E+02  0.20110413050E+02  0.38538717788E+02  0.51100000000E-03 0.  1.
        -12    1    3    3    0    0 -0.11924207240E+01 -0.10695298501E+01  0.32023007316E+00  0.16334958166E+01  0.00000000000E+00 0.  1.
</event>
<event>
 7    1  0.2530788E-009  0.4778727E+02  0.7816164E-02  0.1312668E+00
        -11   -1    0    0    0    0  0.00000000000E+00  0.00000000000E+00  0.45593999997E+02  0.45594000000E+02  0.51100000000E-03 0. -1.
         11   -1    0    0    0    0 -0.00000000000E+00 -0.00000000000E+00 -0.45593999997E+02  0.45594000000E+02  0.51100000000E-03 0.  1.
    9900012    2    1    2    0    0 -0.20295109706E+02 -0.35357654208E+02  0.14885161155E+02  0.47787271761E+02  0.20000003266E+02 0.  0.
        -12    1    1    2    0    0  0.20295109706E+02  0.35357654208E+02 -0.14885161155E+02  0.43400728239E+02  0.00000000000E+00 0.  1.
         11    1    3    3    0    0 -0.12020434518E+02 -0.30085627480E+02  0.12008988482E+02  0.34552158131E+02  0.51100000000E-03 0. -1.
        -11    1    3    3    0    0 -0.44600723240E+01 -0.48574502295E+01 -0.21278733461E+01  0.69292794074E+01  0.51100000000E-03 0.  1.
         12    1    3    3    0    0 -0.38146028639E+01 -0.41457649903E+00  0.50040460192E+01  0.63058342228E+01  0.00000000000E+00 0. -1.
</event>
<event>
 7    1  0.2530788E-009  0.4778727E+02  0.7816164E-02  0.1312668E+00
        -11   -1    0    0    0    0  0.00000000000E+00  0.00000000000E+00  0.45593999997E+02  0.45594000000E+02  0.51100000000E-03 0.  1.
         11   -1    0    0    0    0 -0.00000000000E+00 -0.00000000000E+00 -0.45593999997E+02  0.45594000000E+02  0.51100000000E-03 0. -1.
    9900012    2    1    2    0    0  0.24515803617E+02 -0.23827340622E+02 -0.26736804961E+02  0.47787268121E+02  0.19999986672E+02 0.  0.
        -12    1    1    2    0    0 -0.24515803617E+02  0.23827340622E+02  0.26736804961E+02  0.43400731879E+02  0.00000000000E+00 0.  1.
         11    1    3    3    0    0  0.23491701262E+02 -0.26487400663E+02 -0.22139209290E+02  0.41756281088E+02  0.51100000000E-03 0. -1.
        -11    1    3    3    0    0 -0.25745677538E+00  0.24805139871E+01 -0.36767727298E+01  0.44427346982E+01  0.51100000000E-03 0.  1.
         12    1    3    3    0    0  0.12815591302E+01  0.17954605397E+00 -0.92082294165E+00  0.15882523350E+01  0.00000000000E+00 0. -1.
</event>
<event>
 7    1  0.2530788E-009  0.4778727E+02  0.7816164E-02  0.1312668E+00
        -11   -1    0    0    0    0  0.00000000000E+00  0.00000000000E+00  0.45593999997E+02  0.45594000000E+02  0.51100000000E-03 0. -1.
         11   -1    0    0    0    0 -0.00000000000E+00 -0.00000000000E+00 -0.45593999997E+02  0.45594000000E+02  0.51100000000E-03 0.  1.
    9900012    2    1    2    0    0 -0.25922477556E+02  0.23420105125E+02  0.25751644400E+02  0.47787270099E+02  0.19999995687E+02 0.  0.
        -12    1    1    2    0    0  0.25922477556E+02 -0.23420105125E+02 -0.25751644400E+02  0.43400729901E+02  0.00000000000E+00 0.  1.
         11    1    3    3    0    0 -0.11911251027E+02  0.85348488506E+01  0.17126680063E+01  0.14753127732E+02  0.51100000000E-03 0. -1.
        -11    1    3    3    0    0 -0.11324896095E+01  0.59045225610E+01  0.11361264198E+02  0.12853958294E+02  0.51100000000E-03 0.  1.
         12    1    3    3    0    0 -0.12878736919E+02  0.89807337129E+01  0.12677712196E+02  0.20180184072E+02  0.00000000000E+00 0. -1.
</event>
<event>
 7    1  0.2530788E-009  0.4778727E+02  0.7816164E-02  0.1312668E+00
        -11   -1    0    0    0    0  0.00000000000E+00  0.00000000000E+00  0.45593999997E+02  0.45594000000E+02  0.51100000000E-03 0.  1.
         11   -1    0    0    0    0 -0.00000000000E+00 -0.00000000000E+00 -0.45593999997E+02  0.45594000000E+02  0.51100000000E-03 0. -1.
    9900012    2    1    2    0    0 -0.15920746725E+02 -0.14849277323E+02 -0.37545335251E+02  0.47787269448E+02  0.19999992722E+02 0.  0.
        -12    1    1    2    0    0  0.15920746725E+02  0.14849277323E+02  0.37545335251E+02  0.43400730552E+02  0.00000000000E+00 0.  1.
         11    1    3    3    0    0 -0.88118663454E+01  0.24141107437E+00 -0.23076411457E+02  0.24702794048E+02  0.51100000000E-03 0. -1.
        -11    1    3    3    0    0 -0.61925162451E+01 -0.10656281605E+02 -0.13807831391E+02  0.18508371162E+02  0.51100000000E-03 0.  1.
         12    1    3    3    0    0 -0.91636413448E+00 -0.44344067928E+01 -0.66109240335E+00  0.45761042380E+01  0.00000000000E+00 0. -1.
</event>
<event>
 7    1  0.2530788E-009  0.4778728E+02  0.7816164E-02  0.1312668E+00
        -11   -1    0    0    0    0  0.00000000000E+00  0.00000000000E+00  0.45593999997E+02  0.45594000000E+02  0.51100000000E-03 0.  1.
         11   -1    0    0    0    0 -0.00000000000E+00 -0.00000000000E+00 -0.45593999997E+02  0.45594000000E+02  0.51100000000E-03 0. -1.
    9900012    2    1    2    0    0  0.61874857362E+01 -0.27755958886E+02 -0.32786347823E+02  0.47787276078E+02  0.20000022948E+02 0.  0.
        -12    1    1    2    0    0 -0.61874857362E+01  0.27755958886E+02  0.32786347823E+02  0.43400723922E+02  0.00000000000E+00 0.  1.
         11    1    3    3    0    0  0.13525826284E+01 -0.23737219953E+02 -0.17849185522E+02  0.29730094432E+02  0.51100000000E-03 0. -1.
        -11    1    3    3    0    0  0.46711797784E+01 -0.32829306317E+01 -0.15865383321E+02  0.16861433576E+02  0.51100000000E-03 0.  1.
        -12    1    3    3    0    0  0.16372332951E+00 -0.73580830100E+00  0.92822101990E+00  0.11957480697E+01  0.00000000000E+00 0.  1.
</event>
<event>
 7    1  0.2530788E-009  0.4778728E+02  0.7816164E-02  0.1312668E+00
        -11   -1    0    0    0    0  0.00000000000E+00  0.00000000000E+00  0.45593999997E+02  0.45594000000E+02  0.51100000000E-03 0.  1.
         11   -1    0    0    0    0 -0.00000000000E+00 -0.00000000000E+00 -0.45593999997E+02  0.45594000000E+02  0.51100000000E-03 0. -1.
    9900012    2    1    2    0    0 -0.24149822324E+01 -0.41825940714E+02 -0.11330523959E+02  0.47787283082E+02  0.20000054886E+02 0.  0.
        -12    1    1    2    0    0  0.24149822324E+01  0.41825940714E+02  0.11330523959E+02  0.43400716918E+02  0.00000000000E+00 0.  1.
         11    1    3    3    0    0 -0.32324710430E+01 -0.35722940804E+01 -0.29837314474E+01  0.56668163595E+01  0.51100000000E-03 0. -1.
        -11    1    3    3    0    0  0.43416954574E+01 -0.59844544961E+01 -0.60940829545E+01  0.95813288420E+01  0.51100000000E-03 0.  1.
        -12    1    3    3    0    0 -0.35242066468E+01 -0.32269192137E+02 -0.22527095566E+01  0.32539137881E+02  0.00000000000E+00 0.  1.
</event>
<event>
 7    1  0.2530788E-009  0.4778727E+02  0.7816164E-02  0.1312668E+00
        -11   -1    0    0    0    0  0.00000000000E+00  0.00000000000E+00  0.45593999997E+02  0.45594000000E+02  0.51100000000E-03 0.  1.
         11   -1    0    0    0    0 -0.00000000000E+00 -0.00000000000E+00 -0.45593999997E+02  0.45594000000E+02  0.51100000000E-03 0. -1.
    9900012    2    1    2    0    0  0.37559391338E+02  0.21421005486E+02  0.37490985565E+01  0.47787273120E+02  0.20000009464E+02 0.  0.
        -12    1    1    2    0    0 -0.37559391338E+02 -0.21421005486E+02 -0.37490985565E+01  0.43400726880E+02  0.00000000000E+00 0.  1.
         11    1    3    3    0    0  0.24289461690E+02  0.10423889806E+02 -0.40064712030E+01  0.26733634988E+02  0.51100000000E-03 0. -1.
        -11    1    3    3    0    0  0.51687663526E+01  0.10188788082E+02  0.48027773968E+01  0.12393313486E+02  0.51100000000E-03 0.  1.
         12    1    3    3    0    0  0.81011632954E+01  0.80832759795E+00  0.29527923626E+01  0.86603246464E+01  0.00000000000E+00 0. -1.
</event>
<event>
 7    1  0.2530788E-009  0.4778725E+02  0.7816164E-02  0.1312668E+00
        -11   -1    0    0    0    0  0.00000000000E+00  0.00000000000E+00  0.45593999997E+02  0.45594000000E+02  0.51100000000E-03 0.  1.
         11   -1    0    0    0    0 -0.00000000000E+00 -0.00000000000E+00 -0.45593999997E+02  0.45594000000E+02  0.51100000000E-03 0. -1.
    9900012    2    1    2    0    0 -0.23382962621E+02  0.70518276918E+00 -0.36556324076E+02  0.47787250541E+02  0.19999906516E+02 0.  0.
        -12    1    1    2    0    0  0.23382962621E+02 -0.70518276918E+00  0.36556324076E+02  0.43400749459E+02  0.00000000000E+00 0.  1.
         11    1    3    3    0    0 -0.15732076289E+02 -0.54316816497E+00 -0.27965213509E+02  0.32091220340E+02  0.51100000000E-03 0. -1.
        -11    1    3    3    0    0 -0.48032304148E+01 -0.42178805001E+01 -0.20605214865E+01  0.67161959016E+01  0.51100000000E-03 0.  1.
         12    1    3    3    0    0 -0.28476559172E+01  0.54662314343E+01 -0.65305890801E+01  0.89798342996E+01  0.00000000000E+00 0. -1.
</event>
<event>
 7    1  0.2530788E-009  0.4778727E+02  0.7816164E-02  0.1312668E+00
        -11   -1    0    0    0    0  0.00000000000E+00  0.00000000000E+00  0.45593999997E+02  0.45594000000E+02  0.51100000000E-03 0. -1.
         11   -1    0    0    0    0 -0.00000000000E+00 -0.00000000000E+00 -0.45593999997E+02  0.45594000000E+02  0.51100000000E-03 0.  1.
    9900012    2    1    2    0    0 -0.15443686853E+02  0.18962387813E+02  0.35854481682E+02  0.47787268763E+02  0.19999989599E+02 0.  0.
        -12    1    1    2    0    0  0.15443686853E+02 -0.18962387813E+02 -0.35854481682E+02  0.43400731237E+02  0.00000000000E+00 0.  1.
         11    1    3    3    0    0 -0.17761371007E+02  0.10751102201E+02  0.31797494660E+02  0.37975428443E+02  0.51100000000E-03 0. -1.
        -11    1    3    3    0    0  0.16677172661E+01  0.59606551506E+01  0.15499935362E+01  0.63806873397E+01  0.51100000000E-03 0.  1.
         12    1    3    3    0    0  0.64996688797E+00  0.22506304618E+01  0.25069934867E+01  0.34311529802E+01  0.00000000000E+00 0. -1.
</event>
<event>
 7    1  0.2530788E-009  0.4778727E+02  0.7816164E-02  0.1312668E+00
        -11   -1    0    0    0    0  0.00000000000E+00  0.00000000000E+00  0.45593999997E+02  0.45594000000E+02  0.51100000000E-03 0.  1.
         11   -1    0    0    0    0 -0.00000000000E+00 -0.00000000000E+00 -0.45593999997E+02  0.45594000000E+02  0.51100000000E-03 0. -1.
    9900012    2    1    2    0    0  0.30567888846E+02  0.18797231801E+02 -0.24410898758E+02  0.47787265789E+02  0.19999976038E+02 0.  0.
        -12    1    1    2    0    0 -0.30567888846E+02 -0.18797231801E+02  0.24410898758E+02  0.43400734211E+02  0.00000000000E+00 0.  1.
         11    1    3    3    0    0  0.24387021351E+02  0.18634987071E+02 -0.21584597496E+02  0.37521785710E+02  0.51100000000E-03 0. -1.
        -11    1    3    3    0    0  0.54790658264E+01 -0.22098668611E+00  0.16436588575E+01  0.57245621794E+01  0.51100000000E-03 0.  1.
        -12    1    3    3    0    0  0.70180166878E+00  0.38323141550E+00 -0.44699601195E+01  0.45409178995E+01  0.00000000000E+00 0.  1.
</event>
<event>
 7    1  0.2530788E-009  0.4778727E+02  0.7816164E-02  0.1312668E+00
        -11   -1    0    0    0    0  0.00000000000E+00  0.00000000000E+00  0.45593999997E+02  0.45594000000E+02  0.51100000000E-03 0. -1.
         11   -1    0    0    0    0 -0.00000000000E+00 -0.00000000000E+00 -0.45593999997E+02  0.45594000000E+02  0.51100000000E-03 0.  1.
    9900012    2    1    2    0    0 -0.32254082322E+02 -0.22844863932E+02  0.17927900381E+02  0.47787271359E+02  0.20000001434E+02 0.  0.
        -12    1    1    2    0    0  0.32254082322E+02  0.22844863932E+02 -0.17927900381E+02  0.43400728641E+02  0.00000000000E+00 0.  1.
         11    1    3    3    0    0 -0.17326104058E+01 -0.10368311915E+01  0.50177593557E+01  0.54087768442E+01  0.51100000000E-03 0. -1.
        -11    1    3    3    0    0 -0.14456077195E+02 -0.33404408100E+01  0.29162484755E+00  0.14839870552E+02  0.51100000000E-03 0.  1.
        -12    1    3    3    0    0 -0.16065394722E+02 -0.18467591930E+02  0.12618516177E+02  0.27538623963E+02  0.00000000000E+00 0.  1.
</event>
<event>
 7    1  0.2530788E-009  0.4778728E+02  0.7816164E-02  0.1312668E+00
        -11   -1    0    0    0    0  0.00000000000E+00  0.00000000000E+00  0.45593999997E+02  0.45594000000E+02  0.51100000000E-03 0. -1.
         11   -1    0    0    0    0 -0.00000000000E+00 -0.00000000000E+00 -0.45593999997E+02  0.45594000000E+02  0.51100000000E-03 0.  1.
    9900012    2    1    2    0    0  0.29549613243E+02 -0.31746759034E+02 -0.16081587308E+01  0.47787279655E+02  0.20000039257E+02 0.  0.
        -12    1    1    2    0    0 -0.29549613243E+02  0.31746759034E+02  0.16081587308E+01  0.43400720345E+02  0.00000000000E+00 0.  1.
         11    1    3    3    0    0  0.55988788725E+01 -0.61898917102E+01  0.68564698099E+01  0.10801545377E+02  0.51100000000E-03 0. -1.
        -11    1    3    3    0    0  0.24399212667E+02 -0.25769792987E+02 -0.81998757738E+01  0.36423093942E+02  0.51100000000E-03 0.  1.
        -12    1    3    3    0    0 -0.44847829567E+00  0.21292566329E+00 -0.26475276682E+00  0.56264033566E+00  0.00000000000E+00 0.  1.
</event>
<event>
 7    1  0.2530788E-009  0.4778727E+02  0.7816164E-02  0.1312668E+00
        -11   -1    0    0    0    0  0.00000000000E+00  0.00000000000E+00  0.45593999997E+02  0.45594000000E+02  0.51100000000E-03 0. -1.
         11   -1    0    0    0    0 -0.00000000000E+00 -0.00000000000E+00 -0.45593999997E+02  0.45594000000E+02  0.51100000000E-03 0.  1.
    9900012    2    1    2    0    0  0.16401150455E+02  0.13482936258E+02  0.37852819345E+02  0.47787271449E+02  0.20000001845E+02 0.  0.
        -12    1    1    2    0    0 -0.16401150455E+02 -0.13482936258E+02 -0.37852819345E+02  0.43400728551E+02  0.00000000000E+00 0.  1.
         11    1    3    3    0    0  0.15568229420E+02  0.17592576608E+02  0.35368238062E+02  0.42459166064E+02  0.51100000000E-03 0. -1.
        -11    1    3    3    0    0 -0.41623832021E+00 -0.30057450907E+01  0.17826976998E+01  0.35193421600E+01  0.51100000000E-03 0.  1.
         12    1    3    3    0    0  0.12491593549E+01 -0.11038952598E+01  0.70188358302E+00  0.18087632246E+01  0.00000000000E+00 0. -1.
</event>
<event>
 7    1  0.2530788E-009  0.4778725E+02  0.7816164E-02  0.1312668E+00
        -11   -1    0    0    0    0  0.00000000000E+00  0.00000000000E+00  0.45593999997E+02  0.45594000000E+02  0.51100000000E-03 0. -1.
         11   -1    0    0    0    0 -0.00000000000E+00 -0.00000000000E+00 -0.45593999997E+02  0.45594000000E+02  0.51100000000E-03 0.  1.
    9900012    2    1    2    0    0  0.19490697609E+02 -0.28654564956E+02  0.26127639375E+02  0.47787252017E+02  0.19999913248E+02 0.  0.
        -12    1    1    2    0    0 -0.19490697609E+02  0.28654564956E+02 -0.26127639375E+02  0.43400747983E+02  0.00000000000E+00 0.  1.
         11    1    3    3    0    0  0.11161113981E+02 -0.12956812134E+02  0.20612190919E+02  0.26782678371E+02  0.51100000000E-03 0. -1.
        -11    1    3    3    0    0  0.49589893124E+01 -0.90606040097E+00  0.71007531609E+00  0.50908474409E+01  0.51100000000E-03 0.  1.
         12    1    3    3    0    0  0.33705943156E+01 -0.14791692422E+02  0.48053731400E+01  0.15913726206E+02  0.00000000000E+00 0. -1.
</event>
<event>
 7    1  0.2530788E-009  0.4778727E+02  0.7816164E-02  0.1312668E+00
        -11   -1    0    0    0    0  0.00000000000E+00  0.00000000000E+00  0.45593999997E+02  0.45594000000E+02  0.51100000000E-03 0. -1.
         11   -1    0    0    0    0 -0.00000000000E+00 -0.00000000000E+00 -0.45593999997E+02  0.45594000000E+02  0.51100000000E-03 0.  1.
    9900012    2    1    2    0    0  0.43156278536E+02 -0.45921207245E+01  0.26665562317E+00  0.47787273566E+02  0.20000011496E+02 0.  0.
        -12    1    1    2    0    0 -0.43156278536E+02  0.45921207245E+01 -0.26665562317E+00  0.43400726434E+02  0.00000000000E+00 0.  1.
         11    1    3    3    0    0  0.21870688064E+02  0.20377208056E+01  0.41410343715E+01  0.22352348163E+02  0.51100000000E-03 0. -1.
        -11    1    3    3    0    0  0.16350191325E+02 -0.10206235559E+01  0.11642063925E+01  0.16423331135E+02  0.51100000000E-03 0.  1.
         12    1    3    3    0    0  0.49353991469E+01 -0.56092179742E+01 -0.50385851408E+01  0.90115942675E+01  0.00000000000E+00 0. -1.
</event>
<event>
 7    1  0.2530788E-009  0.4778732E+02  0.7816164E-02  0.1312668E+00
        -11   -1    0    0    0    0  0.00000000000E+00  0.00000000000E+00  0.45593999997E+02  0.45594000000E+02  0.51100000000E-03 0. -1.
         11   -1    0    0    0    0 -0.00000000000E+00 -0.00000000000E+00 -0.45593999997E+02  0.45594000000E+02  0.51100000000E-03 0.  1.
    9900012    2    1    2    0    0 -0.16198516336E+02 -0.18712403695E+02  0.35652107231E+02  0.47787323352E+02  0.20000238489E+02 0.  0.
        -12    1    1    2    0    0  0.16198516336E+02  0.18712403695E+02 -0.35652107231E+02  0.43400676648E+02  0.00000000000E+00 0.  1.
         11    1    3    3    0    0 -0.48256368430E+01 -0.13430078401E+02  0.14008975932E+02  0.19997629452E+02  0.51100000000E-03 0. -1.
        -11    1    3    3    0    0  0.23392534917E+01  0.71392863614E+00  0.26013955912E+01  0.35705826246E+01  0.51100000000E-03 0.  1.
        -12    1    3    3    0    0 -0.13712132984E+02 -0.59962539302E+01  0.19041735708E+02  0.24219111275E+02  0.00000000000E+00 0.  1.
</event>
<event>
 7    1  0.2530788E-009  0.4778727E+02  0.7816164E-02  0.1312668E+00
        -11   -1    0    0    0    0  0.00000000000E+00  0.00000000000E+00  0.45593999997E+02  0.45594000000E+02  0.51100000000E-03 0. -1.
         11   -1    0    0    0    0 -0.00000000000E+00 -0.00000000000E+00 -0.45593999997E+02  0.45594000000E+02  0.51100000000E-03 0.  1.
    9900012    2    1    2    0    0  0.22391001504E+02  0.12117374871E+02  0.35148763458E+02  0.47787270804E+02  0.19999998906E+02 0.  0.
        -12    1    1    2    0    0 -0.22391001504E+02 -0.12117374871E+02 -0.35148763458E+02  0.43400729196E+02  0.00000000000E+00 0.  1.
         11    1    3    3    0    0  0.21944871502E+02  0.11449176440E+02  0.20105081901E+02  0.31888482950E+02  0.51100000000E-03 0. -1.
        -11    1    3    3    0    0 -0.34940383345E+00 -0.20166765801E+01  0.38507546959E+01  0.43608920483E+01  0.51100000000E-03 0.  1.
         12    1    3    3    0    0  0.79553383561E+00  0.26848750114E+01  0.11192926861E+02  0.11537895806E+02  0.00000000000E+00 0. -1.
</event>
<event>
 7    1  0.2530788E-009  0.4778728E+02  0.7816164E-02  0.1312668E+00
        -11   -1    0    0    0    0  0.00000000000E+00  0.00000000000E+00  0.45593999997E+02  0.45594000000E+02  0.51100000000E-03 0.  1.
         11   -1    0    0    0    0 -0.00000000000E+00 -0.00000000000E+00 -0.45593999997E+02  0.45594000000E+02  0.51100000000E-03 0. -1.
    9900012    2    1    2    0    0  0.28650245079E+02 -0.27801268774E+02 -0.17025724233E+02  0.47787281409E+02  0.20000047256E+02 0.  0.
        -12    1    1    2    0    0 -0.28650245079E+02  0.27801268774E+02  0.17025724233E+02  0.43400718591E+02  0.00000000000E+00 0.  1.
         11    1    3    3    0    0  0.11614708879E+02 -0.85907752119E+01  0.22312898085E+01  0.14617849895E+02  0.51100000000E-03 0. -1.
        -11    1    3    3    0    0  0.11675805740E+02 -0.81792273142E+01 -0.13452220031E+02  0.19600674048E+02  0.51100000000E-03 0.  1.
         12    1    3    3    0    0  0.53597304596E+01 -0.11031266248E+02 -0.58047940111E+01  0.13568757465E+02  0.00000000000E+00 0. -1.
</event>
<event>
 7    1  0.2530788E-009  0.4778726E+02  0.7816164E-02  0.1312668E+00
        -11   -1    0    0    0    0  0.00000000000E+00  0.00000000000E+00  0.45593999997E+02  0.45594000000E+02  0.51100000000E-03 0.  1.
         11   -1    0    0    0    0 -0.00000000000E+00 -0.00000000000E+00 -0.45593999997E+02  0.45594000000E+02  0.51100000000E-03 0. -1.
    9900012    2    1    2    0    0  0.20884772831E+01  0.12036038205E+02 -0.41646083967E+02  0.47787259651E+02  0.19999948054E+02 0.  0.
        -12    1    1    2    0    0 -0.20884772831E+01 -0.12036038205E+02  0.41646083967E+02  0.43400740349E+02  0.00000000000E+00 0.  1.
         11    1    3    3    0    0 -0.28340754447E+01  0.12138639981E+02 -0.20953693953E+02  0.24381055243E+02  0.51100000000E-03 0. -1.
        -11    1    3    3    0    0  0.24380000518E+01  0.48245879309E+01 -0.10869743235E+02  0.12139679206E+02  0.51100000000E-03 0.  1.
         12    1    3    3    0    0  0.24845526760E+01 -0.49271897068E+01 -0.98226467790E+01  0.11266525203E+02  0.00000000000E+00 0. -1.
</event>
<event>
 7    1  0.2530788E-009  0.4778727E+02  0.7816164E-02  0.1312668E+00
        -11   -1    0    0    0    0  0.00000000000E+00  0.00000000000E+00  0.45593999997E+02  0.45594000000E+02  0.51100000000E-03 0. -1.
         11   -1    0    0    0    0 -0.00000000000E+00 -0.00000000000E+00 -0.45593999997E+02  0.45594000000E+02  0.51100000000E-03 0.  1.
    9900012    2    1    2    0    0 -0.80189237332E+01 -0.37163006574E+02  0.20933971726E+02  0.47787269964E+02  0.19999995072E+02 0.  0.
        -12    1    1    2    0    0  0.80189237332E+01  0.37163006574E+02 -0.20933971726E+02  0.43400730036E+02  0.00000000000E+00 0.  1.
         11    1    3    3    0    0 -0.45600361430E+01 -0.54749229210E+01  0.81459600268E+01  0.10822447765E+02  0.51100000000E-03 0. -1.
        -11    1    3    3    0    0 -0.56157838873E+01 -0.30533095357E+02  0.14201425462E+02  0.34139235875E+02  0.51100000000E-03 0.  1.
        -12    1    3    3    0    0  0.21568962972E+01 -0.11549882966E+01 -0.14134137632E+01  0.28255863229E+01  0.00000000000E+00 0.  1.
</event>
<event>
 7    1  0.2530788E-009  0.4778727E+02  0.7816164E-02  0.1312668E+00
        -11   -1    0    0    0    0  0.00000000000E+00  0.00000000000E+00  0.45593999997E+02  0.45594000000E+02  0.51100000000E-03 0.  1.
         11   -1    0    0    0    0 -0.00000000000E+00 -0.00000000000E+00 -0.45593999997E+02  0.45594000000E+02  0.51100000000E-03 0. -1.
    9900012    2    1    2    0    0  0.25945166698E+02  0.14253695808E+01 -0.34762622598E+02  0.47787270935E+02  0.19999999503E+02 0.  0.
        -12    1    1    2    0    0 -0.25945166698E+02 -0.14253695808E+01  0.34762622598E+02  0.43400729065E+02  0.00000000000E+00 0.  1.
         11    1    3    3    0    0  0.24722518765E+01 -0.90763894457E+00  0.17455380290E+01  0.31595476047E+01  0.51100000000E-03 0. -1.
        -11    1    3    3    0    0  0.13698733421E+01  0.68404964815E+00  0.39382446756E+00  0.15810043855E+01  0.51100000000E-03 0.  1.
         12    1    3    3    0    0  0.22103041480E+02  0.16489588772E+01 -0.36901985094E+02  0.43046718945E+02  0.00000000000E+00 0. -1.
</event>
<event>
 7    1  0.2530788E-009  0.4778727E+02  0.7816164E-02  0.1312668E+00
        -11   -1    0    0    0    0  0.00000000000E+00  0.00000000000E+00  0.45593999997E+02  0.45594000000E+02  0.51100000000E-03 0.  1.
         11   -1    0    0    0    0 -0.00000000000E+00 -0.00000000000E+00 -0.45593999997E+02  0.45594000000E+02  0.51100000000E-03 0. -1.
    9900012    2    1    2    0    0  0.31646474149E+02  0.23146859486E+02 -0.18610396474E+02  0.47787270893E+02  0.19999999308E+02 0.  0.
        -12    1    1    2    0    0 -0.31646474149E+02 -0.23146859486E+02  0.18610396474E+02  0.43400729107E+02  0.00000000000E+00 0.  1.
         11    1    3    3    0    0  0.21120196305E+02  0.10185132983E+02 -0.11466385506E+02  0.26101295421E+02  0.51100000000E-03 0. -1.
        -11    1    3    3    0    0  0.35673376101E+00 -0.15377402805E+00  0.24738962770E+01  0.25042101506E+01  0.51100000000E-03 0.  1.
         12    1    3    3    0    0  0.10169544083E+02  0.13115500532E+02 -0.96179072452E+01  0.19181765321E+02  0.00000000000E+00 0. -1.
</event>
<event>
 7    1  0.2530788E-009  0.4778727E+02  0.7816164E-02  0.1312668E+00
        -11   -1    0    0    0    0  0.00000000000E+00  0.00000000000E+00  0.45593999997E+02  0.45594000000E+02  0.51100000000E-03 0. -1.
         11   -1    0    0    0    0 -0.00000000000E+00 -0.00000000000E+00 -0.45593999997E+02  0.45594000000E+02  0.51100000000E-03 0.  1.
    9900012    2    1    2    0    0  0.27122111051E+02  0.21954516060E+02  0.25807238416E+02  0.47787271459E+02  0.20000001889E+02 0.  0.
        -12    1    1    2    0    0 -0.27122111051E+02 -0.21954516060E+02 -0.25807238416E+02  0.43400728541E+02  0.00000000000E+00 0.  1.
         11    1    3    3    0    0 -0.12293229985E+01  0.73869847144E+01  0.50108151850E+01  0.90103855237E+01  0.51100000000E-03 0. -1.
        -11    1    3    3    0    0  0.36426559171E+01  0.25120914259E+00  0.37672290489E+00  0.36706904762E+01  0.51100000000E-03 0.  1.
         12    1    3    3    0    0  0.24708778132E+02  0.14316322203E+02  0.20419700326E+02  0.35106195459E+02  0.00000000000E+00 0. -1.
</event>
<event>
 7    1  0.2530788E-009  0.4778727E+02  0.7816164E-02  0.1312668E+00
        -11   -1    0    0    0    0  0.00000000000E+00  0.00000000000E+00  0.45593999997E+02  0.45594000000E+02  0.51100000000E-03 0.  1.
         11   -1    0    0    0    0 -0.00000000000E+00 -0.00000000000E+00 -0.45593999997E+02  0.45594000000E+02  0.51100000000E-03 0. -1.
    9900012    2    1    2    0    0  0.43031497819E+02  0.53734233050E+01 -0.17434721804E+01  0.47787272151E+02  0.20000005046E+02 0.  0.
        -12    1    1    2    0    0 -0.43031497819E+02 -0.53734233050E+01  0.17434721804E+01  0.43400727849E+02  0.00000000000E+00 0.  1.
         11    1    3    3    0    0  0.26999986067E+02  0.30468567087E+01 -0.80547198981E+01  0.28340096971E+02  0.51100000000E-03 0. -1.
        -11    1    3    3    0    0  0.14344498788E+02  0.42993964737E+01  0.73124867229E+01  0.16664990785E+02  0.51100000000E-03 0.  1.
        -12    1    3    3    0    0  0.16870129645E+01 -0.19728298774E+01 -0.10012390052E+01  0.27821843959E+01  0.00000000000E+00 0.  1.
</event>
<event>
 7    1  0.2530788E-009  0.4778727E+02  0.7816164E-02  0.1312668E+00
        -11   -1    0    0    0    0  0.00000000000E+00  0.00000000000E+00  0.45593999997E+02  0.45594000000E+02  0.51100000000E-03 0.  1.
         11   -1    0    0    0    0 -0.00000000000E+00 -0.00000000000E+00 -0.45593999997E+02  0.45594000000E+02  0.51100000000E-03 0. -1.
    9900012    2    1    2    0    0  0.42440315351E+02  0.12182203368E+01  0.89977216941E+01  0.47787269320E+02  0.19999992139E+02 0.  0.
        -12    1    1    2    0    0 -0.42440315351E+02 -0.12182203368E+01 -0.89977216941E+01  0.43400730680E+02  0.00000000000E+00 0.  1.
         11    1    3    3    0    0  0.16616271849E+02 -0.29444112061E+00 -0.34882880114E+01  0.16981028804E+02  0.51100000000E-03 0. -1.
        -11    1    3    3    0    0  0.26062795938E+02  0.31074203788E+01  0.10554204000E+02  0.28289867724E+02  0.51100000000E-03 0.  1.
         12    1    3    3    0    0 -0.23875243656E+00 -0.15947589214E+01  0.19318057057E+01  0.25163727919E+01  0.00000000000E+00 0. -1.
</event>
<event>
 7    1  0.2530788E-009  0.4778727E+02  0.7816164E-02  0.1312668E+00
        -11   -1    0    0    0    0  0.00000000000E+00  0.00000000000E+00  0.45593999997E+02  0.45594000000E+02  0.51100000000E-03 0. -1.
         11   -1    0    0    0    0 -0.00000000000E+00 -0.00000000000E+00 -0.45593999997E+02  0.45594000000E+02  0.51100000000E-03 0.  1.
    9900012    2    1    2    0    0  0.11057062482E+02 -0.41164837825E+01  0.41766245673E+02  0.47787270202E+02  0.19999996157E+02 0.  0.
        -12    1    1    2    0    0 -0.11057062482E+02  0.41164837825E+01 -0.41766245673E+02  0.43400729798E+02  0.00000000000E+00 0.  1.
         11    1    3    3    0    0 -0.12054202697E-01 -0.82855549196E+01  0.15344771318E+02  0.17438823718E+02  0.51100000000E-03 0. -1.
        -11    1    3    3    0    0  0.98786769670E+01  0.46781623322E+01  0.13536433331E+02  0.17398519736E+02  0.51100000000E-03 0.  1.
        -12    1    3    3    0    0  0.11904397173E+01 -0.50909119517E+00  0.12885041024E+02  0.12949926747E+02  0.00000000000E+00 0.  1.
</event>
<event>
 7    1  0.2530788E-009  0.4778727E+02  0.7816164E-02  0.1312668E+00
        -11   -1    0    0    0    0  0.00000000000E+00  0.00000000000E+00  0.45593999997E+02  0.45594000000E+02  0.51100000000E-03 0.  1.
         11   -1    0    0    0    0 -0.00000000000E+00 -0.00000000000E+00 -0.45593999997E+02  0.45594000000E+02  0.51100000000E-03 0. -1.
    9900012    2    1    2    0    0  0.32644570084E+02  0.17471628787E+02 -0.22642817799E+02  0.47787274588E+02  0.20000016156E+02 0.  0.
        -12    1    1    2    0    0 -0.32644570084E+02 -0.17471628787E+02  0.22642817799E+02  0.43400725412E+02  0.00000000000E+00 0.  1.
         11    1    3    3    0    0  0.22819151067E+01 -0.63561856125E+00 -0.13478165656E+01  0.27253912132E+01  0.51100000000E-03 0. -1.
        -11    1    3    3    0    0  0.20844090168E+02  0.29428911842E+01 -0.71087415017E+01  0.22218706296E+02  0.51100000000E-03 0.  1.
        -12    1    3    3    0    0  0.95185648091E+01  0.15164356164E+02 -0.14186259731E+02  0.22843177079E+02  0.00000000000E+00 0.  1.
</event>
<event>
 7    1  0.2530788E-009  0.4778727E+02  0.7816164E-02  0.1312668E+00
        -11   -1    0    0    0    0  0.00000000000E+00  0.00000000000E+00  0.45593999997E+02  0.45594000000E+02  0.51100000000E-03 0. -1.
         11   -1    0    0    0    0 -0.00000000000E+00 -0.00000000000E+00 -0.45593999997E+02  0.45594000000E+02  0.51100000000E-03 0.  1.
    9900012    2    1    2    0    0 -0.19579415844E+02  0.31415780107E+01  0.38605705346E+02  0.47787268181E+02  0.19999986945E+02 0.  0.
        -12    1    1    2    0    0  0.19579415844E+02 -0.31415780107E+01 -0.38605705346E+02  0.43400731819E+02  0.00000000000E+00 0.  1.
         11    1    3    3    0    0 -0.40556802289E+01  0.18482304772E+01  0.50121066210E+01  0.67071388131E+01  0.51100000000E-03 0. -1.
        -11    1    3    3    0    0 -0.14268721091E+02  0.62182457630E+01  0.32271118056E+02  0.35828592532E+02  0.51100000000E-03 0.  1.
        -12    1    3    3    0    0 -0.12550145239E+01 -0.49248982294E+01  0.13224806686E+01  0.52515368364E+01  0.00000000000E+00 0.  1.
</event>
<event>
 7    1  0.2530788E-009  0.4778730E+02  0.7816164E-02  0.1312668E+00
        -11   -1    0    0    0    0  0.00000000000E+00  0.00000000000E+00  0.45593999997E+02  0.45594000000E+02  0.51100000000E-03 0.  1.
         11   -1    0    0    0    0 -0.00000000000E+00 -0.00000000000E+00 -0.45593999997E+02  0.45594000000E+02  0.51100000000E-03 0. -1.
    9900012    2    1    2    0    0 -0.57499358579E+01  0.28532304513E+02 -0.32194201341E+02  0.47787299968E+02  0.20000131876E+02 0.  0.
        -12    1    1    2    0    0  0.57499358579E+01 -0.28532304513E+02  0.32194201341E+02  0.43400700032E+02  0.00000000000E+00 0.  1.
         11    1    3    3    0    0 -0.23476669454E+01  0.20804128006E+02 -0.12914079404E+02  0.24598713977E+02  0.51100000000E-03 0. -1.
        -11    1    3    3    0    0  0.27122693545E+01  0.32398243020E+00 -0.75518713092E+01  0.80306992347E+01  0.51100000000E-03 0.  1.
         12    1    3    3    0    0 -0.61145382670E+01  0.74041940770E+01 -0.11728250628E+02  0.15157886757E+02  0.00000000000E+00 0. -1.
</event>
<event>
 7    1  0.2530788E-009  0.4778727E+02  0.7816164E-02  0.1312668E+00
        -11   -1    0    0    0    0  0.00000000000E+00  0.00000000000E+00  0.45593999997E+02  0.45594000000E+02  0.51100000000E-03 0. -1.
         11   -1    0    0    0    0 -0.00000000000E+00 -0.00000000000E+00 -0.45593999997E+02  0.45594000000E+02  0.51100000000E-03 0.  1.
    9900012    2    1    2    0    0 -0.48504193573E+01  0.28051395399E+02  0.32759971696E+02  0.47787273078E+02  0.20000009274E+02 0.  0.
        -12    1    1    2    0    0  0.48504193573E+01 -0.28051395399E+02 -0.32759971696E+02  0.43400726922E+02  0.00000000000E+00 0.  1.
         11    1    3    3    0    0 -0.48158149639E+01  0.30569307367E+02  0.31255644552E+02  0.43983973710E+02  0.51100000000E-03 0. -1.
        -11    1    3    3    0    0  0.49943623096E+00 -0.25492659384E+01  0.18294633389E+01  0.31772833904E+01  0.51100000000E-03 0.  1.
         12    1    3    3    0    0 -0.53404062428E+00  0.31353970442E-01 -0.32513619477E+00  0.62601597822E+00  0.00000000000E+00 0. -1.
</event>
<event>
 7    1  0.2530788E-009  0.4778727E+02  0.7816164E-02  0.1312668E+00
        -11   -1    0    0    0    0  0.00000000000E+00  0.00000000000E+00  0.45593999997E+02  0.45594000000E+02  0.51100000000E-03 0. -1.
         11   -1    0    0    0    0 -0.00000000000E+00 -0.00000000000E+00 -0.45593999997E+02  0.45594000000E+02  0.51100000000E-03 0.  1.
    9900012    2    1    2    0    0 -0.19131472826E+02 -0.24701216747E+02  0.30124070438E+02  0.47787274419E+02  0.20000015385E+02 0.  0.
        -12    1    1    2    0    0  0.19131472826E+02  0.24701216747E+02 -0.30124070438E+02  0.43400725581E+02  0.00000000000E+00 0.  1.
         11    1    3    3    0    0 -0.20872223735E+02 -0.25216225962E+02  0.26641786772E+02  0.42205361959E+02  0.51100000000E-03 0. -1.
        -11    1    3    3    0    0  0.11508759345E+00  0.14307453985E+01  0.34267757567E+01  0.37152482955E+01  0.51100000000E-03 0.  1.
         12    1    3    3    0    0  0.16256633160E+01 -0.91573618358E+00  0.55507908699E-01  0.18666641644E+01  0.00000000000E+00 0. -1.
</event>
<event>
 7    1  0.2530788E-009  0.4778727E+02  0.7816164E-02  0.1312668E+00
        -11   -1    0    0    0    0  0.00000000000E+00  0.00000000000E+00  0.45593999997E+02  0.45594000000E+02  0.51100000000E-03 0.  1.
         11   -1    0    0    0    0 -0.00000000000E+00 -0.00000000000E+00 -0.45593999997E+02  0.45594000000E+02  0.51100000000E-03 0. -1.
    9900012    2    1    2    0    0 -0.58649591575E+01 -0.41833835388E+02 -0.99577068653E+01  0.47787268956E+02  0.19999990476E+02 0.  0.
        -12    1    1    2    0    0  0.58649591575E+01  0.41833835388E+02  0.99577068653E+01  0.43400731044E+02  0.00000000000E+00 0.  1.
         11    1    3    3    0    0 -0.81322266022E+00 -0.23411651983E+02 -0.14066786994E+02  0.27324737442E+02  0.51100000000E-03 0. -1.
        -11    1    3    3    0    0 -0.52716302122E+01 -0.82419015231E+01  0.29236266010E+01  0.10211102711E+02  0.51100000000E-03 0.  1.
        -12    1    3    3    0    0  0.21989371498E+00 -0.10180281882E+02  0.11854535277E+01  0.10251428803E+02  0.00000000000E+00 0.  1.
</event>
<event>
 7    1  0.2530788E-009  0.4778727E+02  0.7816164E-02  0.1312668E+00
        -11   -1    0    0    0    0  0.00000000000E+00  0.00000000000E+00  0.45593999997E+02  0.45594000000E+02  0.51100000000E-03 0. -1.
         11   -1    0    0    0    0 -0.00000000000E+00 -0.00000000000E+00 -0.45593999997E+02  0.45594000000E+02  0.51100000000E-03 0.  1.
    9900012    2    1    2    0    0 -0.27152044370E+02 -0.10759788844E+02  0.32103225511E+02  0.47787266624E+02  0.19999979844E+02 0.  0.
        -12    1    1    2    0    0  0.27152044370E+02  0.10759788844E+02 -0.32103225511E+02  0.43400733376E+02  0.00000000000E+00 0.  1.
         11    1    3    3    0    0 -0.58367311776E+01 -0.19519740905E+01  0.69324776745E+01  0.92702147040E+01  0.51100000000E-03 0. -1.
        -11    1    3    3    0    0 -0.22485160381E+02 -0.44082522732E+01  0.15034193816E+02  0.27405147499E+02  0.51100000000E-03 0.  1.
        -12    1    3    3    0    0  0.11698471888E+01 -0.43995624803E+01  0.10136554020E+02  0.11111904421E+02  0.00000000000E+00 0.  1.
</event>
<event>
 7    1  0.2530788E-009  0.4778728E+02  0.7816164E-02  0.1312668E+00
        -11   -1    0    0    0    0  0.00000000000E+00  0.00000000000E+00  0.45593999997E+02  0.45594000000E+02  0.51100000000E-03 0. -1.
         11   -1    0    0    0    0 -0.00000000000E+00 -0.00000000000E+00 -0.45593999997E+02  0.45594000000E+02  0.51100000000E-03 0.  1.
    9900012    2    1    2    0    0 -0.20094605004E+02  0.36687373866E+02  0.11570056530E+02  0.47787276970E+02  0.20000027016E+02 0.  0.
        -12    1    1    2    0    0  0.20094605004E+02 -0.36687373866E+02 -0.11570056530E+02  0.43400723030E+02  0.00000000000E+00 0.  1.
         11    1    3    3    0    0 -0.91679187985E+01  0.17419514878E+02  0.15296097454E+02  0.24929116135E+02  0.51100000000E-03 0.  1.
        -11    1    3    3    0    0 -0.93592286288E+01  0.12879151634E+02 -0.33495618748E+01  0.16269212407E+02  0.51100000000E-03 0. -1.
        -12    1    3    3    0    0 -0.15674575763E+01  0.63887073532E+01 -0.37647904916E+00  0.65889484270E+01  0.00000000000E+00 0.  1.
</event>
<event>
 7    1  0.2530788E-009  0.4778727E+02  0.7816164E-02  0.1312668E+00
        -11   -1    0    0    0    0  0.00000000000E+00  0.00000000000E+00  0.45593999997E+02  0.45594000000E+02  0.51100000000E-03 0. -1.
         11   -1    0    0    0    0 -0.00000000000E+00 -0.00000000000E+00 -0.45593999997E+02  0.45594000000E+02  0.51100000000E-03 0.  1.
    9900012    2    1    2    0    0 -0.85018554387E+01 -0.30505688538E+01  0.42450391006E+02  0.47787271748E+02  0.20000003208E+02 0.  0.
        -12    1    1    2    0    0  0.85018554387E+01  0.30505688538E+01 -0.42450391006E+02  0.43400728252E+02  0.00000000000E+00 0.  1.
         11    1    3    3    0    0 -0.85777897188E+01  0.45103882195E+01  0.19671047890E+02  0.21928798501E+02  0.51100000000E-03 0. -1.
        -11    1    3    3    0    0 -0.40495463671E+00 -0.48348357713E+01  0.26278201846E+01  0.55177046294E+01  0.51100000000E-03 0.  1.
        -12    1    3    3    0    0  0.48088891682E+00 -0.27261213020E+01  0.20151522931E+02  0.20340768618E+02  0.00000000000E+00 0.  1.
</event>
<event>
 7    1  0.2530788E-009  0.4778727E+02  0.7816164E-02  0.1312668E+00
        -11   -1    0    0    0    0  0.00000000000E+00  0.00000000000E+00  0.45593999997E+02  0.45594000000E+02  0.51100000000E-03 0.  1.
         11   -1    0    0    0    0 -0.00000000000E+00 -0.00000000000E+00 -0.45593999997E+02  0.45594000000E+02  0.51100000000E-03 0. -1.
    9900012    2    1    2    0    0 -0.31791266815E+02 -0.13421544755E+02 -0.26321111865E+02  0.47787269141E+02  0.19999991322E+02 0.  0.
        -12    1    1    2    0    0  0.31791266815E+02  0.13421544755E+02  0.26321111865E+02  0.43400730859E+02  0.00000000000E+00 0.  1.
         11    1    3    3    0    0 -0.11204527376E+02 -0.36422244418E+01 -0.64053400660E+01  0.13410280169E+02  0.51100000000E-03 0. -1.
        -11    1    3    3    0    0 -0.75188875350E+01 -0.53189250260E+01  0.10531292093E+01  0.92700439367E+01  0.51100000000E-03 0.  1.
        -12    1    3    3    0    0 -0.13067851904E+02 -0.44603952867E+01 -0.20968901008E+02  0.25106945035E+02  0.00000000000E+00 0.  1.
</event>
<event>
 7    1  0.2530788E-009  0.4778727E+02  0.7816164E-02  0.1312668E+00
        -11   -1    0    0    0    0  0.00000000000E+00  0.00000000000E+00  0.45593999997E+02  0.45594000000E+02  0.51100000000E-03 0.  1.
         11   -1    0    0    0    0 -0.00000000000E+00 -0.00000000000E+00 -0.45593999997E+02  0.45594000000E+02  0.51100000000E-03 0. -1.
    9900012    2    1    2    0    0 -0.40991044868E+02 -0.47910279717E+01 -0.13431438283E+02  0.47787271403E+02  0.20000001634E+02 0.  0.
        -12    1    1    2    0    0  0.40991044868E+02  0.47910279717E+01  0.13431438283E+02  0.43400728597E+02  0.00000000000E+00 0.  1.
         11    1    3    3    0    0 -0.53999705011E+01 -0.17550859793E+01 -0.25819717178E+01  0.62375144425E+01  0.51100000000E-03 0.  1.
        -11    1    3    3    0    0 -0.30882100724E+02 -0.78953001678E+01 -0.13036828310E+02  0.34438333330E+02  0.51100000000E-03 0. -1.
        -12    1    3    3    0    0 -0.47089736428E+01  0.48593581754E+01  0.21873617450E+01  0.71114236303E+01  0.00000000000E+00 0.  1.
</event>
<event>
 7    1  0.2530788E-009  0.4778727E+02  0.7816164E-02  0.1312668E+00
        -11   -1    0    0    0    0  0.00000000000E+00  0.00000000000E+00  0.45593999997E+02  0.45594000000E+02  0.51100000000E-03 0.  1.
         11   -1    0    0    0    0 -0.00000000000E+00 -0.00000000000E+00 -0.45593999997E+02  0.45594000000E+02  0.51100000000E-03 0. -1.
    9900012    2    1    2    0    0 -0.16255895509E+02  0.39659005605E+02 -0.68214629028E+01  0.47787271659E+02  0.20000002803E+02 0.  0.
        -12    1    1    2    0    0  0.16255895509E+02 -0.39659005605E+02  0.68214629028E+01  0.43400728341E+02  0.00000000000E+00 0.  1.
         11    1    3    3    0    0 -0.11901845287E+02  0.34728203665E+02 -0.80148487543E+00  0.36719809767E+02  0.51100000000E-03 0. -1.
        -11    1    3    3    0    0 -0.60576886711E+01  0.43371352381E+01 -0.52015548461E+01  0.90863913182E+01  0.51100000000E-03 0.  1.
         12    1    3    3    0    0  0.17036384487E+01  0.59366670167E+00 -0.81842318129E+00  0.19810705742E+01  0.00000000000E+00 0. -1.
</event>
<event>
 7    1  0.2530788E-009  0.4778727E+02  0.7816164E-02  0.1312668E+00
        -11   -1    0    0    0    0  0.00000000000E+00  0.00000000000E+00  0.45593999997E+02  0.45594000000E+02  0.51100000000E-03 0.  1.
         11   -1    0    0    0    0 -0.00000000000E+00 -0.00000000000E+00 -0.45593999997E+02  0.45594000000E+02  0.51100000000E-03 0. -1.
    9900012    2    1    2    0    0 -0.32090917186E+02  0.60671844734E+00 -0.29213493149E+02  0.47787271262E+02  0.20000000990E+02 0.  0.
        -12    1    1    2    0    0  0.32090917186E+02 -0.60671844734E+00  0.29213493149E+02  0.43400728738E+02  0.00000000000E+00 0.  1.
         11    1    3    3    0    0 -0.14478765992E+02  0.77367350625E+01 -0.14232039371E+02  0.21726543191E+02  0.51100000000E-03 0. -1.
        -11    1    3    3    0    0 -0.53517571083E+01 -0.39335760230E+01 -0.27294639101E+00  0.66474675229E+01  0.51100000000E-03 0.  1.
         12    1    3    3    0    0 -0.12260394085E+02 -0.31964405922E+01 -0.14708507386E+02  0.19413260548E+02  0.00000000000E+00 0. -1.
</event>
<event>
 7    1  0.2530788E-009  0.4778728E+02  0.7816164E-02  0.1312668E+00
        -11   -1    0    0    0    0  0.00000000000E+00  0.00000000000E+00  0.45593999997E+02  0.45594000000E+02  0.51100000000E-03 0. -1.
         11   -1    0    0    0    0 -0.00000000000E+00 -0.00000000000E+00 -0.45593999997E+02  0.45594000000E+02  0.51100000000E-03 0.  1.
    9900012    2    1    2    0    0  0.22294822869E+02  0.23783311202E+02  0.28651652366E+02  0.47787283395E+02  0.20000056312E+02 0.  0.
        -12    1    1    2    0    0 -0.22294822869E+02 -0.23783311202E+02 -0.28651652366E+02  0.43400716605E+02  0.00000000000E+00 0.  1.
         11    1    3    3    0    0  0.12518786884E+02  0.11221618175E+02  0.40066616170E+01  0.17282883934E+02  0.51100000000E-03 0. -1.
        -11    1    3    3    0    0  0.86631828008E+01  0.13807570800E+02  0.22131874917E+02  0.27486717433E+02  0.51100000000E-03 0.  1.
        -12    1    3    3    0    0  0.11128531844E+01 -0.12458777732E+01  0.25131158326E+01  0.30176820283E+01  0.00000000000E+00 0.  1.
</event>
<event>
 7    1  0.2530788E-009  0.4778727E+02  0.7816164E-02  0.1312668E+00
        -11   -1    0    0    0    0  0.00000000000E+00  0.00000000000E+00  0.45593999997E+02  0.45594000000E+02  0.51100000000E-03 0.  1.
         11   -1    0    0    0    0 -0.00000000000E+00 -0.00000000000E+00 -0.45593999997E+02  0.45594000000E+02  0.51100000000E-03 0. -1.
    9900012    2    1    2    0    0 -0.24111482032E+00 -0.33413276692E+02 -0.27696903492E+02  0.47787266611E+02  0.19999979787E+02 0.  0.
        -12    1    1    2    0    0  0.24111482032E+00  0.33413276692E+02  0.27696903492E+02  0.43400733389E+02  0.00000000000E+00 0.  1.
         11    1    3    3    0    0 -0.67882169367E+01 -0.48375488384E+01 -0.68901558309E+01  0.10814620455E+02  0.51100000000E-03 0. -1.
        -11    1    3    3    0    0  0.43023694817E+01 -0.40125216897E+01 -0.44489638511E+01  0.73759062546E+01  0.51100000000E-03 0.  1.
         12    1    3    3    0    0  0.22447326347E+01 -0.24563206163E+02 -0.16357783810E+02  0.29596739902E+02  0.00000000000E+00 0. -1.
</event>
<event>
 7    1  0.2530788E-009  0.4778727E+02  0.7816164E-02  0.1312668E+00
        -11   -1    0    0    0    0  0.00000000000E+00  0.00000000000E+00  0.45593999997E+02  0.45594000000E+02  0.51100000000E-03 0. -1.
         11   -1    0    0    0    0 -0.00000000000E+00 -0.00000000000E+00 -0.45593999997E+02  0.45594000000E+02  0.51100000000E-03 0.  1.
    9900012    2    1    2    0    0 -0.23074947757E+02  0.11978934081E+02  0.34751623705E+02  0.47787269294E+02  0.19999992018E+02 0.  0.
        -12    1    1    2    0    0  0.23074947757E+02 -0.11978934081E+02 -0.34751623705E+02  0.43400730706E+02  0.00000000000E+00 0.  1.
         11    1    3    3    0    0 -0.30623627285E+01 -0.22342224457E+01  0.63397739701E+01  0.73866467136E+01  0.51100000000E-03 0. -1.
        -11    1    3    3    0    0 -0.21627204058E+02  0.94104417172E+01  0.22267990812E+02  0.32436950900E+02  0.51100000000E-03 0.  1.
        -12    1    3    3    0    0  0.16146190294E+01  0.48027148099E+01  0.61438589230E+01  0.79636716796E+01  0.00000000000E+00 0.  1.
</event>
<event>
 7    1  0.2530788E-009  0.4778728E+02  0.7816164E-02  0.1312668E+00
        -11   -1    0    0    0    0  0.00000000000E+00  0.00000000000E+00  0.45593999997E+02  0.45594000000E+02  0.51100000000E-03 0. -1.
         11   -1    0    0    0    0 -0.00000000000E+00 -0.00000000000E+00 -0.45593999997E+02  0.45594000000E+02  0.51100000000E-03 0.  1.
    9900012    2    1    2    0    0 -0.25373947878E+02  0.35202803182E+02 -0.74018921212E+00  0.47787280387E+02  0.20000042598E+02 0.  0.
        -12    1    1    2    0    0  0.25373947878E+02 -0.35202803182E+02  0.74018921212E+00  0.43400719613E+02  0.00000000000E+00 0.  1.
         11    1    3    3    0    0 -0.18358269496E+02  0.25727398446E+02 -0.93749610933E+01  0.32966877096E+02  0.51100000000E-03 0. -1.
        -11    1    3    3    0    0 -0.60044956438E+01  0.65093997749E+01  0.69849207214E+01  0.11278979170E+02  0.51100000000E-03 0.  1.
         12    1    3    3    0    0 -0.10111827387E+01  0.29660049612E+01  0.16498511597E+01  0.35414241218E+01  0.00000000000E+00 0. -1.
</event>
<event>
 7    1  0.2530788E-009  0.4778727E+02  0.7816164E-02  0.1312668E+00
        -11   -1    0    0    0    0  0.00000000000E+00  0.00000000000E+00  0.45593999997E+02  0.45594000000E+02  0.51100000000E-03 0.  1.
         11   -1    0    0    0    0 -0.00000000000E+00 -0.00000000000E+00 -0.45593999997E+02  0.45594000000E+02  0.51100000000E-03 0. -1.
    9900012    2    1    2    0    0 -0.41136422948E+01  0.42217498375E+00 -0.43203274776E+02  0.47787271481E+02  0.20000001989E+02 0.  0.
        -12    1    1    2    0    0  0.41136422948E+01 -0.42217498375E+00  0.43203274776E+02  0.43400728519E+02  0.00000000000E+00 0.  1.
         11    1    3    3    0    0 -0.68306802444E+01 -0.44444807210E+01 -0.12578597697E+02  0.14987752392E+02  0.51100000000E-03 0. -1.
        -11    1    3    3    0    0  0.43677010889E+01  0.51635544599E+01 -0.97982058094E+01  0.11905626603E+02  0.51100000000E-03 0.  1.
         12    1    3    3    0    0 -0.16506631393E+01 -0.29689875515E+00 -0.20826471270E+02  0.20893892486E+02  0.00000000000E+00 0. -1.
</event>
<event>
 7    1  0.2530788E-009  0.4778727E+02  0.7816164E-02  0.1312668E+00
        -11   -1    0    0    0    0  0.00000000000E+00  0.00000000000E+00  0.45593999997E+02  0.45594000000E+02  0.51100000000E-03 0.  1.
         11   -1    0    0    0    0 -0.00000000000E+00 -0.00000000000E+00 -0.45593999997E+02  0.45594000000E+02  0.51100000000E-03 0. -1.
    9900012    2    1    2    0    0 -0.58962929552E+01 -0.37677493806E+02  0.20718667111E+02  0.47787274465E+02  0.20000015595E+02 0.  0.
        -12    1    1    2    0    0  0.58962929552E+01  0.37677493806E+02 -0.20718667111E+02  0.43400725535E+02  0.00000000000E+00 0.  1.
         11    1    3    3    0    0  0.35847664813E+01 -0.11371582602E+02  0.14570488881E+02  0.18827176849E+02  0.51100000000E-03 0. -1.
        -11    1    3    3    0    0 -0.48667663420E+01 -0.19239813284E+02  0.38829600336E+01  0.20222097040E+02  0.51100000000E-03 0.  1.
         12    1    3    3    0    0 -0.46142930945E+01 -0.70660979203E+01  0.22652181956E+01  0.87380005754E+01  0.00000000000E+00 0. -1.
</event>
<event>
 7    1  0.2530788E-009  0.4778727E+02  0.7816164E-02  0.1312668E+00
        -11   -1    0    0    0    0  0.00000000000E+00  0.00000000000E+00  0.45593999997E+02  0.45594000000E+02  0.51100000000E-03 0.  1.
         11   -1    0    0    0    0 -0.00000000000E+00 -0.00000000000E+00 -0.45593999997E+02  0.45594000000E+02  0.51100000000E-03 0. -1.
    9900012    2    1    2    0    0 -0.42925275434E+02  0.84336253937E+00 -0.63508136249E+01  0.47787269992E+02  0.19999995204E+02 0.  0.
        -12    1    1    2    0    0  0.42925275434E+02 -0.84336253937E+00  0.63508136249E+01  0.43400730008E+02  0.00000000000E+00 0.  1.
         11    1    3    3    0    0 -0.96128136194E+01  0.44599625549E+01 -0.75160241564E+01  0.12991846330E+02  0.51100000000E-03 0. -1.
        -11    1    3    3    0    0 -0.21768751208E+02 -0.65918983168E+01 -0.55067152075E+00  0.22751590976E+02  0.51100000000E-03 0.  1.
         12    1    3    3    0    0 -0.11543710607E+02  0.29752983012E+01  0.17158820523E+01  0.12043832687E+02  0.00000000000E+00 0. -1.
</event>
<event>
 7    1  0.2530788E-009  0.4778727E+02  0.7816164E-02  0.1312668E+00
        -11   -1    0    0    0    0  0.00000000000E+00  0.00000000000E+00  0.45593999997E+02  0.45594000000E+02  0.51100000000E-03 0.  1.
         11   -1    0    0    0    0 -0.00000000000E+00 -0.00000000000E+00 -0.45593999997E+02  0.45594000000E+02  0.51100000000E-03 0. -1.
    9900012    2    1    2    0    0  0.18276801239E+02 -0.39037611665E+02 -0.50642442943E+01  0.47787272375E+02  0.20000006069E+02 0.  0.
        -12    1    1    2    0    0 -0.18276801239E+02  0.39037611665E+02  0.50642442943E+01  0.43400727625E+02  0.00000000000E+00 0.  1.
         11    1    3    3    0    0  0.15051649876E+02 -0.29552971552E+02 -0.96559237044E+01  0.34542251727E+02  0.51100000000E-03 0. -1.
        -11    1    3    3    0    0  0.22905471676E+01 -0.65979441786E+01  0.65975914907E+01  0.96076889755E+01  0.51100000000E-03 0.  1.
         12    1    3    3    0    0  0.93460419506E+00 -0.28866959352E+01 -0.20059120806E+01  0.36373316730E+01  0.00000000000E+00 0. -1.
</event>
<event>
 7    1  0.2530788E-009  0.4778727E+02  0.7816164E-02  0.1312668E+00
        -11   -1    0    0    0    0  0.00000000000E+00  0.00000000000E+00  0.45593999997E+02  0.45594000000E+02  0.51100000000E-03 0. -1.
         11   -1    0    0    0    0 -0.00000000000E+00 -0.00000000000E+00 -0.45593999997E+02  0.45594000000E+02  0.51100000000E-03 0.  1.
    9900012    2    1    2    0    0  0.60535472388E+01 -0.34945846526E+02  0.25015302079E+02  0.47787274641E+02  0.20000016396E+02 0.  0.
        -12    1    1    2    0    0 -0.60535472388E+01  0.34945846526E+02 -0.25015302079E+02  0.43400725359E+02  0.00000000000E+00 0.  1.
         11    1    3    3    0    0  0.10448016218E+01 -0.43593273828E+00  0.10805830360E+01  0.15650264343E+01  0.51100000000E-03 0. -1.
        -11    1    3    3    0    0  0.30766014844E+01 -0.22030344302E+02  0.25102537980E+02  0.33540109720E+02  0.51100000000E-03 0.  1.
        -12    1    3    3    0    0  0.19321441326E+01 -0.12479569486E+02 -0.11678189366E+01  0.12682138486E+02  0.00000000000E+00 0.  1.
</event>
<event>
 7    1  0.2530788E-009  0.4778729E+02  0.7816164E-02  0.1312668E+00
        -11   -1    0    0    0    0  0.00000000000E+00  0.00000000000E+00  0.45593999997E+02  0.45594000000E+02  0.51100000000E-03 0.  1.
         11   -1    0    0    0    0 -0.00000000000E+00 -0.00000000000E+00 -0.45593999997E+02  0.45594000000E+02  0.51100000000E-03 0. -1.
    9900012    2    1    2    0    0  0.63297552096E+01  0.21153346983E+02 -0.37364314141E+02  0.47787287323E+02  0.20000074220E+02 0.  0.
        -12    1    1    2    0    0 -0.63297552096E+01 -0.21153346983E+02  0.37364314141E+02  0.43400712677E+02  0.00000000000E+00 0.  1.
         11    1    3    3    0    0  0.13042951531E+02  0.13263391921E+02 -0.25799101413E+02  0.31806128086E+02  0.51100000000E-03 0. -1.
        -11    1    3    3    0    0 -0.40433184526E+01  0.27705538839E+01 -0.33381338718E+01  0.59302218288E+01  0.51100000000E-03 0.  1.
         12    1    3    3    0    0 -0.26698778684E+01  0.51194011788E+01 -0.82270788567E+01  0.10050937408E+02  0.00000000000E+00 0. -1.
</event>
<event>
 7    1  0.2530788E-009  0.4778727E+02  0.7816164E-02  0.1312668E+00
        -11   -1    0    0    0    0  0.00000000000E+00  0.00000000000E+00  0.45593999997E+02  0.45594000000E+02  0.51100000000E-03 0.  1.
         11   -1    0    0    0    0 -0.00000000000E+00 -0.00000000000E+00 -0.45593999997E+02  0.45594000000E+02  0.51100000000E-03 0. -1.
    9900012    2    1    2    0    0 -0.31959305725E+02  0.26310556889E+02 -0.13037654979E+02  0.47787273352E+02  0.20000010522E+02 0.  0.
        -12    1    1    2    0    0  0.31959305725E+02 -0.26310556889E+02  0.13037654979E+02  0.43400726648E+02  0.00000000000E+00 0.  1.
         11    1    3    3    0    0 -0.25383079991E+02  0.17481162169E+02 -0.17419770520E+02  0.35402544906E+02  0.51100000000E-03 0. -1.
        -11    1    3    3    0    0 -0.23085136597E+01  0.21188935396E+01  0.29510470474E+01  0.43043726705E+01  0.51100000000E-03 0.  1.
         12    1    3    3    0    0 -0.42677120738E+01  0.67105011800E+01  0.14310684928E+01  0.80803557758E+01  0.00000000000E+00 0. -1.
</event>
<event>
 7    1  0.2530788E-009  0.4778725E+02  0.7816164E-02  0.1312668E+00
        -11   -1    0    0    0    0  0.00000000000E+00  0.00000000000E+00  0.45593999997E+02  0.45594000000E+02  0.51100000000E-03 0.  1.
         11   -1    0    0    0    0 -0.00000000000E+00 -0.00000000000E+00 -0.45593999997E+02  0.45594000000E+02  0.51100000000E-03 0. -1.
    9900012    2    1    2    0    0 -0.14444380333E+02 -0.14133376553E+02 -0.38408759366E+02  0.47787248255E+02  0.19999896092E+02 0.  0.
        -12    1    1    2    0    0  0.14444380333E+02  0.14133376553E+02  0.38408759366E+02  0.43400751745E+02  0.00000000000E+00 0.  1.
         11    1    3    3    0    0 -0.27782186520E+00 -0.87009459471E+01 -0.47819790978E+01  0.99323194530E+01  0.51100000000E-03 0. -1.
        -11    1    3    3    0    0 -0.51340621730E+00 -0.19977673464E+01 -0.94319042582E+00  0.22680980478E+01  0.51100000000E-03 0.  1.
         12    1    3    3    0    0 -0.13653152251E+02 -0.34346632598E+01 -0.32683589843E+02  0.35586830754E+02  0.00000000000E+00 0. -1.
</event>
<event>
 7    1  0.2530788E-009  0.4778727E+02  0.7816164E-02  0.1312668E+00
        -11   -1    0    0    0    0  0.00000000000E+00  0.00000000000E+00  0.45593999997E+02  0.45594000000E+02  0.51100000000E-03 0.  1.
         11   -1    0    0    0    0 -0.00000000000E+00 -0.00000000000E+00 -0.45593999997E+02  0.45594000000E+02  0.51100000000E-03 0. -1.
    9900012    2    1    2    0    0  0.43349312302E+02  0.66494790335E+00 -0.20046046808E+01  0.47787268754E+02  0.19999989557E+02 0.  0.
        -12    1    1    2    0    0 -0.43349312302E+02 -0.66494790335E+00  0.20046046808E+01  0.43400731246E+02  0.00000000000E+00 0.  1.
         11    1    3    3    0    0  0.11723116474E+02  0.23077085656E+01  0.23233524205E+01  0.12171891612E+02  0.51100000000E-03 0. -1.
        -11    1    3    3    0    0  0.73504703944E+01 -0.53598736465E+01  0.36372609528E+01  0.97973122858E+01  0.51100000000E-03 0.  1.
        -12    1    3    3    0    0  0.24275725433E+02  0.37171129843E+01 -0.79652180540E+01  0.25818064856E+02  0.00000000000E+00 0.  1.
</event>
<event>
 7    1  0.2530788E-009  0.4778728E+02  0.7816164E-02  0.1312668E+00
        -11   -1    0    0    0    0  0.00000000000E+00  0.00000000000E+00  0.45593999997E+02  0.45594000000E+02  0.51100000000E-03 0.  1.
         11   -1    0    0    0    0 -0.00000000000E+00 -0.00000000000E+00 -0.45593999997E+02  0.45594000000E+02  0.51100000000E-03 0. -1.
    9900012    2    1    2    0    0 -0.25915834518E+02  0.21550681335E+02 -0.27341552876E+02  0.47787275831E+02  0.20000021822E+02 0.  0.
        -12    1    1    2    0    0  0.25915834518E+02 -0.21550681335E+02  0.27341552876E+02  0.43400724169E+02  0.00000000000E+00 0.  1.
         11    1    3    3    0    0 -0.16134649678E+02  0.20494769778E+02 -0.26441583774E+02  0.37141888229E+02  0.51100000000E-03 0. -1.
        -11    1    3    3    0    0 -0.91034727162E+01  0.81538929269E-01 -0.16347760497E+01  0.92494517181E+01  0.51100000000E-03 0.  1.
         12    1    3    3    0    0 -0.67771212382E+00  0.97437262745E+00  0.73480694771E+00  0.13959358833E+01  0.00000000000E+00 0. -1.
</event>
<event>
 7    1  0.2530788E-009  0.4778727E+02  0.7816164E-02  0.1312668E+00
        -11   -1    0    0    0    0  0.00000000000E+00  0.00000000000E+00  0.45593999997E+02  0.45594000000E+02  0.51100000000E-03 0.  1.
         11   -1    0    0    0    0 -0.00000000000E+00 -0.00000000000E+00 -0.45593999997E+02  0.45594000000E+02  0.51100000000E-03 0. -1.
    9900012    2    1    2    0    0  0.99642283944E+01  0.13566403856E+02 -0.40003625149E+02  0.47787272055E+02  0.20000004608E+02 0.  0.
        -12    1    1    2    0    0 -0.99642283944E+01 -0.13566403856E+02  0.40003625149E+02  0.43400727945E+02  0.00000000000E+00 0.  1.
         11    1    3    3    0    0  0.41198439993E+01  0.57859517447E-01 -0.88238016204E+01  0.97383744845E+01  0.51100000000E-03 0. -1.
        -11    1    3    3    0    0 -0.50055987965E+01  0.55347036738E+01 -0.63302826679E+01  0.97857775872E+01  0.51100000000E-03 0.  1.
        -12    1    3    3    0    0  0.10849983192E+02  0.79738406652E+01 -0.24849540861E+02  0.28263119983E+02  0.00000000000E+00 0.  1.
</event>
<event>
 7    1  0.2530788E-009  0.4778727E+02  0.7816164E-02  0.1312668E+00
        -11   -1    0    0    0    0  0.00000000000E+00  0.00000000000E+00  0.45593999997E+02  0.45594000000E+02  0.51100000000E-03 0.  1.
         11   -1    0    0    0    0 -0.00000000000E+00 -0.00000000000E+00 -0.45593999997E+02  0.45594000000E+02  0.51100000000E-03 0. -1.
    9900012    2    1    2    0    0  0.13464080234E+02  0.17597744883E+02 -0.37318377931E+02  0.47787269442E+02  0.19999992696E+02 0.  0.
        -12    1    1    2    0    0 -0.13464080234E+02 -0.17597744883E+02  0.37318377931E+02  0.43400730558E+02  0.00000000000E+00 0.  1.
         11    1    3    3    0    0  0.11823691317E+02  0.12395314824E+02 -0.14323349996E+02  0.22329394558E+02  0.51100000000E-03 0. -1.
        -11    1    3    3    0    0  0.27905006625E+01  0.17216800785E+01 -0.21057987277E+02  0.21311731621E+02  0.51100000000E-03 0.  1.
         12    1    3    3    0    0 -0.11501117455E+01  0.34807499810E+01 -0.19370406576E+01  0.41461432641E+01  0.00000000000E+00 0. -1.
</event>
<event>
 7    1  0.2530788E-009  0.4778728E+02  0.7816164E-02  0.1312668E+00
        -11   -1    0    0    0    0  0.00000000000E+00  0.00000000000E+00  0.45593999997E+02  0.45594000000E+02  0.51100000000E-03 0. -1.
         11   -1    0    0    0    0 -0.00000000000E+00 -0.00000000000E+00 -0.45593999997E+02  0.45594000000E+02  0.51100000000E-03 0.  1.
    9900012    2    1    2    0    0 -0.18682284006E+02  0.65768382009E+01  0.38617875947E+02  0.47787275593E+02  0.20000020738E+02 0.  0.
        -12    1    1    2    0    0  0.18682284006E+02 -0.65768382009E+01 -0.38617875947E+02  0.43400724407E+02  0.00000000000E+00 0.  1.
         11    1    3    3    0    0 -0.16073538318E+02 -0.24756582987E+01  0.19234559935E+02  0.25188406345E+02  0.51100000000E-03 0. -1.
        -11    1    3    3    0    0 -0.22993051734E+01  0.81369627496E+01  0.19812527302E+02  0.21541429976E+02  0.51100000000E-03 0.  1.
        -12    1    3    3    0    0 -0.30944051496E+00  0.91553375001E+00 -0.42921129029E+00  0.10574392708E+01  0.00000000000E+00 0.  1.
</event>
<event>
 7    1  0.2530788E-009  0.4778727E+02  0.7816164E-02  0.1312668E+00
        -11   -1    0    0    0    0  0.00000000000E+00  0.00000000000E+00  0.45593999997E+02  0.45594000000E+02  0.51100000000E-03 0. -1.
         11   -1    0    0    0    0 -0.00000000000E+00 -0.00000000000E+00 -0.45593999997E+02  0.45594000000E+02  0.51100000000E-03 0.  1.
    9900012    2    1    2    0    0 -0.35181430146E+02 -0.13012264534E+02 -0.21830517502E+02  0.47787267866E+02  0.19999985507E+02 0.  0.
        -12    1    1    2    0    0  0.35181430146E+02  0.13012264534E+02  0.21830517502E+02  0.43400732134E+02  0.00000000000E+00 0.  1.
         11    1    3    3    0    0 -0.36152974750E+01 -0.52766462120E+01 -0.36992604352E+00  0.64070442965E+01  0.51100000000E-03 0. -1.
        -11    1    3    3    0    0 -0.16212884768E+02  0.29506511140E+01 -0.78936805422E+01  0.18272223928E+02  0.51100000000E-03 0.  1.
        -12    1    3    3    0    0 -0.15353247902E+02 -0.10686269436E+02 -0.13566910916E+02  0.23107999641E+02  0.00000000000E+00 0.  1.
</event>
<event>
 7    1  0.2530788E-009  0.4778727E+02  0.7816164E-02  0.1312668E+00
        -11   -1    0    0    0    0  0.00000000000E+00  0.00000000000E+00  0.45593999997E+02  0.45594000000E+02  0.51100000000E-03 0.  1.
         11   -1    0    0    0    0 -0.00000000000E+00 -0.00000000000E+00 -0.45593999997E+02  0.45594000000E+02  0.51100000000E-03 0. -1.
    9900012    2    1    2    0    0  0.93544892255E+01  0.73649968609E+01 -0.41735756806E+02  0.47787273697E+02  0.20000012095E+02 0.  0.
        -12    1    1    2    0    0 -0.93544892255E+01 -0.73649968609E+01  0.41735756806E+02  0.43400726303E+02  0.00000000000E+00 0.  1.
         11    1    3    3    0    0  0.67603333345E+01  0.19065799546E+01 -0.17709070932E+02  0.19051203308E+02  0.51100000000E-03 0. -1.
        -11    1    3    3    0    0  0.19764772940E+01 -0.32129785490E+01 -0.69273089659E+00  0.38353057253E+01  0.51100000000E-03 0.  1.
        -12    1    3    3    0    0  0.61767859698E+00  0.86713954553E+01 -0.23333954977E+02  0.24900764664E+02  0.00000000000E+00 0.  1.
</event>
<event>
 7    1  0.2530788E-009  0.4778727E+02  0.7816164E-02  0.1312668E+00
        -11   -1    0    0    0    0  0.00000000000E+00  0.00000000000E+00  0.45593999997E+02  0.45594000000E+02  0.51100000000E-03 0.  1.
         11   -1    0    0    0    0 -0.00000000000E+00 -0.00000000000E+00 -0.45593999997E+02  0.45594000000E+02  0.51100000000E-03 0. -1.
    9900012    2    1    2    0    0 -0.29179873322E+01 -0.30564486404E+02 -0.30674431075E+02  0.47787271885E+02  0.20000003831E+02 0.  0.
        -12    1    1    2    0    0  0.29179873322E+01  0.30564486404E+02  0.30674431075E+02  0.43400728115E+02  0.00000000000E+00 0.  1.
         11    1    3    3    0    0 -0.86752307671E+01 -0.10152602694E+02 -0.11421409670E+02  0.17572238601E+02  0.51100000000E-03 0. -1.
        -11    1    3    3    0    0  0.51718633031E+01 -0.20658695258E+02 -0.15327804929E+02  0.26238739756E+02  0.51100000000E-03 0.  1.
        -12    1    3    3    0    0  0.58538013183E+00  0.24681154839E+00 -0.39252164757E+01  0.39762935280E+01  0.00000000000E+00 0.  1.
</event>
<event>
 7    1  0.2530788E-009  0.4778727E+02  0.7816164E-02  0.1312668E+00
        -11   -1    0    0    0    0  0.00000000000E+00  0.00000000000E+00  0.45593999997E+02  0.45594000000E+02  0.51100000000E-03 0. -1.
         11   -1    0    0    0    0 -0.00000000000E+00 -0.00000000000E+00 -0.45593999997E+02  0.45594000000E+02  0.51100000000E-03 0.  1.
    9900012    2    1    2    0    0 -0.18144930502E+02 -0.35046948826E+02  0.18058133256E+02  0.47787270725E+02  0.19999998542E+02 0.  0.
        -12    1    1    2    0    0  0.18144930502E+02  0.35046948826E+02 -0.18058133256E+02  0.43400729275E+02  0.00000000000E+00 0.  1.
         11    1    3    3    0    0 -0.13546016056E+02 -0.13114137230E+02  0.86978676987E+01  0.20763623216E+02  0.51100000000E-03 0.  1.
        -11    1    3    3    0    0 -0.61715150394E+01 -0.41487305710E+01  0.36153177726E+01  0.82686205676E+01  0.51100000000E-03 0. -1.
         12    1    3    3    0    0  0.15726005933E+01 -0.17784081025E+02  0.57449477847E+01  0.18755026941E+02  0.00000000000E+00 0. -1.
</event>
<event>
 7    1  0.2530788E-009  0.4778727E+02  0.7816164E-02  0.1312668E+00
        -11   -1    0    0    0    0  0.00000000000E+00  0.00000000000E+00  0.45593999997E+02  0.45594000000E+02  0.51100000000E-03 0.  1.
         11   -1    0    0    0    0 -0.00000000000E+00 -0.00000000000E+00 -0.45593999997E+02  0.45594000000E+02  0.51100000000E-03 0. -1.
    9900012    2    1    2    0    0 -0.92688373554E+01 -0.13866545521E+02 -0.40067826516E+02  0.47787272445E+02  0.20000006385E+02 0.  0.
        -12    1    1    2    0    0  0.92688373554E+01  0.13866545521E+02  0.40067826516E+02  0.43400727555E+02  0.00000000000E+00 0.  1.
         11    1    3    3    0    0 -0.28707640540E+00 -0.56032879032E+01 -0.22678673208E+02  0.23362394289E+02  0.51100000000E-03 0. -1.
        -11    1    3    3    0    0 -0.76071928109E+01  0.10978489393E+01 -0.75154949730E+01  0.10749759053E+02  0.51100000000E-03 0.  1.
        -12    1    3    3    0    0 -0.13745681392E+01 -0.93611065576E+01 -0.98736583350E+01  0.13675119103E+02  0.00000000000E+00 0.  1.
</event>
<event>
 7    1 -0.2530788E-009  0.4778727E+02  0.7816164E-02  0.1312668E+00
        -11   -1    0    0    0    0  0.00000000000E+00  0.00000000000E+00  0.45593999997E+02  0.45594000000E+02  0.51100000000E-03 0.  1.
         11   -1    0    0    0    0 -0.00000000000E+00 -0.00000000000E+00 -0.45593999997E+02  0.45594000000E+02  0.51100000000E-03 0. -1.
    9900012    2    1    2    0    0  0.22830615332E+02 -0.19438653364E+02 -0.31377141464E+02  0.47787271348E+02  0.20000001382E+02 0.  0.
        -12    1    1    2    0    0 -0.22830615332E+02  0.19438653364E+02  0.31377141464E+02  0.43400728652E+02  0.00000000000E+00 0.  1.
         11    1    3    3    0    0  0.26700771197E+01 -0.75724432933E+01 -0.13298066818E+02  0.15534149176E+02  0.51100000000E-03 0. -1.
        -11    1    3    3    0    0 -0.22658767812E+00 -0.59611717844E-01  0.15627021394E+01  0.15801689057E+01  0.51100000000E-03 0.  1.
        -12    1    3    3    0    0  0.20387125891E+02 -0.11806598353E+02 -0.19641776786E+02  0.30672953266E+02  0.00000000000E+00 0.  1.
</event>
<event>
 7    1  0.2530788E-009  0.4778727E+02  0.7816164E-02  0.1312668E+00
        -11   -1    0    0    0    0  0.00000000000E+00  0.00000000000E+00  0.45593999997E+02  0.45594000000E+02  0.51100000000E-03 0.  1.
         11   -1    0    0    0    0 -0.00000000000E+00 -0.00000000000E+00 -0.45593999997E+02  0.45594000000E+02  0.51100000000E-03 0. -1.
    9900012    2    1    2    0    0  0.14076094939E+02  0.26613919406E+02 -0.31259979793E+02  0.47787268537E+02  0.19999988568E+02 0.  0.
        -12    1    1    2    0    0 -0.14076094939E+02 -0.26613919406E+02  0.31259979793E+02  0.43400731463E+02  0.00000000000E+00 0.  1.
         11    1    3    3    0    0  0.83048481902E+01  0.14449875100E+02 -0.25777529373E+02  0.30696097711E+02  0.51100000000E-03 0. -1.
        -11    1    3    3    0    0 -0.73779344186E-01 -0.13261944143E+01 -0.11689796437E+01  0.17693921795E+01  0.51100000000E-03 0.  1.
         12    1    3    3    0    0  0.58450260933E+01  0.13490238720E+02 -0.43134707761E+01  0.15321778646E+02  0.00000000000E+00 0. -1.
</event>
<event>
 7    1  0.2530788E-009  0.4778727E+02  0.7816164E-02  0.1312668E+00
        -11   -1    0    0    0    0  0.00000000000E+00  0.00000000000E+00  0.45593999997E+02  0.45594000000E+02  0.51100000000E-03 0.  1.
         11   -1    0    0    0    0 -0.00000000000E+00 -0.00000000000E+00 -0.45593999997E+02  0.45594000000E+02  0.51100000000E-03 0. -1.
    9900012    2    1    2    0    0 -0.63187295486E+00 -0.10071778104E+02 -0.42211175081E+02  0.47787270982E+02  0.19999999715E+02 0.  0.
        -12    1    1    2    0    0  0.63187295486E+00  0.10071778104E+02  0.42211175081E+02  0.43400729018E+02  0.00000000000E+00 0.  1.
         11    1    3    3    0    0  0.23990251503E+01 -0.60071230066E+01 -0.21017394888E+02  0.21990264587E+02  0.51100000000E-03 0. -1.
        -11    1    3    3    0    0 -0.33522271763E+01  0.24180180609E+01 -0.56564932096E+00  0.41718338653E+01  0.51100000000E-03 0.  1.
        -12    1    3    3    0    0  0.32132907114E+00 -0.64826731587E+01 -0.20628130872E+02  0.21625172529E+02  0.00000000000E+00 0.  1.
</event>
<event>
 7    1  0.2530788E-009  0.4778727E+02  0.7816164E-02  0.1312668E+00
        -11   -1    0    0    0    0  0.00000000000E+00  0.00000000000E+00  0.45593999997E+02  0.45594000000E+02  0.51100000000E-03 0.  1.
         11   -1    0    0    0    0 -0.00000000000E+00 -0.00000000000E+00 -0.45593999997E+02  0.45594000000E+02  0.51100000000E-03 0. -1.
    9900012    2    1    2    0    0 -0.11082766693E+02  0.13021985038E+02 -0.39890142757E+02  0.47787270731E+02  0.19999998572E+02 0.  0.
        -12    1    1    2    0    0  0.11082766693E+02 -0.13021985038E+02  0.39890142757E+02  0.43400729269E+02  0.00000000000E+00 0.  1.
         11    1    3    3    0    0 -0.23826799292E+00  0.75161707063E+01 -0.25123440180E+02  0.26224737186E+02  0.51100000000E-03 0. -1.
        -11    1    3    3    0    0 -0.12623274557E+02  0.53896948045E+01 -0.11796246784E+02  0.18098268124E+02  0.51100000000E-03 0.  1.
         12    1    3    3    0    0  0.17787758570E+01  0.11611952754E+00 -0.29704557924E+01  0.34642654212E+01  0.00000000000E+00 0. -1.
</event>
<event>
 7    1  0.2530788E-009  0.4778727E+02  0.7816164E-02  0.1312668E+00
        -11   -1    0    0    0    0  0.00000000000E+00  0.00000000000E+00  0.45593999997E+02  0.45594000000E+02  0.51100000000E-03 0. -1.
         11   -1    0    0    0    0 -0.00000000000E+00 -0.00000000000E+00 -0.45593999997E+02  0.45594000000E+02  0.51100000000E-03 0.  1.
    9900012    2    1    2    0    0  0.41210641120E+02  0.13236196209E+02  0.31795199427E+01  0.47787272141E+02  0.20000005000E+02 0.  0.
        -12    1    1    2    0    0 -0.41210641120E+02 -0.13236196209E+02 -0.31795199427E+01  0.43400727859E+02  0.00000000000E+00 0.  1.
         11    1    3    3    0    0  0.23424756938E+02  0.40880835880E+01  0.17065751595E+01  0.23839967787E+02  0.51100000000E-03 0. -1.
        -11    1    3    3    0    0 -0.17618605642E+01  0.11269203517E+01  0.18825044555E+01  0.28138808455E+01  0.51100000000E-03 0.  1.
        -12    1    3    3    0    0  0.19547744746E+02  0.80211922695E+01 -0.40955967227E+00  0.21133423509E+02  0.00000000000E+00 0.  1.
</event>
<event>
 7    1  0.2530788E-009  0.4778727E+02  0.7816164E-02  0.1312668E+00
        -11   -1    0    0    0    0  0.00000000000E+00  0.00000000000E+00  0.45593999997E+02  0.45594000000E+02  0.51100000000E-03 0.  1.
         11   -1    0    0    0    0 -0.00000000000E+00 -0.00000000000E+00 -0.45593999997E+02  0.45594000000E+02  0.51100000000E-03 0. -1.
    9900012    2    1    2    0    0 -0.37416832193E+02  0.23709065278E+01 -0.21862814711E+02  0.47787271939E+02  0.20000004079E+02 0.  0.
        -12    1    1    2    0    0  0.37416832193E+02 -0.23709065278E+01  0.21862814711E+02  0.43400728061E+02  0.00000000000E+00 0.  1.
         11    1    3    3    0    0 -0.11278079769E+01 -0.38111404837E+01 -0.27658247791E+01  0.48421616649E+01  0.51100000000E-03 0.  1.
        -11    1    3    3    0    0 -0.35269391051E+02  0.81894620776E+01 -0.18157175629E+02  0.40505311519E+02  0.51100000000E-03 0. -1.
         12    1    3    3    0    0 -0.10196331655E+01 -0.20074150661E+01 -0.93981430325E+00  0.24397987549E+01  0.00000000000E+00 0. -1.
</event>
<event>
 7    1  0.2530788E-009  0.4778725E+02  0.7816164E-02  0.1312668E+00
        -11   -1    0    0    0    0  0.00000000000E+00  0.00000000000E+00  0.45593999997E+02  0.45594000000E+02  0.51100000000E-03 0.  1.
         11   -1    0    0    0    0 -0.00000000000E+00 -0.00000000000E+00 -0.45593999997E+02  0.45594000000E+02  0.51100000000E-03 0. -1.
    9900012    2    1    2    0    0 -0.11702478815E+02 -0.35052328476E+02 -0.22759854692E+02  0.47787254297E+02  0.19999923641E+02 0.  0.
        -12    1    1    2    0    0  0.11702478815E+02  0.35052328476E+02  0.22759854692E+02  0.43400745703E+02  0.00000000000E+00 0.  1.
         11    1    3    3    0    0 -0.88583063465E+01 -0.27069171128E+02 -0.23300905746E+02  0.36798666087E+02  0.51100000000E-03 0. -1.
        -11    1    3    3    0    0  0.16387552261E+01 -0.57073596582E+01  0.61880972894E-01  0.59382912083E+01  0.51100000000E-03 0.  1.
         12    1    3    3    0    0 -0.44829276945E+01 -0.22757976899E+01  0.47917008197E+00  0.50502970018E+01  0.00000000000E+00 0. -1.
</event>
<event>
 7    1  0.2530788E-009  0.4778727E+02  0.7816164E-02  0.1312668E+00
        -11   -1    0    0    0    0  0.00000000000E+00  0.00000000000E+00  0.45593999997E+02  0.45594000000E+02  0.51100000000E-03 0.  1.
         11   -1    0    0    0    0 -0.00000000000E+00 -0.00000000000E+00 -0.45593999997E+02  0.45594000000E+02  0.51100000000E-03 0. -1.
    9900012    2    1    2    0    0 -0.31478074538E+02 -0.23694247494E+02 -0.18202649063E+02  0.47787274501E+02  0.20000015761E+02 0.  0.
        -12    1    1    2    0    0  0.31478074538E+02  0.23694247494E+02  0.18202649063E+02  0.43400725499E+02  0.00000000000E+00 0.  1.
         11    1    3    3    0    0 -0.22323972728E+02 -0.17683588760E+02 -0.56883546441E+01  0.29041805188E+02  0.51100000000E-03 0. -1.
        -11    1    3    3    0    0 -0.63641502813E+01  0.81872311902E+00 -0.72548930436E+01  0.96853595537E+01  0.51100000000E-03 0.  1.
        -12    1    3    3    0    0 -0.27899515287E+01 -0.68293818528E+01 -0.52594013752E+01  0.90601097592E+01  0.00000000000E+00 0.  1.
</event>
<event>
 7    1  0.2530788E-009  0.4778727E+02  0.7816164E-02  0.1312668E+00
        -11   -1    0    0    0    0  0.00000000000E+00  0.00000000000E+00  0.45593999997E+02  0.45594000000E+02  0.51100000000E-03 0.  1.
         11   -1    0    0    0    0 -0.00000000000E+00 -0.00000000000E+00 -0.45593999997E+02  0.45594000000E+02  0.51100000000E-03 0. -1.
    9900012    2    1    2    0    0  0.41774494517E+02  0.27544057491E+01 -0.11442397140E+02  0.47787267340E+02  0.19999983108E+02 0.  0.
        -12    1    1    2    0    0 -0.41774494517E+02 -0.27544057491E+01  0.11442397140E+02  0.43400732660E+02  0.00000000000E+00 0.  1.
         11    1    3    3    0    0  0.84587798761E+01  0.69128636388E+01 -0.44226567571E+01  0.11785522209E+02  0.51100000000E-03 0. -1.
        -11    1    3    3    0    0  0.31553821997E+02 -0.47889404964E+01 -0.91161934933E+01  0.33191604628E+02  0.51100000000E-03 0.  1.
        -12    1    3    3    0    0  0.17618926437E+01  0.63048260668E+00  0.20964531101E+01  0.28101405032E+01  0.00000000000E+00 0.  1.
</event>
<event>
 7    1  0.2530788E-009  0.4778727E+02  0.7816164E-02  0.1312668E+00
        -11   -1    0    0    0    0  0.00000000000E+00  0.00000000000E+00  0.45593999997E+02  0.45594000000E+02  0.51100000000E-03 0.  1.
         11   -1    0    0    0    0 -0.00000000000E+00 -0.00000000000E+00 -0.45593999997E+02  0.45594000000E+02  0.51100000000E-03 0. -1.
    9900012    2    1    2    0    0 -0.73456751397E+01 -0.68640042311E+01 -0.42220253211E+02  0.47787270990E+02  0.19999999753E+02 0.  0.
        -12    1    1    2    0    0  0.73456751397E+01  0.68640042311E+01  0.42220253211E+02  0.43400729010E+02  0.00000000000E+00 0.  1.
         11    1    3    3    0    0  0.22778098791E+01 -0.52642339545E+01 -0.32890592257E+02  0.33386998011E+02  0.51100000000E-03 0. -1.
        -11    1    3    3    0    0 -0.65706165558E+01 -0.17314338042E+01 -0.31147783228E+01  0.74748049608E+01  0.51100000000E-03 0.  1.
        -12    1    3    3    0    0 -0.30528684630E+01  0.13166352762E+00 -0.62148826321E+01  0.69254680180E+01  0.00000000000E+00 0.  1.
</event>
<event>
 7    1  0.2530788E-009  0.4778727E+02  0.7816164E-02  0.1312668E+00
        -11   -1    0    0    0    0  0.00000000000E+00  0.00000000000E+00  0.45593999997E+02  0.45594000000E+02  0.51100000000E-03 0.  1.
         11   -1    0    0    0    0 -0.00000000000E+00 -0.00000000000E+00 -0.45593999997E+02  0.45594000000E+02  0.51100000000E-03 0. -1.
    9900012    2    1    2    0    0  0.13435664777E+02  0.26433757894E+02 -0.31691684568E+02  0.47787268265E+02  0.19999987327E+02 0.  0.
        -12    1    1    2    0    0 -0.13435664777E+02 -0.26433757894E+02  0.31691684568E+02  0.43400731735E+02  0.00000000000E+00 0.  1.
         11    1    3    3    0    0  0.18173897612E+01  0.16945682661E+02 -0.80655578094E+01  0.18855033530E+02  0.51100000000E-03 0. -1.
        -11    1    3    3    0    0  0.61315994053E+01  0.68132481953E+01 -0.19550829305E+02  0.21592864308E+02  0.51100000000E-03 0.  1.
        -12    1    3    3    0    0  0.54866756103E+01  0.26748270381E+01 -0.40752974534E+01  0.73393704274E+01  0.00000000000E+00 0.  1.
</event>
<event>
 7    1  0.2530788E-009  0.4778727E+02  0.7816164E-02  0.1312668E+00
        -11   -1    0    0    0    0  0.00000000000E+00  0.00000000000E+00  0.45593999997E+02  0.45594000000E+02  0.51100000000E-03 0. -1.
         11   -1    0    0    0    0 -0.00000000000E+00 -0.00000000000E+00 -0.45593999997E+02  0.45594000000E+02  0.51100000000E-03 0.  1.
    9900012    2    1    2    0    0 -0.39882800654E+02  0.66766075214E+01  0.15760976849E+02  0.47787271121E+02  0.20000000349E+02 0.  0.
        -12    1    1    2    0    0  0.39882800654E+02 -0.66766075214E+01 -0.15760976849E+02  0.43400728879E+02  0.00000000000E+00 0.  1.
         11    1    3    3    0    0 -0.15735292182E+02 -0.49554569239E+01  0.57669319457E+01  0.17476083019E+02  0.51100000000E-03 0. -1.
        -11    1    3    3    0    0 -0.23634714722E+02  0.81365088308E+01  0.79516516742E+01  0.26230350370E+02  0.51100000000E-03 0.  1.
        -12    1    3    3    0    0 -0.51279375009E+00  0.34955556145E+01  0.20423932296E+01  0.40808377312E+01  0.00000000000E+00 0.  1.
</event>
<event>
 7    1  0.2530788E-009  0.4778727E+02  0.7816164E-02  0.1312668E+00
        -11   -1    0    0    0    0  0.00000000000E+00  0.00000000000E+00  0.45593999997E+02  0.45594000000E+02  0.51100000000E-03 0.  1.
         11   -1    0    0    0    0 -0.00000000000E+00 -0.00000000000E+00 -0.45593999997E+02  0.45594000000E+02  0.51100000000E-03 0. -1.
    9900012    2    1    2    0    0  0.28264950365E+02 -0.11358395984E+02 -0.30914438254E+02  0.47787273381E+02  0.20000010654E+02 0.  0.
        -12    1    1    2    0    0 -0.28264950365E+02  0.11358395984E+02  0.30914438254E+02  0.43400726619E+02  0.00000000000E+00 0.  1.
         11    1    3    3    0    0  0.11067206036E+01  0.11929026946E+00 -0.37428174842E-01  0.11137602041E+01  0.51100000000E-03 0. -1.
        -11    1    3    3    0    0  0.89807149910E+01  0.38019409396E+01 -0.33322712734E+01  0.10305922024E+02  0.51100000000E-03 0.  1.
        -12    1    3    3    0    0  0.18177514770E+02 -0.15279627194E+02 -0.27544738806E+02  0.36367591153E+02  0.00000000000E+00 0.  1.
</event>
<event>
 7    1  0.3037760E-009  0.4778728E+02  0.7816164E-02  0.1312668E+00
        -11   -1    0    0    0    0  0.00000000000E+00  0.00000000000E+00  0.45593999997E+02  0.45594000000E+02  0.51100000000E-03 0. -1.
         11   -1    0    0    0    0 -0.00000000000E+00 -0.00000000000E+00 -0.45593999997E+02  0.45594000000E+02  0.51100000000E-03 0.  1.
    9900012    2    1    2    0    0 -0.38072087528E+02 -0.12388281721E+00  0.20835633205E+02  0.47787276426E+02  0.20000024534E+02 0.  0.
        -12    1    1    2    0    0  0.38072087528E+02  0.12388281721E+00 -0.20835633205E+02  0.43400723574E+02  0.00000000000E+00 0.  1.
         11    1    3    3    0    0 -0.29503610285E+02  0.17421057601E+01  0.11770291597E+02  0.31812540246E+02  0.51100000000E-03 0. -1.
        -11    1    3    3    0    0  0.79934250579E+00  0.17927159174E-02 -0.15195355136E+01  0.17169566371E+01  0.51100000000E-03 0.  1.
        -12    1    3    3    0    0 -0.93678197488E+01 -0.18677812932E+01  0.10584877121E+02  0.14257779542E+02  0.00000000000E+00 0.  1.
</event>
<event>
 7    1  0.2530788E-009  0.4778727E+02  0.7816164E-02  0.1312668E+00
        -11   -1    0    0    0    0  0.00000000000E+00  0.00000000000E+00  0.45593999997E+02  0.45594000000E+02  0.51100000000E-03 0.  1.
         11   -1    0    0    0    0 -0.00000000000E+00 -0.00000000000E+00 -0.45593999997E+02  0.45594000000E+02  0.51100000000E-03 0. -1.
    9900012    2    1    2    0    0 -0.24392281598E+02  0.95435869173E+01 -0.34605780735E+02  0.47787268289E+02  0.19999987436E+02 0.  0.
        -12    1    1    2    0    0  0.24392281598E+02 -0.95435869173E+01  0.34605780735E+02  0.43400731711E+02  0.00000000000E+00 0.  1.
         11    1    3    3    0    0 -0.42402967953E+01  0.38044664330E+01 -0.17847846287E+02  0.18734985965E+02  0.51100000000E-03 0. -1.
        -11    1    3    3    0    0 -0.11827228578E+02  0.22931409470E+01 -0.26862271385E+01  0.12343324015E+02  0.51100000000E-03 0.  1.
        -12    1    3    3    0    0 -0.83247562240E+01  0.34459795373E+01 -0.14071707310E+02  0.16708958309E+02  0.00000000000E+00 0.  1.
</event>
<event>
 7    1  0.2530788E-009  0.4778727E+02  0.7816164E-02  0.1312668E+00
        -11   -1    0    0    0    0  0.00000000000E+00  0.00000000000E+00  0.45593999997E+02  0.45594000000E+02  0.51100000000E-03 0.  1.
         11   -1    0    0    0    0 -0.00000000000E+00 -0.00000000000E+00 -0.45593999997E+02  0.45594000000E+02  0.51100000000E-03 0. -1.
    9900012    2    1    2    0    0  0.11341876117E+02  0.33672521022E+02 -0.24922806192E+02  0.47787273113E+02  0.20000009430E+02 0.  0.
        -12    1    1    2    0    0 -0.11341876117E+02 -0.33672521022E+02  0.24922806192E+02  0.43400726887E+02  0.00000000000E+00 0.  1.
         11    1    3    3    0    0  0.46388610103E+01  0.11549787016E+02 -0.17783920523E+02  0.21706783295E+02  0.51100000000E-03 0. -1.
        -11    1    3    3    0    0 -0.16712204322E+01  0.10460254370E+02 -0.17063318180E+01  0.10729467263E+02  0.51100000000E-03 0.  1.
         12    1    3    3    0    0  0.83742355392E+01  0.11662479637E+02 -0.54325538512E+01  0.15351022555E+02  0.00000000000E+00 0. -1.
</event>
<event>
 7    1  0.2992363E-009  0.4778727E+02  0.7816164E-02  0.1312668E+00
        -11   -1    0    0    0    0  0.00000000000E+00  0.00000000000E+00  0.45593999997E+02  0.45594000000E+02  0.51100000000E-03 0. -1.
         11   -1    0    0    0    0 -0.00000000000E+00 -0.00000000000E+00 -0.45593999997E+02  0.45594000000E+02  0.51100000000E-03 0.  1.
    9900012    2    1    2    0    0 -0.32911514046E+02 -0.21974764490E+02  0.17820359784E+02  0.47787271273E+02  0.20000001043E+02 0.  0.
        -12    1    1    2    0    0  0.32911514046E+02  0.21974764490E+02 -0.17820359784E+02  0.43400728727E+02  0.00000000000E+00 0.  1.
         11    1    3    3    0    0 -0.71939426258E+01 -0.59305477169E+01  0.56569640904E+01  0.10905294572E+02  0.51100000000E-03 0. -1.
        -11    1    3    3    0    0 -0.52154219676E+01 -0.12679343423E+02  0.73469920100E+01  0.15554570640E+02  0.51100000000E-03 0.  1.
        -12    1    3    3    0    0 -0.20502149453E+02 -0.33648733498E+01  0.48164036836E+01  0.21327406061E+02  0.00000000000E+00 0.  1.
</event>
<event>
 7    1  0.2530788E-009  0.4778728E+02  0.7816164E-02  0.1312668E+00
        -11   -1    0    0    0    0  0.00000000000E+00  0.00000000000E+00  0.45593999997E+02  0.45594000000E+02  0.51100000000E-03 0.  1.
         11   -1    0    0    0    0 -0.00000000000E+00 -0.00000000000E+00 -0.45593999997E+02  0.45594000000E+02  0.51100000000E-03 0. -1.
    9900012    2    1    2    0    0 -0.12790799056E+02 -0.30364105961E+02 -0.28249592118E+02  0.47787275051E+02  0.20000018268E+02 0.  0.
        -12    1    1    2    0    0  0.12790799056E+02  0.30364105961E+02  0.28249592118E+02  0.43400724949E+02  0.00000000000E+00 0.  1.
         11    1    3    3    0    0 -0.64579139726E+01 -0.13840983669E+02 -0.91541824671E+01  0.17806643106E+02  0.51100000000E-03 0. -1.
        -11    1    3    3    0    0 -0.29783860649E+00 -0.56735176734E+01 -0.16290248820E+02  0.17252527859E+02  0.51100000000E-03 0.  1.
        -12    1    3    3    0    0 -0.60350464769E+01 -0.10849604618E+02 -0.28051608303E+01  0.12728104086E+02  0.00000000000E+00 0.  1.
</event>
<event>
 7    1  0.2530788E-009  0.4778727E+02  0.7816164E-02  0.1312668E+00
        -11   -1    0    0    0    0  0.00000000000E+00  0.00000000000E+00  0.45593999997E+02  0.45594000000E+02  0.51100000000E-03 0.  1.
         11   -1    0    0    0    0 -0.00000000000E+00 -0.00000000000E+00 -0.45593999997E+02  0.45594000000E+02  0.51100000000E-03 0. -1.
    9900012    2    1    2    0    0 -0.19132097309E+02 -0.30403687071E+02  0.24355733617E+02  0.47787273106E+02  0.20000009398E+02 0.  0.
        -12    1    1    2    0    0  0.19132097309E+02  0.30403687071E+02 -0.24355733617E+02  0.43400726894E+02  0.00000000000E+00 0.  1.
         11    1    3    3    0    0 -0.12449208536E+02 -0.12928533474E+02  0.10399357192E+02  0.20743104908E+02  0.51100000000E-03 0. -1.
        -11    1    3    3    0    0 -0.37242051986E+00 -0.63508300604E+01 -0.19311893782E+01  0.66484007232E+01  0.51100000000E-03 0.  1.
        -12    1    3    3    0    0 -0.63104682522E+01 -0.11124323537E+02  0.15887565804E+02  0.20395767475E+02  0.00000000000E+00 0.  1.
</event>
<event>
 7    1  0.2530788E-009  0.4778727E+02  0.7816164E-02  0.1312668E+00
        -11   -1    0    0    0    0  0.00000000000E+00  0.00000000000E+00  0.45593999997E+02  0.45594000000E+02  0.51100000000E-03 0.  1.
         11   -1    0    0    0    0 -0.00000000000E+00 -0.00000000000E+00 -0.45593999997E+02  0.45594000000E+02  0.51100000000E-03 0. -1.
    9900012    2    1    2    0    0  0.43359918873E+02  0.14218343192E+01 -0.12324500867E+01  0.47787272924E+02  0.20000008571E+02 0.  0.
        -12    1    1    2    0    0 -0.43359918873E+02 -0.14218343192E+01  0.12324500867E+01  0.43400727076E+02  0.00000000000E+00 0.  1.
         11    1    3    3    0    0  0.20963766135E+02  0.75883419771E+01  0.23176424811E+01  0.22415037173E+02  0.51100000000E-03 0. -1.
        -11    1    3    3    0    0  0.16974663763E+02 -0.67134801265E+01 -0.62456376807E+01  0.19292952484E+02  0.51100000000E-03 0.  1.
        -12    1    3    3    0    0  0.54214889749E+01  0.54697246859E+00  0.26955451129E+01  0.60792832672E+01  0.00000000000E+00 0.  1.
</event>
<event>
 7    1  0.2530788E-009  0.4778728E+02  0.7816164E-02  0.1312668E+00
        -11   -1    0    0    0    0  0.00000000000E+00  0.00000000000E+00  0.45593999997E+02  0.45594000000E+02  0.51100000000E-03 0. -1.
         11   -1    0    0    0    0 -0.00000000000E+00 -0.00000000000E+00 -0.45593999997E+02  0.45594000000E+02  0.51100000000E-03 0.  1.
    9900012    2    1    2    0    0  0.26185541666E+02  0.19643870582E+02  0.28496634077E+02  0.47787281141E+02  0.20000046033E+02 0.  0.
        -12    1    1    2    0    0 -0.26185541666E+02 -0.19643870582E+02 -0.28496634077E+02  0.43400718859E+02  0.00000000000E+00 0.  1.
         11    1    3    3    0    0  0.13478216187E+02  0.18427309781E+02  0.22363018382E+02  0.31958295461E+02  0.51100000000E-03 0. -1.
        -11    1    3    3    0    0  0.44813798057E+01  0.44953604002E+00 -0.13290647411E+01  0.46958770173E+01  0.51100000000E-03 0.  1.
         12    1    3    3    0    0  0.82259456731E+01  0.76702476097E+00  0.74626804358E+01  0.11133108662E+02  0.00000000000E+00 0. -1.
</event>
<event>
 7    1  0.2530788E-009  0.4778727E+02  0.7816164E-02  0.1312668E+00
        -11   -1    0    0    0    0  0.00000000000E+00  0.00000000000E+00  0.45593999997E+02  0.45594000000E+02  0.51100000000E-03 0.  1.
         11   -1    0    0    0    0 -0.00000000000E+00 -0.00000000000E+00 -0.45593999997E+02  0.45594000000E+02  0.51100000000E-03 0. -1.
    9900012    2    1    2    0    0 -0.81624050209E+01 -0.64724603649E+01 -0.42132006664E+02  0.47787267466E+02  0.19999983686E+02 0.  0.
        -12    1    1    2    0    0  0.81624050209E+01  0.64724603649E+01  0.42132006664E+02  0.43400732534E+02  0.00000000000E+00 0.  1.
         11    1    3    3    0    0  0.62323457001E+01 -0.35809122823E+01 -0.92272321318E+01  0.11696447271E+02  0.51100000000E-03 0. -1.
        -11    1    3    3    0    0 -0.14342386453E+01  0.32778678285E+00 -0.31511429166E+01  0.34776697096E+01  0.51100000000E-03 0.  1.
         12    1    3    3    0    0 -0.12960512076E+02 -0.32193348654E+01 -0.29753631616E+02  0.32613150485E+02  0.00000000000E+00 0. -1.
</event>
<event>
 7    1  0.2530788E-009  0.4778728E+02  0.7816164E-02  0.1312668E+00
        -11   -1    0    0    0    0  0.00000000000E+00  0.00000000000E+00  0.45593999997E+02  0.45594000000E+02  0.51100000000E-03 0. -1.
         11   -1    0    0    0    0 -0.00000000000E+00 -0.00000000000E+00 -0.45593999997E+02  0.45594000000E+02  0.51100000000E-03 0.  1.
    9900012    2    1    2    0    0 -0.16960280834E+02 -0.36799983215E+02 -0.15547764069E+02  0.47787275834E+02  0.20000021838E+02 0.  0.
        -12    1    1    2    0    0  0.16960280834E+02  0.36799983215E+02  0.15547764069E+02  0.43400724166E+02  0.00000000000E+00 0.  1.
         11    1    3    3    0    0 -0.74729698754E+01 -0.19356544746E+02 -0.43207112599E+01  0.21194094680E+02  0.51100000000E-03 0. -1.
        -11    1    3    3    0    0 -0.72622702842E+01 -0.12194360086E+02 -0.14273594420E+02  0.20129045817E+02  0.51100000000E-03 0.  1.
        -12    1    3    3    0    0 -0.22250406746E+01 -0.52490783822E+01  0.30465416103E+01  0.64641353365E+01  0.00000000000E+00 0.  1.
</event>
<event>
 7    1  0.2530788E-009  0.4778727E+02  0.7816164E-02  0.1312668E+00
        -11   -1    0    0    0    0  0.00000000000E+00  0.00000000000E+00  0.45593999997E+02  0.45594000000E+02  0.51100000000E-03 0. -1.
         11   -1    0    0    0    0 -0.00000000000E+00 -0.00000000000E+00 -0.45593999997E+02  0.45594000000E+02  0.51100000000E-03 0.  1.
    9900012    2    1    2    0    0  0.38015444959E+02 -0.19684923143E+02  0.71381450093E+01  0.47787269952E+02  0.19999995019E+02 0.  0.
        -12    1    1    2    0    0 -0.38015444959E+02  0.19684923143E+02 -0.71381450093E+01  0.43400730048E+02  0.00000000000E+00 0.  1.
         11    1    3    3    0    0  0.26724653597E+01 -0.17763023724E+01 -0.25206671626E+01  0.40805740310E+01  0.51100000000E-03 0.  1.
        -11    1    3    3    0    0  0.25520945631E+02 -0.81662482926E+01 -0.67174697451E-01  0.26795723349E+02  0.51100000000E-03 0. -1.
        -12    1    3    3    0    0  0.98220339678E+01 -0.97423724775E+01  0.97259868694E+01  0.16910972572E+02  0.00000000000E+00 0.  1.
</event>
<event>
 7    1  0.3641510E-009  0.4778727E+02  0.7816164E-02  0.1312668E+00
        -11   -1    0    0    0    0  0.00000000000E+00  0.00000000000E+00  0.45593999997E+02  0.45594000000E+02  0.51100000000E-03 0. -1.
         11   -1    0    0    0    0 -0.00000000000E+00 -0.00000000000E+00 -0.45593999997E+02  0.45594000000E+02  0.51100000000E-03 0.  1.
    9900012    2    1    2    0    0  0.21193332158E+02  0.83486996347E+00  0.37865141598E+02  0.47787270927E+02  0.19999999467E+02 0.  0.
        -12    1    1    2    0    0 -0.21193332158E+02 -0.83486996347E+00 -0.37865141598E+02  0.43400729073E+02  0.00000000000E+00 0.  1.
         11    1    3    3    0    0  0.82607360731E+01 -0.14183388519E+01  0.21253925901E+02  0.22846899397E+02  0.51100000000E-03 0. -1.
        -11    1    3    3    0    0  0.55731984189E+01  0.68962288897E+01  0.42736607098E+01  0.98429004688E+01  0.51100000000E-03 0.  1.
        -12    1    3    3    0    0  0.73593976660E+01 -0.46430200743E+01  0.12337554986E+02  0.15097471062E+02  0.00000000000E+00 0.  1.
</event>
<event>
 7    1  0.2530788E-009  0.4778727E+02  0.7816164E-02  0.1312668E+00
        -11   -1    0    0    0    0  0.00000000000E+00  0.00000000000E+00  0.45593999997E+02  0.45594000000E+02  0.51100000000E-03 0. -1.
         11   -1    0    0    0    0 -0.00000000000E+00 -0.00000000000E+00 -0.45593999997E+02  0.45594000000E+02  0.51100000000E-03 0.  1.
    9900012    2    1    2    0    0  0.19332624529E+02  0.26969448068E+02  0.27973595225E+02  0.47787268093E+02  0.19999986543E+02 0.  0.
        -12    1    1    2    0    0 -0.19332624529E+02 -0.26969448068E+02 -0.27973595225E+02  0.43400731907E+02  0.00000000000E+00 0.  1.
         11    1    3    3    0    0  0.59713313566E+00  0.37205989201E+01  0.59908594381E+01  0.70774162923E+01  0.51100000000E-03 0. -1.
        -11    1    3    3    0    0 -0.44957635201E+00 -0.49765884674E+00  0.63993885668E+01  0.64344352910E+01  0.51100000000E-03 0.  1.
        -12    1    3    3    0    0  0.19185067746E+02  0.23746507995E+02  0.15583347220E+02  0.34275416510E+02  0.00000000000E+00 0.  1.
</event>
<event>
 7    1  0.2530788E-009  0.4778728E+02  0.7816164E-02  0.1312668E+00
        -11   -1    0    0    0    0  0.00000000000E+00  0.00000000000E+00  0.45593999997E+02  0.45594000000E+02  0.51100000000E-03 0.  1.
         11   -1    0    0    0    0 -0.00000000000E+00 -0.00000000000E+00 -0.45593999997E+02  0.45594000000E+02  0.51100000000E-03 0. -1.
    9900012    2    1    2    0    0  0.67425244307E+01 -0.27171003042E+02 -0.33164704909E+02  0.47787277728E+02  0.20000030475E+02 0.  0.
        -12    1    1    2    0    0 -0.67425244307E+01  0.27171003042E+02  0.33164704909E+02  0.43400722272E+02  0.00000000000E+00 0.  1.
         11    1    3    3    0    0  0.55110141610E+01 -0.27662014039E+02 -0.23271209936E+02  0.36566480689E+02  0.51100000000E-03 0. -1.
        -11    1    3    3    0    0 -0.21059087920E+00  0.72864160525E+00 -0.97193628845E+01  0.97489118495E+01  0.51100000000E-03 0.  1.
        -12    1    3    3    0    0  0.14421011489E+01 -0.23763060801E+00 -0.17413208814E+00  0.14718851904E+01  0.00000000000E+00 0.  1.
</event>
<event>
 7    1  0.2530788E-009  0.4778728E+02  0.7816164E-02  0.1312668E+00
        -11   -1    0    0    0    0  0.00000000000E+00  0.00000000000E+00  0.45593999997E+02  0.45594000000E+02  0.51100000000E-03 0.  1.
         11   -1    0    0    0    0 -0.00000000000E+00 -0.00000000000E+00 -0.45593999997E+02  0.45594000000E+02  0.51100000000E-03 0. -1.
    9900012    2    1    2    0    0 -0.30704927433E+02 -0.49633807352E+01 -0.30268715385E+02  0.47787275950E+02  0.20000022367E+02 0.  0.
        -12    1    1    2    0    0  0.30704927433E+02  0.49633807352E+01  0.30268715385E+02  0.43400724050E+02  0.00000000000E+00 0.  1.
         11    1    3    3    0    0 -0.21618124765E+02 -0.42657934506E+01 -0.11547430697E+02  0.24877368592E+02  0.51100000000E-03 0. -1.
        -11    1    3    3    0    0 -0.68569364185E+01 -0.39963507960E+01 -0.16596948686E+02  0.18396931882E+02  0.51100000000E-03 0.  1.
        -12    1    3    3    0    0 -0.22298662496E+01  0.32987635114E+01 -0.21243360024E+01  0.45129754760E+01  0.00000000000E+00 0.  1.
</event>
<event>
 7    1  0.2530788E-009  0.4778727E+02  0.7816164E-02  0.1312668E+00
        -11   -1    0    0    0    0  0.00000000000E+00  0.00000000000E+00  0.45593999997E+02  0.45594000000E+02  0.51100000000E-03 0.  1.
         11   -1    0    0    0    0 -0.00000000000E+00 -0.00000000000E+00 -0.45593999997E+02  0.45594000000E+02  0.51100000000E-03 0. -1.
    9900012    2    1    2    0    0 -0.31119282563E+02  0.22762311105E+02 -0.19927134443E+02  0.47787271422E+02  0.20000001720E+02 0.  0.
        -12    1    1    2    0    0  0.31119282563E+02 -0.22762311105E+02  0.19927134443E+02  0.43400728578E+02  0.00000000000E+00 0.  1.
         11    1    3    3    0    0 -0.17890182255E+02  0.22659612754E+02 -0.14818310670E+02  0.32451486910E+02  0.51100000000E-03 0. -1.
        -11    1    3    3    0    0 -0.77720220708E+01  0.64031062543E-01  0.12660531865E+00  0.77733169377E+01  0.51100000000E-03 0.  1.
         12    1    3    3    0    0 -0.54570782368E+01  0.38667288243E-01 -0.52354290910E+01  0.75624675741E+01  0.00000000000E+00 0. -1.
</event>
<event>
 7    1  0.2530788E-009  0.4778726E+02  0.7816164E-02  0.1312668E+00
        -11   -1    0    0    0    0  0.00000000000E+00  0.00000000000E+00  0.45593999997E+02  0.45594000000E+02  0.51100000000E-03 0.  1.
         11   -1    0    0    0    0 -0.00000000000E+00 -0.00000000000E+00 -0.45593999997E+02  0.45594000000E+02  0.51100000000E-03 0. -1.
    9900012    2    1    2    0    0  0.33912924091E+02  0.35085813134E+01 -0.26855674726E+02  0.47787264658E+02  0.19999970882E+02 0.  0.
        -12    1    1    2    0    0 -0.33912924091E+02 -0.35085813134E+01  0.26855674726E+02  0.43400735342E+02  0.00000000000E+00 0.  1.
         11    1    3    3    0    0  0.27468288399E+02 -0.21319249933E+00 -0.13153469280E+02  0.30455969415E+02  0.51100000000E-03 0. -1.
        -11    1    3    3    0    0 -0.14015644495E+01  0.21494619556E+01 -0.40347107806E+01  0.47815751535E+01  0.51100000000E-03 0.  1.
        -12    1    3    3    0    0  0.78462001413E+01  0.15723118572E+01 -0.96674946654E+01  0.12549720090E+02  0.00000000000E+00 0.  1.
</event>
<event>
 7    1  0.2530788E-009  0.4778727E+02  0.7816164E-02  0.1312668E+00
        -11   -1    0    0    0    0  0.00000000000E+00  0.00000000000E+00  0.45593999997E+02  0.45594000000E+02  0.51100000000E-03 0.  1.
         11   -1    0    0    0    0 -0.00000000000E+00 -0.00000000000E+00 -0.45593999997E+02  0.45594000000E+02  0.51100000000E-03 0. -1.
    9900012    2    1    2    0    0 -0.18617883282E+02  0.29955370744E+02 -0.25291764049E+02  0.47787272552E+02  0.20000006873E+02 0.  0.
        -12    1    1    2    0    0  0.18617883282E+02 -0.29955370744E+02  0.25291764049E+02  0.43400727448E+02  0.00000000000E+00 0.  1.
         11    1    3    3    0    0  0.10503506053E+01  0.22480844416E+01 -0.77091130249E+01  0.80986137050E+01  0.51100000000E-03 0. -1.
        -11    1    3    3    0    0 -0.12604992979E+02  0.22402899852E+02 -0.86393637321E+01  0.27118524586E+02  0.51100000000E-03 0.  1.
        -12    1    3    3    0    0 -0.70632409080E+01  0.53043864502E+01 -0.89432872923E+01  0.12570134261E+02  0.00000000000E+00 0.  1.
</event>
<event>
 7    1  0.2530788E-009  0.4778727E+02  0.7816164E-02  0.1312668E+00
        -11   -1    0    0    0    0  0.00000000000E+00  0.00000000000E+00  0.45593999997E+02  0.45594000000E+02  0.51100000000E-03 0. -1.
         11   -1    0    0    0    0 -0.00000000000E+00 -0.00000000000E+00 -0.45593999997E+02  0.45594000000E+02  0.51100000000E-03 0.  1.
    9900012    2    1    2    0    0  0.13309492100E+02 -0.38245499821E+02  0.15612896749E+02  0.47787269805E+02  0.19999994350E+02 0.  0.
        -12    1    1    2    0    0 -0.13309492100E+02  0.38245499821E+02 -0.15612896749E+02  0.43400730195E+02  0.00000000000E+00 0.  1.
         11    1    3    3    0    0  0.48762016807E+01 -0.99376552544E+01  0.11894802625E+02  0.16248712704E+02  0.51100000000E-03 0. -1.
        -11    1    3    3    0    0  0.81193118980E+01 -0.12641820927E+02  0.49551504833E+01  0.15820631423E+02  0.51100000000E-03 0.  1.
         12    1    3    3    0    0  0.31397852176E+00 -0.15666023640E+02 -0.12370563593E+01  0.15717925679E+02  0.00000000000E+00 0. -1.
</event>
<event>
 7    1  0.2530788E-009  0.4778722E+02  0.7816164E-02  0.1312668E+00
        -11   -1    0    0    0    0  0.00000000000E+00  0.00000000000E+00  0.45593999997E+02  0.45594000000E+02  0.51100000000E-03 0.  1.
         11   -1    0    0    0    0 -0.00000000000E+00 -0.00000000000E+00 -0.45593999997E+02  0.45594000000E+02  0.51100000000E-03 0. -1.
    9900012    2    1    2    0    0 -0.87342125487E+01 -0.42382004179E+02  0.33327310030E+01  0.47787218406E+02  0.19999759997E+02 0.  0.
        -12    1    1    2    0    0  0.87342125487E+01  0.42382004179E+02 -0.33327310030E+01  0.43400781594E+02  0.00000000000E+00 0.  1.
         11    1    3    3    0    0 -0.12771936570E+02 -0.41139470899E+02  0.45078153264E+01  0.43311647727E+02  0.51100000000E-03 0. -1.
        -11    1    3    3    0    0  0.15522096540E+01 -0.42656317972E-01 -0.31240786572E+00  0.15839107636E+01  0.51100000000E-03 0.  1.
         12    1    3    3    0    0  0.24855143670E+01 -0.11998769620E+01 -0.86267645761E+00  0.28916599148E+01  0.00000000000E+00 0. -1.
</event>
<event>
 7    1  0.2530788E-009  0.4778727E+02  0.7816164E-02  0.1312668E+00
        -11   -1    0    0    0    0  0.00000000000E+00  0.00000000000E+00  0.45593999997E+02  0.45594000000E+02  0.51100000000E-03 0.  1.
         11   -1    0    0    0    0 -0.00000000000E+00 -0.00000000000E+00 -0.45593999997E+02  0.45594000000E+02  0.51100000000E-03 0. -1.
    9900012    2    1    2    0    0  0.26615533742E+02  0.88328205808E+01 -0.33124277712E+02  0.47787272705E+02  0.20000007573E+02 0.  0.
        -12    1    1    2    0    0 -0.26615533742E+02 -0.88328205808E+01  0.33124277712E+02  0.43400727295E+02  0.00000000000E+00 0.  1.
         11    1    3    3    0    0  0.11861237170E+01  0.34951002440E+01  0.10400996833E+00  0.36923479688E+01  0.51100000000E-03 0. -1.
        -11    1    3    3    0    0  0.19263019128E+02 -0.16359778098E+01 -0.19105569723E+02  0.27180197277E+02  0.51100000000E-03 0.  1.
         12    1    3    3    0    0  0.61663908967E+01  0.69736981466E+01 -0.14122717958E+02  0.16914727460E+02  0.00000000000E+00 0. -1.
</event>
<event>
 7    1  0.2530788E-009  0.4778727E+02  0.7816164E-02  0.1312668E+00
        -11   -1    0    0    0    0  0.00000000000E+00  0.00000000000E+00  0.45593999997E+02  0.45594000000E+02  0.51100000000E-03 0. -1.
         11   -1    0    0    0    0 -0.00000000000E+00 -0.00000000000E+00 -0.45593999997E+02  0.45594000000E+02  0.51100000000E-03 0.  1.
    9900012    2    1    2    0    0  0.34231771960E+01  0.34851227619E+02  0.25637808337E+02  0.47787269304E+02  0.19999992063E+02 0.  0.
        -12    1    1    2    0    0 -0.34231771960E+01 -0.34851227619E+02 -0.25637808337E+02  0.43400730696E+02  0.00000000000E+00 0.  1.
         11    1    3    3    0    0  0.28468254333E+01  0.29529844831E+02  0.15669649626E+02  0.33550768552E+02  0.51100000000E-03 0. -1.
        -11    1    3    3    0    0  0.34708326935E+01  0.48862931496E+01  0.95568039057E+01  0.11280737630E+02  0.51100000000E-03 0.  1.
         12    1    3    3    0    0 -0.28944809308E+01  0.43508963803E+00  0.41135480567E+00  0.29557631211E+01  0.00000000000E+00 0. -1.
</event>
<event>
 7    1  0.2530788E-009  0.4778727E+02  0.7816164E-02  0.1312668E+00
        -11   -1    0    0    0    0  0.00000000000E+00  0.00000000000E+00  0.45593999997E+02  0.45594000000E+02  0.51100000000E-03 0. -1.
         11   -1    0    0    0    0 -0.00000000000E+00 -0.00000000000E+00 -0.45593999997E+02  0.45594000000E+02  0.51100000000E-03 0.  1.
    9900012    2    1    2    0    0 -0.43309670701E+02 -0.60207355963E+00  0.27446337783E+01  0.47787273239E+02  0.20000010008E+02 0.  0.
        -12    1    1    2    0    0  0.43309670701E+02  0.60207355963E+00 -0.27446337783E+01  0.43400726761E+02  0.00000000000E+00 0.  1.
         11    1    3    3    0    0 -0.82390094151E+01 -0.18373128187E+01  0.34585639512E+01  0.91224261796E+01  0.51100000000E-03 0. -1.
        -11    1    3    3    0    0 -0.33997779618E+02 -0.11204746818E+01  0.29885131059E+01  0.34147264800E+02  0.51100000000E-03 0.  1.
        -12    1    3    3    0    0 -0.10728816678E+01  0.23557139409E+01 -0.37024432788E+01  0.45175822601E+01  0.00000000000E+00 0.  1.
</event>
<event>
 7    1  0.2530788E-009  0.4778727E+02  0.7816164E-02  0.1312668E+00
        -11   -1    0    0    0    0  0.00000000000E+00  0.00000000000E+00  0.45593999997E+02  0.45594000000E+02  0.51100000000E-03 0. -1.
         11   -1    0    0    0    0 -0.00000000000E+00 -0.00000000000E+00 -0.45593999997E+02  0.45594000000E+02  0.51100000000E-03 0.  1.
    9900012    2    1    2    0    0  0.20462301783E+02 -0.29375974764E+02  0.24535069542E+02  0.47787270455E+02  0.19999997312E+02 0.  0.
        -12    1    1    2    0    0 -0.20462301783E+02  0.29375974764E+02 -0.24535069542E+02  0.43400729545E+02  0.00000000000E+00 0.  1.
         11    1    3    3    0    0  0.21309992134E+01 -0.12421020378E+02  0.17763029409E+02  0.21779534406E+02  0.51100000000E-03 0. -1.
        -11    1    3    3    0    0  0.16301871528E+02 -0.14637459306E+02  0.67565470559E+01  0.22927214367E+02  0.51100000000E-03 0.  1.
         12    1    3    3    0    0  0.20294310423E+01 -0.23174950799E+01  0.15493077133E-01  0.30805216825E+01  0.00000000000E+00 0. -1.
</event>
<event>
 7    1  0.2530788E-009  0.4778728E+02  0.7816164E-02  0.1312668E+00
        -11   -1    0    0    0    0  0.00000000000E+00  0.00000000000E+00  0.45593999997E+02  0.45594000000E+02  0.51100000000E-03 0.  1.
         11   -1    0    0    0    0 -0.00000000000E+00 -0.00000000000E+00 -0.45593999997E+02  0.45594000000E+02  0.51100000000E-03 0. -1.
    9900012    2    1    2    0    0 -0.93858639726E+01 -0.26396427739E+02 -0.33147501284E+02  0.47787277871E+02  0.20000031127E+02 0.  0.
        -12    1    1    2    0    0  0.93858639726E+01  0.26396427739E+02  0.33147501284E+02  0.43400722129E+02  0.00000000000E+00 0.  1.
         11    1    3    3    0    0 -0.11977480007E+02 -0.20137062435E+02 -0.23685993544E+02  0.33316476423E+02  0.51100000000E-03 0. -1.
        -11    1    3    3    0    0  0.17576776552E+00  0.72407729556E+00  0.12514619601E+01  0.14564819038E+01  0.51100000000E-03 0.  1.
         12    1    3    3    0    0  0.24158482691E+01 -0.69834426000E+01 -0.10712969701E+02  0.13014319545E+02  0.00000000000E+00 0. -1.
</event>
<event>
 7    1  0.2530788E-009  0.4778728E+02  0.7816164E-02  0.1312668E+00
        -11   -1    0    0    0    0  0.00000000000E+00  0.00000000000E+00  0.45593999997E+02  0.45594000000E+02  0.51100000000E-03 0.  1.
         11   -1    0    0    0    0 -0.00000000000E+00 -0.00000000000E+00 -0.45593999997E+02  0.45594000000E+02  0.51100000000E-03 0. -1.
    9900012    2    1    2    0    0 -0.12755799436E+02  0.40979705974E+02 -0.64479498992E+01  0.47787276747E+02  0.20000026001E+02 0.  0.
        -12    1    1    2    0    0  0.12755799436E+02 -0.40979705974E+02  0.64479498992E+01  0.43400723253E+02  0.00000000000E+00 0.  1.
         11    1    3    3    0    0 -0.11285003292E+02  0.14569114265E+02 -0.36742231080E+01  0.18791229483E+02  0.51100000000E-03 0. -1.
        -11    1    3    3    0    0  0.29984535061E+01  0.15644615370E+01  0.86334479531E+00  0.34905053825E+01  0.51100000000E-03 0.  1.
        -12    1    3    3    0    0 -0.44692496504E+01  0.24846130171E+02 -0.36370715865E+01  0.25505541881E+02  0.00000000000E+00 0.  1.
</event>
<event>
 7    1  0.2530788E-009  0.4778727E+02  0.7816164E-02  0.1312668E+00
        -11   -1    0    0    0    0  0.00000000000E+00  0.00000000000E+00  0.45593999997E+02  0.45594000000E+02  0.51100000000E-03 0.  1.
         11   -1    0    0    0    0 -0.00000000000E+00 -0.00000000000E+00 -0.45593999997E+02  0.45594000000E+02  0.51100000000E-03 0. -1.
    9900012    2    1    2    0    0 -0.40742310768E+02 -0.13816291432E+02  0.57269445307E+01  0.47787266259E+02  0.19999978180E+02 0.  0.
        -12    1    1    2    0    0  0.40742310768E+02  0.13816291432E+02 -0.57269445307E+01  0.43400733741E+02  0.00000000000E+00 0.  1.
         11    1    3    3    0    0 -0.11676331161E+02 -0.10335973116E+02  0.78696392487E+01  0.17467119734E+02  0.51100000000E-03 0. -1.
        -11    1    3    3    0    0 -0.13633926219E+02  0.30069932243E+00  0.22824485961E+01  0.13826927934E+02  0.51100000000E-03 0.  1.
         12    1    3    3    0    0 -0.15432053387E+02 -0.37810176390E+01 -0.44251433142E+01  0.16493218591E+02  0.00000000000E+00 0. -1.
</event>
<event>
 7    1  0.2530788E-009  0.4778727E+02  0.7816164E-02  0.1312668E+00
        -11   -1    0    0    0    0  0.00000000000E+00  0.00000000000E+00  0.45593999997E+02  0.45594000000E+02  0.51100000000E-03 0. -1.
         11   -1    0    0    0    0 -0.00000000000E+00 -0.00000000000E+00 -0.45593999997E+02  0.45594000000E+02  0.51100000000E-03 0.  1.
    9900012    2    1    2    0    0 -0.14808320486E+02  0.26991216275E+02  0.30591033488E+02  0.47787269113E+02  0.19999991196E+02 0.  0.
        -12    1    1    2    0    0  0.14808320486E+02 -0.26991216275E+02 -0.30591033488E+02  0.43400730887E+02  0.00000000000E+00 0.  1.
         11    1    3    3    0    0 -0.13225049172E+02  0.14321604875E+02  0.78004884839E+01  0.20996616695E+02  0.51100000000E-03 0. -1.
        -11    1    3    3    0    0  0.14106465164E+01  0.12295923234E+01  0.57663364180E+01  0.60623804584E+01  0.51100000000E-03 0.  1.
         12    1    3    3    0    0 -0.29939178303E+01  0.11440019077E+02  0.17024208587E+02  0.20728271960E+02  0.00000000000E+00 0. -1.
</event>
<event>
 7    1  0.2530788E-009  0.4778727E+02  0.7816164E-02  0.1312668E+00
        -11   -1    0    0    0    0  0.00000000000E+00  0.00000000000E+00  0.45593999997E+02  0.45594000000E+02  0.51100000000E-03 0.  1.
         11   -1    0    0    0    0 -0.00000000000E+00 -0.00000000000E+00 -0.45593999997E+02  0.45594000000E+02  0.51100000000E-03 0. -1.
    9900012    2    1    2    0    0 -0.24251586885E+01 -0.35413903919E+02 -0.24971933464E+02  0.47787269057E+02  0.19999990938E+02 0.  0.
        -12    1    1    2    0    0  0.24251586885E+01  0.35413903919E+02  0.24971933464E+02  0.43400730943E+02  0.00000000000E+00 0.  1.
         11    1    3    3    0    0 -0.40558200702E+01 -0.37891894278E+01  0.15158392465E+01  0.57537293858E+01  0.51100000000E-03 0. -1.
        -11    1    3    3    0    0  0.40016711052E+01 -0.17376669441E+02 -0.17708704014E+02  0.25130861716E+02  0.51100000000E-03 0.  1.
         12    1    3    3    0    0 -0.23710097235E+01 -0.14248045050E+02 -0.87790686966E+01  0.16902677955E+02  0.00000000000E+00 0. -1.
</event>
<event>
 7    1  0.2530788E-009  0.4778727E+02  0.7816164E-02  0.1312668E+00
        -11   -1    0    0    0    0  0.00000000000E+00  0.00000000000E+00  0.45593999997E+02  0.45594000000E+02  0.51100000000E-03 0.  1.
         11   -1    0    0    0    0 -0.00000000000E+00 -0.00000000000E+00 -0.45593999997E+02  0.45594000000E+02  0.51100000000E-03 0. -1.
    9900012    2    1    2    0    0 -0.29984212397E+02 -0.11616682727E+02 -0.29148294865E+02  0.47787269543E+02  0.19999993153E+02 0.  0.
        -12    1    1    2    0    0  0.29984212397E+02  0.11616682727E+02  0.29148294865E+02  0.43400730457E+02  0.00000000000E+00 0.  1.
         11    1    3    3    0    0 -0.13696972589E+02 -0.39491202775E+01 -0.22340030953E+02  0.26500558340E+02  0.51100000000E-03 0. -1.
        -11    1    3    3    0    0 -0.93699205918E+01 -0.18303260341E-01 -0.93001679023E+00  0.94159799489E+01  0.51100000000E-03 0.  1.
        -12    1    3    3    0    0 -0.69173192160E+01 -0.76492591893E+01 -0.58782471222E+01  0.11870731254E+02  0.00000000000E+00 0.  1.
</event>
<event>
 7    1  0.2530788E-009  0.4778727E+02  0.7816164E-02  0.1312668E+00
        -11   -1    0    0    0    0  0.00000000000E+00  0.00000000000E+00  0.45593999997E+02  0.45594000000E+02  0.51100000000E-03 0.  1.
         11   -1    0    0    0    0 -0.00000000000E+00 -0.00000000000E+00 -0.45593999997E+02  0.45594000000E+02  0.51100000000E-03 0. -1.
    9900012    2    1    2    0    0 -0.53291795309E+00  0.29718857941E+02 -0.31624810737E+02  0.47787272206E+02  0.20000005297E+02 0.  0.
        -12    1    1    2    0    0  0.53291795309E+00 -0.29718857941E+02  0.31624810737E+02  0.43400727794E+02  0.00000000000E+00 0.  1.
         11    1    3    3    0    0 -0.33720821420E+00  0.25691194824E+02 -0.27007942732E+02  0.37277073004E+02  0.51100000000E-03 0. -1.
        -11    1    3    3    0    0  0.22119853192E+01 -0.19789003374E+01 -0.13348458850E+01  0.32543416224E+01  0.51100000000E-03 0.  1.
         12    1    3    3    0    0 -0.24076950581E+01  0.60065634541E+01 -0.32820221201E+01  0.72558575797E+01  0.00000000000E+00 0. -1.
</event>
<event>
 7    1  0.2530788E-009  0.4778727E+02  0.7816164E-02  0.1312668E+00
        -11   -1    0    0    0    0  0.00000000000E+00  0.00000000000E+00  0.45593999997E+02  0.45594000000E+02  0.51100000000E-03 0.  1.
         11   -1    0    0    0    0 -0.00000000000E+00 -0.00000000000E+00 -0.45593999997E+02  0.45594000000E+02  0.51100000000E-03 0. -1.
    9900012    2    1    2    0    0  0.37078156112E+02 -0.16620390217E+02 -0.15251102235E+02  0.47787272460E+02  0.20000006454E+02 0.  0.
        -12    1    1    2    0    0 -0.37078156112E+02  0.16620390217E+02  0.15251102235E+02  0.43400727540E+02  0.00000000000E+00 0.  1.
         11    1    3    3    0    0 -0.88009962375E+00  0.83069068212E+00 -0.30347616669E+01  0.32671701813E+01  0.51100000000E-03 0. -1.
        -11    1    3    3    0    0  0.28913522530E+02 -0.99835820544E+01 -0.57423144670E+01  0.31122947666E+02  0.51100000000E-03 0.  1.
        -12    1    3    3    0    0  0.90447332057E+01 -0.74674988448E+01 -0.64740261013E+01  0.13397154613E+02  0.00000000000E+00 0.  1.
</event>
<event>
 7    1  0.2530788E-009  0.4778727E+02  0.7816164E-02  0.1312668E+00
        -11   -1    0    0    0    0  0.00000000000E+00  0.00000000000E+00  0.45593999997E+02  0.45594000000E+02  0.51100000000E-03 0.  1.
         11   -1    0    0    0    0 -0.00000000000E+00 -0.00000000000E+00 -0.45593999997E+02  0.45594000000E+02  0.51100000000E-03 0. -1.
    9900012    2    1    2    0    0 -0.10942833558E+02  0.41556240987E+02 -0.60791922035E+01  0.47787270178E+02  0.19999996048E+02 0.  0.
        -12    1    1    2    0    0  0.10942833558E+02 -0.41556240987E+02  0.60791922035E+01  0.43400729822E+02  0.00000000000E+00 0.  1.
         11    1    3    3    0    0 -0.17438223899E+00  0.22287460980E+02  0.11210159697E+00  0.22288425093E+02  0.51100000000E-03 0. -1.
        -11    1    3    3    0    0 -0.12835984697E+02  0.14464014924E+02 -0.36353246385E+01  0.19677037794E+02  0.51100000000E-03 0.  1.
         12    1    3    3    0    0  0.20675333776E+01  0.48047650834E+01 -0.25559691620E+01  0.58218072908E+01  0.00000000000E+00 0. -1.
</event>
<event>
 7    1  0.2530788E-009  0.4778727E+02  0.7816164E-02  0.1312668E+00
        -11   -1    0    0    0    0  0.00000000000E+00  0.00000000000E+00  0.45593999997E+02  0.45594000000E+02  0.51100000000E-03 0.  1.
         11   -1    0    0    0    0 -0.00000000000E+00 -0.00000000000E+00 -0.45593999997E+02  0.45594000000E+02  0.51100000000E-03 0. -1.
    9900012    2    1    2    0    0 -0.41376735756E+02 -0.21040198841E+01  0.12929129997E+02  0.47787267702E+02  0.19999984761E+02 0.  0.
        -12    1    1    2    0    0  0.41376735756E+02  0.21040198841E+01 -0.12929129997E+02  0.43400732298E+02  0.00000000000E+00 0.  1.
         11    1    3    3    0    0 -0.19197201576E+02 -0.71780306875E+01  0.19370835519E+01  0.20586621040E+02  0.51100000000E-03 0. -1.
        -11    1    3    3    0    0 -0.30359544379E+00  0.26423837900E+01  0.23667407887E+01  0.35603124173E+01  0.51100000000E-03 0.  1.
         12    1    3    3    0    0 -0.21875938737E+02  0.24316270135E+01  0.86253056560E+01  0.23640334245E+02  0.00000000000E+00 0. -1.
</event>
<event>
 7    1  0.2530788E-009  0.4778727E+02  0.7816164E-02  0.1312668E+00
        -11   -1    0    0    0    0  0.00000000000E+00  0.00000000000E+00  0.45593999997E+02  0.45594000000E+02  0.51100000000E-03 0.  1.
         11   -1    0    0    0    0 -0.00000000000E+00 -0.00000000000E+00 -0.45593999997E+02  0.45594000000E+02  0.51100000000E-03 0. -1.
    9900012    2    1    2    0    0  0.60401367652E+01 -0.63098072691E+01 -0.42512664313E+02  0.47787267899E+02  0.19999985657E+02 0.  0.
        -12    1    1    2    0    0 -0.60401367652E+01  0.63098072691E+01  0.42512664313E+02  0.43400732101E+02  0.00000000000E+00 0.  1.
         11    1    3    3    0    0  0.98149358173E+00 -0.49883351126E+01 -0.14016069543E+01  0.52736438220E+01  0.51100000000E-03 0. -1.
        -11    1    3    3    0    0  0.12393461804E+01  0.22386386093E+01 -0.31258839301E+02  0.31363394531E+02  0.51100000000E-03 0.  1.
        -12    1    3    3    0    0  0.38192970031E+01 -0.35601107659E+01 -0.98522180575E+01  0.11150229545E+02  0.00000000000E+00 0.  1.
</event>
<event>
 7    1  0.2530788E-009  0.4778727E+02  0.7816164E-02  0.1312668E+00
        -11   -1    0    0    0    0  0.00000000000E+00  0.00000000000E+00  0.45593999997E+02  0.45594000000E+02  0.51100000000E-03 0. -1.
         11   -1    0    0    0    0 -0.00000000000E+00 -0.00000000000E+00 -0.45593999997E+02  0.45594000000E+02  0.51100000000E-03 0.  1.
    9900012    2    1    2    0    0  0.37704560129E+02  0.81722860984E+01  0.19879718190E+02  0.47787270630E+02  0.19999998108E+02 0.  0.
        -12    1    1    2    0    0 -0.37704560129E+02 -0.81722860984E+01 -0.19879718190E+02  0.43400729370E+02  0.00000000000E+00 0.  1.
         11    1    3    3    0    0  0.14159844344E+02  0.10472984073E+02  0.91722970110E+01  0.19857382002E+02  0.51100000000E-03 0. -1.
        -11    1    3    3    0    0  0.21992712539E+02 -0.38180207059E+01  0.12061203390E+02  0.25371821267E+02  0.51100000000E-03 0.  1.
         12    1    3    3    0    0  0.15520032456E+01  0.15173227312E+01 -0.13537822114E+01  0.25580673605E+01  0.00000000000E+00 0. -1.
</event>
<event>
 7    1  0.2530788E-009  0.4778726E+02  0.7816164E-02  0.1312668E+00
        -11   -1    0    0    0    0  0.00000000000E+00  0.00000000000E+00  0.45593999997E+02  0.45594000000E+02  0.51100000000E-03 0.  1.
         11   -1    0    0    0    0 -0.00000000000E+00 -0.00000000000E+00 -0.45593999997E+02  0.45594000000E+02  0.51100000000E-03 0. -1.
    9900012    2    1    2    0    0 -0.13705819576E+02  0.40778129827E+02  0.57375049683E+01  0.47787258927E+02  0.19999944751E+02 0.  0.
        -12    1    1    2    0    0  0.13705819576E+02 -0.40778129827E+02 -0.57375049683E+01  0.43400741073E+02  0.00000000000E+00 0.  1.
         11    1    3    3    0    0 -0.55054773441E+00  0.19021820680E+02 -0.20608522888E+01  0.19141052145E+02  0.51100000000E-03 0. -1.
        -11    1    3    3    0    0 -0.13271876064E+02  0.17487101770E+02  0.28942449523E+01  0.22143127075E+02  0.51100000000E-03 0.  1.
        -12    1    3    3    0    0  0.11660422225E+00  0.42692073767E+01  0.49041123048E+01  0.65030797064E+01  0.00000000000E+00 0.  1.
</event>
<event>
 7    1  0.2530788E-009  0.4778727E+02  0.7816164E-02  0.1312668E+00
        -11   -1    0    0    0    0  0.00000000000E+00  0.00000000000E+00  0.45593999997E+02  0.45594000000E+02  0.51100000000E-03 0. -1.
         11   -1    0    0    0    0 -0.00000000000E+00 -0.00000000000E+00 -0.45593999997E+02  0.45594000000E+02  0.51100000000E-03 0.  1.
    9900012    2    1    2    0    0 -0.31439547535E+01 -0.14579461034E+02  0.40757555381E+02  0.47787268944E+02  0.19999990423E+02 0.  0.
        -12    1    1    2    0    0  0.31439547535E+01  0.14579461034E+02 -0.40757555381E+02  0.43400731056E+02  0.00000000000E+00 0.  1.
         11    1    3    3    0    0 -0.10515464908E+02 -0.99058186680E+01  0.17451800886E+02  0.22655365814E+02  0.51100000000E-03 0. -1.
        -11    1    3    3    0    0  0.71619235472E+01 -0.34258735712E+01  0.17926369568E+02  0.19605725816E+02  0.51100000000E-03 0.  1.
        -12    1    3    3    0    0  0.20958660772E+00 -0.12477687947E+01  0.53793849271E+01  0.55261773139E+01  0.00000000000E+00 0.  1.
</event>
<event>
 7    1  0.2530788E-009  0.4778727E+02  0.7816164E-02  0.1312668E+00
        -11   -1    0    0    0    0  0.00000000000E+00  0.00000000000E+00  0.45593999997E+02  0.45594000000E+02  0.51100000000E-03 0.  1.
         11   -1    0    0    0    0 -0.00000000000E+00 -0.00000000000E+00 -0.45593999997E+02  0.45594000000E+02  0.51100000000E-03 0. -1.
    9900012    2    1    2    0    0 -0.15861536485E+02  0.40383796000E+02 -0.10880611239E+01  0.47787271941E+02  0.20000004086E+02 0.  0.
        -12    1    1    2    0    0  0.15861536485E+02 -0.40383796000E+02  0.10880611239E+01  0.43400728059E+02  0.00000000000E+00 0.  1.
         11    1    3    3    0    0  0.11829332902E+01  0.74934553340E+01  0.63964197366E+01  0.99229728267E+01  0.51100000000E-03 0.  1.
        -11    1    3    3    0    0 -0.91083017252E+01  0.15182131067E+02 -0.31978146008E+01  0.17991227933E+02  0.51100000000E-03 0. -1.
        -12    1    3    3    0    0 -0.79361680505E+01  0.17708209599E+02 -0.42866662597E+01  0.19873071181E+02  0.00000000000E+00 0.  1.
</event>
<event>
 7    1  0.2530788E-009  0.4778728E+02  0.7816164E-02  0.1312668E+00
        -11   -1    0    0    0    0  0.00000000000E+00  0.00000000000E+00  0.45593999997E+02  0.45594000000E+02  0.51100000000E-03 0. -1.
         11   -1    0    0    0    0 -0.00000000000E+00 -0.00000000000E+00 -0.45593999997E+02  0.45594000000E+02  0.51100000000E-03 0.  1.
    9900012    2    1    2    0    0  0.96969938125E+01 -0.41716205386E+02  0.70249133452E+01  0.47787275486E+02  0.20000020252E+02 0.  0.
        -12    1    1    2    0    0 -0.96969938125E+01  0.41716205386E+02 -0.70249133452E+01  0.43400724514E+02  0.00000000000E+00 0.  1.
         11    1    3    3    0    0  0.38642566038E+01 -0.22424166309E+02  0.13798116009E+00  0.22755103885E+02  0.51100000000E-03 0. -1.
        -11    1    3    3    0    0  0.68988139168E+01 -0.40075395413E+01 -0.55737151932E+00  0.79977915643E+01  0.51100000000E-03 0.  1.
        -12    1    3    3    0    0 -0.10660767080E+01 -0.15284499536E+02  0.74443037044E+01  0.17034380037E+02  0.00000000000E+00 0.  1.
</event>
<event>
 7    1  0.2530788E-009  0.4778727E+02  0.7816164E-02  0.1312668E+00
        -11   -1    0    0    0    0  0.00000000000E+00  0.00000000000E+00  0.45593999997E+02  0.45594000000E+02  0.51100000000E-03 0. -1.
         11   -1    0    0    0    0 -0.00000000000E+00 -0.00000000000E+00 -0.45593999997E+02  0.45594000000E+02  0.51100000000E-03 0.  1.
    9900012    2    1    2    0    0  0.24408221963E+02 -0.72625485799E+01  0.35144237042E+02  0.47787270645E+02  0.19999998178E+02 0.  0.
        -12    1    1    2    0    0 -0.24408221963E+02  0.72625485799E+01 -0.35144237042E+02  0.43400729355E+02  0.00000000000E+00 0.  1.
         11    1    3    3    0    0  0.15714490202E+02 -0.79497576251E+01  0.18754997351E+02  0.25727296292E+02  0.51100000000E-03 0. -1.
        -11    1    3    3    0    0  0.65244060581E+01  0.55237451917E+01  0.13617121796E+02  0.16078110636E+02  0.51100000000E-03 0.  1.
         12    1    3    3    0    0  0.21693257028E+01 -0.48365361465E+01  0.27721178953E+01  0.59818637168E+01  0.00000000000E+00 0. -1.
</event>
<event>
 7    1  0.2530788E-009  0.4778726E+02  0.7816164E-02  0.1312668E+00
        -11   -1    0    0    0    0  0.00000000000E+00  0.00000000000E+00  0.45593999997E+02  0.45594000000E+02  0.51100000000E-03 0. -1.
         11   -1    0    0    0    0 -0.00000000000E+00 -0.00000000000E+00 -0.45593999997E+02  0.45594000000E+02  0.51100000000E-03 0.  1.
    9900012    2    1    2    0    0  0.87721018260E+00 -0.41515583876E+02 -0.12621845003E+02  0.47787260680E+02  0.19999952744E+02 0.  0.
        -12    1    1    2    0    0 -0.87721018260E+00  0.41515583876E+02  0.12621845003E+02  0.43400739320E+02  0.00000000000E+00 0.  1.
         11    1    3    3    0    0  0.91579608039E+00 -0.28371617303E+02 -0.13814998165E+01  0.28419991078E+02  0.51100000000E-03 0. -1.
        -11    1    3    3    0    0 -0.65064040701E+00  0.25834354689E-01  0.11198451790E+01  0.12953971743E+01  0.51100000000E-03 0.  1.
         12    1    3    3    0    0  0.61205450922E+00 -0.13169800927E+02 -0.12360190365E+02  0.18071872428E+02  0.00000000000E+00 0. -1.
</event>
<event>
 7    1  0.2530788E-009  0.4778727E+02  0.7816164E-02  0.1312668E+00
        -11   -1    0    0    0    0  0.00000000000E+00  0.00000000000E+00  0.45593999997E+02  0.45594000000E+02  0.51100000000E-03 0. -1.
         11   -1    0    0    0    0 -0.00000000000E+00 -0.00000000000E+00 -0.45593999997E+02  0.45594000000E+02  0.51100000000E-03 0.  1.
    9900012    2    1    2    0    0 -0.14989918215E+01 -0.39716315613E+02 -0.17435317530E+02  0.47787274203E+02  0.20000014400E+02 0.  0.
        -12    1    1    2    0    0  0.14989918215E+01  0.39716315613E+02  0.17435317530E+02  0.43400725797E+02  0.00000000000E+00 0.  1.
         11    1    3    3    0    0 -0.87325301073E+01 -0.99084494123E+01 -0.29406908309E+01  0.13530783963E+02  0.51100000000E-03 0. -1.
        -11    1    3    3    0    0  0.33335965316E+01 -0.22029044930E+02 -0.94760217645E+01  0.24211292305E+02  0.51100000000E-03 0.  1.
        -12    1    3    3    0    0  0.38999417542E+01 -0.77788212711E+01 -0.50186049347E+01  0.10045197934E+02  0.00000000000E+00 0.  1.
</event>
<event>
 7    1  0.2530788E-009  0.4778727E+02  0.7816164E-02  0.1312668E+00
        -11   -1    0    0    0    0  0.00000000000E+00  0.00000000000E+00  0.45593999997E+02  0.45594000000E+02  0.51100000000E-03 0.  1.
         11   -1    0    0    0    0 -0.00000000000E+00 -0.00000000000E+00 -0.45593999997E+02  0.45594000000E+02  0.51100000000E-03 0. -1.
    9900012    2    1    2    0    0  0.39776736769E+02  0.10082908639E+02  0.14133986256E+02  0.47787269568E+02  0.19999993267E+02 0.  0.
        -12    1    1    2    0    0 -0.39776736769E+02 -0.10082908639E+02 -0.14133986256E+02  0.43400730432E+02  0.00000000000E+00 0.  1.
         11    1    3    3    0    0  0.19379422155E+02 -0.17287794125E+00  0.80419346015E+01  0.20982483224E+02  0.51100000000E-03 0. -1.
        -11    1    3    3    0    0  0.80168644636E+00  0.32223532473E+01 -0.26260608349E+01  0.42334923383E+01  0.51100000000E-03 0.  1.
         12    1    3    3    0    0  0.19595628167E+02  0.70334333326E+01  0.87181124889E+01  0.22571294005E+02  0.00000000000E+00 0. -1.
</event>
<event>
 7    1  0.2530788E-009  0.4778726E+02  0.7816164E-02  0.1312668E+00
        -11   -1    0    0    0    0  0.00000000000E+00  0.00000000000E+00  0.45593999997E+02  0.45594000000E+02  0.51100000000E-03 0.  1.
         11   -1    0    0    0    0 -0.00000000000E+00 -0.00000000000E+00 -0.45593999997E+02  0.45594000000E+02  0.51100000000E-03 0. -1.
    9900012    2    1    2    0    0 -0.12882118918E+02  0.74893416285E+01 -0.40762545104E+02  0.47787259117E+02  0.19999945616E+02 0.  0.
        -12    1    1    2    0    0  0.12882118918E+02 -0.74893416285E+01  0.40762545104E+02  0.43400740883E+02  0.00000000000E+00 0.  1.
         11    1    3    3    0    0 -0.55476613162E+01  0.11663136634E+02 -0.14216673775E+02  0.19207267263E+02  0.51100000000E-03 0. -1.
        -11    1    3    3    0    0 -0.44004696195E+01 -0.52650512829E+01 -0.13259214179E+02  0.14929556550E+02  0.51100000000E-03 0.  1.
         12    1    3    3    0    0 -0.29339879827E+01  0.10912562773E+01 -0.13286657150E+02  0.13650435303E+02  0.00000000000E+00 0. -1.
</event>
<event>
 7    1  0.2530788E-009  0.4778727E+02  0.7816164E-02  0.1312668E+00
        -11   -1    0    0    0    0  0.00000000000E+00  0.00000000000E+00  0.45593999997E+02  0.45594000000E+02  0.51100000000E-03 0.  1.
         11   -1    0    0    0    0 -0.00000000000E+00 -0.00000000000E+00 -0.45593999997E+02  0.45594000000E+02  0.51100000000E-03 0. -1.
    9900012    2    1    2    0    0 -0.66863069615E+01 -0.11550597247E+02 -0.41297704356E+02  0.47787269792E+02  0.19999994289E+02 0.  0.
        -12    1    1    2    0    0  0.66863069615E+01  0.11550597247E+02  0.41297704356E+02  0.43400730208E+02  0.00000000000E+00 0.  1.
         11    1    3    3    0    0  0.53472748063E+01 -0.25247923717E+01 -0.14938677230E+02  0.16066486922E+02  0.51100000000E-03 0. -1.
        -11    1    3    3    0    0 -0.71679242111E+01 -0.10613363387E+01 -0.17109842304E+02  0.18580965429E+02  0.51100000000E-03 0.  1.
         12    1    3    3    0    0 -0.48656575567E+01 -0.79644685366E+01 -0.92491848217E+01  0.13139817441E+02  0.00000000000E+00 0. -1.
</event>
<event>
 7    1  0.2530788E-009  0.4778727E+02  0.7816164E-02  0.1312668E+00
        -11   -1    0    0    0    0  0.00000000000E+00  0.00000000000E+00  0.45593999997E+02  0.45594000000E+02  0.51100000000E-03 0.  1.
         11   -1    0    0    0    0 -0.00000000000E+00 -0.00000000000E+00 -0.45593999997E+02  0.45594000000E+02  0.51100000000E-03 0. -1.
    9900012    2    1    2    0    0  0.11413062679E+02 -0.62346178214E+01 -0.41406458770E+02  0.47787270894E+02  0.19999999313E+02 0.  0.
        -12    1    1    2    0    0 -0.11413062679E+02  0.62346178214E+01  0.41406458770E+02  0.43400729106E+02  0.00000000000E+00 0.  1.
         11    1    3    3    0    0  0.40041495212E+01 -0.48334148677E+01 -0.73663737499E+01  0.96777360553E+01  0.51100000000E-03 0. -1.
        -11    1    3    3    0    0  0.10169492734E+02  0.10626116873E+01 -0.32554179332E+02  0.34122167550E+02  0.51100000000E-03 0.  1.
        -12    1    3    3    0    0 -0.27605795761E+01 -0.24638146410E+01 -0.14859056879E+01  0.39873672886E+01  0.00000000000E+00 0.  1.
</event>
<event>
 7    1  0.2530788E-009  0.4778727E+02  0.7816164E-02  0.1312668E+00
        -11   -1    0    0    0    0  0.00000000000E+00  0.00000000000E+00  0.45593999997E+02  0.45594000000E+02  0.51100000000E-03 0.  1.
         11   -1    0    0    0    0 -0.00000000000E+00 -0.00000000000E+00 -0.45593999997E+02  0.45594000000E+02  0.51100000000E-03 0. -1.
    9900012    2    1    2    0    0  0.14184888850E+02  0.19208677953E+02 -0.36241398959E+02  0.47787269834E+02  0.19999994483E+02 0.  0.
        -12    1    1    2    0    0 -0.14184888850E+02 -0.19208677953E+02  0.36241398959E+02  0.43400730166E+02  0.00000000000E+00 0.  1.
         11    1    3    3    0    0  0.10930521613E+02  0.14192752527E+02 -0.94658832875E+01  0.20261132093E+02  0.51100000000E-03 0. -1.
        -11    1    3    3    0    0  0.26770685387E+01  0.31397412516E+01 -0.21606361750E+02  0.21996807482E+02  0.51100000000E-03 0.  1.
         12    1    3    3    0    0  0.57729869837E+00  0.18761841743E+01 -0.51691539221E+01  0.55293302590E+01  0.00000000000E+00 0. -1.
</event>
<event>
 7    1  0.2530788E-009  0.4778728E+02  0.7816164E-02  0.1312668E+00
        -11   -1    0    0    0    0  0.00000000000E+00  0.00000000000E+00  0.45593999997E+02  0.45594000000E+02  0.51100000000E-03 0.  1.
         11   -1    0    0    0    0 -0.00000000000E+00 -0.00000000000E+00 -0.45593999997E+02  0.45594000000E+02  0.51100000000E-03 0. -1.
    9900012    2    1    2    0    0 -0.38505308685E+01 -0.10147736309E+02 -0.42021655570E+02  0.47787277921E+02  0.20000031352E+02 0.  0.
        -12    1    1    2    0    0  0.38505308685E+01  0.10147736309E+02  0.42021655570E+02  0.43400722079E+02  0.00000000000E+00 0.  1.
         11    1    3    3    0    0  0.21828720494E+01  0.17089176146E+01 -0.18365212961E+02  0.18573270502E+02  0.51100000000E-03 0. -1.
        -11    1    3    3    0    0 -0.59429260809E+01 -0.12850609482E+02 -0.24229680935E+02  0.28063035704E+02  0.51100000000E-03 0.  1.
         12    1    3    3    0    0 -0.90476836986E-01  0.99395555790E+00  0.57323832596E+00  0.11509717144E+01  0.00000000000E+00 0. -1.
</event>
<event>
 7    1  0.2530788E-009  0.4778727E+02  0.7816164E-02  0.1312668E+00
        -11   -1    0    0    0    0  0.00000000000E+00  0.00000000000E+00  0.45593999997E+02  0.45594000000E+02  0.51100000000E-03 0. -1.
         11   -1    0    0    0    0 -0.00000000000E+00 -0.00000000000E+00 -0.45593999997E+02  0.45594000000E+02  0.51100000000E-03 0.  1.
    9900012    2    1    2    0    0  0.39169989989E+02  0.99946317090E+01  0.15793754598E+02  0.47787268865E+02  0.19999990063E+02 0.  0.
        -12    1    1    2    0    0 -0.39169989989E+02 -0.99946317090E+01 -0.15793754598E+02  0.43400731135E+02  0.00000000000E+00 0.  1.
         11    1    3    3    0    0  0.33729473619E+02  0.39285507414E+01  0.77570377078E+01  0.34832205440E+02  0.51100000000E-03 0. -1.
        -11    1    3    3    0    0  0.45605334592E+01  0.73223625346E+01  0.68769380145E+01  0.11032122880E+02  0.51100000000E-03 0.  1.
         12    1    3    3    0    0  0.87998291095E+00 -0.12562815670E+01  0.11597788760E+01  0.19229405452E+01  0.00000000000E+00 0. -1.
</event>
<event>
 7    1  0.2530788E-009  0.4778727E+02  0.7816164E-02  0.1312668E+00
        -11   -1    0    0    0    0  0.00000000000E+00  0.00000000000E+00  0.45593999997E+02  0.45594000000E+02  0.51100000000E-03 0. -1.
         11   -1    0    0    0    0 -0.00000000000E+00 -0.00000000000E+00 -0.45593999997E+02  0.45594000000E+02  0.51100000000E-03 0.  1.
    9900012    2    1    2    0    0 -0.32031831380E+02  0.20491513306E+02  0.20920865384E+02  0.47787274804E+02  0.20000017140E+02 0.  0.
        -12    1    1    2    0    0  0.32031831380E+02 -0.20491513306E+02 -0.20920865384E+02  0.43400725196E+02  0.00000000000E+00 0.  1.
         11    1    3    3    0    0 -0.23830898782E+02  0.14296362182E+02  0.12901105715E+02  0.30638802805E+02  0.51100000000E-03 0. -1.
        -11    1    3    3    0    0 -0.14858673241E+01 -0.29574812129E+01  0.37962320249E+01  0.50364545741E+01  0.51100000000E-03 0.  1.
        -12    1    3    3    0    0 -0.67150652743E+01  0.91526323364E+01  0.42235276445E+01  0.12112017424E+02  0.00000000000E+00 0.  1.
</event>
<event>
 7    1  0.2530788E-009  0.4778727E+02  0.7816164E-02  0.1312668E+00
        -11   -1    0    0    0    0  0.00000000000E+00  0.00000000000E+00  0.45593999997E+02  0.45594000000E+02  0.51100000000E-03 0.  1.
         11   -1    0    0    0    0 -0.00000000000E+00 -0.00000000000E+00 -0.45593999997E+02  0.45594000000E+02  0.51100000000E-03 0. -1.
    9900012    2    1    2    0    0 -0.19451627962E+02  0.12903149470E+02 -0.36589149849E+02  0.47787274392E+02  0.20000015261E+02 0.  0.
        -12    1    1    2    0    0  0.19451627962E+02 -0.12903149470E+02  0.36589149849E+02  0.43400725608E+02  0.00000000000E+00 0.  1.
         11    1    3    3    0    0 -0.16737883697E+01  0.55388664940E+01 -0.77709536448E+01  0.96885669918E+01  0.51100000000E-03 0. -1.
        -11    1    3    3    0    0 -0.52983838170E+01  0.76394484413E+01 -0.21981219394E+02  0.23866462869E+02  0.51100000000E-03 0.  1.
        -12    1    3    3    0    0 -0.12479455775E+02 -0.27516546494E+00 -0.68369768105E+01  0.14232244531E+02  0.00000000000E+00 0.  1.
</event>
<event>
 7    1  0.2530788E-009  0.4778727E+02  0.7816164E-02  0.1312668E+00
        -11   -1    0    0    0    0  0.00000000000E+00  0.00000000000E+00  0.45593999997E+02  0.45594000000E+02  0.51100000000E-03 0.  1.
         11   -1    0    0    0    0 -0.00000000000E+00 -0.00000000000E+00 -0.45593999997E+02  0.45594000000E+02  0.51100000000E-03 0. -1.
    9900012    2    1    2    0    0 -0.26186552814E+02 -0.28695751967E+02 -0.19350494782E+02  0.47787269850E+02  0.19999994553E+02 0.  0.
        -12    1    1    2    0    0  0.26186552814E+02  0.28695751967E+02  0.19350494782E+02  0.43400730150E+02  0.00000000000E+00 0.  1.
         11    1    3    3    0    0  0.19137797193E+01 -0.18201657365E+01 -0.12662741273E+01  0.29289941190E+01  0.51100000000E-03 0.  1.
        -11    1    3    3    0    0 -0.22300509924E+02 -0.21757975634E+02 -0.80328255523E+01  0.32175278292E+02  0.51100000000E-03 0. -1.
        -12    1    3    3    0    0 -0.57998226089E+01 -0.51176105967E+01 -0.10051395103E+02  0.12682997438E+02  0.00000000000E+00 0.  1.
</event>
<event>
 7    1  0.2530788E-009  0.4778727E+02  0.7816164E-02  0.1312668E+00
        -11   -1    0    0    0    0  0.00000000000E+00  0.00000000000E+00  0.45593999997E+02  0.45594000000E+02  0.51100000000E-03 0. -1.
         11   -1    0    0    0    0 -0.00000000000E+00 -0.00000000000E+00 -0.45593999997E+02  0.45594000000E+02  0.51100000000E-03 0.  1.
    9900012    2    1    2    0    0  0.29523606176E+02 -0.31763696895E+02  0.17456723248E+01  0.47787272656E+02  0.20000007350E+02 0.  0.
        -12    1    1    2    0    0 -0.29523606176E+02  0.31763696895E+02 -0.17456723248E+01  0.43400727344E+02  0.00000000000E+00 0.  1.
         11    1    3    3    0    0  0.73856679750E+01 -0.34310052157E+01  0.66247787684E+01  0.10497979911E+02  0.51100000000E-03 0. -1.
        -11    1    3    3    0    0  0.20131830716E+02 -0.27621993135E+02 -0.27683515265E+01  0.34291819479E+02  0.51100000000E-03 0.  1.
        -12    1    3    3    0    0  0.20061074844E+01 -0.71069854446E+00 -0.21107549171E+01  0.29974732660E+01  0.00000000000E+00 0.  1.
</event>
<event>
 7    1  0.2530788E-009  0.4778728E+02  0.7816164E-02  0.1312668E+00
        -11   -1    0    0    0    0  0.00000000000E+00  0.00000000000E+00  0.45593999997E+02  0.45594000000E+02  0.51100000000E-03 0.  1.
         11   -1    0    0    0    0 -0.00000000000E+00 -0.00000000000E+00 -0.45593999997E+02  0.45594000000E+02  0.51100000000E-03 0. -1.
    9900012    2    1    2    0    0 -0.21259990700E+02 -0.31432747348E+01 -0.37706170904E+02  0.47787277600E+02  0.20000029890E+02 0.  0.
        -12    1    1    2    0    0  0.21259990700E+02  0.31432747348E+01  0.37706170904E+02  0.43400722400E+02  0.00000000000E+00 0.  1.
         11    1    3    3    0    0 -0.18721814383E+02  0.14981421283E+01 -0.22402214314E+02  0.29233712903E+02  0.51100000000E-03 0. -1.
        -11    1    3    3    0    0 -0.10595745339E+01 -0.73347987143E+01 -0.11094285812E+02  0.13341857004E+02  0.51100000000E-03 0.  1.
        -12    1    3    3    0    0 -0.14786017824E+01  0.26933818512E+01 -0.42096707774E+01  0.52117076934E+01  0.00000000000E+00 0.  1.
</event>
<event>
 7    1  0.2530788E-009  0.4778727E+02  0.7816164E-02  0.1312668E+00
        -11   -1    0    0    0    0  0.00000000000E+00  0.00000000000E+00  0.45593999997E+02  0.45594000000E+02  0.51100000000E-03 0. -1.
         11   -1    0    0    0    0 -0.00000000000E+00 -0.00000000000E+00 -0.45593999997E+02  0.45594000000E+02  0.51100000000E-03 0.  1.
    9900012    2    1    2    0    0 -0.36787806355E+01  0.15191974643E+02  0.40488195847E+02  0.47787268169E+02  0.19999986892E+02 0.  0.
        -12    1    1    2    0    0  0.36787806355E+01 -0.15191974643E+02 -0.40488195847E+02  0.43400731831E+02  0.00000000000E+00 0.  1.
         11    1    3    3    0    0  0.41422879748E+01  0.18091811614E+01  0.18696928996E+01  0.48915680452E+01  0.51100000000E-03 0. -1.
        -11    1    3    3    0    0  0.20965780437E+01  0.21646170389E+01  0.29741624295E+01  0.42340109632E+01  0.51100000000E-03 0.  1.
         12    1    3    3    0    0 -0.99176466541E+01  0.11218176443E+02  0.35644340517E+02  0.38661689161E+02  0.00000000000E+00 0. -1.
</event>
<event>
 7    1  0.2530788E-009  0.4778728E+02  0.7816164E-02  0.1312668E+00
        -11   -1    0    0    0    0  0.00000000000E+00  0.00000000000E+00  0.45593999997E+02  0.45594000000E+02  0.51100000000E-03 0. -1.
         11   -1    0    0    0    0 -0.00000000000E+00 -0.00000000000E+00 -0.45593999997E+02  0.45594000000E+02  0.51100000000E-03 0.  1.
    9900012    2    1    2    0    0  0.22113645416E+02  0.32479461162E+02  0.18430794308E+02  0.47787275469E+02  0.20000020175E+02 0.  0.
        -12    1    1    2    0    0 -0.22113645416E+02 -0.32479461162E+02 -0.18430794308E+02  0.43400724531E+02  0.00000000000E+00 0.  1.
         11    1    3    3    0    0  0.21592116117E+01  0.18933939489E+02  0.53920064641E+01  0.19804797230E+02  0.51100000000E-03 0. -1.
        -11    1    3    3    0    0  0.12344104566E+01  0.12165093255E+01  0.29055183026E+01  0.33831495655E+01  0.51100000000E-03 0.  1.
         12    1    3    3    0    0  0.18720023348E+02  0.12329012348E+02  0.10133269541E+02  0.24599328674E+02  0.00000000000E+00 0. -1.
</event>
<event>
 7    1  0.2530788E-009  0.4778725E+02  0.7816164E-02  0.1312668E+00
        -11   -1    0    0    0    0  0.00000000000E+00  0.00000000000E+00  0.45593999997E+02  0.45594000000E+02  0.51100000000E-03 0.  1.
         11   -1    0    0    0    0 -0.00000000000E+00 -0.00000000000E+00 -0.45593999997E+02  0.45594000000E+02  0.51100000000E-03 0. -1.
    9900012    2    1    2    0    0  0.38006563098E+02  0.28087562397E+01 -0.20766241901E+02  0.47787254006E+02  0.19999922315E+02 0.  0.
        -12    1    1    2    0    0 -0.38006563098E+02 -0.28087562397E+01  0.20766241901E+02  0.43400745994E+02  0.00000000000E+00 0.  1.
         11    1    3    3    0    0  0.66239715346E+01  0.24806776170E+01 -0.45968097320E+01  0.84357228679E+01  0.51100000000E-03 0. -1.
        -11    1    3    3    0    0 -0.11005715711E+01 -0.21948400025E+01 -0.37529675885E+01  0.44847905638E+01  0.51100000000E-03 0.  1.
        -12    1    3    3    0    0  0.32483163134E+02  0.25229186251E+01 -0.12416464581E+02  0.34866740574E+02  0.00000000000E+00 0.  1.
</event>
<event>
 7    1  0.2530788E-009  0.4778727E+02  0.7816164E-02  0.1312668E+00
        -11   -1    0    0    0    0  0.00000000000E+00  0.00000000000E+00  0.45593999997E+02  0.45594000000E+02  0.51100000000E-03 0. -1.
         11   -1    0    0    0    0 -0.00000000000E+00 -0.00000000000E+00 -0.45593999997E+02  0.45594000000E+02  0.51100000000E-03 0.  1.
    9900012    2    1    2    0    0 -0.29124689277E+01  0.94253347165E+01  0.42264688168E+02  0.47787271023E+02  0.19999999903E+02 0.  0.
        -12    1    1    2    0    0  0.29124689277E+01 -0.94253347165E+01 -0.42264688168E+02  0.43400728977E+02  0.00000000000E+00 0.  1.
         11    1    3    3    0    0  0.42257853449E+01  0.44719533163E+01  0.16335321523E+02  0.17455611069E+02  0.51100000000E-03 0. -1.
        -11    1    3    3    0    0 -0.94045428258E+01  0.51399355496E+01  0.25930107979E+02  0.28057705952E+02  0.51100000000E-03 0.  1.
        -12    1    3    3    0    0  0.22662885533E+01 -0.18655414930E+00 -0.74133424939E-03  0.22739540028E+01  0.00000000000E+00 0.  1.
</event>
<event>
 7    1  0.2530788E-009  0.4778728E+02  0.7816164E-02  0.1312668E+00
        -11   -1    0    0    0    0  0.00000000000E+00  0.00000000000E+00  0.45593999997E+02  0.45594000000E+02  0.51100000000E-03 0.  1.
         11   -1    0    0    0    0 -0.00000000000E+00 -0.00000000000E+00 -0.45593999997E+02  0.45594000000E+02  0.51100000000E-03 0. -1.
    9900012    2    1    2    0    0 -0.75707791567E+01 -0.23269512171E+02 -0.35844608552E+02  0.47787275859E+02  0.20000021953E+02 0.  0.
        -12    1    1    2    0    0  0.75707791567E+01  0.23269512171E+02  0.35844608552E+02  0.43400724141E+02  0.00000000000E+00 0.  1.
         11    1    3    3    0    0 -0.90284780974E+01 -0.17691824011E+02 -0.14548910834E+02  0.24620821682E+02  0.51100000000E-03 0. -1.
        -11    1    3    3    0    0  0.39049446003E+01 -0.12752787305E+01 -0.11020365291E+02  0.11761096020E+02  0.51100000000E-03 0.  1.
        -12    1    3    3    0    0 -0.24472456595E+01 -0.43024094290E+01 -0.10275332427E+02  0.11405358157E+02  0.00000000000E+00 0.  1.
</event>
<event>
 7    1  0.2530788E-009  0.4778728E+02  0.7816164E-02  0.1312668E+00
        -11   -1    0    0    0    0  0.00000000000E+00  0.00000000000E+00  0.45593999997E+02  0.45594000000E+02  0.51100000000E-03 0. -1.
         11   -1    0    0    0    0 -0.00000000000E+00 -0.00000000000E+00 -0.45593999997E+02  0.45594000000E+02  0.51100000000E-03 0.  1.
    9900012    2    1    2    0    0  0.12493261929E+02 -0.33283991401E+02  0.24894116915E+02  0.47787277262E+02  0.20000028349E+02 0.  0.
        -12    1    1    2    0    0 -0.12493261929E+02  0.33283991401E+02 -0.24894116915E+02  0.43400722738E+02  0.00000000000E+00 0.  1.
         11    1    3    3    0    0  0.60568891192E+01 -0.12488367413E+02  0.17614397294E+02  0.22425704420E+02  0.51100000000E-03 0. -1.
        -11    1    3    3    0    0 -0.26832103778E+01 -0.72501440628E+01  0.72089046677E+00  0.77642701003E+01  0.51100000000E-03 0.  1.
        -12    1    3    3    0    0  0.91195831881E+01 -0.13545479925E+02  0.65588291539E+01  0.17597302742E+02  0.00000000000E+00 0.  1.
</event>
<event>
 7    1  0.2530788E-009  0.4778727E+02  0.7816164E-02  0.1312668E+00
        -11   -1    0    0    0    0  0.00000000000E+00  0.00000000000E+00  0.45593999997E+02  0.45594000000E+02  0.51100000000E-03 0.  1.
         11   -1    0    0    0    0 -0.00000000000E+00 -0.00000000000E+00 -0.45593999997E+02  0.45594000000E+02  0.51100000000E-03 0. -1.
    9900012    2    1    2    0    0 -0.30708926837E+02 -0.11793945892E+02 -0.28310558531E+02  0.47787273376E+02  0.20000010629E+02 0.  0.
        -12    1    1    2    0    0  0.30708926837E+02  0.11793945892E+02  0.28310558531E+02  0.43400726624E+02  0.00000000000E+00 0.  1.
         11    1    3    3    0    0 -0.13775789794E+01 -0.36807303167E+01 -0.75863302981E+01  0.85438812704E+01  0.51100000000E-03 0. -1.
        -11    1    3    3    0    0 -0.21973140988E+02 -0.23939339185E+01 -0.80756077649E+01  0.23532218032E+02  0.51100000000E-03 0.  1.
        -12    1    3    3    0    0 -0.73582068698E+01 -0.57192816569E+01 -0.12648620468E+02  0.15711174073E+02  0.00000000000E+00 0.  1.
</event>
<event>
 7    1  0.2530788E-009  0.4778727E+02  0.7816164E-02  0.1312668E+00
        -11   -1    0    0    0    0  0.00000000000E+00  0.00000000000E+00  0.45593999997E+02  0.45594000000E+02  0.51100000000E-03 0. -1.
         11   -1    0    0    0    0 -0.00000000000E+00 -0.00000000000E+00 -0.45593999997E+02  0.45594000000E+02  0.51100000000E-03 0.  1.
    9900012    2    1    2    0    0  0.21887854725E+02 -0.36577127906E+02 -0.81644857086E+01  0.47787270775E+02  0.19999998773E+02 0.  0.
        -12    1    1    2    0    0 -0.21887854725E+02  0.36577127906E+02  0.81644857086E+01  0.43400729225E+02  0.00000000000E+00 0.  1.
         11    1    3    3    0    0  0.26469073042E+01  0.14542769959E+01  0.17920355399E+01  0.35117561839E+01  0.51100000000E-03 0. -1.
        -11    1    3    3    0    0  0.69455188165E+00 -0.51338044922E+01  0.14473591825E+00  0.51825958387E+01  0.51100000000E-03 0.  1.
         12    1    3    3    0    0  0.18546395539E+02 -0.32897600410E+02 -0.10101257167E+02  0.39092918753E+02  0.00000000000E+00 0. -1.
</event>
<event>
 7    1  0.2530788E-009  0.4778727E+02  0.7816164E-02  0.1312668E+00
        -11   -1    0    0    0    0  0.00000000000E+00  0.00000000000E+00  0.45593999997E+02  0.45594000000E+02  0.51100000000E-03 0.  1.
         11   -1    0    0    0    0 -0.00000000000E+00 -0.00000000000E+00 -0.45593999997E+02  0.45594000000E+02  0.51100000000E-03 0. -1.
    9900012    2    1    2    0    0  0.42159154371E+02 -0.60534299369E+01 -0.83417627546E+01  0.47787270546E+02  0.19999997728E+02 0.  0.
        -12    1    1    2    0    0 -0.42159154371E+02  0.60534299369E+01  0.83417627546E+01  0.43400729454E+02  0.00000000000E+00 0.  1.
         11    1    3    3    0    0  0.11094320313E+02 -0.44647821042E+01  0.52284107381E+01  0.13051992245E+02  0.51100000000E-03 0. -1.
        -11    1    3    3    0    0  0.26988876833E+02  0.88455641857E+00 -0.12880484306E+02  0.29918034510E+02  0.51100000000E-03 0.  1.
        -12    1    3    3    0    0  0.40759572250E+01 -0.24732042512E+01 -0.68968918711E+00  0.48172437911E+01  0.00000000000E+00 0.  1.
</event>
<event>
 7    1  0.2530788E-009  0.4778726E+02  0.7816164E-02  0.1312668E+00
        -11   -1    0    0    0    0  0.00000000000E+00  0.00000000000E+00  0.45593999997E+02  0.45594000000E+02  0.51100000000E-03 0. -1.
         11   -1    0    0    0    0 -0.00000000000E+00 -0.00000000000E+00 -0.45593999997E+02  0.45594000000E+02  0.51100000000E-03 0.  1.
    9900012    2    1    2    0    0  0.80191117140E+01 -0.32070970177E+01  0.42532723903E+02  0.47787260069E+02  0.19999949957E+02 0.  0.
        -12    1    1    2    0    0 -0.80191117140E+01  0.32070970177E+01 -0.42532723903E+02  0.43400739931E+02  0.00000000000E+00 0.  1.
         11    1    3    3    0    0  0.39370690171E+01 -0.98061749466E+01  0.31014385279E+02  0.32765128933E+02  0.51100000000E-03 0. -1.
        -11    1    3    3    0    0 -0.13160748269E+01  0.42182758128E+00  0.22894028840E+01  0.26742021772E+01  0.51100000000E-03 0.  1.
         12    1    3    3    0    0  0.53981175238E+01  0.61772503476E+01  0.92289357403E+01  0.12347928958E+02  0.00000000000E+00 0. -1.
</event>
<event>
 7    1  0.2530788E-009  0.4778727E+02  0.7816164E-02  0.1312668E+00
        -11   -1    0    0    0    0  0.00000000000E+00  0.00000000000E+00  0.45593999997E+02  0.45594000000E+02  0.51100000000E-03 0.  1.
         11   -1    0    0    0    0 -0.00000000000E+00 -0.00000000000E+00 -0.45593999997E+02  0.45594000000E+02  0.51100000000E-03 0. -1.
    9900012    2    1    2    0    0  0.29655616415E+02  0.63542074977E+01 -0.31044995866E+02  0.47787270672E+02  0.19999998304E+02 0.  0.
        -12    1    1    2    0    0 -0.29655616415E+02 -0.63542074977E+01  0.31044995866E+02  0.43400729328E+02  0.00000000000E+00 0.  1.
         11    1    3    3    0    0  0.14255851532E+02  0.10915603523E+02 -0.17212296309E+02  0.24872531992E+02  0.51100000000E-03 0. -1.
        -11    1    3    3    0    0  0.44564824944E+01  0.22030015657E+01 -0.17643273253E+01  0.52750642928E+01  0.51100000000E-03 0.  1.
         12    1    3    3    0    0  0.10943282388E+02 -0.67643975912E+01 -0.12068372231E+02  0.17639674388E+02  0.00000000000E+00 0. -1.
</event>
<event>
 7    1  0.2530788E-009  0.4778727E+02  0.7816164E-02  0.1312668E+00
        -11   -1    0    0    0    0  0.00000000000E+00  0.00000000000E+00  0.45593999997E+02  0.45594000000E+02  0.51100000000E-03 0.  1.
         11   -1    0    0    0    0 -0.00000000000E+00 -0.00000000000E+00 -0.45593999997E+02  0.45594000000E+02  0.51100000000E-03 0. -1.
    9900012    2    1    2    0    0  0.10860149891E+02  0.35963843158E+02 -0.21732061719E+02  0.47787269857E+02  0.19999994587E+02 0.  0.
        -12    1    1    2    0    0 -0.10860149891E+02 -0.35963843158E+02  0.21732061719E+02  0.43400730143E+02  0.00000000000E+00 0.  1.
         11    1    3    3    0    0  0.11173769302E+02  0.19807396632E+02 -0.87068144648E+01  0.24351482504E+02  0.51100000000E-03 0. -1.
        -11    1    3    3    0    0 -0.46488666928E+01  0.34806876737E+01 -0.21932317715E+01  0.62078510029E+01  0.51100000000E-03 0.  1.
        -12    1    3    3    0    0  0.43352472814E+01  0.12675758853E+02 -0.10832015482E+02  0.17227936350E+02  0.00000000000E+00 0.  1.
</event>
<event>
 7    1  0.2530788E-009  0.4778727E+02  0.7816164E-02  0.1312668E+00
        -11   -1    0    0    0    0  0.00000000000E+00  0.00000000000E+00  0.45593999997E+02  0.45594000000E+02  0.51100000000E-03 0.  1.
         11   -1    0    0    0    0 -0.00000000000E+00 -0.00000000000E+00 -0.45593999997E+02  0.45594000000E+02  0.51100000000E-03 0. -1.
    9900012    2    1    2    0    0 -0.28272967044E+02  0.15882465610E+01 -0.32889814908E+02  0.47787272849E+02  0.20000008227E+02 0.  0.
        -12    1    1    2    0    0  0.28272967044E+02 -0.15882465610E+01  0.32889814908E+02  0.43400727151E+02  0.00000000000E+00 0.  1.
         11    1    3    3    0    0 -0.17427050080E+02 -0.80245398892E+01 -0.18219057765E+02  0.26458068354E+02  0.51100000000E-03 0. -1.
        -11    1    3    3    0    0 -0.52121565168E+01  0.11853489201E+01 -0.50816131297E+01  0.73752572754E+01  0.51100000000E-03 0.  1.
         12    1    3    3    0    0 -0.56337604465E+01  0.84274375302E+01 -0.95891440127E+01  0.13953947219E+02  0.00000000000E+00 0. -1.
</event>
<event>
 7    1  0.2530788E-009  0.4778727E+02  0.7816164E-02  0.1312668E+00
        -11   -1    0    0    0    0  0.00000000000E+00  0.00000000000E+00  0.45593999997E+02  0.45594000000E+02  0.51100000000E-03 0.  1.
         11   -1    0    0    0    0 -0.00000000000E+00 -0.00000000000E+00 -0.45593999997E+02  0.45594000000E+02  0.51100000000E-03 0. -1.
    9900012    2    1    2    0    0  0.96414350645E+01 -0.10019317684E+02 -0.41113009094E+02  0.47787268281E+02  0.19999987402E+02 0.  0.
        -12    1    1    2    0    0 -0.96414350645E+01  0.10019317684E+02  0.41113009094E+02  0.43400731719E+02  0.00000000000E+00 0.  1.
         11    1    3    3    0    0  0.60184122738E+01 -0.15569561659E+02 -0.24046825003E+02  0.29272552494E+02  0.51100000000E-03 0. -1.
        -11    1    3    3    0    0  0.31165869306E+01  0.39808099588E+01 -0.15227453794E+02  0.16044790785E+02  0.51100000000E-03 0.  1.
         12    1    3    3    0    0  0.50643585999E+00  0.15694340162E+01 -0.18387302974E+01  0.24699250025E+01  0.00000000000E+00 0. -1.
</event>
<event>
 7    1  0.2530788E-009  0.4778727E+02  0.7816164E-02  0.1312668E+00
        -11   -1    0    0    0    0  0.00000000000E+00  0.00000000000E+00  0.45593999997E+02  0.45594000000E+02  0.51100000000E-03 0. -1.
         11   -1    0    0    0    0 -0.00000000000E+00 -0.00000000000E+00 -0.45593999997E+02  0.45594000000E+02  0.51100000000E-03 0.  1.
    9900012    2    1    2    0    0 -0.27374135858E+00  0.22673648388E+01  0.43340598035E+02  0.47787270562E+02  0.19999997803E+02 0.  0.
        -12    1    1    2    0    0  0.27374135858E+00 -0.22673648388E+01 -0.43340598035E+02  0.43400729438E+02  0.00000000000E+00 0.  1.
         11    1    3    3    0    0  0.31707078280E+01  0.25803585857E+01  0.44817224383E+01  0.60660922212E+01  0.51100000000E-03 0. -1.
        -11    1    3    3    0    0 -0.49571212740E+01  0.50823468608E+01  0.32407852164E+02  0.33176379897E+02  0.51100000000E-03 0.  1.
        -12    1    3    3    0    0  0.15126720874E+01 -0.53953406076E+01  0.64510234330E+01  0.85447984440E+01  0.00000000000E+00 0.  1.
</event>
<event>
 7    1  0.2530788E-009  0.4778727E+02  0.7816164E-02  0.1312668E+00
        -11   -1    0    0    0    0  0.00000000000E+00  0.00000000000E+00  0.45593999997E+02  0.45594000000E+02  0.51100000000E-03 0.  1.
         11   -1    0    0    0    0 -0.00000000000E+00 -0.00000000000E+00 -0.45593999997E+02  0.45594000000E+02  0.51100000000E-03 0. -1.
    9900012    2    1    2    0    0  0.23384640461E+02  0.24903994888E+02  0.26768881848E+02  0.47787269519E+02  0.19999993046E+02 0.  0.
        -12    1    1    2    0    0 -0.23384640461E+02 -0.24903994888E+02 -0.26768881848E+02  0.43400730481E+02  0.00000000000E+00 0.  1.
         11    1    3    3    0    0  0.45837204288E+01  0.16714129724E+02  0.10966773077E+02  0.20509576724E+02  0.51100000000E-03 0. -1.
        -11    1    3    3    0    0  0.87137872760E+01  0.15223911466E+01  0.22739729964E+01  0.91333847474E+01  0.51100000000E-03 0.  1.
        -12    1    3    3    0    0  0.10087132756E+02  0.66674740171E+01  0.13528135775E+02  0.18144308048E+02  0.00000000000E+00 0.  1.
</event>
<event>
 7    1  0.2530788E-009  0.4778727E+02  0.7816164E-02  0.1312668E+00
        -11   -1    0    0    0    0  0.00000000000E+00  0.00000000000E+00  0.45593999997E+02  0.45594000000E+02  0.51100000000E-03 0.  1.
         11   -1    0    0    0    0 -0.00000000000E+00 -0.00000000000E+00 -0.45593999997E+02  0.45594000000E+02  0.51100000000E-03 0. -1.
    9900012    2    1    2    0    0 -0.25566169284E+02  0.10788374334E+02 -0.33370725877E+02  0.47787269842E+02  0.19999994518E+02 0.  0.
        -12    1    1    2    0    0  0.25566169284E+02 -0.10788374334E+02  0.33370725877E+02  0.43400730158E+02  0.00000000000E+00 0.  1.
         11    1    3    3    0    0 -0.12971499770E+02  0.13424949686E+02 -0.25443219164E+02  0.31557035381E+02  0.51100000000E-03 0. -1.
        -11    1    3    3    0    0 -0.73380350931E+01  0.18087607897E+00 -0.15569023246E+01  0.75035605077E+01  0.51100000000E-03 0.  1.
         12    1    3    3    0    0 -0.52566344216E+01 -0.28174514308E+01 -0.63706043890E+01  0.87266739534E+01  0.00000000000E+00 0. -1.
</event>
<event>
 7    1  0.2530788E-009  0.4778723E+02  0.7816164E-02  0.1312668E+00
        -11   -1    0    0    0    0  0.00000000000E+00  0.00000000000E+00  0.45593999997E+02  0.45594000000E+02  0.51100000000E-03 0.  1.
         11   -1    0    0    0    0 -0.00000000000E+00 -0.00000000000E+00 -0.45593999997E+02  0.45594000000E+02  0.51100000000E-03 0. -1.
    9900012    2    1    2    0    0 -0.48526722546E+00 -0.40975688998E+02  0.14296292614E+02  0.47787233237E+02  0.19999827620E+02 0.  0.
        -12    1    1    2    0    0  0.48526722546E+00  0.40975688998E+02 -0.14296292614E+02  0.43400766763E+02  0.00000000000E+00 0.  1.
         11    1    3    3    0    0 -0.41387065782E+00 -0.31027334319E+02  0.44018036662E+01  0.31340750464E+02  0.51100000000E-03 0. -1.
        -11    1    3    3    0    0 -0.26698690043E+01 -0.70777712989E+01  0.22744471414E+01  0.78991238197E+01  0.51100000000E-03 0.  1.
         12    1    3    3    0    0  0.25984724367E+01 -0.28705833797E+01  0.76200418063E+01  0.85473589531E+01  0.00000000000E+00 0. -1.
</event>
<event>
 7    1  0.2530788E-009  0.4778727E+02  0.7816164E-02  0.1312668E+00
        -11   -1    0    0    0    0  0.00000000000E+00  0.00000000000E+00  0.45593999997E+02  0.45594000000E+02  0.51100000000E-03 0. -1.
         11   -1    0    0    0    0 -0.00000000000E+00 -0.00000000000E+00 -0.45593999997E+02  0.45594000000E+02  0.51100000000E-03 0.  1.
    9900012    2    1    2    0    0 -0.18605313355E+02  0.34361558993E+02  0.18887798443E+02  0.47787270150E+02  0.19999995924E+02 0.  0.
        -12    1    1    2    0    0  0.18605313355E+02 -0.34361558993E+02 -0.18887798443E+02  0.43400729850E+02  0.00000000000E+00 0.  1.
         11    1    3    3    0    0 -0.10330118448E+02  0.18408110714E+02  0.11888227675E+02  0.24226015866E+02  0.51100000000E-03 0. -1.
        -11    1    3    3    0    0 -0.74334164717E+01  0.26107903558E+01 -0.10616365258E+01  0.79497785565E+01  0.51100000000E-03 0.  1.
        -12    1    3    3    0    0 -0.84177843573E+00  0.13342657923E+02  0.80612072932E+01  0.15611475728E+02  0.00000000000E+00 0.  1.
</event>
<event>
 7    1  0.2530788E-009  0.4778727E+02  0.7816164E-02  0.1312668E+00
        -11   -1    0    0    0    0  0.00000000000E+00  0.00000000000E+00  0.45593999997E+02  0.45594000000E+02  0.51100000000E-03 0. -1.
         11   -1    0    0    0    0 -0.00000000000E+00 -0.00000000000E+00 -0.45593999997E+02  0.45594000000E+02  0.51100000000E-03 0.  1.
    9900012    2    1    2    0    0 -0.23386754753E+02 -0.13140290885E+02  0.34117677603E+02  0.47787268815E+02  0.19999989833E+02 0.  0.
        -12    1    1    2    0    0  0.23386754753E+02  0.13140290885E+02 -0.34117677603E+02  0.43400731185E+02  0.00000000000E+00 0.  1.
         11    1    3    3    0    0 -0.61028325944E+01 -0.56779112315E+01  0.20690544429E+02  0.22306543225E+02  0.51100000000E-03 0. -1.
        -11    1    3    3    0    0 -0.18757080520E+02 -0.69790472168E+01  0.11799358357E+02  0.23232736120E+02  0.51100000000E-03 0.  1.
        -12    1    3    3    0    0  0.14731583618E+01 -0.48333243705E+00  0.16277748166E+01  0.22479894699E+01  0.00000000000E+00 0.  1.
</event>
<event>
 7    1  0.2530788E-009  0.4778727E+02  0.7816164E-02  0.1312668E+00
        -11   -1    0    0    0    0  0.00000000000E+00  0.00000000000E+00  0.45593999997E+02  0.45594000000E+02  0.51100000000E-03 0.  1.
         11   -1    0    0    0    0 -0.00000000000E+00 -0.00000000000E+00 -0.45593999997E+02  0.45594000000E+02  0.51100000000E-03 0. -1.
    9900012    2    1    2    0    0 -0.28585263239E+02  0.31975778147E+02 -0.66374582788E+01  0.47787268267E+02  0.19999987337E+02 0.  0.
        -12    1    1    2    0    0  0.28585263239E+02 -0.31975778147E+02  0.66374582788E+01  0.43400731733E+02  0.00000000000E+00 0.  1.
         11    1    3    3    0    0 -0.26126259830E+02  0.17730380735E+02 -0.69113288584E+01  0.32322040786E+02  0.51100000000E-03 0. -1.
        -11    1    3    3    0    0  0.16366025589E+01  0.25520266884E+01 -0.39485787103E+00  0.30573225466E+01  0.51100000000E-03 0.  1.
         12    1    3    3    0    0 -0.40956059679E+01  0.11693370724E+02  0.66872845067E+00  0.12407904935E+02  0.00000000000E+00 0. -1.
</event>
<event>
 7    1  0.2530788E-009  0.4778727E+02  0.7816164E-02  0.1312668E+00
        -11   -1    0    0    0    0  0.00000000000E+00  0.00000000000E+00  0.45593999997E+02  0.45594000000E+02  0.51100000000E-03 0.  1.
         11   -1    0    0    0    0 -0.00000000000E+00 -0.00000000000E+00 -0.45593999997E+02  0.45594000000E+02  0.51100000000E-03 0. -1.
    9900012    2    1    2    0    0 -0.18647811806E+02 -0.22163625175E+02 -0.32321140946E+02  0.47787270535E+02  0.19999997677E+02 0.  0.
        -12    1    1    2    0    0  0.18647811806E+02  0.22163625175E+02  0.32321140946E+02  0.43400729465E+02  0.00000000000E+00 0.  1.
         11    1    3    3    0    0 -0.34427636354E+01 -0.12955165328E+02 -0.16233821474E+02  0.21052930676E+02  0.51100000000E-03 0. -1.
        -11    1    3    3    0    0 -0.15701877457E+02 -0.69933909479E+01 -0.92283356180E+01  0.19509450304E+02  0.51100000000E-03 0.  1.
         12    1    3    3    0    0  0.49682928730E+00 -0.22150688996E+01 -0.68589838540E+01  0.72248895548E+01  0.00000000000E+00 0. -1.
</event>
<event>
 7    1  0.2530788E-009  0.4778727E+02  0.7816164E-02  0.1312668E+00
        -11   -1    0    0    0    0  0.00000000000E+00  0.00000000000E+00  0.45593999997E+02  0.45594000000E+02  0.51100000000E-03 0.  1.
         11   -1    0    0    0    0 -0.00000000000E+00 -0.00000000000E+00 -0.45593999997E+02  0.45594000000E+02  0.51100000000E-03 0. -1.
    9900012    2    1    2    0    0 -0.15715621448E+02 -0.25227110350E+02 -0.31626505011E+02  0.47787266443E+02  0.19999979020E+02 0.  0.
        -12    1    1    2    0    0  0.15715621448E+02  0.25227110350E+02  0.31626505011E+02  0.43400733557E+02  0.00000000000E+00 0.  1.
         11    1    3    3    0    0 -0.11308779752E+02 -0.16840166811E+02 -0.17842839468E+02  0.27015673936E+02  0.51100000000E-03 0. -1.
        -11    1    3    3    0    0 -0.51358291636E+01  0.17103560468E+01 -0.46228943487E+01  0.71185118827E+01  0.51100000000E-03 0.  1.
        -12    1    3    3    0    0  0.72898746743E+00 -0.10097299586E+02 -0.91607711947E+01  0.13653080624E+02  0.00000000000E+00 0.  1.
</event>
<event>
 7    1  0.2530788E-009  0.4778729E+02  0.7816164E-02  0.1312668E+00
        -11   -1    0    0    0    0  0.00000000000E+00  0.00000000000E+00  0.45593999997E+02  0.45594000000E+02  0.51100000000E-03 0.  1.
         11   -1    0    0    0    0 -0.00000000000E+00 -0.00000000000E+00 -0.45593999997E+02  0.45594000000E+02  0.51100000000E-03 0. -1.
    9900012    2    1    2    0    0 -0.12845573479E+02  0.77521122048E+01 -0.40724900212E+02  0.47787291493E+02  0.20000093234E+02 0.  0.
        -12    1    1    2    0    0  0.12845573479E+02 -0.77521122048E+01  0.40724900212E+02  0.43400708507E+02  0.00000000000E+00 0.  1.
         11    1    3    3    0    0 -0.11597235508E+02  0.74169540956E+01 -0.19955120310E+02  0.24242811437E+02  0.51100000000E-03 0. -1.
        -11    1    3    3    0    0  0.47510252838E+01 -0.20397118176E+00 -0.11975262532E+02  0.12884904286E+02  0.51100000000E-03 0.  1.
         12    1    3    3    0    0 -0.59993632543E+01  0.53912929096E+00 -0.87945173690E+01  0.10659575770E+02  0.00000000000E+00 0. -1.
</event>
<event>
 7    1  0.2530788E-009  0.4778727E+02  0.7816164E-02  0.1312668E+00
        -11   -1    0    0    0    0  0.00000000000E+00  0.00000000000E+00  0.45593999997E+02  0.45594000000E+02  0.51100000000E-03 0. -1.
         11   -1    0    0    0    0 -0.00000000000E+00 -0.00000000000E+00 -0.45593999997E+02  0.45594000000E+02  0.51100000000E-03 0.  1.
    9900012    2    1    2    0    0  0.12488272567E+02  0.39092239222E+02  0.14123143380E+02  0.47787270766E+02  0.19999998730E+02 0.  0.
        -12    1    1    2    0    0 -0.12488272567E+02 -0.39092239222E+02 -0.14123143380E+02  0.43400729234E+02  0.00000000000E+00 0.  1.
         11    1    3    3    0    0  0.13274231156E+02  0.30068200325E+02  0.95538665385E+01  0.34228325253E+02  0.51100000000E-03 0. -1.
        -11    1    3    3    0    0 -0.19198006804E-01 -0.10207950438E+01  0.32406221054E+01  0.33976496253E+01  0.51100000000E-03 0.  1.
        -12    1    3    3    0    0 -0.76676058245E+00  0.10044833942E+02  0.13286547359E+01  0.10161295887E+02  0.00000000000E+00 0.  1.
</event>
<event>
 7    1  0.2530788E-009  0.4778727E+02  0.7816164E-02  0.1312668E+00
        -11   -1    0    0    0    0  0.00000000000E+00  0.00000000000E+00  0.45593999997E+02  0.45594000000E+02  0.51100000000E-03 0.  1.
         11   -1    0    0    0    0 -0.00000000000E+00 -0.00000000000E+00 -0.45593999997E+02  0.45594000000E+02  0.51100000000E-03 0. -1.
    9900012    2    1    2    0    0  0.42679811992E+02  0.45197572425E+01 -0.64520356775E+01  0.47787270495E+02  0.19999997495E+02 0.  0.
        -12    1    1    2    0    0 -0.42679811992E+02 -0.45197572425E+01  0.64520356775E+01  0.43400729505E+02  0.00000000000E+00 0.  1.
         11    1    3    3    0    0  0.88809680458E+01 -0.43460774299E+01 -0.63728033643E+01  0.11763188574E+02  0.51100000000E-03 0. -1.
        -11    1    3    3    0    0  0.23372910862E+02  0.18928343372E+01  0.66869863527E+00  0.23458962938E+02  0.51100000000E-03 0.  1.
         12    1    3    3    0    0  0.10425933084E+02  0.69730003352E+01 -0.74793094848E+00  0.12565118983E+02  0.00000000000E+00 0. -1.
</event>
<event>
 7    1  0.2530788E-009  0.4778727E+02  0.7816164E-02  0.1312668E+00
        -11   -1    0    0    0    0  0.00000000000E+00  0.00000000000E+00  0.45593999997E+02  0.45594000000E+02  0.51100000000E-03 0.  1.
         11   -1    0    0    0    0 -0.00000000000E+00 -0.00000000000E+00 -0.45593999997E+02  0.45594000000E+02  0.51100000000E-03 0. -1.
    9900012    2    1    2    0    0  0.37029750498E+02  0.19837956315E+02 -0.10903048460E+02  0.47787269610E+02  0.19999993458E+02 0.  0.
        -12    1    1    2    0    0 -0.37029750498E+02 -0.19837956315E+02  0.10903048460E+02  0.43400730390E+02  0.00000000000E+00 0.  1.
         11    1    3    3    0    0  0.70553161271E+01  0.78126659910E+01 -0.10953480415E+02  0.15191904720E+02  0.51100000000E-03 0. -1.
        -11    1    3    3    0    0  0.27680852620E+02  0.12288466100E+02 -0.11369970160E-01  0.30285906464E+02  0.51100000000E-03 0.  1.
         12    1    3    3    0    0  0.22935817516E+01 -0.26317577637E+00  0.61801925704E-01  0.23094584253E+01  0.00000000000E+00 0. -1.
</event>
<event>
 7    1  0.2530788E-009  0.4778727E+02  0.7816164E-02  0.1312668E+00
        -11   -1    0    0    0    0  0.00000000000E+00  0.00000000000E+00  0.45593999997E+02  0.45594000000E+02  0.51100000000E-03 0. -1.
         11   -1    0    0    0    0 -0.00000000000E+00 -0.00000000000E+00 -0.45593999997E+02  0.45594000000E+02  0.51100000000E-03 0.  1.
    9900012    2    1    2    0    0 -0.91061489166E+01 -0.14198413212E+02  0.39988831010E+02  0.47787268539E+02  0.19999988576E+02 0.  0.
        -12    1    1    2    0    0  0.91061489166E+01  0.14198413212E+02 -0.39988831010E+02  0.43400731461E+02  0.00000000000E+00 0.  1.
         11    1    3    3    0    0 -0.13620158858E+01 -0.16582879773E+02  0.24140827132E+02  0.29319388188E+02  0.51100000000E-03 0. -1.
        -11    1    3    3    0    0 -0.27911827045E+01  0.30018878379E+01  0.98232161969E+01  0.10644134920E+02  0.51100000000E-03 0.  1.
        -12    1    3    3    0    0 -0.49529503263E+01 -0.61742127683E+00  0.60247876807E+01  0.78237454307E+01  0.00000000000E+00 0.  1.
</event>
<event>
 7    1  0.2530788E-009  0.4778727E+02  0.7816164E-02  0.1312668E+00
        -11   -1    0    0    0    0  0.00000000000E+00  0.00000000000E+00  0.45593999997E+02  0.45594000000E+02  0.51100000000E-03 0.  1.
         11   -1    0    0    0    0 -0.00000000000E+00 -0.00000000000E+00 -0.45593999997E+02  0.45594000000E+02  0.51100000000E-03 0. -1.
    9900012    2    1    2    0    0  0.22497367906E+02  0.18214618945E+02 -0.32337585385E+02  0.47787270345E+02  0.19999996813E+02 0.  0.
        -12    1    1    2    0    0 -0.22497367906E+02 -0.18214618945E+02  0.32337585385E+02  0.43400729655E+02  0.00000000000E+00 0.  1.
         11    1    3    3    0    0  0.86034161986E+01  0.88042868051E+01 -0.16154660946E+02  0.20310275896E+02  0.51100000000E-03 0. -1.
        -11    1    3    3    0    0  0.95598673681E+00 -0.24270650041E+01 -0.74364116348E+01  0.78806581856E+01  0.51100000000E-03 0.  1.
        -12    1    3    3    0    0  0.12937964971E+02  0.11837397144E+02 -0.87465128042E+01  0.19596336264E+02  0.00000000000E+00 0.  1.
</event>
<event>
 7    1  0.2530788E-009  0.4778727E+02  0.7816164E-02  0.1312668E+00
        -11   -1    0    0    0    0  0.00000000000E+00  0.00000000000E+00  0.45593999997E+02  0.45594000000E+02  0.51100000000E-03 0.  1.
         11   -1    0    0    0    0 -0.00000000000E+00 -0.00000000000E+00 -0.45593999997E+02  0.45594000000E+02  0.51100000000E-03 0. -1.
    9900012    2    1    2    0    0  0.17090226524E+02  0.11404665640E+02 -0.38229322127E+02  0.47787270613E+02  0.19999998033E+02 0.  0.
        -12    1    1    2    0    0 -0.17090226524E+02 -0.11404665640E+02  0.38229322127E+02  0.43400729387E+02  0.00000000000E+00 0.  1.
         11    1    3    3    0    0 -0.84150128082E+00  0.15669887466E+00 -0.41272104073E+01  0.42150379536E+01  0.51100000000E-03 0. -1.
        -11    1    3    3    0    0 -0.18877497578E+01  0.11257461391E+01  0.66154199786E+00  0.22953303888E+01  0.51100000000E-03 0.  1.
        -12    1    3    3    0    0  0.19819477562E+02  0.10122220626E+02 -0.34763653718E+02  0.41276902271E+02  0.00000000000E+00 0.  1.
</event>
<event>
 7    1  0.2530788E-009  0.4778727E+02  0.7816164E-02  0.1312668E+00
        -11   -1    0    0    0    0  0.00000000000E+00  0.00000000000E+00  0.45593999997E+02  0.45594000000E+02  0.51100000000E-03 0.  1.
         11   -1    0    0    0    0 -0.00000000000E+00 -0.00000000000E+00 -0.45593999997E+02  0.45594000000E+02  0.51100000000E-03 0. -1.
    9900012    2    1    2    0    0  0.28152316424E+02  0.32986690028E+02 -0.17170767303E+01  0.47787274297E+02  0.20000014830E+02 0.  0.
        -12    1    1    2    0    0 -0.28152316424E+02 -0.32986690028E+02  0.17170767303E+01  0.43400725703E+02  0.00000000000E+00 0.  1.
         11    1    3    3    0    0  0.18210459132E+02  0.84843821486E+01 -0.58046787487E+01  0.20911715804E+02  0.51100000000E-03 0. -1.
        -11    1    3    3    0    0  0.95345546710E+01  0.21626262255E+02  0.32850768587E+01  0.23861992418E+02  0.51100000000E-03 0.  1.
         12    1    3    3    0    0  0.40730262095E+00  0.28760456243E+01  0.80252515970E+00  0.30135660752E+01  0.00000000000E+00 0. -1.
</event>
<event>
 7    1  0.2530788E-009  0.4778729E+02  0.7816164E-02  0.1312668E+00
        -11   -1    0    0    0    0  0.00000000000E+00  0.00000000000E+00  0.45593999997E+02  0.45594000000E+02  0.51100000000E-03 0.  1.
         11   -1    0    0    0    0 -0.00000000000E+00 -0.00000000000E+00 -0.45593999997E+02  0.45594000000E+02  0.51100000000E-03 0. -1.
    9900012    2    1    2    0    0 -0.15972431238E+02  0.17347865889E+02 -0.36435619399E+02  0.47787292960E+02  0.20000099922E+02 0.  0.
        -12    1    1    2    0    0  0.15972431238E+02 -0.17347865889E+02  0.36435619399E+02  0.43400707040E+02  0.00000000000E+00 0.  1.
         11    1    3    3    0    0 -0.69625031069E+01  0.79814155740E+00 -0.23625784800E+02  0.24643278741E+02  0.51100000000E-03 0. -1.
        -11    1    3    3    0    0 -0.22654931320E+01  0.77589718357E+01 -0.41797811346E+01  0.90997073400E+01  0.51100000000E-03 0.  1.
         12    1    3    3    0    0 -0.67444349993E+01  0.87907524959E+01 -0.86300534648E+01  0.14044306879E+02  0.00000000000E+00 0. -1.
</event>
<event>
 7    1  0.2530788E-009  0.4778727E+02  0.7816164E-02  0.1312668E+00
        -11   -1    0    0    0    0  0.00000000000E+00  0.00000000000E+00  0.45593999997E+02  0.45594000000E+02  0.51100000000E-03 0. -1.
         11   -1    0    0    0    0 -0.00000000000E+00 -0.00000000000E+00 -0.45593999997E+02  0.45594000000E+02  0.51100000000E-03 0.  1.
    9900012    2    1    2    0    0  0.21373058416E+02  0.34478022789E+02  0.15429897592E+02  0.47787269347E+02  0.19999992261E+02 0.  0.
        -12    1    1    2    0    0 -0.21373058416E+02 -0.34478022789E+02 -0.15429897592E+02  0.43400730653E+02  0.00000000000E+00 0.  1.
         11    1    3    3    0    0  0.19007048071E+02  0.35531475513E+02  0.12106759206E+02  0.42075256947E+02  0.51100000000E-03 0. -1.
        -11    1    3    3    0    0 -0.43498299741E+00 -0.14222436273E+01  0.22348106843E+01  0.26844675821E+01  0.51100000000E-03 0.  1.
         12    1    3    3    0    0  0.28009933425E+01  0.36879090408E+00  0.10883277017E+01  0.30275448175E+01  0.00000000000E+00 0. -1.
</event>
<event>
 7    1  0.2530788E-009  0.4778727E+02  0.7816164E-02  0.1312668E+00
        -11   -1    0    0    0    0  0.00000000000E+00  0.00000000000E+00  0.45593999997E+02  0.45594000000E+02  0.51100000000E-03 0.  1.
         11   -1    0    0    0    0 -0.00000000000E+00 -0.00000000000E+00 -0.45593999997E+02  0.45594000000E+02  0.51100000000E-03 0. -1.
    9900012    2    1    2    0    0 -0.17520885119E+02  0.24392603691E+02 -0.31331175840E+02  0.47787272936E+02  0.20000008622E+02 0.  0.
        -12    1    1    2    0    0  0.17520885119E+02 -0.24392603691E+02  0.31331175840E+02  0.43400727064E+02  0.00000000000E+00 0.  1.
         11    1    3    3    0    0 -0.77247185754E+01  0.59716036116E+01 -0.11148122139E+02  0.14819310181E+02  0.51100000000E-03 0. -1.
        -11    1    3    3    0    0 -0.10390522969E+02  0.52348157555E+01 -0.45126868481E+01  0.12479206962E+02  0.51100000000E-03 0.  1.
        -12    1    3    3    0    0  0.59435642496E+00  0.13186184324E+02 -0.15670366854E+02  0.20488755792E+02  0.00000000000E+00 0.  1.
</event>
<event>
 7    1  0.2530788E-009  0.4778727E+02  0.7816164E-02  0.1312668E+00
        -11   -1    0    0    0    0  0.00000000000E+00  0.00000000000E+00  0.45593999997E+02  0.45594000000E+02  0.51100000000E-03 0. -1.
         11   -1    0    0    0    0 -0.00000000000E+00 -0.00000000000E+00 -0.45593999997E+02  0.45594000000E+02  0.51100000000E-03 0.  1.
    9900012    2    1    2    0    0  0.34255720407E+02 -0.51627435154E+01  0.26144117533E+02  0.47787272093E+02  0.20000004782E+02 0.  0.
        -12    1    1    2    0    0 -0.34255720407E+02  0.51627435154E+01 -0.26144117533E+02  0.43400727907E+02  0.00000000000E+00 0.  1.
         11    1    3    3    0    0  0.10895649329E+02 -0.38858195287E+01  0.13440880610E+02  0.17733359511E+02  0.51100000000E-03 0. -1.
        -11    1    3    3    0    0 -0.95460162123E-01 -0.27098479004E+01  0.43270720416E+01  0.51064607117E+01  0.51100000000E-03 0.  1.
        -12    1    3    3    0    0  0.23455531240E+02  0.14329239137E+01  0.83761648816E+01  0.24947451871E+02  0.00000000000E+00 0.  1.
</event>
<event>
 7    1  0.2530788E-009  0.4778727E+02  0.7816164E-02  0.1312668E+00
        -11   -1    0    0    0    0  0.00000000000E+00  0.00000000000E+00  0.45593999997E+02  0.45594000000E+02  0.51100000000E-03 0.  1.
         11   -1    0    0    0    0 -0.00000000000E+00 -0.00000000000E+00 -0.45593999997E+02  0.45594000000E+02  0.51100000000E-03 0. -1.
    9900012    2    1    2    0    0  0.42315696927E+02 -0.95789497500E+01  0.11175203885E+01  0.47787270323E+02  0.19999996710E+02 0.  0.
        -12    1    1    2    0    0 -0.42315696927E+02  0.95789497500E+01 -0.11175203885E+01  0.43400729677E+02  0.00000000000E+00 0.  1.
         11    1    3    3    0    0  0.16274648634E+02 -0.72147578079E+01  0.54858678083E+01  0.18628249093E+02  0.51100000000E-03 0. -1.
        -11    1    3    3    0    0  0.11440210998E+01 -0.56651125432E+00 -0.39953979925E+01  0.41943920486E+01  0.51100000000E-03 0.  1.
        -12    1    3    3    0    0  0.24897027193E+02 -0.17976806878E+01 -0.37294942729E+00  0.24964629181E+02  0.00000000000E+00 0.  1.
</event>
<event>
 7    1  0.2530788E-009  0.4778727E+02  0.7816164E-02  0.1312668E+00
        -11   -1    0    0    0    0  0.00000000000E+00  0.00000000000E+00  0.45593999997E+02  0.45594000000E+02  0.51100000000E-03 0.  1.
         11   -1    0    0    0    0 -0.00000000000E+00 -0.00000000000E+00 -0.45593999997E+02  0.45594000000E+02  0.51100000000E-03 0. -1.
    9900012    2    1    2    0    0  0.38287649811E+02  0.36213119904E+01 -0.20113812509E+02  0.47787268644E+02  0.19999989055E+02 0.  0.
        -12    1    1    2    0    0 -0.38287649811E+02 -0.36213119904E+01  0.20113812509E+02  0.43400731356E+02  0.00000000000E+00 0.  1.
         11    1    3    3    0    0  0.65233457357E+01 -0.40255691274E+01  0.41042121286E+00  0.76764374693E+01  0.51100000000E-03 0. -1.
        -11    1    3    3    0    0  0.16265196369E+02  0.80290619189E+01 -0.66938274419E+01  0.19334678024E+02  0.51100000000E-03 0.  1.
         12    1    3    3    0    0  0.15499107706E+02 -0.38218080109E+00 -0.13830406280E+02  0.20776153150E+02  0.00000000000E+00 0. -1.
</event>
<event>
 7    1  0.2530788E-009  0.4778726E+02  0.7816164E-02  0.1312668E+00
        -11   -1    0    0    0    0  0.00000000000E+00  0.00000000000E+00  0.45593999997E+02  0.45594000000E+02  0.51100000000E-03 0.  1.
         11   -1    0    0    0    0 -0.00000000000E+00 -0.00000000000E+00 -0.45593999997E+02  0.45594000000E+02  0.51100000000E-03 0. -1.
    9900012    2    1    2    0    0  0.17602890810E+02 -0.23511855460E+02 -0.31952382671E+02  0.47787264172E+02  0.19999968668E+02 0.  0.
        -12    1    1    2    0    0 -0.17602890810E+02  0.23511855460E+02  0.31952382671E+02  0.43400735828E+02  0.00000000000E+00 0.  1.
         11    1    3    3    0    0  0.18139478938E+02 -0.14876462095E+02 -0.28794178069E+02  0.37141008488E+02  0.51100000000E-03 0. -1.
        -11    1    3    3    0    0 -0.25683311622E+01 -0.40570525126E+01 -0.29449111911E+01  0.56328058935E+01  0.51100000000E-03 0.  1.
         12    1    3    3    0    0  0.20317430346E+01 -0.45783408528E+01 -0.21329341019E+00  0.50134497905E+01  0.00000000000E+00 0. -1.
</event>
<event>
 7    1  0.2530788E-009  0.4778727E+02  0.7816164E-02  0.1312668E+00
        -11   -1    0    0    0    0  0.00000000000E+00  0.00000000000E+00  0.45593999997E+02  0.45594000000E+02  0.51100000000E-03 0. -1.
         11   -1    0    0    0    0 -0.00000000000E+00 -0.00000000000E+00 -0.45593999997E+02  0.45594000000E+02  0.51100000000E-03 0.  1.
    9900012    2    1    2    0    0 -0.41809336145E+02 -0.11049369121E+02 -0.36761554218E+01  0.47787271141E+02  0.20000000439E+02 0.  0.
        -12    1    1    2    0    0  0.41809336145E+02  0.11049369121E+02  0.36761554218E+01  0.43400728859E+02  0.00000000000E+00 0.  1.
         11    1    3    3    0    0 -0.77790219571E+01 -0.39395965495E+01  0.62829485907E+01  0.10747513519E+02  0.51100000000E-03 0. -1.
        -11    1    3    3    0    0 -0.60647155653E+01 -0.38185238483E+01 -0.41720312550E+01  0.82926319297E+01  0.51100000000E-03 0.  1.
         12    1    3    3    0    0 -0.27965598622E+02 -0.32912487229E+01 -0.57870727574E+01  0.28747125692E+02  0.00000000000E+00 0. -1.
</event>
<event>
 7    1  0.2530788E-009  0.4778728E+02  0.7816164E-02  0.1312668E+00
        -11   -1    0    0    0    0  0.00000000000E+00  0.00000000000E+00  0.45593999997E+02  0.45594000000E+02  0.51100000000E-03 0.  1.
         11   -1    0    0    0    0 -0.00000000000E+00 -0.00000000000E+00 -0.45593999997E+02  0.45594000000E+02  0.51100000000E-03 0. -1.
    9900012    2    1    2    0    0  0.14857909120E+02  0.37782368677E+02 -0.15341383721E+02  0.47787275343E+02  0.20000019600E+02 0.  0.
        -12    1    1    2    0    0 -0.14857909120E+02 -0.37782368677E+02  0.15341383721E+02  0.43400724657E+02  0.00000000000E+00 0.  1.
         11    1    3    3    0    0  0.41558978671E+01  0.31738254662E+01  0.14459765787E+00  0.52312105593E+01  0.51100000000E-03 0.  1.
        -11    1    3    3    0    0  0.13308212801E+02  0.22976845740E+02 -0.15277668002E+02  0.30634149375E+02  0.51100000000E-03 0. -1.
        -12    1    3    3    0    0 -0.26062015472E+01  0.11631697470E+02 -0.20831337696E+00  0.11921915409E+02  0.00000000000E+00 0.  1.
</event>
<event>
 7    1  0.2530788E-009  0.4778727E+02  0.7816164E-02  0.1312668E+00
        -11   -1    0    0    0    0  0.00000000000E+00  0.00000000000E+00  0.45593999997E+02  0.45594000000E+02  0.51100000000E-03 0. -1.
         11   -1    0    0    0    0 -0.00000000000E+00 -0.00000000000E+00 -0.45593999997E+02  0.45594000000E+02  0.51100000000E-03 0.  1.
    9900012    2    1    2    0    0  0.34782286034E+02 -0.29511887111E+01  0.25789652893E+02  0.47787272668E+02  0.20000007403E+02 0.  0.
        -12    1    1    2    0    0 -0.34782286034E+02  0.29511887111E+01 -0.25789652893E+02  0.43400727332E+02  0.00000000000E+00 0.  1.
         11    1    3    3    0    0  0.89504724643E+01 -0.49264584018E+01  0.12396493185E+02  0.16064059053E+02  0.51100000000E-03 0. -1.
        -11    1    3    3    0    0  0.24066986666E+02  0.55525690941E+01  0.12270661372E+02  0.27579340121E+02  0.51100000000E-03 0.  1.
        -12    1    3    3    0    0  0.17648269036E+01 -0.35772994033E+01  0.11224983369E+01  0.41438734943E+01  0.00000000000E+00 0.  1.
</event>
<event>
 7    1  0.2530788E-009  0.4778722E+02  0.7816164E-02  0.1312668E+00
        -11   -1    0    0    0    0  0.00000000000E+00  0.00000000000E+00  0.45593999997E+02  0.45594000000E+02  0.51100000000E-03 0.  1.
         11   -1    0    0    0    0 -0.00000000000E+00 -0.00000000000E+00 -0.45593999997E+02  0.45594000000E+02  0.51100000000E-03 0. -1.
    9900012    2    1    2    0    0  0.27665307236E+02  0.11346544240E+02 -0.31456553233E+02  0.47787216229E+02  0.19999750073E+02 0.  0.
        -12    1    1    2    0    0 -0.27665307236E+02 -0.11346544240E+02  0.31456553233E+02  0.43400783771E+02  0.00000000000E+00 0.  1.
         11    1    3    3    0    0  0.91255306863E+01  0.24373061290E+01 -0.18936488078E+02  0.21161435501E+02  0.51100000000E-03 0. -1.
        -11    1    3    3    0    0  0.19912303015E+01  0.12874339718E+01 -0.72968675555E+01  0.76724677080E+01  0.51100000000E-03 0.  1.
         12    1    3    3    0    0  0.16548546248E+02  0.76218041393E+01 -0.52231975987E+01  0.18953313020E+02  0.00000000000E+00 0. -1.
</event>
<event>
 7    1  0.2530788E-009  0.4778727E+02  0.7816164E-02  0.1312668E+00
        -11   -1    0    0    0    0  0.00000000000E+00  0.00000000000E+00  0.45593999997E+02  0.45594000000E+02  0.51100000000E-03 0.  1.
         11   -1    0    0    0    0 -0.00000000000E+00 -0.00000000000E+00 -0.45593999997E+02  0.45594000000E+02  0.51100000000E-03 0. -1.
    9900012    2    1    2    0    0  0.21145482624E+01  0.29253649953E+02 -0.31990247567E+02  0.47787270866E+02  0.19999999187E+02 0.  0.
        -12    1    1    2    0    0 -0.21145482624E+01 -0.29253649953E+02  0.31990247567E+02  0.43400729134E+02  0.00000000000E+00 0.  1.
         11    1    3    3    0    0  0.43206102688E-01  0.14515007255E+02 -0.57893336412E+01  0.15627017842E+02  0.51100000000E-03 0. -1.
        -11    1    3    3    0    0  0.54582753759E+01  0.29391856270E+01 -0.10943423769E+02  0.12577364839E+02  0.51100000000E-03 0.  1.
        -12    1    3    3    0    0 -0.33869332161E+01  0.11799457071E+02 -0.15257490157E+02  0.19582888185E+02  0.00000000000E+00 0.  1.
</event>
<event>
 7    1  0.2530788E-009  0.4778729E+02  0.7816164E-02  0.1312668E+00
        -11   -1    0    0    0    0  0.00000000000E+00  0.00000000000E+00  0.45593999997E+02  0.45594000000E+02  0.51100000000E-03 0. -1.
         11   -1    0    0    0    0 -0.00000000000E+00 -0.00000000000E+00 -0.45593999997E+02  0.45594000000E+02  0.51100000000E-03 0.  1.
    9900012    2    1    2    0    0  0.29804590373E+02 -0.23351070804E+02  0.21214047444E+02  0.47787286596E+02  0.20000070907E+02 0.  0.
        -12    1    1    2    0    0 -0.29804590373E+02  0.23351070804E+02 -0.21214047444E+02  0.43400713404E+02  0.00000000000E+00 0.  1.
         11    1    3    3    0    0  0.24259448753E+02 -0.18180475329E+02  0.22562555333E+02  0.37790467586E+02  0.51100000000E-03 0. -1.
        -11    1    3    3    0    0  0.16493758815E+00  0.10532336177E+01 -0.14124673463E+01  0.17696241768E+01  0.51100000000E-03 0.  1.
         12    1    3    3    0    0  0.53802040319E+01 -0.62238290935E+01  0.63959456756E-01  0.82271948331E+01  0.00000000000E+00 0. -1.
</event>
<event>
 7    1  0.2530788E-009  0.4778727E+02  0.7816164E-02  0.1312668E+00
        -11   -1    0    0    0    0  0.00000000000E+00  0.00000000000E+00  0.45593999997E+02  0.45594000000E+02  0.51100000000E-03 0. -1.
         11   -1    0    0    0    0 -0.00000000000E+00 -0.00000000000E+00 -0.45593999997E+02  0.45594000000E+02  0.51100000000E-03 0.  1.
    9900012    2    1    2    0    0  0.42006832627E+02  0.75283604252E+01 -0.78976495145E+01  0.47787273440E+02  0.20000010924E+02 0.  0.
        -12    1    1    2    0    0 -0.42006832627E+02 -0.75283604252E+01  0.78976495145E+01  0.43400726560E+02  0.00000000000E+00 0.  1.
         11    1    3    3    0    0  0.59910578192E+01 -0.32146864076E+01  0.80122347739E-01  0.67995148609E+01  0.51100000000E-03 0. -1.
        -11    1    3    3    0    0  0.22243822141E+02  0.84175436070E+01  0.19332198384E+01  0.23861684832E+02  0.51100000000E-03 0.  1.
        -12    1    3    3    0    0  0.13771952667E+02  0.23255032258E+01 -0.99109917006E+01  0.17126073747E+02  0.00000000000E+00 0.  1.
</event>
<event>
 7    1  0.2530788E-009  0.4778726E+02  0.7816164E-02  0.1312668E+00
        -11   -1    0    0    0    0  0.00000000000E+00  0.00000000000E+00  0.45593999997E+02  0.45594000000E+02  0.51100000000E-03 0.  1.
         11   -1    0    0    0    0 -0.00000000000E+00 -0.00000000000E+00 -0.45593999997E+02  0.45594000000E+02  0.51100000000E-03 0. -1.
    9900012    2    1    2    0    0 -0.10736109979E+02 -0.28810680703E+02 -0.30631760712E+02  0.47787261016E+02  0.19999954277E+02 0.  0.
        -12    1    1    2    0    0  0.10736109979E+02  0.28810680703E+02  0.30631760712E+02  0.43400738984E+02  0.00000000000E+00 0.  1.
         11    1    3    3    0    0 -0.32402170808E+01 -0.38425130742E+01 -0.49044674143E+01  0.70226572133E+01  0.51100000000E-03 0. -1.
        -11    1    3    3    0    0 -0.47844658003E+01 -0.22054435291E+02 -0.10254304122E+02  0.24787899917E+02  0.51100000000E-03 0.  1.
        -12    1    3    3    0    0 -0.27114270981E+01 -0.29137323375E+01 -0.15472989175E+02  0.15976703886E+02  0.00000000000E+00 0.  1.
</event>
<event>
 7    1  0.2530788E-009  0.4778727E+02  0.7816164E-02  0.1312668E+00
        -11   -1    0    0    0    0  0.00000000000E+00  0.00000000000E+00  0.45593999997E+02  0.45594000000E+02  0.51100000000E-03 0.  1.
         11   -1    0    0    0    0 -0.00000000000E+00 -0.00000000000E+00 -0.45593999997E+02  0.45594000000E+02  0.51100000000E-03 0. -1.
    9900012    2    1    2    0    0 -0.76718278622E+01 -0.25013584039E+02 -0.34627830260E+02  0.47787274687E+02  0.20000016606E+02 0.  0.
        -12    1    1    2    0    0  0.76718278622E+01  0.25013584039E+02  0.34627830260E+02  0.43400725313E+02  0.00000000000E+00 0.  1.
         11    1    3    3    0    0 -0.70809369318E+01 -0.21319018778E+02 -0.27678010696E+02  0.35647054658E+02  0.51100000000E-03 0. -1.
        -11    1    3    3    0    0 -0.69635574744E+00  0.26653704491E+01 -0.49291597252E-01  0.27552751007E+01  0.51100000000E-03 0.  1.
         12    1    3    3    0    0  0.10546481705E+00 -0.63599357102E+01 -0.69005279669E+01  0.93849449273E+01  0.00000000000E+00 0. -1.
</event>
<event>
 7    1  0.2530788E-009  0.4778727E+02  0.7816164E-02  0.1312668E+00
        -11   -1    0    0    0    0  0.00000000000E+00  0.00000000000E+00  0.45593999997E+02  0.45594000000E+02  0.51100000000E-03 0.  1.
         11   -1    0    0    0    0 -0.00000000000E+00 -0.00000000000E+00 -0.45593999997E+02  0.45594000000E+02  0.51100000000E-03 0. -1.
    9900012    2    1    2    0    0  0.20267934194E+02 -0.23185305617E+02 -0.30582281418E+02  0.47787268558E+02  0.19999988661E+02 0.  0.
        -12    1    1    2    0    0 -0.20267934194E+02  0.23185305617E+02  0.30582281418E+02  0.43400731442E+02  0.00000000000E+00 0.  1.
         11    1    3    3    0    0  0.86365386114E+01 -0.22642461454E+02 -0.17138984281E+02  0.29681907659E+02  0.51100000000E-03 0. -1.
        -11    1    3    3    0    0  0.73472486017E+01  0.46080537291E+00 -0.61734185408E+01  0.96075751544E+01  0.51100000000E-03 0.  1.
         12    1    3    3    0    0  0.42841469809E+01 -0.10036495362E+01 -0.72698785962E+01  0.84977857438E+01  0.00000000000E+00 0. -1.
</event>
<event>
 7    1  0.2530788E-009  0.4778727E+02  0.7816164E-02  0.1312668E+00
        -11   -1    0    0    0    0  0.00000000000E+00  0.00000000000E+00  0.45593999997E+02  0.45594000000E+02  0.51100000000E-03 0.  1.
         11   -1    0    0    0    0 -0.00000000000E+00 -0.00000000000E+00 -0.45593999997E+02  0.45594000000E+02  0.51100000000E-03 0. -1.
    9900012    2    1    2    0    0 -0.27035426379E+01  0.33270467257E+02 -0.27737881002E+02  0.47787272163E+02  0.20000005102E+02 0.  0.
        -12    1    1    2    0    0  0.27035426379E+01 -0.33270467257E+02  0.27737881002E+02  0.43400727837E+02  0.00000000000E+00 0.  1.
         11    1    3    3    0    0 -0.36783804718E+01  0.18720852319E+02 -0.95178176118E+01  0.21321108010E+02  0.51100000000E-03 0. -1.
        -11    1    3    3    0    0  0.60525662461E+01  0.11958049639E+02 -0.13936796483E+02  0.19335532209E+02  0.51100000000E-03 0.  1.
        -12    1    3    3    0    0 -0.50777284122E+01  0.25915652992E+01 -0.42832669070E+01  0.71306319442E+01  0.00000000000E+00 0.  1.
</event>
<event>
 7    1  0.2530788E-009  0.4778727E+02  0.7816164E-02  0.1312668E+00
        -11   -1    0    0    0    0  0.00000000000E+00  0.00000000000E+00  0.45593999997E+02  0.45594000000E+02  0.51100000000E-03 0.  1.
         11   -1    0    0    0    0 -0.00000000000E+00 -0.00000000000E+00 -0.45593999997E+02  0.45594000000E+02  0.51100000000E-03 0. -1.
    9900012    2    1    2    0    0 -0.29416509795E+02  0.22030253273E+02 -0.23085932227E+02  0.47787269885E+02  0.19999994713E+02 0.  0.
        -12    1    1    2    0    0  0.29416509795E+02 -0.22030253273E+02  0.23085932227E+02  0.43400730115E+02  0.00000000000E+00 0.  1.
         11    1    3    3    0    0 -0.19727402996E+02  0.38715169243E+01 -0.10623776090E+02  0.22738154959E+02  0.51100000000E-03 0. -1.
        -11    1    3    3    0    0 -0.10577519834E+01  0.44909601171E+01  0.39246068329E-01  0.46140115460E+01  0.51100000000E-03 0.  1.
         12    1    3    3    0    0 -0.86313548153E+01  0.13667776231E+02 -0.12501402205E+02  0.20435103380E+02  0.00000000000E+00 0. -1.
</event>
<event>
 7    1  0.2530788E-009  0.4778727E+02  0.7816164E-02  0.1312668E+00
        -11   -1    0    0    0    0  0.00000000000E+00  0.00000000000E+00  0.45593999997E+02  0.45594000000E+02  0.51100000000E-03 0. -1.
         11   -1    0    0    0    0 -0.00000000000E+00 -0.00000000000E+00 -0.45593999997E+02  0.45594000000E+02  0.51100000000E-03 0.  1.
    9900012    2    1    2    0    0 -0.41473242542E+02 -0.99715278953E+01  0.80101193878E+01  0.47787271572E+02  0.20000002404E+02 0.  0.
        -12    1    1    2    0    0  0.41473242542E+02  0.99715278953E+01 -0.80101193878E+01  0.43400728428E+02  0.00000000000E+00 0.  1.
         11    1    3    3    0    0 -0.14827712024E+02 -0.44161986830E+01  0.88930949963E+01  0.17845195251E+02  0.51100000000E-03 0. -1.
        -11    1    3    3    0    0 -0.27706868603E+02 -0.39313335997E+01 -0.69608345768E+00  0.27993043494E+02  0.51100000000E-03 0.  1.
         12    1    3    3    0    0  0.10613380851E+01 -0.16239956126E+01 -0.18689215084E+00  0.19490328259E+01  0.00000000000E+00 0. -1.
</event>
<event>
 7    1  0.2530788E-009  0.4778727E+02  0.7816164E-02  0.1312668E+00
        -11   -1    0    0    0    0  0.00000000000E+00  0.00000000000E+00  0.45593999997E+02  0.45594000000E+02  0.51100000000E-03 0.  1.
         11   -1    0    0    0    0 -0.00000000000E+00 -0.00000000000E+00 -0.45593999997E+02  0.45594000000E+02  0.51100000000E-03 0. -1.
    9900012    2    1    2    0    0  0.25723698728E+02  0.33546028353E+02 -0.98274508841E+01  0.47787268608E+02  0.19999988891E+02 0.  0.
        -12    1    1    2    0    0 -0.25723698728E+02 -0.33546028353E+02  0.98274508841E+01  0.43400731392E+02  0.00000000000E+00 0.  1.
         11    1    3    3    0    0  0.22861124534E+02  0.26625484078E+02 -0.63093301270E+01  0.35656066304E+02  0.51100000000E-03 0. -1.
        -11    1    3    3    0    0 -0.27861934828E+00 -0.19677528052E+01  0.20002463698E+00  0.19974208270E+01  0.51100000000E-03 0.  1.
        -12    1    3    3    0    0  0.31411935418E+01  0.88882970801E+01 -0.37181453941E+01  0.10133781477E+02  0.00000000000E+00 0.  1.
</event>
<event>
 7    1  0.2530788E-009  0.4778727E+02  0.7816164E-02  0.1312668E+00
        -11   -1    0    0    0    0  0.00000000000E+00  0.00000000000E+00  0.45593999997E+02  0.45594000000E+02  0.51100000000E-03 0.  1.
         11   -1    0    0    0    0 -0.00000000000E+00 -0.00000000000E+00 -0.45593999997E+02  0.45594000000E+02  0.51100000000E-03 0. -1.
    9900012    2    1    2    0    0  0.35145933953E+02 -0.16072493309E+01 -0.25412669783E+02  0.47787266027E+02  0.19999977126E+02 0.  0.
        -12    1    1    2    0    0 -0.35145933953E+02  0.16072493309E+01  0.25412669783E+02  0.43400733973E+02  0.00000000000E+00 0.  1.
         11    1    3    3    0    0  0.26171427459E+02  0.81501953765E+00 -0.18688578945E+02  0.32169408688E+02  0.51100000000E-03 0. -1.
        -11    1    3    3    0    0  0.43294568051E+01 -0.26477471735E+01  0.22182464226E+01  0.55385357970E+01  0.51100000000E-03 0.  1.
         12    1    3    3    0    0  0.46450496894E+01  0.22547830497E+00 -0.89423372601E+01  0.10079321542E+02  0.00000000000E+00 0. -1.
</event>
<event>
 7    1  0.2530788E-009  0.4778727E+02  0.7816164E-02  0.1312668E+00
        -11   -1    0    0    0    0  0.00000000000E+00  0.00000000000E+00  0.45593999997E+02  0.45594000000E+02  0.51100000000E-03 0. -1.
         11   -1    0    0    0    0 -0.00000000000E+00 -0.00000000000E+00 -0.45593999997E+02  0.45594000000E+02  0.51100000000E-03 0.  1.
    9900012    2    1    2    0    0 -0.30696242654E+02 -0.11345748901E+02  0.28506805705E+02  0.47787270712E+02  0.19999998485E+02 0.  0.
        -12    1    1    2    0    0  0.30696242654E+02  0.11345748901E+02 -0.28506805705E+02  0.43400729288E+02  0.00000000000E+00 0.  1.
         11    1    3    3    0    0 -0.89000051403E+01  0.19792202706E+01  0.16790191257E+01  0.92707340520E+01  0.51100000000E-03 0. -1.
        -11    1    3    3    0    0 -0.12459118904E+02 -0.39995821742E+01  0.19318951102E+02  0.23333413239E+02  0.51100000000E-03 0.  1.
         12    1    3    3    0    0 -0.93371186101E+01 -0.93253869978E+01  0.75088354773E+01  0.15183123421E+02  0.00000000000E+00 0. -1.
</event>
<event>
 7    1  0.2530788E-009  0.4778727E+02  0.7816164E-02  0.1312668E+00
        -11   -1    0    0    0    0  0.00000000000E+00  0.00000000000E+00  0.45593999997E+02  0.45594000000E+02  0.51100000000E-03 0.  1.
         11   -1    0    0    0    0 -0.00000000000E+00 -0.00000000000E+00 -0.45593999997E+02  0.45594000000E+02  0.51100000000E-03 0. -1.
    9900012    2    1    2    0    0 -0.39081128318E+02 -0.18696688820E+02  0.25927696893E+01  0.47787271687E+02  0.20000002929E+02 0.  0.
        -12    1    1    2    0    0  0.39081128318E+02  0.18696688820E+02 -0.25927696893E+01  0.43400728313E+02  0.00000000000E+00 0.  1.
         11    1    3    3    0    0 -0.24213879924E+02 -0.68516633701E+01 -0.39411819573E+01  0.25471360140E+02  0.51100000000E-03 0. -1.
        -11    1    3    3    0    0 -0.10882778067E+02 -0.33437982656E+01  0.61026359770E+01  0.12917353112E+02  0.51100000000E-03 0.  1.
         12    1    3    3    0    0 -0.39844703267E+01 -0.85012271847E+01  0.43131566960E+00  0.93985584340E+01  0.00000000000E+00 0. -1.
</event>
<event>
 7    1  0.2530788E-009  0.4778727E+02  0.7816164E-02  0.1312668E+00
        -11   -1    0    0    0    0  0.00000000000E+00  0.00000000000E+00  0.45593999997E+02  0.45594000000E+02  0.51100000000E-03 0.  1.
         11   -1    0    0    0    0 -0.00000000000E+00 -0.00000000000E+00 -0.45593999997E+02  0.45594000000E+02  0.51100000000E-03 0. -1.
    9900012    2    1    2    0    0 -0.31620630163E+02  0.77062138358E+00 -0.29718094473E+02  0.47787271339E+02  0.20000001342E+02 0.  0.
        -12    1    1    2    0    0  0.31620630163E+02 -0.77062138358E+00  0.29718094473E+02  0.43400728661E+02  0.00000000000E+00 0.  1.
         11    1    3    3    0    0 -0.18695539297E+02 -0.19413853614E+01 -0.23793109089E+02  0.30321678831E+02  0.51100000000E-03 0. -1.
        -11    1    3    3    0    0 -0.35290367411E+01  0.55726796213E+01 -0.27070274898E+01  0.71299969546E+01  0.51100000000E-03 0.  1.
         12    1    3    3    0    0 -0.93960541254E+01 -0.28606728763E+01 -0.32179578933E+01  0.10335595553E+02  0.00000000000E+00 0. -1.
</event>
<event>
 7    1  0.2530788E-009  0.4778727E+02  0.7816164E-02  0.1312668E+00
        -11   -1    0    0    0    0  0.00000000000E+00  0.00000000000E+00  0.45593999997E+02  0.45594000000E+02  0.51100000000E-03 0. -1.
         11   -1    0    0    0    0 -0.00000000000E+00 -0.00000000000E+00 -0.45593999997E+02  0.45594000000E+02  0.51100000000E-03 0.  1.
    9900012    2    1    2    0    0  0.54103207629E+01  0.36428910624E+02  0.22962713588E+02  0.47787270567E+02  0.19999997821E+02 0.  0.
        -12    1    1    2    0    0 -0.54103207629E+01 -0.36428910624E+02 -0.22962713588E+02  0.43400729433E+02  0.00000000000E+00 0.  1.
         11    1    3    3    0    0  0.45054751199E+01  0.11126128446E+02  0.83596210843E+01  0.14627826400E+02  0.51100000000E-03 0. -1.
        -11    1    3    3    0    0 -0.48499887465E+01  0.64353374532E+01  0.10110069992E+02  0.12928630031E+02  0.51100000000E-03 0.  1.
        -12    1    3    3    0    0  0.57548343895E+01  0.18867444724E+02  0.44930225120E+01  0.20230814135E+02  0.00000000000E+00 0.  1.
</event>
<event>
 7    1  0.2530788E-009  0.4778727E+02  0.7816164E-02  0.1312668E+00
        -11   -1    0    0    0    0  0.00000000000E+00  0.00000000000E+00  0.45593999997E+02  0.45594000000E+02  0.51100000000E-03 0. -1.
         11   -1    0    0    0    0 -0.00000000000E+00 -0.00000000000E+00 -0.45593999997E+02  0.45594000000E+02  0.51100000000E-03 0.  1.
    9900012    2    1    2    0    0  0.96786703845E+00 -0.35160499858E+02  0.25424907113E+02  0.47787269377E+02  0.19999992399E+02 0.  0.
        -12    1    1    2    0    0 -0.96786703845E+00  0.35160499858E+02 -0.25424907113E+02  0.43400730623E+02  0.00000000000E+00 0.  1.
         11    1    3    3    0    0  0.12784200925E+01 -0.17781579270E+02  0.11899395063E+02  0.21433957226E+02  0.51100000000E-03 0. -1.
        -11    1    3    3    0    0 -0.43596456420E+01  0.24702739110E+00  0.14242792870E+01  0.45930495756E+01  0.51100000000E-03 0.  1.
        -12    1    3    3    0    0  0.40490925879E+01 -0.17625947980E+02  0.12101232762E+02  0.21760262575E+02  0.00000000000E+00 0.  1.
</event>
<event>
 7    1  0.2530788E-009  0.4778727E+02  0.7816164E-02  0.1312668E+00
        -11   -1    0    0    0    0  0.00000000000E+00  0.00000000000E+00  0.45593999997E+02  0.45594000000E+02  0.51100000000E-03 0.  1.
         11   -1    0    0    0    0 -0.00000000000E+00 -0.00000000000E+00 -0.45593999997E+02  0.45594000000E+02  0.51100000000E-03 0. -1.
    9900012    2    1    2    0    0  0.15011105288E+02  0.63711064245E+00 -0.40717124314E+02  0.47787269542E+02  0.19999993148E+02 0.  0.
        -12    1    1    2    0    0 -0.15011105288E+02 -0.63711064245E+00  0.40717124314E+02  0.43400730458E+02  0.00000000000E+00 0.  1.
         11    1    3    3    0    0  0.56124427242E+01  0.45765772362E+01 -0.79197068876E+01  0.10731557668E+02  0.51100000000E-03 0. -1.
        -11    1    3    3    0    0 -0.19983991227E+01  0.26025296014E+01 -0.28280689578E+01  0.43318279826E+01  0.51100000000E-03 0.  1.
        -12    1    3    3    0    0  0.11397061687E+02 -0.65419961952E+01 -0.29969348468E+02  0.32723883891E+02  0.00000000000E+00 0.  1.
</event>
<event>
 7    1  0.2530788E-009  0.4778727E+02  0.7816164E-02  0.1312668E+00
        -11   -1    0    0    0    0  0.00000000000E+00  0.00000000000E+00  0.45593999997E+02  0.45594000000E+02  0.51100000000E-03 0.  1.
         11   -1    0    0    0    0 -0.00000000000E+00 -0.00000000000E+00 -0.45593999997E+02  0.45594000000E+02  0.51100000000E-03 0. -1.
    9900012    2    1    2    0    0  0.84801572627E+01 -0.25283614022E+02 -0.34241045446E+02  0.47787269609E+02  0.19999993457E+02 0.  0.
        -12    1    1    2    0    0 -0.84801572627E+01  0.25283614022E+02  0.34241045446E+02  0.43400730391E+02  0.00000000000E+00 0.  1.
         11    1    3    3    0    0  0.10019790222E+02 -0.20535058033E+02 -0.20369070434E+02  0.30610191686E+02  0.51100000000E-03 0. -1.
        -11    1    3    3    0    0 -0.37716120103E+00 -0.23691460685E+01 -0.14295357792E+02  0.14495252959E+02  0.51100000000E-03 0.  1.
        -12    1    3    3    0    0 -0.11624717578E+01 -0.23794099209E+01  0.42338278005E+00  0.26818249641E+01  0.00000000000E+00 0.  1.
</event>
<event>
 7    1  0.2530788E-009  0.4778727E+02  0.7816164E-02  0.1312668E+00
        -11   -1    0    0    0    0  0.00000000000E+00  0.00000000000E+00  0.45593999997E+02  0.45594000000E+02  0.51100000000E-03 0.  1.
         11   -1    0    0    0    0 -0.00000000000E+00 -0.00000000000E+00 -0.45593999997E+02  0.45594000000E+02  0.51100000000E-03 0. -1.
    9900012    2    1    2    0    0  0.16029503704E+02  0.35375190030E+02 -0.19371995538E+02  0.47787271092E+02  0.20000000215E+02 0.  0.
        -12    1    1    2    0    0 -0.16029503704E+02 -0.35375190030E+02  0.19371995538E+02  0.43400728908E+02  0.00000000000E+00 0.  1.
         11    1    3    3    0    0  0.10892341549E+02  0.14321715381E+02 -0.11128996280E+01  0.18027567271E+02  0.51100000000E-03 0. -1.
        -11    1    3    3    0    0  0.11174697210E+01  0.16689573241E+02 -0.96710044508E+01  0.19321462701E+02  0.51100000000E-03 0.  1.
         12    1    3    3    0    0  0.40196924343E+01  0.43639014081E+01 -0.85880914590E+01  0.10438241120E+02  0.00000000000E+00 0. -1.
</event>
<event>
 7    1  0.2530788E-009  0.4778729E+02  0.7816164E-02  0.1312668E+00
        -11   -1    0    0    0    0  0.00000000000E+00  0.00000000000E+00  0.45593999997E+02  0.45594000000E+02  0.51100000000E-03 0.  1.
         11   -1    0    0    0    0 -0.00000000000E+00 -0.00000000000E+00 -0.45593999997E+02  0.45594000000E+02  0.51100000000E-03 0. -1.
    9900012    2    1    2    0    0 -0.17903701574E+02  0.26269338738E+02 -0.29546585571E+02  0.47787292556E+02  0.20000098079E+02 0.  0.
        -12    1    1    2    0    0  0.17903701574E+02 -0.26269338738E+02  0.29546585571E+02  0.43400707444E+02  0.00000000000E+00 0.  1.
         11    1    3    3    0    0 -0.10990004224E+02  0.26936870589E+02 -0.20365783157E+02  0.35512537418E+02  0.51100000000E-03 0. -1.
        -11    1    3    3    0    0 -0.52561713210E+01 -0.13011809577E+01 -0.38167455976E+01  0.66247985674E+01  0.51100000000E-03 0.  1.
         12    1    3    3    0    0 -0.16575260285E+01  0.63364910628E+00 -0.53640568160E+01  0.56499565706E+01  0.00000000000E+00 0. -1.
</event>
<event>
 7    1  0.2530788E-009  0.4778727E+02  0.7816164E-02  0.1312668E+00
        -11   -1    0    0    0    0  0.00000000000E+00  0.00000000000E+00  0.45593999997E+02  0.45594000000E+02  0.51100000000E-03 0. -1.
         11   -1    0    0    0    0 -0.00000000000E+00 -0.00000000000E+00 -0.45593999997E+02  0.45594000000E+02  0.51100000000E-03 0.  1.
    9900012    2    1    2    0    0 -0.14358494520E+02 -0.32635829911E+02  0.24745902959E+02  0.47787268761E+02  0.19999989588E+02 0.  0.
        -12    1    1    2    0    0  0.14358494520E+02  0.32635829911E+02 -0.24745902959E+02  0.43400731239E+02  0.00000000000E+00 0.  1.
         11    1    3    3    0    0 -0.75994664274E+01 -0.22848818030E+02  0.26288822558E+02  0.35650000942E+02  0.51100000000E-03 0. -1.
        -11    1    3    3    0    0 -0.63345450129E+01 -0.93610361705E+01 -0.10351411075E+01  0.11350197182E+02  0.51100000000E-03 0.  1.
         12    1    3    3    0    0 -0.42448308004E+00 -0.42597570978E+00 -0.50777849213E+00  0.78707063701E+00  0.00000000000E+00 0. -1.
</event>
<event>
 7    1  0.2530788E-009  0.4778727E+02  0.7816164E-02  0.1312668E+00
        -11   -1    0    0    0    0  0.00000000000E+00  0.00000000000E+00  0.45593999997E+02  0.45594000000E+02  0.51100000000E-03 0.  1.
         11   -1    0    0    0    0 -0.00000000000E+00 -0.00000000000E+00 -0.45593999997E+02  0.45594000000E+02  0.51100000000E-03 0. -1.
    9900012    2    1    2    0    0  0.43167114668E+02  0.43498879168E+01 -0.11410533205E+01  0.47787270556E+02  0.19999997772E+02 0.  0.
        -12    1    1    2    0    0 -0.43167114668E+02 -0.43498879168E+01  0.11410533205E+01  0.43400729444E+02  0.00000000000E+00 0.  1.
         11    1    3    3    0    0  0.31195130192E+01  0.81636756225E+00 -0.24852220753E+01  0.40711357750E+01  0.51100000000E-03 0. -1.
        -11    1    3    3    0    0  0.34840294507E+02  0.82310337706E+01 -0.21833572212E+01  0.35865904245E+02  0.51100000000E-03 0.  1.
        -12    1    3    3    0    0  0.52073071411E+01 -0.46975134160E+01  0.35275259761E+01  0.78502305359E+01  0.00000000000E+00 0.  1.
</event>
<event>
 7    1  0.2530788E-009  0.4778727E+02  0.7816164E-02  0.1312668E+00
        -11   -1    0    0    0    0  0.00000000000E+00  0.00000000000E+00  0.45593999997E+02  0.45594000000E+02  0.51100000000E-03 0.  1.
         11   -1    0    0    0    0 -0.00000000000E+00 -0.00000000000E+00 -0.45593999997E+02  0.45594000000E+02  0.51100000000E-03 0. -1.
    9900012    2    1    2    0    0  0.20731658481E+02 -0.37872218059E+02 -0.44177418099E+01  0.47787274121E+02  0.20000014029E+02 0.  0.
        -12    1    1    2    0    0 -0.20731658481E+02  0.37872218059E+02  0.44177418099E+01  0.43400725879E+02  0.00000000000E+00 0.  1.
         11    1    3    3    0    0  0.18820863386E+02 -0.32590012679E+02 -0.45121084474E+01  0.37903732639E+02  0.51100000000E-03 0. -1.
        -11    1    3    3    0    0  0.33155397483E+01  0.50779315914E+00 -0.15613442727E+01  0.36997910636E+01  0.51100000000E-03 0.  1.
         12    1    3    3    0    0 -0.14047446538E+01 -0.57899985393E+01  0.16557109102E+01  0.61837504191E+01  0.00000000000E+00 0. -1.
</event>
<event>
 7    1  0.2530788E-009  0.4778727E+02  0.7816164E-02  0.1312668E+00
        -11   -1    0    0    0    0  0.00000000000E+00  0.00000000000E+00  0.45593999997E+02  0.45594000000E+02  0.51100000000E-03 0.  1.
         11   -1    0    0    0    0 -0.00000000000E+00 -0.00000000000E+00 -0.45593999997E+02  0.45594000000E+02  0.51100000000E-03 0. -1.
    9900012    2    1    2    0    0  0.15987421610E+02  0.42857715413E+01 -0.40120539981E+02  0.47787271713E+02  0.20000003049E+02 0.  0.
        -12    1    1    2    0    0 -0.15987421610E+02 -0.42857715413E+01  0.40120539981E+02  0.43400728287E+02  0.00000000000E+00 0.  1.
         11    1    3    3    0    0  0.35831412299E+01  0.37639634783E+01 -0.13648962698E+02  0.14604811027E+02  0.51100000000E-03 0. -1.
        -11    1    3    3    0    0  0.12366860347E+01 -0.50486348844E+01 -0.16218144236E+02  0.17030745999E+02  0.51100000000E-03 0.  1.
        -12    1    3    3    0    0  0.11167594346E+02  0.55704429475E+01 -0.10253433047E+02  0.16151714687E+02  0.00000000000E+00 0.  1.
</event>
<event>
 7    1  0.2530788E-009  0.4778727E+02  0.7816164E-02  0.1312668E+00
        -11   -1    0    0    0    0  0.00000000000E+00  0.00000000000E+00  0.45593999997E+02  0.45594000000E+02  0.51100000000E-03 0.  1.
         11   -1    0    0    0    0 -0.00000000000E+00 -0.00000000000E+00 -0.45593999997E+02  0.45594000000E+02  0.51100000000E-03 0. -1.
    9900012    2    1    2    0    0  0.23472759322E+02 -0.63966574863E+01 -0.35940727713E+02  0.47787267682E+02  0.19999984669E+02 0.  0.
        -12    1    1    2    0    0 -0.23472759322E+02  0.63966574863E+01  0.35940727713E+02  0.43400732318E+02  0.00000000000E+00 0.  1.
         11    1    3    3    0    0  0.90669006484E+00 -0.40920598343E+00 -0.33110229995E+01  0.34572257628E+01  0.51100000000E-03 0. -1.
        -11    1    3    3    0    0  0.73644707118E+01  0.38552042545E+00 -0.25186640973E+02  0.26244064827E+02  0.51100000000E-03 0.  1.
        -12    1    3    3    0    0  0.15201598546E+02 -0.63729719283E+01 -0.74430637404E+01  0.18085977092E+02  0.00000000000E+00 0.  1.
</event>
<event>
 7    1  0.2530788E-009  0.4778727E+02  0.7816164E-02  0.1312668E+00
        -11   -1    0    0    0    0  0.00000000000E+00  0.00000000000E+00  0.45593999997E+02  0.45594000000E+02  0.51100000000E-03 0.  1.
         11   -1    0    0    0    0 -0.00000000000E+00 -0.00000000000E+00 -0.45593999997E+02  0.45594000000E+02  0.51100000000E-03 0. -1.
    9900012    2    1    2    0    0  0.24319461960E+02 -0.34399715660E+02 -0.10432962653E+02  0.47787269853E+02  0.19999994569E+02 0.  0.
        -12    1    1    2    0    0 -0.24319461960E+02  0.34399715660E+02  0.10432962653E+02  0.43400730147E+02  0.00000000000E+00 0.  1.
         11    1    3    3    0    0  0.25519810379E+01 -0.75605765757E+01  0.44804244631E+01  0.91514550213E+01  0.51100000000E-03 0.  1.
        -11    1    3    3    0    0  0.15589469052E+02 -0.24451923410E+02 -0.11637324573E+02  0.31246686660E+02  0.51100000000E-03 0. -1.
        -12    1    3    3    0    0  0.61780118708E+01 -0.23872156743E+01 -0.32760625429E+01  0.73891281716E+01  0.00000000000E+00 0.  1.
</event>
<event>
 7    1  0.2530788E-009  0.4778727E+02  0.7816164E-02  0.1312668E+00
        -11   -1    0    0    0    0  0.00000000000E+00  0.00000000000E+00  0.45593999997E+02  0.45594000000E+02  0.51100000000E-03 0. -1.
         11   -1    0    0    0    0 -0.00000000000E+00 -0.00000000000E+00 -0.45593999997E+02  0.45594000000E+02  0.51100000000E-03 0.  1.
    9900012    2    1    2    0    0  0.39095596889E+02 -0.99988425886E+01  0.15974375426E+02  0.47787271671E+02  0.20000002859E+02 0.  0.
        -12    1    1    2    0    0 -0.39095596889E+02  0.99988425886E+01 -0.15974375426E+02  0.43400728329E+02  0.00000000000E+00 0.  1.
         11    1    3    3    0    0  0.39186167896E+02 -0.11566813605E+02  0.13369663115E+02  0.42989473402E+02  0.51100000000E-03 0. -1.
        -11    1    3    3    0    0  0.61269374981E+00  0.88128092994E+00  0.33797407397E+01  0.35460819840E+01  0.51100000000E-03 0.  1.
         12    1    3    3    0    0 -0.70326475670E+00  0.68669008680E+00 -0.77502842883E+00  0.12517162853E+01  0.00000000000E+00 0. -1.
</event>
<event>
 7    1  0.2530788E-009  0.4778727E+02  0.7816164E-02  0.1312668E+00
        -11   -1    0    0    0    0  0.00000000000E+00  0.00000000000E+00  0.45593999997E+02  0.45594000000E+02  0.51100000000E-03 0.  1.
         11   -1    0    0    0    0 -0.00000000000E+00 -0.00000000000E+00 -0.45593999997E+02  0.45594000000E+02  0.51100000000E-03 0. -1.
    9900012    2    1    2    0    0  0.13445261246E+02  0.34072602752E+02 -0.23278873966E+02  0.47787270958E+02  0.19999999605E+02 0.  0.
        -12    1    1    2    0    0 -0.13445261246E+02 -0.34072602752E+02  0.23278873966E+02  0.43400729042E+02  0.00000000000E+00 0.  1.
         11    1    3    3    0    0  0.23139302815E+01 -0.10800970045E+00 -0.43051697614E+01  0.48888062325E+01  0.51100000000E-03 0. -1.
        -11    1    3    3    0    0  0.96530947998E+01  0.24709617056E+02 -0.67667092422E+01  0.27377650895E+02  0.51100000000E-03 0.  1.
        -12    1    3    3    0    0  0.14782361651E+01  0.94709953959E+01 -0.12206994963E+02  0.15520813831E+02  0.00000000000E+00 0.  1.
</event>
<event>
 7    1  0.2530788E-009  0.4778727E+02  0.7816164E-02  0.1312668E+00
        -11   -1    0    0    0    0  0.00000000000E+00  0.00000000000E+00  0.45593999997E+02  0.45594000000E+02  0.51100000000E-03 0.  1.
         11   -1    0    0    0    0 -0.00000000000E+00 -0.00000000000E+00 -0.45593999997E+02  0.45594000000E+02  0.51100000000E-03 0. -1.
    9900012    2    1    2    0    0  0.19364770434E+02 -0.80438660296E+01 -0.37999015125E+02  0.47787271145E+02  0.20000000459E+02 0.  0.
        -12    1    1    2    0    0 -0.19364770434E+02  0.80438660296E+01  0.37999015125E+02  0.43400728855E+02  0.00000000000E+00 0.  1.
         11    1    3    3    0    0  0.91136908758E+01 -0.10686771067E+02 -0.27858090454E+02  0.31198391645E+02  0.51100000000E-03 0. -1.
        -11    1    3    3    0    0  0.62436165887E+01  0.64455227166E+00 -0.92765393656E+00  0.63449773700E+01  0.51100000000E-03 0.  1.
         12    1    3    3    0    0  0.40074629695E+01  0.19983527656E+01 -0.92132707342E+01  0.10243902130E+02  0.00000000000E+00 0. -1.
</event>
<event>
 7    1  0.2530788E-009  0.4778727E+02  0.7816164E-02  0.1312668E+00
        -11   -1    0    0    0    0  0.00000000000E+00  0.00000000000E+00  0.45593999997E+02  0.45594000000E+02  0.51100000000E-03 0.  1.
         11   -1    0    0    0    0 -0.00000000000E+00 -0.00000000000E+00 -0.45593999997E+02  0.45594000000E+02  0.51100000000E-03 0. -1.
    9900012    2    1    2    0    0  0.10370297059E+02 -0.13029681372E+01 -0.42123419288E+02  0.47787271439E+02  0.20000001800E+02 0.  0.
        -12    1    1    2    0    0 -0.10370297059E+02  0.13029681372E+01  0.42123419288E+02  0.43400728561E+02  0.00000000000E+00 0.  1.
         11    1    3    3    0    0  0.25625232056E+01  0.45868178869E+01 -0.30412164041E+02  0.30862682084E+02  0.51100000000E-03 0. -1.
        -11    1    3    3    0    0  0.37223701699E+01 -0.60122162079E+01 -0.38186619959E+01  0.80364770337E+01  0.51100000000E-03 0.  1.
        -12    1    3    3    0    0  0.40854036831E+01  0.12243018385E+00 -0.78925932514E+01  0.88881123213E+01  0.00000000000E+00 0.  1.
</event>
<event>
 7    1  0.2530788E-009  0.4778727E+02  0.7816164E-02  0.1312668E+00
        -11   -1    0    0    0    0  0.00000000000E+00  0.00000000000E+00  0.45593999997E+02  0.45594000000E+02  0.51100000000E-03 0.  1.
         11   -1    0    0    0    0 -0.00000000000E+00 -0.00000000000E+00 -0.45593999997E+02  0.45594000000E+02  0.51100000000E-03 0. -1.
    9900012    2    1    2    0    0  0.51583905858E+01 -0.42626419604E+02 -0.63247807637E+01  0.47787268515E+02  0.19999988469E+02 0.  0.
        -12    1    1    2    0    0 -0.51583905858E+01  0.42626419604E+02  0.63247807637E+01  0.43400731485E+02  0.00000000000E+00 0.  1.
         11    1    3    3    0    0 -0.19128844508E+01 -0.26909961612E+02 -0.26844639684E+01  0.27111095661E+02  0.51100000000E-03 0. -1.
        -11    1    3    3    0    0  0.33146919790E+01 -0.50811519564E+01  0.38049693010E+01  0.71612205498E+01  0.51100000000E-03 0.  1.
         12    1    3    3    0    0  0.37565830576E+01 -0.10635306036E+02 -0.74452860964E+01  0.13514952305E+02  0.00000000000E+00 0. -1.
</event>
<event>
 7    1  0.2530788E-009  0.4778727E+02  0.7816164E-02  0.1312668E+00
        -11   -1    0    0    0    0  0.00000000000E+00  0.00000000000E+00  0.45593999997E+02  0.45594000000E+02  0.51100000000E-03 0. -1.
         11   -1    0    0    0    0 -0.00000000000E+00 -0.00000000000E+00 -0.45593999997E+02  0.45594000000E+02  0.51100000000E-03 0.  1.
    9900012    2    1    2    0    0 -0.25860677808E+02  0.26253773480E+02  0.22925710285E+02  0.47787268777E+02  0.19999989660E+02 0.  0.
        -12    1    1    2    0    0  0.25860677808E+02 -0.26253773480E+02 -0.22925710285E+02  0.43400731223E+02  0.00000000000E+00 0.  1.
         11    1    3    3    0    0 -0.13908781256E+02  0.15033407738E+02  0.22005202046E+02  0.30061378239E+02  0.51100000000E-03 0. -1.
        -11    1    3    3    0    0 -0.73789510355E+00  0.16457864861E+01 -0.20009679514E+01  0.26938773813E+01  0.51100000000E-03 0.  1.
         12    1    3    3    0    0 -0.11214001448E+02  0.95745792567E+01  0.29214761902E+01  0.15032013157E+02  0.00000000000E+00 0. -1.
</event>
<event>
 7    1  0.2530788E-009  0.4778727E+02  0.7816164E-02  0.1312668E+00
        -11   -1    0    0    0    0  0.00000000000E+00  0.00000000000E+00  0.45593999997E+02  0.45594000000E+02  0.51100000000E-03 0.  1.
         11   -1    0    0    0    0 -0.00000000000E+00 -0.00000000000E+00 -0.45593999997E+02  0.45594000000E+02  0.51100000000E-03 0. -1.
    9900012    2    1    2    0    0  0.19027361491E+02 -0.27047361291E+02 -0.28107350971E+02  0.47787269399E+02  0.19999992496E+02 0.  0.
        -12    1    1    2    0    0 -0.19027361491E+02  0.27047361291E+02  0.28107350971E+02  0.43400730601E+02  0.00000000000E+00 0.  1.
         11    1    3    3    0    0  0.69164145332E+01 -0.15061728469E+02 -0.10557569398E+02  0.19650819991E+02  0.51100000000E-03 0.  1.
        -11    1    3    3    0    0  0.12235433850E+02 -0.26778489703E+01 -0.11717984713E+02  0.17151906093E+02  0.51100000000E-03 0. -1.
        -12    1    3    3    0    0 -0.12448689219E+00 -0.93077838520E+01 -0.58317968604E+01  0.10984543315E+02  0.00000000000E+00 0.  1.
</event>
<event>
 7    1  0.2530788E-009  0.4778727E+02  0.7816164E-02  0.1312668E+00
        -11   -1    0    0    0    0  0.00000000000E+00  0.00000000000E+00  0.45593999997E+02  0.45594000000E+02  0.51100000000E-03 0.  1.
         11   -1    0    0    0    0 -0.00000000000E+00 -0.00000000000E+00 -0.45593999997E+02  0.45594000000E+02  0.51100000000E-03 0. -1.
    9900012    2    1    2    0    0  0.15520318603E+02  0.17094634444E+02 -0.36749374033E+02  0.47787270650E+02  0.19999998200E+02 0.  0.
        -12    1    1    2    0    0 -0.15520318603E+02 -0.17094634444E+02  0.36749374033E+02  0.43400729350E+02  0.00000000000E+00 0.  1.
         11    1    3    3    0    0  0.56912916542E+01 -0.47821811109E+00 -0.14162331670E+01  0.58843189834E+01  0.51100000000E-03 0. -1.
        -11    1    3    3    0    0  0.47913580402E+00  0.81972697895E+01 -0.20140675008E+02  0.21750209037E+02  0.51100000000E-03 0.  1.
        -12    1    3    3    0    0  0.93498911453E+01  0.93755827658E+01 -0.15192465858E+02  0.20152742629E+02  0.00000000000E+00 0.  1.
</event>
<event>
 7    1  0.2530788E-009  0.4778727E+02  0.7816164E-02  0.1312668E+00
        -11   -1    0    0    0    0  0.00000000000E+00  0.00000000000E+00  0.45593999997E+02  0.45594000000E+02  0.51100000000E-03 0.  1.
         11   -1    0    0    0    0 -0.00000000000E+00 -0.00000000000E+00 -0.45593999997E+02  0.45594000000E+02  0.51100000000E-03 0. -1.
    9900012    2    1    2    0    0  0.19696058674E+02  0.26639151526E+02 -0.28036481513E+02  0.47787269396E+02  0.19999992485E+02 0.  0.
        -12    1    1    2    0    0 -0.19696058674E+02 -0.26639151526E+02  0.28036481513E+02  0.43400730604E+02  0.00000000000E+00 0.  1.
         11    1    3    3    0    0  0.13574936172E+02  0.78800348475E+01 -0.19697429024E+02  0.25186554979E+02  0.51100000000E-03 0. -1.
        -11    1    3    3    0    0  0.51722627265E+01  0.18483539936E+02 -0.92051287289E+01  0.21286802143E+02  0.51100000000E-03 0.  1.
        -12    1    3    3    0    0  0.94885977472E+00  0.27557674196E+00  0.86607623953E+00  0.13139122746E+01  0.00000000000E+00 0.  1.
</event>
<event>
 7    1  0.2530788E-009  0.4778726E+02  0.7816164E-02  0.1312668E+00
        -11   -1    0    0    0    0  0.00000000000E+00  0.00000000000E+00  0.45593999997E+02  0.45594000000E+02  0.51100000000E-03 0.  1.
         11   -1    0    0    0    0 -0.00000000000E+00 -0.00000000000E+00 -0.45593999997E+02  0.45594000000E+02  0.51100000000E-03 0. -1.
    9900012    2    1    2    0    0  0.19076829974E+01  0.39811121590E+02 -0.17177289525E+02  0.47787263461E+02  0.19999965424E+02 0.  0.
        -12    1    1    2    0    0 -0.19076829974E+01 -0.39811121590E+02  0.17177289525E+02  0.43400736539E+02  0.00000000000E+00 0.  1.
         11    1    3    3    0    0  0.82160627063E+01  0.17687942924E+02 -0.80297084869E+01  0.21091306975E+02  0.51100000000E-03 0. -1.
        -11    1    3    3    0    0 -0.56879269722E+01  0.21569369416E+02 -0.55272279505E+01  0.22981306736E+02  0.51100000000E-03 0.  1.
        -12    1    3    3    0    0 -0.62045273668E+00  0.55380925102E+00 -0.36203530875E+01  0.37146497497E+01  0.00000000000E+00 0.  1.
</event>
<event>
 7    1  0.2530788E-009  0.4778727E+02  0.7816164E-02  0.1312668E+00
        -11   -1    0    0    0    0  0.00000000000E+00  0.00000000000E+00  0.45593999997E+02  0.45594000000E+02  0.51100000000E-03 0.  1.
         11   -1    0    0    0    0 -0.00000000000E+00 -0.00000000000E+00 -0.45593999997E+02  0.45594000000E+02  0.51100000000E-03 0. -1.
    9900012    2    1    2    0    0 -0.30160835966E+02 -0.27208959106E+02  0.15284636891E+02  0.47787267210E+02  0.19999982519E+02 0.  0.
        -12    1    1    2    0    0  0.30160835966E+02  0.27208959106E+02 -0.15284636891E+02  0.43400732790E+02  0.00000000000E+00 0.  1.
         11    1    3    3    0    0  0.98797303642E+00  0.72783993180E+00 -0.19810152396E+01  0.23302925412E+01  0.51100000000E-03 0. -1.
        -11    1    3    3    0    0 -0.13756521199E+02 -0.13792095575E+02  0.99616405136E+01  0.21879169496E+02  0.51100000000E-03 0.  1.
         12    1    3    3    0    0 -0.17392287803E+02 -0.14144703463E+02  0.73040116170E+01  0.23577805173E+02  0.00000000000E+00 0. -1.
</event>
<event>
 7    1  0.2530788E-009  0.4778727E+02  0.7816164E-02  0.1312668E+00
        -11   -1    0    0    0    0  0.00000000000E+00  0.00000000000E+00  0.45593999997E+02  0.45594000000E+02  0.51100000000E-03 0.  1.
         11   -1    0    0    0    0 -0.00000000000E+00 -0.00000000000E+00 -0.45593999997E+02  0.45594000000E+02  0.51100000000E-03 0. -1.
    9900012    2    1    2    0    0  0.16942689470E+02  0.52243509313E+01 -0.39614077090E+02  0.47787266449E+02  0.19999979046E+02 0.  0.
        -12    1    1    2    0    0 -0.16942689470E+02 -0.52243509313E+01  0.39614077090E+02  0.43400733551E+02  0.00000000000E+00 0.  1.
         11    1    3    3    0    0  0.12456815462E+02  0.81222566775E+01 -0.25890858815E+02  0.29857660247E+02  0.51100000000E-03 0. -1.
        -11    1    3    3    0    0  0.40361149455E+01 -0.21770860669E+01 -0.42634441271E+00  0.46056158562E+01  0.51100000000E-03 0.  1.
         12    1    3    3    0    0  0.44975906281E+00 -0.72081967935E+00 -0.13296873862E+02  0.13323990345E+02  0.00000000000E+00 0. -1.
</event>
<event>
 7    1  0.2530788E-009  0.4778727E+02  0.7816164E-02  0.1312668E+00
        -11   -1    0    0    0    0  0.00000000000E+00  0.00000000000E+00  0.45593999997E+02  0.45594000000E+02  0.51100000000E-03 0.  1.
         11   -1    0    0    0    0 -0.00000000000E+00 -0.00000000000E+00 -0.45593999997E+02  0.45594000000E+02  0.51100000000E-03 0. -1.
    9900012    2    1    2    0    0 -0.36092220454E+02 -0.20198994041E+02 -0.13152013335E+02  0.47787271984E+02  0.20000004283E+02 0.  0.
        -12    1    1    2    0    0  0.36092220454E+02  0.20198994041E+02  0.13152013335E+02  0.43400728016E+02  0.00000000000E+00 0.  1.
         11    1    3    3    0    0 -0.11497761034E+02 -0.78411870203E+01  0.18198343900E+01  0.14035473634E+02  0.51100000000E-03 0. -1.
        -11    1    3    3    0    0 -0.20530042901E+02 -0.39464781366E+01 -0.10183723344E+02  0.23254366742E+02  0.51100000000E-03 0.  1.
        -12    1    3    3    0    0 -0.40644165194E+01 -0.84113288846E+01 -0.47881243812E+01  0.10497431607E+02  0.00000000000E+00 0.  1.
</event>
<event>
 7    1  0.2530788E-009  0.4778727E+02  0.7816164E-02  0.1312668E+00
        -11   -1    0    0    0    0  0.00000000000E+00  0.00000000000E+00  0.45593999997E+02  0.45594000000E+02  0.51100000000E-03 0. -1.
         11   -1    0    0    0    0 -0.00000000000E+00 -0.00000000000E+00 -0.45593999997E+02  0.45594000000E+02  0.51100000000E-03 0.  1.
    9900012    2    1    2    0    0  0.21668834607E+02  0.36077020777E+02  0.10608179431E+02  0.47787270833E+02  0.19999999036E+02 0.  0.
        -12    1    1    2    0    0 -0.21668834607E+02 -0.36077020777E+02 -0.10608179431E+02  0.43400729167E+02  0.00000000000E+00 0.  1.
         11    1    3    3    0    0  0.11473830158E+02  0.21256613237E+02  0.12774322462E+01  0.24189341004E+02  0.51100000000E-03 0. -1.
        -11    1    3    3    0    0  0.94477693545E+01  0.31874209646E+01  0.50769965267E+01  0.11189097022E+02  0.51100000000E-03 0.  1.
        -12    1    3    3    0    0  0.74723509408E+00  0.11632986576E+02  0.42537506581E+01  0.12408832807E+02  0.00000000000E+00 0.  1.
</event>
<event>
 7    1  0.2530788E-009  0.4778727E+02  0.7816164E-02  0.1312668E+00
        -11   -1    0    0    0    0  0.00000000000E+00  0.00000000000E+00  0.45593999997E+02  0.45594000000E+02  0.51100000000E-03 0.  1.
         11   -1    0    0    0    0 -0.00000000000E+00 -0.00000000000E+00 -0.45593999997E+02  0.45594000000E+02  0.51100000000E-03 0. -1.
    9900012    2    1    2    0    0 -0.40289945224E+02  0.14552943831E+02 -0.69681650146E+01  0.47787272080E+02  0.20000004723E+02 0.  0.
        -12    1    1    2    0    0  0.40289945224E+02 -0.14552943831E+02  0.69681650146E+01  0.43400727920E+02  0.00000000000E+00 0.  1.
         11    1    3    3    0    0 -0.10316412702E+02  0.83946389876E+01 -0.68118436696E+01  0.14943210807E+02  0.51100000000E-03 0. -1.
        -11    1    3    3    0    0 -0.69823147487E+01 -0.20855193209E+01  0.36076079526E+01  0.81312327164E+01  0.51100000000E-03 0.  1.
        -12    1    3    3    0    0 -0.22991217773E+02  0.82438241638E+01 -0.37639292976E+01  0.24712828557E+02  0.00000000000E+00 0.  1.
</event>
<event>
 7    1  0.2530788E-009  0.4778727E+02  0.7816164E-02  0.1312668E+00
        -11   -1    0    0    0    0  0.00000000000E+00  0.00000000000E+00  0.45593999997E+02  0.45594000000E+02  0.51100000000E-03 0. -1.
         11   -1    0    0    0    0 -0.00000000000E+00 -0.00000000000E+00 -0.45593999997E+02  0.45594000000E+02  0.51100000000E-03 0.  1.
    9900012    2    1    2    0    0 -0.23304639265E+02  0.25258229283E+02  0.26505449969E+02  0.47787271482E+02  0.20000001995E+02 0.  0.
        -12    1    1    2    0    0  0.23304639265E+02 -0.25258229283E+02 -0.26505449969E+02  0.43400728518E+02  0.00000000000E+00 0.  1.
         11    1    3    3    0    0 -0.18690295981E+02  0.19061558011E+02  0.12726350804E+02  0.29574146864E+02  0.51100000000E-03 0. -1.
        -11    1    3    3    0    0 -0.50405325187E+00  0.76644656124E+00 -0.13440392989E+01  0.16272528722E+01  0.51100000000E-03 0.  1.
         12    1    3    3    0    0 -0.41102900327E+01  0.54302247104E+01  0.15123138465E+02  0.16585871746E+02  0.00000000000E+00 0. -1.
</event>
<event>
 7    1  0.2530788E-009  0.4778727E+02  0.7816164E-02  0.1312668E+00
        -11   -1    0    0    0    0  0.00000000000E+00  0.00000000000E+00  0.45593999997E+02  0.45594000000E+02  0.51100000000E-03 0. -1.
         11   -1    0    0    0    0 -0.00000000000E+00 -0.00000000000E+00 -0.45593999997E+02  0.45594000000E+02  0.51100000000E-03 0.  1.
    9900012    2    1    2    0    0 -0.42534057844E+02 -0.63527333600E+01  0.58412278875E+01  0.47787271423E+02  0.20000001724E+02 0.  0.
        -12    1    1    2    0    0  0.42534057844E+02  0.63527333600E+01 -0.58412278875E+01  0.43400728577E+02  0.00000000000E+00 0.  1.
         11    1    3    3    0    0 -0.26443532783E+02 -0.31994780123E+01  0.43613351377E+01  0.26991078712E+02  0.51100000000E-03 0. -1.
        -11    1    3    3    0    0 -0.48398176643E+00  0.35743767852E+01  0.11921487766E+01  0.37988980928E+01  0.51100000000E-03 0.  1.
        -12    1    3    3    0    0 -0.15606543294E+02 -0.67276321330E+01  0.28774397314E+00  0.16997294617E+02  0.00000000000E+00 0.  1.
</event>
<event>
 7    1  0.2530788E-009  0.4778727E+02  0.7816164E-02  0.1312668E+00
        -11   -1    0    0    0    0  0.00000000000E+00  0.00000000000E+00  0.45593999997E+02  0.45594000000E+02  0.51100000000E-03 0.  1.
         11   -1    0    0    0    0 -0.00000000000E+00 -0.00000000000E+00 -0.45593999997E+02  0.45594000000E+02  0.51100000000E-03 0. -1.
    9900012    2    1    2    0    0 -0.42654405655E+02 -0.25236426044E+01  0.76063368810E+01  0.47787268964E+02  0.19999990513E+02 0.  0.
        -12    1    1    2    0    0  0.42654405655E+02  0.25236426044E+01 -0.76063368810E+01  0.43400731036E+02  0.00000000000E+00 0.  1.
         11    1    3    3    0    0 -0.25075539581E+02 -0.87280012577E+01  0.44638477435E+01  0.26923718691E+02  0.51100000000E-03 0. -1.
        -11    1    3    3    0    0 -0.75360912225E+01  0.40342441623E+01  0.57016709863E+01  0.10275059570E+02  0.51100000000E-03 0.  1.
         12    1    3    3    0    0 -0.10042774851E+02  0.21701144909E+01 -0.25591818487E+01  0.10588490702E+02  0.00000000000E+00 0. -1.
</event>
<event>
 7    1  0.2530788E-009  0.4778727E+02  0.7816164E-02  0.1312668E+00
        -11   -1    0    0    0    0  0.00000000000E+00  0.00000000000E+00  0.45593999997E+02  0.45594000000E+02  0.51100000000E-03 0.  1.
         11   -1    0    0    0    0 -0.00000000000E+00 -0.00000000000E+00 -0.45593999997E+02  0.45594000000E+02  0.51100000000E-03 0. -1.
    9900012    2    1    2    0    0  0.29241863832E+02  0.12918571280E+02 -0.29353828025E+02  0.47787270697E+02  0.19999998415E+02 0.  0.
        -12    1    1    2    0    0 -0.29241863832E+02 -0.12918571280E+02  0.29353828025E+02  0.43400729303E+02  0.00000000000E+00 0.  1.
         11    1    3    3    0    0  0.27297386988E+02  0.88299602251E+01 -0.28036009131E+02  0.40114004315E+02  0.51100000000E-03 0. -1.
        -11    1    3    3    0    0 -0.85833241918E+00  0.37565853840E+01 -0.25213311017E+01  0.46049732980E+01  0.51100000000E-03 0.  1.
         12    1    3    3    0    0  0.28028092633E+01  0.33202567123E+00  0.12035122075E+01  0.30682930835E+01  0.00000000000E+00 0. -1.
</event>
<event>
 7    1  0.2530788E-009  0.4778728E+02  0.7816164E-02  0.1312668E+00
        -11   -1    0    0    0    0  0.00000000000E+00  0.00000000000E+00  0.45593999997E+02  0.45594000000E+02  0.51100000000E-03 0.  1.
         11   -1    0    0    0    0 -0.00000000000E+00 -0.00000000000E+00 -0.45593999997E+02  0.45594000000E+02  0.51100000000E-03 0. -1.
    9900012    2    1    2    0    0 -0.24880390626E+01  0.17031782235E+01 -0.43295855099E+02  0.47787283149E+02  0.20000055190E+02 0.  0.
        -12    1    1    2    0    0  0.24880390626E+01 -0.17031782235E+01  0.43295855099E+02  0.43400716851E+02  0.00000000000E+00 0.  1.
         11    1    3    3    0    0 -0.90328498832E+01  0.31158003344E+01 -0.22994309566E+02  0.24900579540E+02  0.51100000000E-03 0. -1.
        -11    1    3    3    0    0  0.51673283891E+01 -0.20453402417E+00 -0.41475181735E+01  0.66291043217E+01  0.51100000000E-03 0.  1.
         12    1    3    3    0    0  0.13774824315E+01 -0.12080880868E+01 -0.16154027359E+02  0.16257599287E+02  0.00000000000E+00 0. -1.
</event>
<event>
 7    1  0.3813826E-009  0.4778727E+02  0.7816164E-02  0.1312668E+00
        -11   -1    0    0    0    0  0.00000000000E+00  0.00000000000E+00  0.45593999997E+02  0.45594000000E+02  0.51100000000E-03 0. -1.
         11   -1    0    0    0    0 -0.00000000000E+00 -0.00000000000E+00 -0.45593999997E+02  0.45594000000E+02  0.51100000000E-03 0.  1.
    9900012    2    1    2    0    0  0.20972290281E+02 -0.21873594747E+01  0.37934179412E+02  0.47787268800E+02  0.19999989766E+02 0.  0.
        -12    1    1    2    0    0 -0.20972290281E+02  0.21873594747E+01 -0.37934179412E+02  0.43400731200E+02  0.00000000000E+00 0.  1.
         11    1    3    3    0    0  0.41926252685E+01  0.89995221166E+00  0.70052028426E+01  0.82134577221E+01  0.51100000000E-03 0. -1.
        -11    1    3    3    0    0  0.14901965794E+02  0.49021515135E+01  0.24740740008E+02  0.29295117177E+02  0.51100000000E-03 0.  1.
        -12    1    3    3    0    0  0.18776992180E+01 -0.79894631998E+01  0.61882365605E+01  0.10278693901E+02  0.00000000000E+00 0.  1.
</event>
<event>
 7    1  0.2530788E-009  0.4778727E+02  0.7816164E-02  0.1312668E+00
        -11   -1    0    0    0    0  0.00000000000E+00  0.00000000000E+00  0.45593999997E+02  0.45594000000E+02  0.51100000000E-03 0. -1.
         11   -1    0    0    0    0 -0.00000000000E+00 -0.00000000000E+00 -0.45593999997E+02  0.45594000000E+02  0.51100000000E-03 0.  1.
    9900012    2    1    2    0    0 -0.14252493679E+02 -0.36815500515E+02  0.18030774238E+02  0.47787268740E+02  0.19999989494E+02 0.  0.
        -12    1    1    2    0    0  0.14252493679E+02  0.36815500515E+02 -0.18030774238E+02  0.43400731260E+02  0.00000000000E+00 0.  1.
         11    1    3    3    0    0 -0.44065538799E+00  0.24813840041E+00  0.47734639879E+01  0.48001779698E+01  0.51100000000E-03 0. -1.
        -11    1    3    3    0    0 -0.15354502805E+02 -0.31091816458E+02  0.10503388744E+02  0.36232347183E+02  0.51100000000E-03 0.  1.
        -12    1    3    3    0    0  0.15426645134E+01 -0.59718224579E+01  0.27539215060E+01  0.67547435874E+01  0.00000000000E+00 0.  1.
</event>
<event>
 7    1  0.2530788E-009  0.4778727E+02  0.7816164E-02  0.1312668E+00
        -11   -1    0    0    0    0  0.00000000000E+00  0.00000000000E+00  0.45593999997E+02  0.45594000000E+02  0.51100000000E-03 0.  1.
         11   -1    0    0    0    0 -0.00000000000E+00 -0.00000000000E+00 -0.45593999997E+02  0.45594000000E+02  0.51100000000E-03 0. -1.
    9900012    2    1    2    0    0 -0.40791295333E+02  0.11904296820E+02 -0.88306997972E+01  0.47787270552E+02  0.19999997755E+02 0.  0.
        -12    1    1    2    0    0  0.40791295333E+02 -0.11904296820E+02  0.88306997972E+01  0.43400729448E+02  0.00000000000E+00 0.  1.
         11    1    3    3    0    0 -0.15480831744E+02 -0.46375276908E+01 -0.48696522476E+01  0.16878279765E+02  0.51100000000E-03 0. -1.
        -11    1    3    3    0    0 -0.12869453187E+02  0.69648436088E+01 -0.41404444695E+01  0.15207733312E+02  0.51100000000E-03 0.  1.
         12    1    3    3    0    0 -0.12441010402E+02  0.95769809024E+01  0.17939691994E+00  0.15701257475E+02  0.00000000000E+00 0. -1.
</event>
<event>
 7    1  0.2530788E-009  0.4778727E+02  0.7816164E-02  0.1312668E+00
        -11   -1    0    0    0    0  0.00000000000E+00  0.00000000000E+00  0.45593999997E+02  0.45594000000E+02  0.51100000000E-03 0.  1.
         11   -1    0    0    0    0 -0.00000000000E+00 -0.00000000000E+00 -0.45593999997E+02  0.45594000000E+02  0.51100000000E-03 0. -1.
    9900012    2    1    2    0    0  0.29076112867E+02  0.17978864580E+02 -0.26738799116E+02  0.47787270868E+02  0.19999999197E+02 0.  0.
        -12    1    1    2    0    0 -0.29076112867E+02 -0.17978864580E+02  0.26738799116E+02  0.43400729132E+02  0.00000000000E+00 0.  1.
         11    1    3    3    0    0  0.26007969113E+02  0.12386141830E+02 -0.24023820474E+02  0.37509664318E+02  0.51100000000E-03 0. -1.
        -11    1    3    3    0    0  0.45362759567E+01  0.63151961464E+01 -0.88974802306E+00  0.78263116299E+01  0.51100000000E-03 0.  1.
         12    1    3    3    0    0 -0.14681322033E+01 -0.72247339635E+00 -0.18252306186E+01  0.24512949202E+01  0.00000000000E+00 0. -1.
</event>
<event>
 7    1  0.2530788E-009  0.4778725E+02  0.7816164E-02  0.1312668E+00
        -11   -1    0    0    0    0  0.00000000000E+00  0.00000000000E+00  0.45593999997E+02  0.45594000000E+02  0.51100000000E-03 0. -1.
         11   -1    0    0    0    0 -0.00000000000E+00 -0.00000000000E+00 -0.45593999997E+02  0.45594000000E+02  0.51100000000E-03 0.  1.
    9900012    2    1    2    0    0  0.40068578876E+01 -0.38933812655E+02  0.18754420256E+02  0.47787251652E+02  0.19999911582E+02 0.  0.
        -12    1    1    2    0    0 -0.40068578876E+01  0.38933812655E+02 -0.18754420256E+02  0.43400748348E+02  0.00000000000E+00 0.  1.
         11    1    3    3    0    0  0.27581436104E+01 -0.19145879015E+02  0.45563599952E+01  0.19872907591E+02  0.51100000000E-03 0. -1.
        -11    1    3    3    0    0  0.46945315042E+01 -0.14665666351E+02  0.15226723139E+02  0.21655795838E+02  0.51100000000E-03 0.  1.
        -12    1    3    3    0    0 -0.34458172270E+01 -0.51222672894E+01 -0.10286628783E+01  0.62585482233E+01  0.00000000000E+00 0.  1.
</event>
<event>
 7    1  0.2530788E-009  0.4778727E+02  0.7816164E-02  0.1312668E+00
        -11   -1    0    0    0    0  0.00000000000E+00  0.00000000000E+00  0.45593999997E+02  0.45594000000E+02  0.51100000000E-03 0.  1.
         11   -1    0    0    0    0 -0.00000000000E+00 -0.00000000000E+00 -0.45593999997E+02  0.45594000000E+02  0.51100000000E-03 0. -1.
    9900012    2    1    2    0    0  0.34868325609E+02 -0.39224990044E+01 -0.25542852096E+02  0.47787269333E+02  0.19999992196E+02 0.  0.
        -12    1    1    2    0    0 -0.34868325609E+02  0.39224990044E+01  0.25542852096E+02  0.43400730667E+02  0.00000000000E+00 0.  1.
         11    1    3    3    0    0  0.23554756148E+02 -0.10024074943E+02 -0.14437157331E+02  0.29389456064E+02  0.51100000000E-03 0. -1.
        -11    1    3    3    0    0  0.50133264695E+01  0.65710249403E+01 -0.72656691094E+01  0.11004624434E+02  0.51100000000E-03 0.  1.
        -12    1    3    3    0    0  0.63002429922E+01 -0.46944900214E+00 -0.38400256552E+01  0.73931888356E+01  0.00000000000E+00 0.  1.
</event>
<event>
 7    1  0.2530788E-009  0.4778730E+02  0.7816164E-02  0.1312668E+00
        -11   -1    0    0    0    0  0.00000000000E+00  0.00000000000E+00  0.45593999997E+02  0.45594000000E+02  0.51100000000E-03 0.  1.
         11   -1    0    0    0    0 -0.00000000000E+00 -0.00000000000E+00 -0.45593999997E+02  0.45594000000E+02  0.51100000000E-03 0. -1.
    9900012    2    1    2    0    0 -0.34537663851E+02 -0.25858279992E+02 -0.47032190802E+01  0.47787295649E+02  0.20000112183E+02 0.  0.
        -12    1    1    2    0    0  0.34537663851E+02  0.25858279992E+02  0.47032190802E+01  0.43400704351E+02  0.00000000000E+00 0.  1.
         11    1    3    3    0    0 -0.15553210437E+02 -0.14058256706E+02  0.42157312305E+01  0.21384791946E+02  0.51100000000E-03 0. -1.
        -11    1    3    3    0    0 -0.99488839160E+01 -0.38612034980E+01 -0.96015032891E+01  0.14355418813E+02  0.51100000000E-03 0.  1.
        -12    1    3    3    0    0 -0.90355694975E+01 -0.79388197884E+01  0.68255297835E+00  0.12047084890E+02  0.00000000000E+00 0.  1.
</event>
<event>
 7    1  0.2530788E-009  0.4778727E+02  0.7816164E-02  0.1312668E+00
        -11   -1    0    0    0    0  0.00000000000E+00  0.00000000000E+00  0.45593999997E+02  0.45594000000E+02  0.51100000000E-03 0.  1.
         11   -1    0    0    0    0 -0.00000000000E+00 -0.00000000000E+00 -0.45593999997E+02  0.45594000000E+02  0.51100000000E-03 0. -1.
    9900012    2    1    2    0    0 -0.23754178783E+02 -0.45604906532E+01 -0.36035601905E+02  0.47787266259E+02  0.19999978180E+02 0.  0.
        -12    1    1    2    0    0  0.23754178783E+02  0.45604906532E+01  0.36035601905E+02  0.43400733741E+02  0.00000000000E+00 0.  1.
         11    1    3    3    0    0 -0.12594429673E+02 -0.89313000341E+01 -0.21050652827E+02  0.26105895192E+02  0.51100000000E-03 0. -1.
        -11    1    3    3    0    0 -0.12840636872E+02  0.42630608131E+01 -0.11293505682E+02  0.17623816659E+02  0.51100000000E-03 0.  1.
        -12    1    3    3    0    0  0.16808877626E+01  0.10774856783E+00 -0.36914433954E+01  0.40575544070E+01  0.00000000000E+00 0.  1.
</event>
<event>
 7    1  0.2530788E-009  0.4778727E+02  0.7816164E-02  0.1312668E+00
        -11   -1    0    0    0    0  0.00000000000E+00  0.00000000000E+00  0.45593999997E+02  0.45594000000E+02  0.51100000000E-03 0.  1.
         11   -1    0    0    0    0 -0.00000000000E+00 -0.00000000000E+00 -0.45593999997E+02  0.45594000000E+02  0.51100000000E-03 0. -1.
    9900012    2    1    2    0    0 -0.12588495789E+02 -0.26851293216E+00 -0.41534091873E+02  0.47787272896E+02  0.20000008442E+02 0.  0.
        -12    1    1    2    0    0  0.12588495789E+02  0.26851293216E+00  0.41534091873E+02  0.43400727104E+02  0.00000000000E+00 0.  1.
         11    1    3    3    0    0 -0.56426670316E+01  0.24887529628E+01 -0.23736996986E+02  0.24525060830E+02  0.51100000000E-03 0. -1.
        -11    1    3    3    0    0  0.16548862270E+01 -0.18455920112E+01  0.91948830534E+00  0.26439208197E+01  0.51100000000E-03 0.  1.
        -12    1    3    3    0    0 -0.86007149840E+01 -0.91167388376E+00 -0.18716583193E+02  0.20618291246E+02  0.00000000000E+00 0.  1.
</event>
<event>
 7    1  0.2530788E-009  0.4778727E+02  0.7816164E-02  0.1312668E+00
        -11   -1    0    0    0    0  0.00000000000E+00  0.00000000000E+00  0.45593999997E+02  0.45594000000E+02  0.51100000000E-03 0.  1.
         11   -1    0    0    0    0 -0.00000000000E+00 -0.00000000000E+00 -0.45593999997E+02  0.45594000000E+02  0.51100000000E-03 0. -1.
    9900012    2    1    2    0    0 -0.12273823308E+02 -0.39667154256E+02 -0.12629086810E+02  0.47787266147E+02  0.19999977670E+02 0.  0.
        -12    1    1    2    0    0  0.12273823308E+02  0.39667154256E+02  0.12629086810E+02  0.43400733853E+02  0.00000000000E+00 0.  1.
         11    1    3    3    0    0 -0.60379634906E+01 -0.14646841375E+02 -0.56022110218E+01  0.16803920196E+02  0.51100000000E-03 0. -1.
        -11    1    3    3    0    0 -0.11180855176E+02 -0.15691642471E+02 -0.67687268307E+01  0.20421920308E+02  0.51100000000E-03 0.  1.
        -12    1    3    3    0    0  0.49449953586E+01 -0.93286704098E+01 -0.25814895735E+00  0.10561425642E+02  0.00000000000E+00 0.  1.
</event>
<event>
 7    1  0.2530788E-009  0.4778726E+02  0.7816164E-02  0.1312668E+00
        -11   -1    0    0    0    0  0.00000000000E+00  0.00000000000E+00  0.45593999997E+02  0.45594000000E+02  0.51100000000E-03 0.  1.
         11   -1    0    0    0    0 -0.00000000000E+00 -0.00000000000E+00 -0.45593999997E+02  0.45594000000E+02  0.51100000000E-03 0. -1.
    9900012    2    1    2    0    0  0.34207629559E+02  0.13530598361E+02 -0.23030086902E+02  0.47787263661E+02  0.19999966335E+02 0.  0.
        -12    1    1    2    0    0 -0.34207629559E+02 -0.13530598361E+02  0.23030086902E+02  0.43400736339E+02  0.00000000000E+00 0.  1.
         11    1    3    3    0    0  0.11109685621E+01  0.43728078803E+00 -0.74851843674E+01  0.75798054664E+01  0.51100000000E-03 0. -1.
        -11    1    3    3    0    0  0.29047194858E+02  0.82317080565E+01 -0.15368990937E+02  0.33877816183E+02  0.51100000000E-03 0.  1.
        -12    1    3    3    0    0  0.40494661390E+01  0.48616095169E+01 -0.17591159787E+00  0.63296420117E+01  0.00000000000E+00 0.  1.
</event>
<event>
 7    1  0.2530788E-009  0.4778726E+02  0.7816164E-02  0.1312668E+00
        -11   -1    0    0    0    0  0.00000000000E+00  0.00000000000E+00  0.45593999997E+02  0.45594000000E+02  0.51100000000E-03 0.  1.
         11   -1    0    0    0    0 -0.00000000000E+00 -0.00000000000E+00 -0.45593999997E+02  0.45594000000E+02  0.51100000000E-03 0. -1.
    9900012    2    1    2    0    0 -0.28418691218E+01  0.37511773431E+02 -0.21642888036E+02  0.47787263041E+02  0.19999963511E+02 0.  0.
        -12    1    1    2    0    0  0.28418691218E+01 -0.37511773431E+02  0.21642888036E+02  0.43400736959E+02  0.00000000000E+00 0.  1.
         11    1    3    3    0    0 -0.84241706442E+01  0.17265961373E+02 -0.13736227060E+02  0.23617027909E+02  0.51100000000E-03 0. -1.
        -11    1    3    3    0    0  0.35160267934E+01  0.16353477428E+02 -0.20670113596E+01  0.16854412023E+02  0.51100000000E-03 0.  1.
         12    1    3    3    0    0  0.20662747290E+01  0.38923346295E+01 -0.58396496164E+01  0.73158231092E+01  0.00000000000E+00 0. -1.
</event>
<event>
 7    1  0.2530788E-009  0.4778727E+02  0.7816164E-02  0.1312668E+00
        -11   -1    0    0    0    0  0.00000000000E+00  0.00000000000E+00  0.45593999997E+02  0.45594000000E+02  0.51100000000E-03 0.  1.
         11   -1    0    0    0    0 -0.00000000000E+00 -0.00000000000E+00 -0.45593999997E+02  0.45594000000E+02  0.51100000000E-03 0. -1.
    9900012    2    1    2    0    0 -0.35067853066E+02  0.14764615655E+02 -0.20877617975E+02  0.47787272743E+02  0.20000007746E+02 0.  0.
        -12    1    1    2    0    0  0.35067853066E+02 -0.14764615655E+02  0.20877617975E+02  0.43400727257E+02  0.00000000000E+00 0.  1.
         11    1    3    3    0    0 -0.38984022055E+01  0.53936930494E+01 -0.97754945473E+01  0.11825808994E+02  0.51100000000E-03 0. -1.
        -11    1    3    3    0    0 -0.23675951101E+02  0.39136510894E+01 -0.41020858007E+01  0.24345316460E+02  0.51100000000E-03 0.  1.
        -12    1    3    3    0    0 -0.74934997596E+01  0.54572715166E+01 -0.70000376268E+01  0.11616147289E+02  0.00000000000E+00 0.  1.
</event>
<event>
 7    1  0.2530788E-009  0.4778727E+02  0.7816164E-02  0.1312668E+00
        -11   -1    0    0    0    0  0.00000000000E+00  0.00000000000E+00  0.45593999997E+02  0.45594000000E+02  0.51100000000E-03 0.  1.
         11   -1    0    0    0    0 -0.00000000000E+00 -0.00000000000E+00 -0.45593999997E+02  0.45594000000E+02  0.51100000000E-03 0. -1.
    9900012    2    1    2    0    0  0.32875996725E+02 -0.25972661185E+02 -0.11323136677E+02  0.47787265975E+02  0.19999976886E+02 0.  0.
        -12    1    1    2    0    0 -0.32875996725E+02  0.25972661185E+02  0.11323136677E+02  0.43400734025E+02  0.00000000000E+00 0.  1.
         11    1    3    3    0    0  0.20638723974E+02 -0.16839209868E+02 -0.12663986104E+02  0.29493939387E+02  0.51100000000E-03 0. -1.
        -11    1    3    3    0    0  0.19730345601E+01 -0.92418533849E+00  0.43004844070E+01  0.48209076232E+01  0.51100000000E-03 0.  1.
         12    1    3    3    0    0  0.10264238190E+02 -0.82092659787E+01 -0.29596349797E+01  0.13472418964E+02  0.00000000000E+00 0. -1.
</event>
<event>
 7    1  0.2530788E-009  0.4778727E+02  0.7816164E-02  0.1312668E+00
        -11   -1    0    0    0    0  0.00000000000E+00  0.00000000000E+00  0.45593999997E+02  0.45594000000E+02  0.51100000000E-03 0.  1.
         11   -1    0    0    0    0 -0.00000000000E+00 -0.00000000000E+00 -0.45593999997E+02  0.45594000000E+02  0.51100000000E-03 0. -1.
    9900012    2    1    2    0    0 -0.29224104014E+02 -0.20037447296E+02 -0.25061443012E+02  0.47787268723E+02  0.19999989414E+02 0.  0.
        -12    1    1    2    0    0  0.29224104014E+02  0.20037447296E+02  0.25061443012E+02  0.43400731277E+02  0.00000000000E+00 0.  1.
         11    1    3    3    0    0 -0.21264393194E+02 -0.12098300819E+02 -0.11788936080E+02  0.27157362073E+02  0.51100000000E-03 0. -1.
        -11    1    3    3    0    0  0.12387145091E+01 -0.32379107593E+01  0.40428971057E+00  0.34902621895E+01  0.51100000000E-03 0.  1.
        -12    1    3    3    0    0 -0.91984253291E+01 -0.47012357181E+01 -0.13676796643E+02  0.17139644460E+02  0.00000000000E+00 0.  1.
</event>
<event>
 7    1  0.2530788E-009  0.4778727E+02  0.7816164E-02  0.1312668E+00
        -11   -1    0    0    0    0  0.00000000000E+00  0.00000000000E+00  0.45593999997E+02  0.45594000000E+02  0.51100000000E-03 0.  1.
         11   -1    0    0    0    0 -0.00000000000E+00 -0.00000000000E+00 -0.45593999997E+02  0.45594000000E+02  0.51100000000E-03 0. -1.
    9900012    2    1    2    0    0 -0.31039180442E+02  0.29345631864E+02  0.76828990637E+01  0.47787265329E+02  0.19999973939E+02 0.  0.
        -12    1    1    2    0    0  0.31039180442E+02 -0.29345631864E+02 -0.76828990637E+01  0.43400734671E+02  0.00000000000E+00 0.  1.
         11    1    3    3    0    0 -0.20479393850E+02  0.89637907766E+01  0.62918824246E+01  0.23223757281E+02  0.51100000000E-03 0. -1.
        -11    1    3    3    0    0 -0.54740142645E+01  0.15572237537E+02 -0.22740216580E+01  0.16662250413E+02  0.51100000000E-03 0.  1.
        -12    1    3    3    0    0 -0.50857723277E+01  0.48096035500E+01  0.36650382972E+01  0.79012576339E+01  0.00000000000E+00 0.  1.
</event>
<event>
 7    1  0.2530788E-009  0.4778727E+02  0.7816164E-02  0.1312668E+00
        -11   -1    0    0    0    0  0.00000000000E+00  0.00000000000E+00  0.45593999997E+02  0.45594000000E+02  0.51100000000E-03 0. -1.
         11   -1    0    0    0    0 -0.00000000000E+00 -0.00000000000E+00 -0.45593999997E+02  0.45594000000E+02  0.51100000000E-03 0.  1.
    9900012    2    1    2    0    0 -0.23311575530E+01 -0.27098365840E+02  0.33821110951E+02  0.47787271058E+02  0.20000000062E+02 0.  0.
        -12    1    1    2    0    0  0.23311575530E+01  0.27098365840E+02 -0.33821110951E+02  0.43400728942E+02  0.00000000000E+00 0.  1.
         11    1    3    3    0    0  0.52981103204E+01 -0.40242812735E+01  0.13872858771E+02  0.15385740914E+02  0.51100000000E-03 0. -1.
        -11    1    3    3    0    0 -0.78468217241E+01 -0.15503537198E+02  0.16894340354E+02  0.24235325727E+02  0.51100000000E-03 0.  1.
        -12    1    3    3    0    0  0.21755385067E+00 -0.75705473691E+01  0.30539118254E+01  0.81662044172E+01  0.00000000000E+00 0.  1.
</event>
<event>
 7    1  0.2530788E-009  0.4778728E+02  0.7816164E-02  0.1312668E+00
        -11   -1    0    0    0    0  0.00000000000E+00  0.00000000000E+00  0.45593999997E+02  0.45594000000E+02  0.51100000000E-03 0.  1.
         11   -1    0    0    0    0 -0.00000000000E+00 -0.00000000000E+00 -0.45593999997E+02  0.45594000000E+02  0.51100000000E-03 0. -1.
    9900012    2    1    2    0    0  0.13687253667E+02 -0.11047510961E+02 -0.39676623809E+02  0.47787275487E+02  0.20000020255E+02 0.  0.
        -12    1    1    2    0    0 -0.13687253667E+02  0.11047510961E+02  0.39676623809E+02  0.43400724513E+02  0.00000000000E+00 0.  1.
         11    1    3    3    0    0  0.16365738591E+02 -0.79874899190E+01 -0.23695485319E+02  0.29885003256E+02  0.51100000000E-03 0. -1.
        -11    1    3    3    0    0 -0.27372016050E+01  0.16680494225E+01 -0.49102729939E+01  0.58639101833E+01  0.51100000000E-03 0.  1.
         12    1    3    3    0    0  0.58716681002E-01 -0.47280704649E+01 -0.11070865496E+02  0.12038362048E+02  0.00000000000E+00 0. -1.
</event>
<event>
 7    1  0.2530788E-009  0.4778728E+02  0.7816164E-02  0.1312668E+00
        -11   -1    0    0    0    0  0.00000000000E+00  0.00000000000E+00  0.45593999997E+02  0.45594000000E+02  0.51100000000E-03 0. -1.
         11   -1    0    0    0    0 -0.00000000000E+00 -0.00000000000E+00 -0.45593999997E+02  0.45594000000E+02  0.51100000000E-03 0.  1.
    9900012    2    1    2    0    0 -0.15284080801E+02  0.39399317204E+02 -0.98850066299E+01  0.47787277908E+02  0.20000031293E+02 0.  0.
        -12    1    1    2    0    0  0.15284080801E+02 -0.39399317204E+02  0.98850066299E+01  0.43400722092E+02  0.00000000000E+00 0.  1.
         11    1    3    3    0    0  0.59645863277E+00  0.26288172884E+01 -0.53368921932E+01  0.59790351880E+01  0.51100000000E-03 0.  1.
        -11    1    3    3    0    0 -0.13215525058E+02  0.17263840579E+02 -0.73081510360E+00  0.21753721178E+02  0.51100000000E-03 0. -1.
         12    1    3    3    0    0 -0.26650143754E+01  0.19506659336E+02 -0.38172993331E+01  0.20054521542E+02  0.00000000000E+00 0. -1.
</event>
<event>
 7    1  0.2530788E-009  0.4778727E+02  0.7816164E-02  0.1312668E+00
        -11   -1    0    0    0    0  0.00000000000E+00  0.00000000000E+00  0.45593999997E+02  0.45594000000E+02  0.51100000000E-03 0.  1.
         11   -1    0    0    0    0 -0.00000000000E+00 -0.00000000000E+00 -0.45593999997E+02  0.45594000000E+02  0.51100000000E-03 0. -1.
    9900012    2    1    2    0    0  0.26698963546E+02 -0.23545241331E+02 -0.24827619388E+02  0.47787265810E+02  0.19999976134E+02 0.  0.
        -12    1    1    2    0    0 -0.26698963546E+02  0.23545241331E+02  0.24827619388E+02  0.43400734190E+02  0.00000000000E+00 0.  1.
         11    1    3    3    0    0  0.14693904853E+02 -0.10988537589E+02 -0.80531566242E+01  0.20037767592E+02  0.51100000000E-03 0. -1.
        -11    1    3    3    0    0 -0.32656714155E+00  0.23428430948E+01 -0.37442013649E+01  0.44288377693E+01  0.51100000000E-03 0.  1.
        -12    1    3    3    0    0  0.12331625834E+02 -0.14899546837E+02 -0.13030261399E+02  0.23320660449E+02  0.00000000000E+00 0.  1.
</event>
<event>
 7    1  0.2530788E-009  0.4778727E+02  0.7816164E-02  0.1312668E+00
        -11   -1    0    0    0    0  0.00000000000E+00  0.00000000000E+00  0.45593999997E+02  0.45594000000E+02  0.51100000000E-03 0. -1.
         11   -1    0    0    0    0 -0.00000000000E+00 -0.00000000000E+00 -0.45593999997E+02  0.45594000000E+02  0.51100000000E-03 0.  1.
    9900012    2    1    2    0    0 -0.63593174641E+01  0.25568715807E+02  0.34488014206E+02  0.47787271083E+02  0.20000000177E+02 0.  0.
        -12    1    1    2    0    0  0.63593174641E+01 -0.25568715807E+02 -0.34488014206E+02  0.43400728917E+02  0.00000000000E+00 0.  1.
         11    1    3    3    0    0  0.11098584681E+00  0.35993772843E+01  0.69590164002E+01  0.78355436450E+01  0.51100000000E-03 0. -1.
        -11    1    3    3    0    0  0.55912007861E+01  0.44828225926E+01  0.10566473336E+02  0.12767442330E+02  0.51100000000E-03 0.  1.
        -12    1    3    3    0    0 -0.12061504097E+02  0.17486515930E+02  0.16962524470E+02  0.27184285108E+02  0.00000000000E+00 0.  1.
</event>
<event>
 7    1  0.2530788E-009  0.4778728E+02  0.7816164E-02  0.1312668E+00
        -11   -1    0    0    0    0  0.00000000000E+00  0.00000000000E+00  0.45593999997E+02  0.45594000000E+02  0.51100000000E-03 0.  1.
         11   -1    0    0    0    0 -0.00000000000E+00 -0.00000000000E+00 -0.45593999997E+02  0.45594000000E+02  0.51100000000E-03 0. -1.
    9900012    2    1    2    0    0 -0.32964646123E+02 -0.12550520641E+02 -0.25287139479E+02  0.47787275520E+02  0.20000020407E+02 0.  0.
        -12    1    1    2    0    0  0.32964646123E+02  0.12550520641E+02  0.25287139479E+02  0.43400724480E+02  0.00000000000E+00 0.  1.
         11    1    3    3    0    0 -0.29255690728E+01 -0.14423068012E+01 -0.83995744625E+01  0.90106633896E+01  0.51100000000E-03 0. -1.
        -11    1    3    3    0    0 -0.83326006082E+01 -0.25412208709E+01  0.17815937452E+01  0.88918003207E+01  0.51100000000E-03 0.  1.
        -12    1    3    3    0    0 -0.21706476442E+02 -0.85669929684E+01 -0.18669158761E+02  0.29884811810E+02  0.00000000000E+00 0.  1.
</event>
<event>
 7    1  0.2530788E-009  0.4778728E+02  0.7816164E-02  0.1312668E+00
        -11   -1    0    0    0    0  0.00000000000E+00  0.00000000000E+00  0.45593999997E+02  0.45594000000E+02  0.51100000000E-03 0.  1.
         11   -1    0    0    0    0 -0.00000000000E+00 -0.00000000000E+00 -0.45593999997E+02  0.45594000000E+02  0.51100000000E-03 0. -1.
    9900012    2    1    2    0    0  0.29454483290E+02  0.31858762418E+02 -0.10369967242E+01  0.47787277761E+02  0.20000030622E+02 0.  0.
        -12    1    1    2    0    0 -0.29454483290E+02 -0.31858762418E+02  0.10369967242E+01  0.43400722239E+02  0.00000000000E+00 0.  1.
         11    1    3    3    0    0  0.80642134506E+01  0.89158405035E+01  0.26255561826E+01  0.12305173546E+02  0.51100000000E-03 0. -1.
        -11    1    3    3    0    0  0.89073119839E+01  0.47004649454E+01  0.55904524875E+01  0.11519016310E+02  0.51100000000E-03 0.  1.
        -12    1    3    3    0    0  0.12482957855E+02  0.18242456969E+02 -0.92530053943E+01  0.23963087905E+02  0.00000000000E+00 0.  1.
</event>
<event>
 7    1  0.2530788E-009  0.4778727E+02  0.7816164E-02  0.1312668E+00
        -11   -1    0    0    0    0  0.00000000000E+00  0.00000000000E+00  0.45593999997E+02  0.45594000000E+02  0.51100000000E-03 0.  1.
         11   -1    0    0    0    0 -0.00000000000E+00 -0.00000000000E+00 -0.45593999997E+02  0.45594000000E+02  0.51100000000E-03 0. -1.
    9900012    2    1    2    0    0 -0.75053417582E+01  0.45229306805E+00 -0.42744457923E+02  0.47787269511E+02  0.19999993006E+02 0.  0.
        -12    1    1    2    0    0  0.75053417582E+01 -0.45229306805E+00  0.42744457923E+02  0.43400730489E+02  0.00000000000E+00 0.  1.
         11    1    3    3    0    0 -0.96607697636E+01 -0.40560022251E+01 -0.16742960726E+02  0.19751160994E+02  0.51100000000E-03 0. -1.
        -11    1    3    3    0    0  0.43649182505E+01 -0.61081690821E+00 -0.15882488213E+02  0.16482689123E+02  0.51100000000E-03 0.  1.
        -12    1    3    3    0    0 -0.22094902452E+01  0.51191122013E+01 -0.10119008984E+02  0.11553419394E+02  0.00000000000E+00 0.  1.
</event>
<event>
 7    1  0.2530788E-009  0.4778727E+02  0.7816164E-02  0.1312668E+00
        -11   -1    0    0    0    0  0.00000000000E+00  0.00000000000E+00  0.45593999997E+02  0.45594000000E+02  0.51100000000E-03 0.  1.
         11   -1    0    0    0    0 -0.00000000000E+00 -0.00000000000E+00 -0.45593999997E+02  0.45594000000E+02  0.51100000000E-03 0. -1.
    9900012    2    1    2    0    0  0.38472037891E+01  0.94257301683E+01 -0.42189784771E+02  0.47787270684E+02  0.19999998355E+02 0.  0.
        -12    1    1    2    0    0 -0.38472037891E+01 -0.94257301683E+01  0.42189784771E+02  0.43400729316E+02  0.00000000000E+00 0.  1.
         11    1    3    3    0    0 -0.58100735670E+01  0.28887273761E+01 -0.60981721224E+01  0.89044597929E+01  0.51100000000E-03 0.  1.
        -11    1    3    3    0    0  0.21652353113E+01 -0.19433344229E+01 -0.10609374672E+02  0.11001073758E+02  0.51100000000E-03 0. -1.
         12    1    3    3    0    0  0.74920420447E+01  0.84803372150E+01 -0.25482237976E+02  0.27881737133E+02  0.00000000000E+00 0. -1.
</event>
<event>
 7    1  0.2530788E-009  0.4778727E+02  0.7816164E-02  0.1312668E+00
        -11   -1    0    0    0    0  0.00000000000E+00  0.00000000000E+00  0.45593999997E+02  0.45594000000E+02  0.51100000000E-03 0.  1.
         11   -1    0    0    0    0 -0.00000000000E+00 -0.00000000000E+00 -0.45593999997E+02  0.45594000000E+02  0.51100000000E-03 0. -1.
    9900012    2    1    2    0    0 -0.19356271465E+02  0.97369599900E+01 -0.37605181161E+02  0.47787270916E+02  0.19999999415E+02 0.  0.
        -12    1    1    2    0    0  0.19356271465E+02 -0.97369599900E+01  0.37605181161E+02  0.43400729084E+02  0.00000000000E+00 0.  1.
         11    1    3    3    0    0 -0.20881087629E+01  0.85627236644E+01 -0.99366948630E+01  0.13282256579E+02  0.51100000000E-03 0. -1.
        -11    1    3    3    0    0 -0.17821027339E+02  0.66602331583E+00 -0.19985078231E+02  0.26784994953E+02  0.51100000000E-03 0.  1.
        -12    1    3    3    0    0  0.55286463755E+00  0.50821300979E+00 -0.76834080674E+01  0.77200193847E+01  0.00000000000E+00 0.  1.
</event>
<event>
 7    1  0.2530788E-009  0.4778727E+02  0.7816164E-02  0.1312668E+00
        -11   -1    0    0    0    0  0.00000000000E+00  0.00000000000E+00  0.45593999997E+02  0.45594000000E+02  0.51100000000E-03 0.  1.
         11   -1    0    0    0    0 -0.00000000000E+00 -0.00000000000E+00 -0.45593999997E+02  0.45594000000E+02  0.51100000000E-03 0. -1.
    9900012    2    1    2    0    0  0.11575414214E+02 -0.21254930828E+02 -0.36025842046E+02  0.47787267358E+02  0.19999983193E+02 0.  0.
        -12    1    1    2    0    0 -0.11575414214E+02  0.21254930828E+02  0.36025842046E+02  0.43400732642E+02  0.00000000000E+00 0.  1.
         11    1    3    3    0    0  0.78982900257E+01 -0.11510648932E+02 -0.17916873520E+02  0.22713264432E+02  0.51100000000E-03 0.  1.
        -11    1    3    3    0    0  0.86705009216E+01 -0.85552079821E+01 -0.13390675479E+02  0.18101915918E+02  0.51100000000E-03 0. -1.
        -12    1    3    3    0    0 -0.49933767334E+01 -0.11890739131E+01 -0.47182930468E+01  0.69720870081E+01  0.00000000000E+00 0.  1.
</event>
<event>
 7    1  0.2530788E-009  0.4778727E+02  0.7816164E-02  0.1312668E+00
        -11   -1    0    0    0    0  0.00000000000E+00  0.00000000000E+00  0.45593999997E+02  0.45594000000E+02  0.51100000000E-03 0.  1.
         11   -1    0    0    0    0 -0.00000000000E+00 -0.00000000000E+00 -0.45593999997E+02  0.45594000000E+02  0.51100000000E-03 0. -1.
    9900012    2    1    2    0    0  0.22129947594E+02  0.22697451052E+02 -0.29643120273E+02  0.47787269081E+02  0.19999991048E+02 0.  0.
        -12    1    1    2    0    0 -0.22129947594E+02 -0.22697451052E+02  0.29643120273E+02  0.43400730919E+02  0.00000000000E+00 0.  1.
         11    1    3    3    0    0  0.26151109588E+01 -0.91362861346E+00 -0.11931532729E+02  0.12248877340E+02  0.51100000000E-03 0.  1.
        -11    1    3    3    0    0  0.13286349732E+02  0.16268480885E+02 -0.13875885903E+02  0.25174009799E+02  0.51100000000E-03 0. -1.
        -12    1    3    3    0    0  0.62284869029E+01  0.73425987802E+01 -0.38357016416E+01  0.10364381941E+02  0.00000000000E+00 0.  1.
</event>
<event>
 7    1  0.2530788E-009  0.4778726E+02  0.7816164E-02  0.1312668E+00
        -11   -1    0    0    0    0  0.00000000000E+00  0.00000000000E+00  0.45593999997E+02  0.45594000000E+02  0.51100000000E-03 0.  1.
         11   -1    0    0    0    0 -0.00000000000E+00 -0.00000000000E+00 -0.45593999997E+02  0.45594000000E+02  0.51100000000E-03 0. -1.
    9900012    2    1    2    0    0  0.18592339267E+02  0.22867693031E+02 -0.31859341645E+02  0.47787261366E+02  0.19999955870E+02 0.  0.
        -12    1    1    2    0    0 -0.18592339267E+02 -0.22867693031E+02  0.31859341645E+02  0.43400738634E+02  0.00000000000E+00 0.  1.
         11    1    3    3    0    0  0.16032779878E+02  0.50696601874E+01 -0.19210434297E+02  0.25530222702E+02  0.51100000000E-03 0. -1.
        -11    1    3    3    0    0  0.30201356958E+01  0.16809482260E+02 -0.11122698129E+02  0.20381224875E+02  0.51100000000E-03 0.  1.
         12    1    3    3    0    0 -0.46057630746E+00  0.98855058328E+00 -0.15262092192E+01  0.18758137891E+01  0.00000000000E+00 0. -1.
</event>
<event>
 7    1  0.2530788E-009  0.4778729E+02  0.7816164E-02  0.1312668E+00
        -11   -1    0    0    0    0  0.00000000000E+00  0.00000000000E+00  0.45593999997E+02  0.45594000000E+02  0.51100000000E-03 0.  1.
         11   -1    0    0    0    0 -0.00000000000E+00 -0.00000000000E+00 -0.45593999997E+02  0.45594000000E+02  0.51100000000E-03 0. -1.
    9900012    2    1    2    0    0  0.26226521600E+02 -0.70591847542E+01 -0.33852012456E+02  0.47787294107E+02  0.20000105152E+02 0.  0.
        -12    1    1    2    0    0 -0.26226521600E+02  0.70591847542E+01  0.33852012456E+02  0.43400705893E+02  0.00000000000E+00 0.  1.
         11    1    3    3    0    0  0.23789988145E+02 -0.13579148575E+01 -0.19223085879E+02  0.30615919056E+02  0.51100000000E-03 0. -1.
        -11    1    3    3    0    0  0.25977078914E+01 -0.70675489464E+01 -0.11408398494E+02  0.13669304695E+02  0.51100000000E-03 0.  1.
         12    1    3    3    0    0 -0.16117443561E+00  0.13662790497E+01 -0.32205280834E+01  0.35020703557E+01  0.00000000000E+00 0. -1.
</event>
<event>
 7    1  0.2530788E-009  0.4778727E+02  0.7816164E-02  0.1312668E+00
        -11   -1    0    0    0    0  0.00000000000E+00  0.00000000000E+00  0.45593999997E+02  0.45594000000E+02  0.51100000000E-03 0.  1.
         11   -1    0    0    0    0 -0.00000000000E+00 -0.00000000000E+00 -0.45593999997E+02  0.45594000000E+02  0.51100000000E-03 0. -1.
    9900012    2    1    2    0    0 -0.38941036580E+02 -0.18632561407E+02 -0.44773191900E+01  0.47787273490E+02  0.20000011148E+02 0.  0.
        -12    1    1    2    0    0  0.38941036580E+02  0.18632561407E+02  0.44773191900E+01  0.43400726510E+02  0.00000000000E+00 0.  1.
         11    1    3    3    0    0 -0.13963329868E+02  0.24372752913E-01  0.15834313374E+01  0.14052844199E+02  0.51100000000E-03 0. -1.
        -11    1    3    3    0    0 -0.81015713782E+01 -0.12301438624E+02 -0.54028914338E+01  0.15689234753E+02  0.51100000000E-03 0.  1.
        -12    1    3    3    0    0 -0.16876135334E+02 -0.63554955363E+01 -0.65785909356E+00  0.18045194538E+02  0.00000000000E+00 0.  1.
</event>
<event>
 7    1  0.2530788E-009  0.4778727E+02  0.7816164E-02  0.1312668E+00
        -11   -1    0    0    0    0  0.00000000000E+00  0.00000000000E+00  0.45593999997E+02  0.45594000000E+02  0.51100000000E-03 0. -1.
         11   -1    0    0    0    0 -0.00000000000E+00 -0.00000000000E+00 -0.45593999997E+02  0.45594000000E+02  0.51100000000E-03 0.  1.
    9900012    2    1    2    0    0 -0.58565152845E+01  0.42595808800E+02 -0.59094573132E+01  0.47787269772E+02  0.19999994199E+02 0.  0.
        -12    1    1    2    0    0  0.58565152845E+01 -0.42595808800E+02  0.59094573132E+01  0.43400730228E+02  0.00000000000E+00 0.  1.
         11    1    3    3    0    0 -0.99920017662E+01  0.27889692432E+02 -0.38397769348E+01  0.29873381637E+02  0.51100000000E-03 0. -1.
        -11    1    3    3    0    0 -0.29147407520E+01  0.37051402435E+01 -0.85698599619E+00  0.47914719173E+01  0.51100000000E-03 0.  1.
         12    1    3    3    0    0  0.70502272338E+01  0.11000976124E+02 -0.12126943822E+01  0.13122416218E+02  0.00000000000E+00 0. -1.
</event>
<event>
 7    1  0.2530788E-009  0.4778727E+02  0.7816164E-02  0.1312668E+00
        -11   -1    0    0    0    0  0.00000000000E+00  0.00000000000E+00  0.45593999997E+02  0.45594000000E+02  0.51100000000E-03 0.  1.
         11   -1    0    0    0    0 -0.00000000000E+00 -0.00000000000E+00 -0.45593999997E+02  0.45594000000E+02  0.51100000000E-03 0. -1.
    9900012    2    1    2    0    0  0.37766020444E+01  0.17973448253E+01 -0.43198726819E+02  0.47787272239E+02  0.20000005446E+02 0.  0.
        -12    1    1    2    0    0 -0.37766020444E+01 -0.17973448253E+01  0.43198726819E+02  0.43400727761E+02  0.00000000000E+00 0.  1.
         11    1    3    3    0    0 -0.26308140012E+01 -0.53250931235E+01 -0.24240037416E+02  0.24957107471E+02  0.51100000000E-03 0. -1.
        -11    1    3    3    0    0  0.34851754542E+01  0.84481585164E+00 -0.12201366511E+01  0.37879935953E+01  0.51100000000E-03 0.  1.
         12    1    3    3    0    0  0.29222405914E+01  0.62776220971E+01 -0.17738552751E+02  0.19042171173E+02  0.00000000000E+00 0. -1.
</event>
<event>
 7    1  0.2530788E-009  0.4778728E+02  0.7816164E-02  0.1312668E+00
        -11   -1    0    0    0    0  0.00000000000E+00  0.00000000000E+00  0.45593999997E+02  0.45594000000E+02  0.51100000000E-03 0. -1.
         11   -1    0    0    0    0 -0.00000000000E+00 -0.00000000000E+00 -0.45593999997E+02  0.45594000000E+02  0.51100000000E-03 0.  1.
    9900012    2    1    2    0    0  0.39542805412E+02 -0.64085188952E+01  0.16700905280E+02  0.47787276372E+02  0.20000024290E+02 0.  0.
        -12    1    1    2    0    0 -0.39542805412E+02  0.64085188952E+01 -0.16700905280E+02  0.43400723628E+02  0.00000000000E+00 0.  1.
         11    1    3    3    0    0  0.28398813685E+02 -0.56406142646E+01  0.44790048435E+01  0.29297962944E+02  0.51100000000E-03 0. -1.
        -11    1    3    3    0    0  0.58620614165E+01  0.34503822851E+01  0.80786039268E+01  0.10560906383E+02  0.51100000000E-03 0.  1.
        -12    1    3    3    0    0  0.52819303098E+01 -0.42182869157E+01  0.41432965098E+01  0.79284070448E+01  0.00000000000E+00 0.  1.
</event>
<event>
 7    1  0.2530788E-009  0.4778727E+02  0.7816164E-02  0.1312668E+00
        -11   -1    0    0    0    0  0.00000000000E+00  0.00000000000E+00  0.45593999997E+02  0.45594000000E+02  0.51100000000E-03 0.  1.
         11   -1    0    0    0    0 -0.00000000000E+00 -0.00000000000E+00 -0.45593999997E+02  0.45594000000E+02  0.51100000000E-03 0. -1.
    9900012    2    1    2    0    0  0.39544397621E+01 -0.11903949861E+02 -0.41548541798E+02  0.47787274872E+02  0.20000017451E+02 0.  0.
        -12    1    1    2    0    0 -0.39544397621E+01  0.11903949861E+02  0.41548541798E+02  0.43400725128E+02  0.00000000000E+00 0.  1.
         11    1    3    3    0    0 -0.10699523932E+01 -0.32847723762E+01 -0.21936346186E+02  0.22206706463E+02  0.51100000000E-03 0. -1.
        -11    1    3    3    0    0  0.30915122716E+00 -0.23277802798E+01  0.16772656079E+01  0.28857158025E+01  0.51100000000E-03 0.  1.
        -12    1    3    3    0    0  0.47152409281E+01 -0.62913972046E+01 -0.21289461220E+02  0.22694852607E+02  0.00000000000E+00 0.  1.
</event>
<event>
 7    1  0.2530788E-009  0.4778726E+02  0.7816164E-02  0.1312668E+00
        -11   -1    0    0    0    0  0.00000000000E+00  0.00000000000E+00  0.45593999997E+02  0.45594000000E+02  0.51100000000E-03 0.  1.
         11   -1    0    0    0    0 -0.00000000000E+00 -0.00000000000E+00 -0.45593999997E+02  0.45594000000E+02  0.51100000000E-03 0. -1.
    9900012    2    1    2    0    0  0.14795182490E+02 -0.31354535057E+02  0.26107851638E+02  0.47787260251E+02  0.19999950791E+02 0.  0.
        -12    1    1    2    0    0 -0.14795182490E+02  0.31354535057E+02 -0.26107851638E+02  0.43400739749E+02  0.00000000000E+00 0.  1.
         11    1    3    3    0    0  0.10334383101E+02 -0.10613817125E+02  0.71608168663E+01  0.16453871474E+02  0.51100000000E-03 0. -1.
        -11    1    3    3    0    0  0.30623443811E+01 -0.22345387388E+02  0.15814790222E+02  0.27546358755E+02  0.51100000000E-03 0.  1.
        -12    1    3    3    0    0  0.13984550077E+01  0.16046694556E+01  0.31322445493E+01  0.37870300219E+01  0.00000000000E+00 0.  1.
</event>
<event>
 7    1  0.2530788E-009  0.4778725E+02  0.7816164E-02  0.1312668E+00
        -11   -1    0    0    0    0  0.00000000000E+00  0.00000000000E+00  0.45593999997E+02  0.45594000000E+02  0.51100000000E-03 0.  1.
         11   -1    0    0    0    0 -0.00000000000E+00 -0.00000000000E+00 -0.45593999997E+02  0.45594000000E+02  0.51100000000E-03 0. -1.
    9900012    2    1    2    0    0 -0.16615004779E+02 -0.15379505148E+02 -0.37027526331E+02  0.47787248065E+02  0.19999895225E+02 0.  0.
        -12    1    1    2    0    0  0.16615004779E+02  0.15379505148E+02  0.37027526331E+02  0.43400751935E+02  0.00000000000E+00 0.  1.
         11    1    3    3    0    0 -0.15908915406E+02 -0.65800248068E+01 -0.25620589457E+02  0.30867538293E+02  0.51100000000E-03 0. -1.
        -11    1    3    3    0    0 -0.29044445034E+01 -0.77410696108E+01 -0.41249978753E+01  0.92398898437E+01  0.51100000000E-03 0.  1.
         12    1    3    3    0    0  0.21983551305E+01 -0.10584107302E+01 -0.72819389984E+01  0.76798199282E+01  0.00000000000E+00 0. -1.
</event>
<event>
 7    1  0.2530788E-009  0.4778727E+02  0.7816164E-02  0.1312668E+00
        -11   -1    0    0    0    0  0.00000000000E+00  0.00000000000E+00  0.45593999997E+02  0.45594000000E+02  0.51100000000E-03 0.  1.
         11   -1    0    0    0    0 -0.00000000000E+00 -0.00000000000E+00 -0.45593999997E+02  0.45594000000E+02  0.51100000000E-03 0. -1.
    9900012    2    1    2    0    0 -0.27855422295E+02  0.13520670054E+02 -0.30412009689E+02  0.47787269554E+02  0.19999993203E+02 0.  0.
        -12    1    1    2    0    0  0.27855422295E+02 -0.13520670054E+02  0.30412009689E+02  0.43400730446E+02  0.00000000000E+00 0.  1.
         11    1    3    3    0    0 -0.81961625092E+01  0.50919679139E+01 -0.57691458385E+01  0.11242253381E+02  0.51100000000E-03 0. -1.
        -11    1    3    3    0    0 -0.13127118466E+02  0.12804631634E+02 -0.12930203842E+02  0.22438137225E+02  0.51100000000E-03 0.  1.
        -12    1    3    3    0    0 -0.65321413201E+01 -0.43759294935E+01 -0.11712660009E+02  0.14106878948E+02  0.00000000000E+00 0.  1.
</event>
<event>
 7    1  0.2530788E-009  0.4778727E+02  0.7816164E-02  0.1312668E+00
        -11   -1    0    0    0    0  0.00000000000E+00  0.00000000000E+00  0.45593999997E+02  0.45594000000E+02  0.51100000000E-03 0.  1.
         11   -1    0    0    0    0 -0.00000000000E+00 -0.00000000000E+00 -0.45593999997E+02  0.45594000000E+02  0.51100000000E-03 0. -1.
    9900012    2    1    2    0    0 -0.26197258760E+02 -0.10910401020E+02 -0.32837331407E+02  0.47787267853E+02  0.19999985450E+02 0.  0.
        -12    1    1    2    0    0  0.26197258760E+02  0.10910401020E+02  0.32837331407E+02  0.43400732147E+02  0.00000000000E+00 0.  1.
         11    1    3    3    0    0 -0.43229428080E+00 -0.71296681092E+01 -0.70418807345E+01  0.10030310575E+02  0.51100000000E-03 0. -1.
        -11    1    3    3    0    0 -0.25796131264E+02 -0.28826591364E+01 -0.26098401856E+02  0.36808649684E+02  0.51100000000E-03 0.  1.
         12    1    3    3    0    0  0.31166784296E-01 -0.89807377439E+00  0.30295118392E+00  0.94830759384E+00  0.00000000000E+00 0. -1.
</event>
<event>
 7    1  0.2530788E-009  0.4778727E+02  0.7816164E-02  0.1312668E+00
        -11   -1    0    0    0    0  0.00000000000E+00  0.00000000000E+00  0.45593999997E+02  0.45594000000E+02  0.51100000000E-03 0.  1.
         11   -1    0    0    0    0 -0.00000000000E+00 -0.00000000000E+00 -0.45593999997E+02  0.45594000000E+02  0.51100000000E-03 0. -1.
    9900012    2    1    2    0    0  0.21489601149E+02  0.27623144164E+02 -0.25666757226E+02  0.47787268698E+02  0.19999989302E+02 0.  0.
        -12    1    1    2    0    0 -0.21489601149E+02 -0.27623144164E+02  0.25666757226E+02  0.43400731302E+02  0.00000000000E+00 0.  1.
         11    1    3    3    0    0  0.79336360506E+01  0.11355435515E+02 -0.98274497449E+00  0.13887198589E+02  0.51100000000E-03 0. -1.
        -11    1    3    3    0    0  0.85918918098E+01  0.56648316579E+01 -0.17077233710E+02  0.19938476221E+02  0.51100000000E-03 0.  1.
        -12    1    3    3    0    0  0.49640732889E+01  0.10602876991E+02 -0.76067785418E+01  0.13961593888E+02  0.00000000000E+00 0.  1.
</event>
<event>
 7    1  0.2530788E-009  0.4778728E+02  0.7816164E-02  0.1312668E+00
        -11   -1    0    0    0    0  0.00000000000E+00  0.00000000000E+00  0.45593999997E+02  0.45594000000E+02  0.51100000000E-03 0.  1.
         11   -1    0    0    0    0 -0.00000000000E+00 -0.00000000000E+00 -0.45593999997E+02  0.45594000000E+02  0.51100000000E-03 0. -1.
    9900012    2    1    2    0    0  0.25353253795E+02  0.15933784518E+02 -0.31415750223E+02  0.47787281928E+02  0.20000049622E+02 0.  0.
        -12    1    1    2    0    0 -0.25353253795E+02 -0.15933784518E+02  0.31415750223E+02  0.43400718072E+02  0.00000000000E+00 0.  1.
         11    1    3    3    0    0  0.24268831693E+02  0.11213428351E+02 -0.20997076116E+02  0.33994034371E+02  0.51100000000E-03 0. -1.
        -11    1    3    3    0    0  0.78024914604E+00  0.24023295679E+01 -0.11079482811E+02  0.11363754472E+02  0.51100000000E-03 0.  1.
         12    1    3    3    0    0  0.30417295656E+00  0.23180266000E+01  0.66080870420E+00  0.24294930849E+01  0.00000000000E+00 0. -1.
</event>
<event>
 7    1  0.2530788E-009  0.4778727E+02  0.7816164E-02  0.1312668E+00
        -11   -1    0    0    0    0  0.00000000000E+00  0.00000000000E+00  0.45593999997E+02  0.45594000000E+02  0.51100000000E-03 0.  1.
         11   -1    0    0    0    0 -0.00000000000E+00 -0.00000000000E+00 -0.45593999997E+02  0.45594000000E+02  0.51100000000E-03 0. -1.
    9900012    2    1    2    0    0 -0.23797115076E+02 -0.12500073513E+02 -0.34074457125E+02  0.47787272447E+02  0.20000006394E+02 0.  0.
        -12    1    1    2    0    0  0.23797115076E+02  0.12500073513E+02  0.34074457125E+02  0.43400727553E+02  0.00000000000E+00 0.  1.
         11    1    3    3    0    0  0.24044134612E+00 -0.29665392688E+01 -0.52517163174E+00  0.30222463133E+01  0.51100000000E-03 0. -1.
        -11    1    3    3    0    0 -0.21379198974E+02 -0.11682892504E+02 -0.33402215895E+02  0.41343296349E+02  0.51100000000E-03 0.  1.
        -12    1    3    3    0    0 -0.26583574489E+01  0.21493582595E+01 -0.14706959820E+00  0.34217297848E+01  0.00000000000E+00 0.  1.
</event>
<event>
 7    1  0.2530788E-009  0.4778727E+02  0.7816164E-02  0.1312668E+00
        -11   -1    0    0    0    0  0.00000000000E+00  0.00000000000E+00  0.45593999997E+02  0.45594000000E+02  0.51100000000E-03 0. -1.
         11   -1    0    0    0    0 -0.00000000000E+00 -0.00000000000E+00 -0.45593999997E+02  0.45594000000E+02  0.51100000000E-03 0.  1.
    9900012    2    1    2    0    0  0.20151890061E+02  0.35804033735E+02 -0.13985554363E+02  0.47787271486E+02  0.20000002014E+02 0.  0.
        -12    1    1    2    0    0 -0.20151890061E+02 -0.35804033735E+02  0.13985554363E+02  0.43400728514E+02  0.00000000000E+00 0.  1.
         11    1    3    3    0    0 -0.52151604918E+00  0.97031489674E+00 -0.60626911628E+00  0.12573990977E+01  0.51100000000E-03 0. -1.
        -11    1    3    3    0    0 -0.23026246235E+01  0.81908142992E+01 -0.64393167303E+01  0.10670347663E+02  0.51100000000E-03 0.  1.
        -12    1    3    3    0    0  0.22976030733E+02  0.26642904539E+02 -0.69399685165E+01  0.35859524725E+02  0.00000000000E+00 0.  1.
</event>
<event>
 7    1  0.2530788E-009  0.4778727E+02  0.7816164E-02  0.1312668E+00
        -11   -1    0    0    0    0  0.00000000000E+00  0.00000000000E+00  0.45593999997E+02  0.45594000000E+02  0.51100000000E-03 0. -1.
         11   -1    0    0    0    0 -0.00000000000E+00 -0.00000000000E+00 -0.45593999997E+02  0.45594000000E+02  0.51100000000E-03 0.  1.
    9900012    2    1    2    0    0 -0.37969930566E+02 -0.19643464840E+02 -0.74861109141E+01  0.47787271957E+02  0.20000004159E+02 0.  0.
        -12    1    1    2    0    0  0.37969930566E+02  0.19643464840E+02  0.74861109141E+01  0.43400728043E+02  0.00000000000E+00 0.  1.
         11    1    3    3    0    0 -0.11572184397E+02 -0.32205330643E+01  0.38532841804E+01  0.12614875512E+02  0.51100000000E-03 0. -1.
        -11    1    3    3    0    0 -0.12586935796E+02 -0.41363436288E+01 -0.10073906715E+02  0.16644034610E+02  0.51100000000E-03 0.  1.
        -12    1    3    3    0    0 -0.13810810372E+02 -0.12286588147E+02 -0.12654883797E+01  0.18528361834E+02  0.00000000000E+00 0.  1.
</event>
<event>
 7    1  0.2530788E-009  0.4778727E+02  0.7816164E-02  0.1312668E+00
        -11   -1    0    0    0    0  0.00000000000E+00  0.00000000000E+00  0.45593999997E+02  0.45594000000E+02  0.51100000000E-03 0. -1.
         11   -1    0    0    0    0 -0.00000000000E+00 -0.00000000000E+00 -0.45593999997E+02  0.45594000000E+02  0.51100000000E-03 0.  1.
    9900012    2    1    2    0    0  0.43261780773E+02 -0.29397165777E+00  0.34576153508E+01  0.47787271908E+02  0.20000003938E+02 0.  0.
        -12    1    1    2    0    0 -0.43261780773E+02  0.29397165777E+00 -0.34576153508E+01  0.43400728092E+02  0.00000000000E+00 0.  1.
         11    1    3    3    0    0  0.16945474017E+02 -0.24593412729E+00  0.44939414996E+01  0.17532971332E+02  0.51100000000E-03 0. -1.
        -11    1    3    3    0    0  0.26242348982E+02 -0.30370731913E+01  0.13154963048E+01  0.26450240537E+02  0.51100000000E-03 0.  1.
        -12    1    3    3    0    0  0.73957774420E-01  0.29890356609E+01 -0.23518224536E+01  0.38040600399E+01  0.00000000000E+00 0.  1.
</event>
<event>
 7    1  0.2530788E-009  0.4778727E+02  0.7816164E-02  0.1312668E+00
        -11   -1    0    0    0    0  0.00000000000E+00  0.00000000000E+00  0.45593999997E+02  0.45594000000E+02  0.51100000000E-03 0.  1.
         11   -1    0    0    0    0 -0.00000000000E+00 -0.00000000000E+00 -0.45593999997E+02  0.45594000000E+02  0.51100000000E-03 0. -1.
    9900012    2    1    2    0    0  0.39486964552E+02 -0.15203282717E+02  0.96572758791E+01  0.47787272445E+02  0.20000006386E+02 0.  0.
        -12    1    1    2    0    0 -0.39486964552E+02  0.15203282717E+02 -0.96572758791E+01  0.43400727555E+02  0.00000000000E+00 0.  1.
         11    1    3    3    0    0  0.15411747347E+02 -0.60572350719E+01  0.62107484409E+00  0.16570992343E+02  0.51100000000E-03 0. -1.
        -11    1    3    3    0    0  0.51213700243E+01 -0.61699754117E+01  0.89680536367E+01  0.12030087855E+02  0.51100000000E-03 0.  1.
        -12    1    3    3    0    0  0.18953847180E+02 -0.29760722335E+01  0.68147398265E-01  0.19186192247E+02  0.00000000000E+00 0.  1.
</event>
<event>
 7    1  0.2530788E-009  0.4778727E+02  0.7816164E-02  0.1312668E+00
        -11   -1    0    0    0    0  0.00000000000E+00  0.00000000000E+00  0.45593999997E+02  0.45594000000E+02  0.51100000000E-03 0.  1.
         11   -1    0    0    0    0 -0.00000000000E+00 -0.00000000000E+00 -0.45593999997E+02  0.45594000000E+02  0.51100000000E-03 0. -1.
    9900012    2    1    2    0    0 -0.91969874695E+01  0.33531788521E+02 -0.25974185557E+02  0.47787265729E+02  0.19999975764E+02 0.  0.
        -12    1    1    2    0    0  0.91969874695E+01 -0.33531788521E+02  0.25974185557E+02  0.43400734271E+02  0.00000000000E+00 0.  1.
         11    1    3    3    0    0 -0.92742467567E+01  0.85366253889E+01 -0.21480802710E+01  0.12786706966E+02  0.51100000000E-03 0. -1.
        -11    1    3    3    0    0 -0.63912651770E+00  0.79684549841E+01 -0.11338708762E+02  0.13873394472E+02  0.51100000000E-03 0.  1.
         12    1    3    3    0    0  0.71638580491E+00  0.17026708148E+02 -0.12487396524E+02  0.21127164290E+02  0.00000000000E+00 0. -1.
</event>
<event>
 7    1  0.2530788E-009  0.4778727E+02  0.7816164E-02  0.1312668E+00
        -11   -1    0    0    0    0  0.00000000000E+00  0.00000000000E+00  0.45593999997E+02  0.45594000000E+02  0.51100000000E-03 0. -1.
         11   -1    0    0    0    0 -0.00000000000E+00 -0.00000000000E+00 -0.45593999997E+02  0.45594000000E+02  0.51100000000E-03 0.  1.
    9900012    2    1    2    0    0 -0.63272905029E+01  0.91698369667E+01  0.41946430466E+02  0.47787267933E+02  0.19999985813E+02 0.  0.
        -12    1    1    2    0    0  0.63272905029E+01 -0.91698369667E+01 -0.41946430466E+02  0.43400732067E+02  0.00000000000E+00 0.  1.
         11    1    3    3    0    0 -0.56786829075E+01  0.19178074037E+00  0.11442711016E+02  0.12775752623E+02  0.51100000000E-03 0. -1.
        -11    1    3    3    0    0  0.41026945700E+01  0.10891649673E+02  0.24469520292E+02  0.27096449194E+02  0.51100000000E-03 0.  1.
        -12    1    3    3    0    0 -0.47513021654E+01 -0.19135934466E+01  0.60341991585E+01  0.79150661166E+01  0.00000000000E+00 0.  1.
</event>
<event>
 7    1  0.2530788E-009  0.4778727E+02  0.7816164E-02  0.1312668E+00
        -11   -1    0    0    0    0  0.00000000000E+00  0.00000000000E+00  0.45593999997E+02  0.45594000000E+02  0.51100000000E-03 0. -1.
         11   -1    0    0    0    0 -0.00000000000E+00 -0.00000000000E+00 -0.45593999997E+02  0.45594000000E+02  0.51100000000E-03 0.  1.
    9900012    2    1    2    0    0  0.35394243202E+02  0.24586521275E+02  0.51355537650E+01  0.47787269675E+02  0.19999993756E+02 0.  0.
        -12    1    1    2    0    0 -0.35394243202E+02 -0.24586521275E+02 -0.51355537650E+01  0.43400730325E+02  0.00000000000E+00 0.  1.
         11    1    3    3    0    0  0.89079371322E+01  0.10412717577E+02  0.76523062176E+00  0.13724489406E+02  0.51100000000E-03 0. -1.
        -11    1    3    3    0    0  0.84806908669E+01  0.63895795313E+01  0.89865898209E+01  0.13910702392E+02  0.51100000000E-03 0.  1.
        -12    1    3    3    0    0  0.18005615203E+02  0.77842241667E+01 -0.46162666777E+01  0.20152077877E+02  0.00000000000E+00 0.  1.
</event>
<event>
 7    1  0.2530788E-009  0.4778727E+02  0.7816164E-02  0.1312668E+00
        -11   -1    0    0    0    0  0.00000000000E+00  0.00000000000E+00  0.45593999997E+02  0.45594000000E+02  0.51100000000E-03 0. -1.
         11   -1    0    0    0    0 -0.00000000000E+00 -0.00000000000E+00 -0.45593999997E+02  0.45594000000E+02  0.51100000000E-03 0.  1.
    9900012    2    1    2    0    0  0.30944638862E+02 -0.29913177885E+02  0.55905555646E+01  0.47787271930E+02  0.20000004038E+02 0.  0.
        -12    1    1    2    0    0 -0.30944638862E+02  0.29913177885E+02 -0.55905555646E+01  0.43400728070E+02  0.00000000000E+00 0.  1.
         11    1    3    3    0    0 -0.39966051196E+00 -0.58596529518E+01  0.27120539615E+01  0.64691961009E+01  0.51100000000E-03 0.  1.
        -11    1    3    3    0    0  0.27206450977E+02 -0.18168181980E+02 -0.17527103329E+01  0.32761956672E+02  0.51100000000E-03 0. -1.
        -12    1    3    3    0    0  0.41378483969E+01 -0.58853429538E+01  0.46312119359E+01  0.85561191574E+01  0.00000000000E+00 0.  1.
</event>
<event>
 7    1  0.2530788E-009  0.4778733E+02  0.7816164E-02  0.1312668E+00
        -11   -1    0    0    0    0  0.00000000000E+00  0.00000000000E+00  0.45593999997E+02  0.45594000000E+02  0.51100000000E-03 0.  1.
         11   -1    0    0    0    0 -0.00000000000E+00 -0.00000000000E+00 -0.45593999997E+02  0.45594000000E+02  0.51100000000E-03 0. -1.
    9900012    2    1    2    0    0 -0.20848587089E+02 -0.38033390740E+02  0.15543037611E+01  0.47787328865E+02  0.20000263624E+02 0.  0.
        -12    1    1    2    0    0  0.20848587089E+02  0.38033390740E+02 -0.15543037611E+01  0.43400671135E+02  0.00000000000E+00 0.  1.
         11    1    3    3    0    0 -0.15912512456E+02 -0.26831884261E+02  0.65201109232E+01  0.31869576595E+02  0.51100000000E-03 0. -1.
        -11    1    3    3    0    0 -0.64057095070E+01 -0.36853442727E+01 -0.32288325463E+01  0.80647527284E+01  0.51100000000E-03 0.  1.
         12    1    3    3    0    0  0.14696348738E+01 -0.75161622064E+01 -0.17369746158E+01  0.78529995410E+01  0.00000000000E+00 0. -1.
</event>
<event>
 7    1  0.2530788E-009  0.4778727E+02  0.7816164E-02  0.1312668E+00
        -11   -1    0    0    0    0  0.00000000000E+00  0.00000000000E+00  0.45593999997E+02  0.45594000000E+02  0.51100000000E-03 0.  1.
         11   -1    0    0    0    0 -0.00000000000E+00 -0.00000000000E+00 -0.45593999997E+02  0.45594000000E+02  0.51100000000E-03 0. -1.
    9900012    2    1    2    0    0 -0.40896645958E+02 -0.10228678868E+02 -0.10318016483E+02  0.47787274359E+02  0.20000015112E+02 0.  0.
        -12    1    1    2    0    0  0.40896645958E+02  0.10228678868E+02  0.10318016483E+02  0.43400725641E+02  0.00000000000E+00 0.  1.
         11    1    3    3    0    0 -0.32953683798E+02 -0.70347796689E+01 -0.84921996408E+01  0.34749832458E+02  0.51100000000E-03 0. -1.
        -11    1    3    3    0    0 -0.14054538219E+01  0.33643339822E+01 -0.39454795300E+00  0.36673848909E+01  0.51100000000E-03 0.  1.
         12    1    3    3    0    0 -0.65375083385E+01 -0.65582331817E+01 -0.14312688892E+01  0.93700570102E+01  0.00000000000E+00 0. -1.
</event>
<event>
 7    1  0.2530788E-009  0.4778727E+02  0.7816164E-02  0.1312668E+00
        -11   -1    0    0    0    0  0.00000000000E+00  0.00000000000E+00  0.45593999997E+02  0.45594000000E+02  0.51100000000E-03 0. -1.
         11   -1    0    0    0    0 -0.00000000000E+00 -0.00000000000E+00 -0.45593999997E+02  0.45594000000E+02  0.51100000000E-03 0.  1.
    9900012    2    1    2    0    0  0.14348416798E+02  0.40938615498E+02  0.13326496729E+01  0.47787271220E+02  0.20000000800E+02 0.  0.
        -12    1    1    2    0    0 -0.14348416798E+02 -0.40938615498E+02 -0.13326496729E+01  0.43400728780E+02  0.00000000000E+00 0.  1.
         11    1    3    3    0    0  0.11817454285E+01  0.95719610543E+01  0.25714145120E+01  0.99815396376E+01  0.51100000000E-03 0. -1.
        -11    1    3    3    0    0  0.12203349108E+02  0.28930359257E+02  0.42872126945E+01  0.31690181589E+02  0.51100000000E-03 0.  1.
        -12    1    3    3    0    0  0.96332226120E+00  0.24362951864E+01 -0.55259775336E+01  0.61155499929E+01  0.00000000000E+00 0.  1.
</event>
<event>
 7    1  0.2530788E-009  0.4778727E+02  0.7816164E-02  0.1312668E+00
        -11   -1    0    0    0    0  0.00000000000E+00  0.00000000000E+00  0.45593999997E+02  0.45594000000E+02  0.51100000000E-03 0.  1.
         11   -1    0    0    0    0 -0.00000000000E+00 -0.00000000000E+00 -0.45593999997E+02  0.45594000000E+02  0.51100000000E-03 0. -1.
    9900012    2    1    2    0    0  0.35332401532E+02 -0.44999820162E+01 -0.24799092111E+02  0.47787269526E+02  0.19999993075E+02 0.  0.
        -12    1    1    2    0    0 -0.35332401532E+02  0.44999820162E+01  0.24799092111E+02  0.43400730474E+02  0.00000000000E+00 0.  1.
         11    1    3    3    0    0  0.12101939971E+02  0.20992932152E+01 -0.60418607858E+01  0.13688245508E+02  0.51100000000E-03 0. -1.
        -11    1    3    3    0    0  0.52583368066E+00  0.49574318198E+00 -0.79310078761E+01  0.79638651768E+01  0.51100000000E-03 0.  1.
        -12    1    3    3    0    0  0.22704627881E+02 -0.70950184134E+01 -0.10826223449E+02  0.26135158841E+02  0.00000000000E+00 0.  1.
</event>
<event>
 7    1  0.2530788E-009  0.4778727E+02  0.7816164E-02  0.1312668E+00
        -11   -1    0    0    0    0  0.00000000000E+00  0.00000000000E+00  0.45593999997E+02  0.45594000000E+02  0.51100000000E-03 0.  1.
         11   -1    0    0    0    0 -0.00000000000E+00 -0.00000000000E+00 -0.45593999997E+02  0.45594000000E+02  0.51100000000E-03 0. -1.
    9900012    2    1    2    0    0  0.34992066257E+02 -0.12582351756E+02 -0.22379970817E+02  0.47787269932E+02  0.19999994929E+02 0.  0.
        -12    1    1    2    0    0 -0.34992066257E+02  0.12582351756E+02  0.22379970817E+02  0.43400730068E+02  0.00000000000E+00 0.  1.
         11    1    3    3    0    0  0.25992475233E+02 -0.44244568182E+01 -0.15182644598E+02  0.30425273773E+02  0.51100000000E-03 0. -1.
        -11    1    3    3    0    0  0.38923034857E+01 -0.92906553873E+01 -0.26136821504E+01  0.10406615136E+02  0.51100000000E-03 0.  1.
        -12    1    3    3    0    0  0.51072875383E+01  0.11327604496E+01 -0.45836440682E+01  0.69553810233E+01  0.00000000000E+00 0.  1.
</event>
<event>
 7    1  0.2530788E-009  0.4778727E+02  0.7816164E-02  0.1312668E+00
        -11   -1    0    0    0    0  0.00000000000E+00  0.00000000000E+00  0.45593999997E+02  0.45594000000E+02  0.51100000000E-03 0. -1.
         11   -1    0    0    0    0 -0.00000000000E+00 -0.00000000000E+00 -0.45593999997E+02  0.45594000000E+02  0.51100000000E-03 0.  1.
    9900012    2    1    2    0    0  0.27560972578E+02  0.33250230397E+02  0.42939759755E+01  0.47787271197E+02  0.20000000697E+02 0.  0.
        -12    1    1    2    0    0 -0.27560972578E+02 -0.33250230397E+02 -0.42939759755E+01  0.43400728803E+02  0.00000000000E+00 0.  1.
         11    1    3    3    0    0  0.18722121910E+02  0.21100046531E+02  0.10833628285E+02  0.30217500136E+02  0.51100000000E-03 0. -1.
        -11    1    3    3    0    0  0.52622237464E+00  0.56154246063E+01 -0.31822717694E+01  0.64758595856E+01  0.51100000000E-03 0.  1.
         12    1    3    3    0    0  0.83126282937E+01  0.65347592601E+01 -0.33573805398E+01  0.11093911476E+02  0.00000000000E+00 0. -1.
</event>
<event>
 7    1  0.2530788E-009  0.4778727E+02  0.7816164E-02  0.1312668E+00
        -11   -1    0    0    0    0  0.00000000000E+00  0.00000000000E+00  0.45593999997E+02  0.45594000000E+02  0.51100000000E-03 0.  1.
         11   -1    0    0    0    0 -0.00000000000E+00 -0.00000000000E+00 -0.45593999997E+02  0.45594000000E+02  0.51100000000E-03 0. -1.
    9900012    2    1    2    0    0 -0.33395076980E+02  0.27246955106E+02 -0.50985873196E+01  0.47787270493E+02  0.19999997486E+02 0.  0.
        -12    1    1    2    0    0  0.33395076980E+02 -0.27246955106E+02  0.50985873196E+01  0.43400729507E+02  0.00000000000E+00 0.  1.
         11    1    3    3    0    0 -0.12622449145E+02  0.68996209367E+01 -0.42637565120E-01  0.14385159357E+02  0.51100000000E-03 0. -1.
        -11    1    3    3    0    0 -0.97463574126E+01  0.15841461071E+02  0.32491573462E+01  0.18881218059E+02  0.51100000000E-03 0.  1.
        -12    1    3    3    0    0 -0.11026270423E+02  0.45058730986E+01 -0.83051071006E+01  0.14520893077E+02  0.00000000000E+00 0.  1.
</event>
<event>
 7    1  0.2530788E-009  0.4778727E+02  0.7816164E-02  0.1312668E+00
        -11   -1    0    0    0    0  0.00000000000E+00  0.00000000000E+00  0.45593999997E+02  0.45594000000E+02  0.51100000000E-03 0.  1.
         11   -1    0    0    0    0 -0.00000000000E+00 -0.00000000000E+00 -0.45593999997E+02  0.45594000000E+02  0.51100000000E-03 0. -1.
    9900012    2    1    2    0    0 -0.22936794200E+02 -0.21907042335E+02 -0.29624457161E+02  0.47787268507E+02  0.19999988431E+02 0.  0.
        -12    1    1    2    0    0  0.22936794200E+02  0.21907042335E+02  0.29624457161E+02  0.43400731493E+02  0.00000000000E+00 0.  1.
         11    1    3    3    0    0 -0.19662448046E+02 -0.19906978940E+02 -0.18844728708E+02  0.33734603510E+02  0.51100000000E-03 0. -1.
        -11    1    3    3    0    0 -0.44215545022E+01  0.93681269276E+00 -0.24388381238E+01  0.51357272019E+01  0.51100000000E-03 0.  1.
         12    1    3    3    0    0  0.11472083479E+01 -0.29368760881E+01 -0.83408903290E+01  0.89169377945E+01  0.00000000000E+00 0. -1.
</event>
<event>
 7    1  0.2530788E-009  0.4778726E+02  0.7816164E-02  0.1312668E+00
        -11   -1    0    0    0    0  0.00000000000E+00  0.00000000000E+00  0.45593999997E+02  0.45594000000E+02  0.51100000000E-03 0.  1.
         11   -1    0    0    0    0 -0.00000000000E+00 -0.00000000000E+00 -0.45593999997E+02  0.45594000000E+02  0.51100000000E-03 0. -1.
    9900012    2    1    2    0    0  0.59132151233E+01  0.41524305748E+02 -0.11153014697E+02  0.47787264779E+02  0.19999971431E+02 0.  0.
        -12    1    1    2    0    0 -0.59132151233E+01 -0.41524305748E+02  0.11153014697E+02  0.43400735221E+02  0.00000000000E+00 0.  1.
         11    1    3    3    0    0 -0.67851557167E+00 -0.14992062685E+01  0.19623741595E-01  0.16457181317E+01  0.51100000000E-03 0.  1.
        -11    1    3    3    0    0  0.62090063845E+01  0.35169322676E+02 -0.13109028249E+02  0.38043128678E+02  0.51100000000E-03 0. -1.
        -12    1    3    3    0    0  0.38272431050E+00  0.78541893405E+01  0.19363898101E+01  0.80984179684E+01  0.00000000000E+00 0.  1.
</event>
<event>
 7    1  0.2530788E-009  0.4778727E+02  0.7816164E-02  0.1312668E+00
        -11   -1    0    0    0    0  0.00000000000E+00  0.00000000000E+00  0.45593999997E+02  0.45594000000E+02  0.51100000000E-03 0.  1.
         11   -1    0    0    0    0 -0.00000000000E+00 -0.00000000000E+00 -0.45593999997E+02  0.45594000000E+02  0.51100000000E-03 0. -1.
    9900012    2    1    2    0    0 -0.27462010165E+00  0.23399003510E+02 -0.36551803572E+02  0.47787272750E+02  0.20000007776E+02 0.  0.
        -12    1    1    2    0    0  0.27462010165E+00 -0.23399003510E+02  0.36551803572E+02  0.43400727250E+02  0.00000000000E+00 0.  1.
         11    1    3    3    0    0  0.26875609823E+01  0.12749875420E+02 -0.18981513261E+02  0.23023469617E+02  0.51100000000E-03 0. -1.
        -11    1    3    3    0    0 -0.80022689228E+01  0.47803359656E+01 -0.69615748002E+01  0.11634063942E+02  0.51100000000E-03 0.  1.
        -12    1    3    3    0    0  0.50400878388E+01  0.58687921247E+01 -0.10608715511E+02  0.13129739191E+02  0.00000000000E+00 0.  1.
</event>
<event>
 7    1  0.2530788E-009  0.4778727E+02  0.7816164E-02  0.1312668E+00
        -11   -1    0    0    0    0  0.00000000000E+00  0.00000000000E+00  0.45593999997E+02  0.45594000000E+02  0.51100000000E-03 0. -1.
         11   -1    0    0    0    0 -0.00000000000E+00 -0.00000000000E+00 -0.45593999997E+02  0.45594000000E+02  0.51100000000E-03 0.  1.
    9900012    2    1    2    0    0  0.31286752900E+02 -0.29440312783E+02 -0.61668565207E+01  0.47787273703E+02  0.20000012120E+02 0.  0.
        -12    1    1    2    0    0 -0.31286752900E+02  0.29440312783E+02  0.61668565207E+01  0.43400726297E+02  0.00000000000E+00 0.  1.
         11    1    3    3    0    0  0.50943589176E+01 -0.13432735931E+02  0.20463589626E+00  0.14367768215E+02  0.51100000000E-03 0. -1.
        -11    1    3    3    0    0  0.32542309428E+01 -0.64734006874E+01 -0.44540785341E+01  0.85049251224E+01  0.51100000000E-03 0.  1.
         12    1    3    3    0    0  0.22938163039E+02 -0.95341761648E+01 -0.19174138828E+01  0.24914580365E+02  0.00000000000E+00 0. -1.
</event>
<event>
 7    1  0.2530788E-009  0.4778727E+02  0.7816164E-02  0.1312668E+00
        -11   -1    0    0    0    0  0.00000000000E+00  0.00000000000E+00  0.45593999997E+02  0.45594000000E+02  0.51100000000E-03 0. -1.
         11   -1    0    0    0    0 -0.00000000000E+00 -0.00000000000E+00 -0.45593999997E+02  0.45594000000E+02  0.51100000000E-03 0.  1.
    9900012    2    1    2    0    0  0.25330659831E+02  0.34153629875E+02  0.86896757754E+01  0.47787271593E+02  0.20000002503E+02 0.  0.
        -12    1    1    2    0    0 -0.25330659831E+02 -0.34153629875E+02 -0.86896757754E+01  0.43400728407E+02  0.00000000000E+00 0.  1.
         11    1    3    3    0    0  0.19041979476E+02  0.15489486485E+02  0.92351060227E+01  0.26226100691E+02  0.51100000000E-03 0. -1.
        -11    1    3    3    0    0 -0.16109490669E+01  0.11581051770E+01 -0.12454540881E+01  0.23425457613E+01  0.51100000000E-03 0.  1.
         12    1    3    3    0    0  0.78996294223E+01  0.17506038214E+02  0.70002384091E+00  0.19218625141E+02  0.00000000000E+00 0. -1.
</event>
<event>
 7    1  0.2530788E-009  0.4778727E+02  0.7816164E-02  0.1312668E+00
        -11   -1    0    0    0    0  0.00000000000E+00  0.00000000000E+00  0.45593999997E+02  0.45594000000E+02  0.51100000000E-03 0. -1.
         11   -1    0    0    0    0 -0.00000000000E+00 -0.00000000000E+00 -0.45593999997E+02  0.45594000000E+02  0.51100000000E-03 0.  1.
    9900012    2    1    2    0    0  0.42954383994E+02  0.23097230330E+01  0.57627605919E+01  0.47787270347E+02  0.19999996819E+02 0.  0.
        -12    1    1    2    0    0 -0.42954383994E+02 -0.23097230330E+01 -0.57627605919E+01  0.43400729653E+02  0.00000000000E+00 0.  1.
         11    1    3    3    0    0  0.28464869976E+02 -0.70091220016E+01  0.38879284990E+01  0.29571821085E+02  0.51100000000E-03 0. -1.
        -11    1    3    3    0    0  0.12243544058E+02  0.80159423082E+01  0.36345778242E+01  0.15078788360E+02  0.51100000000E-03 0.  1.
        -12    1    3    3    0    0  0.22459699597E+01  0.13029027264E+01 -0.17597457313E+01  0.31366609019E+01  0.00000000000E+00 0.  1.
</event>
<event>
 7    1  0.2530788E-009  0.4778727E+02  0.7816164E-02  0.1312668E+00
        -11   -1    0    0    0    0  0.00000000000E+00  0.00000000000E+00  0.45593999997E+02  0.45594000000E+02  0.51100000000E-03 0.  1.
         11   -1    0    0    0    0 -0.00000000000E+00 -0.00000000000E+00 -0.45593999997E+02  0.45594000000E+02  0.51100000000E-03 0. -1.
    9900012    2    1    2    0    0  0.16674181803E+02  0.32916960981E+02 -0.22848821925E+02  0.47787270486E+02  0.19999997453E+02 0.  0.
        -12    1    1    2    0    0 -0.16674181803E+02 -0.32916960981E+02  0.22848821925E+02  0.43400729514E+02  0.00000000000E+00 0.  1.
         11    1    3    3    0    0  0.86329242269E+01  0.28467945189E+02 -0.10661232452E+02  0.31600841154E+02  0.51100000000E-03 0. -1.
        -11    1    3    3    0    0  0.48227351350E+01  0.47367797749E+00 -0.30832020568E+01  0.57436295313E+01  0.51100000000E-03 0.  1.
         12    1    3    3    0    0  0.32185224406E+01  0.39753378143E+01 -0.91043874168E+01  0.10442799801E+02  0.00000000000E+00 0. -1.
</event>
<event>
 7    1  0.2530788E-009  0.4778727E+02  0.7816164E-02  0.1312668E+00
        -11   -1    0    0    0    0  0.00000000000E+00  0.00000000000E+00  0.45593999997E+02  0.45594000000E+02  0.51100000000E-03 0.  1.
         11   -1    0    0    0    0 -0.00000000000E+00 -0.00000000000E+00 -0.45593999997E+02  0.45594000000E+02  0.51100000000E-03 0. -1.
    9900012    2    1    2    0    0  0.31958965181E+02 -0.12415376077E+02 -0.26610266760E+02  0.47787270563E+02  0.19999997805E+02 0.  0.
        -12    1    1    2    0    0 -0.31958965181E+02  0.12415376077E+02  0.26610266760E+02  0.43400729437E+02  0.00000000000E+00 0.  1.
         11    1    3    3    0    0  0.30653361017E+01 -0.54156813070E+01 -0.96713489972E+00  0.62977170158E+01  0.51100000000E-03 0. -1.
        -11    1    3    3    0    0  0.23309826627E+02  0.42779707405E+00 -0.17865427244E+02  0.29371832060E+02  0.51100000000E-03 0.  1.
        -12    1    3    3    0    0  0.55838024527E+01 -0.74274918444E+01 -0.77777046166E+01  0.12117721487E+02  0.00000000000E+00 0.  1.
</event>
<event>
 7    1  0.2530788E-009  0.4778727E+02  0.7816164E-02  0.1312668E+00
        -11   -1    0    0    0    0  0.00000000000E+00  0.00000000000E+00  0.45593999997E+02  0.45594000000E+02  0.51100000000E-03 0.  1.
         11   -1    0    0    0    0 -0.00000000000E+00 -0.00000000000E+00 -0.45593999997E+02  0.45594000000E+02  0.51100000000E-03 0. -1.
    9900012    2    1    2    0    0 -0.17752241745E+02 -0.36373499617E+02  0.15666829960E+02  0.47787272790E+02  0.20000007958E+02 0.  0.
        -12    1    1    2    0    0  0.17752241745E+02  0.36373499617E+02 -0.15666829960E+02  0.43400727210E+02  0.00000000000E+00 0.  1.
         11    1    3    3    0    0 -0.31199187190E+01 -0.76516823862E+00  0.16665102009E+01  0.36189268793E+01  0.51100000000E-03 0. -1.
        -11    1    3    3    0    0 -0.62384080677E+01 -0.51006622018E+01 -0.25603415358E+01  0.84551664180E+01  0.51100000000E-03 0.  1.
        -12    1    3    3    0    0 -0.83939149582E+01 -0.30507669177E+02  0.16560661295E+02  0.35713179492E+02  0.00000000000E+00 0.  1.
</event>
<event>
 7    1  0.2530788E-009  0.4778727E+02  0.7816164E-02  0.1312668E+00
        -11   -1    0    0    0    0  0.00000000000E+00  0.00000000000E+00  0.45593999997E+02  0.45594000000E+02  0.51100000000E-03 0. -1.
         11   -1    0    0    0    0 -0.00000000000E+00 -0.00000000000E+00 -0.45593999997E+02  0.45594000000E+02  0.51100000000E-03 0.  1.
    9900012    2    1    2    0    0  0.68570840219E+01  0.20357174562E+02  0.37711924883E+02  0.47787269179E+02  0.19999991496E+02 0.  0.
        -12    1    1    2    0    0 -0.68570840219E+01 -0.20357174562E+02 -0.37711924883E+02  0.43400730821E+02  0.00000000000E+00 0.  1.
         11    1    3    3    0    0  0.72015110300E+01  0.66186090886E+01  0.18631900511E+02  0.21043180945E+02  0.51100000000E-03 0. -1.
        -11    1    3    3    0    0 -0.61311610239E+01  0.41029986434E+01  0.60886117697E+01  0.95654026006E+01  0.51100000000E-03 0.  1.
        -12    1    3    3    0    0  0.57867340158E+01  0.96355668298E+01  0.12991412602E+02  0.17178685633E+02  0.00000000000E+00 0.  1.
</event>
<event>
 7    1  0.2530788E-009  0.4778727E+02  0.7816164E-02  0.1312668E+00
        -11   -1    0    0    0    0  0.00000000000E+00  0.00000000000E+00  0.45593999997E+02  0.45594000000E+02  0.51100000000E-03 0.  1.
         11   -1    0    0    0    0 -0.00000000000E+00 -0.00000000000E+00 -0.45593999997E+02  0.45594000000E+02  0.51100000000E-03 0. -1.
    9900012    2    1    2    0    0 -0.69802946547E+01  0.37919328902E+02 -0.19925446252E+02  0.47787269289E+02  0.19999991998E+02 0.  0.
        -12    1    1    2    0    0  0.69802946547E+01 -0.37919328902E+02  0.19925446252E+02  0.43400730711E+02  0.00000000000E+00 0.  1.
         11    1    3    3    0    0 -0.90249218956E+01  0.19429987782E+02 -0.42479947550E+01  0.21840766931E+02  0.51100000000E-03 0. -1.
        -11    1    3    3    0    0  0.27415949014E+01  0.83605474185E+01 -0.21938962325E+01  0.90679808491E+01  0.51100000000E-03 0.  1.
         12    1    3    3    0    0 -0.69696766038E+00  0.10128793702E+02 -0.13483555264E+02  0.16878521509E+02  0.00000000000E+00 0. -1.
</event>
<event>
 7    1  0.2530788E-009  0.4778729E+02  0.7816164E-02  0.1312668E+00
        -11   -1    0    0    0    0  0.00000000000E+00  0.00000000000E+00  0.45593999997E+02  0.45594000000E+02  0.51100000000E-03 0. -1.
         11   -1    0    0    0    0 -0.00000000000E+00 -0.00000000000E+00 -0.45593999997E+02  0.45594000000E+02  0.51100000000E-03 0.  1.
    9900012    2    1    2    0    0 -0.38618642523E+02  0.15470736785E+02  0.12364409426E+02  0.47787287247E+02  0.20000073875E+02 0.  0.
        -12    1    1    2    0    0  0.38618642523E+02 -0.15470736785E+02 -0.12364409426E+02  0.43400712753E+02  0.00000000000E+00 0.  1.
         11    1    3    3    0    0 -0.81683217233E+00  0.16850346019E+01  0.59660933928E+00  0.19653242410E+01  0.51100000000E-03 0. -1.
        -11    1    3    3    0    0 -0.23422601171E+02 -0.65496361731E+00  0.96223944489E+01  0.25330568453E+02  0.51100000000E-03 0.  1.
        -12    1    3    3    0    0 -0.14379209180E+02  0.14440665800E+02  0.21454056382E+01  0.20491394553E+02  0.00000000000E+00 0.  1.
</event>
<event>
 7    1  0.2530788E-009  0.4778727E+02  0.7816164E-02  0.1312668E+00
        -11   -1    0    0    0    0  0.00000000000E+00  0.00000000000E+00  0.45593999997E+02  0.45594000000E+02  0.51100000000E-03 0.  1.
         11   -1    0    0    0    0 -0.00000000000E+00 -0.00000000000E+00 -0.45593999997E+02  0.45594000000E+02  0.51100000000E-03 0. -1.
    9900012    2    1    2    0    0  0.19535500768E+02 -0.38454651844E+02 -0.48194425277E+01  0.47787273451E+02  0.20000010974E+02 0.  0.
        -12    1    1    2    0    0 -0.19535500768E+02  0.38454651844E+02  0.48194425277E+01  0.43400726549E+02  0.00000000000E+00 0.  1.
         11    1    3    3    0    0  0.19165837395E+02 -0.40417482427E+02 -0.45064131532E+01  0.44957868817E+02  0.51100000000E-03 0. -1.
        -11    1    3    3    0    0  0.48388878606E-01  0.89201546345E+00 -0.11331073255E+01  0.14429017787E+01  0.51100000000E-03 0.  1.
         12    1    3    3    0    0  0.32127449416E+00  0.10708151201E+01  0.82007795109E+00  0.13865028553E+01  0.00000000000E+00 0. -1.
</event>
<event>
 7    1  0.2530788E-009  0.4778727E+02  0.7816164E-02  0.1312668E+00
        -11   -1    0    0    0    0  0.00000000000E+00  0.00000000000E+00  0.45593999997E+02  0.45594000000E+02  0.51100000000E-03 0. -1.
         11   -1    0    0    0    0 -0.00000000000E+00 -0.00000000000E+00 -0.45593999997E+02  0.45594000000E+02  0.51100000000E-03 0.  1.
    9900012    2    1    2    0    0 -0.38898272757E+02  0.14461685845E+02  0.12704612588E+02  0.47787272334E+02  0.20000005880E+02 0.  0.
        -12    1    1    2    0    0  0.38898272757E+02 -0.14461685845E+02 -0.12704612588E+02  0.43400727666E+02  0.00000000000E+00 0.  1.
         11    1    3    3    0    0 -0.31243436958E+02  0.79358982153E+01  0.99213530314E+01  0.33727793875E+02  0.51100000000E-03 0. -1.
        -11    1    3    3    0    0 -0.40279315264E+00 -0.16492878098E+01 -0.15544960040E+01  0.23019232591E+01  0.51100000000E-03 0.  1.
        -12    1    3    3    0    0 -0.72520426459E+01  0.81750754394E+01  0.43377555605E+01  0.11757555200E+02  0.00000000000E+00 0.  1.
</event>
<event>
 7    1  0.2530788E-009  0.4778727E+02  0.7816164E-02  0.1312668E+00
        -11   -1    0    0    0    0  0.00000000000E+00  0.00000000000E+00  0.45593999997E+02  0.45594000000E+02  0.51100000000E-03 0. -1.
         11   -1    0    0    0    0 -0.00000000000E+00 -0.00000000000E+00 -0.45593999997E+02  0.45594000000E+02  0.51100000000E-03 0.  1.
    9900012    2    1    2    0    0  0.14719135599E+02 -0.10741911745E+02  0.39390121747E+02  0.47787270606E+02  0.19999998000E+02 0.  0.
        -12    1    1    2    0    0 -0.14719135599E+02  0.10741911745E+02 -0.39390121747E+02  0.43400729394E+02  0.00000000000E+00 0.  1.
         11    1    3    3    0    0  0.71214298766E+00 -0.33097590194E+01  0.24698051356E+02  0.24929007069E+02  0.51100000000E-03 0. -1.
        -11    1    3    3    0    0  0.14587031095E+02 -0.60184117702E+01  0.12246254419E+02  0.19974321113E+02  0.51100000000E-03 0.  1.
        -12    1    3    3    0    0 -0.58003848297E+00 -0.14137409557E+01  0.24458159717E+01  0.28839424230E+01  0.00000000000E+00 0.  1.
</event>
<event>
 7    1  0.2530788E-009  0.4778727E+02  0.7816164E-02  0.1312668E+00
        -11   -1    0    0    0    0  0.00000000000E+00  0.00000000000E+00  0.45593999997E+02  0.45594000000E+02  0.51100000000E-03 0. -1.
         11   -1    0    0    0    0 -0.00000000000E+00 -0.00000000000E+00 -0.45593999997E+02  0.45594000000E+02  0.51100000000E-03 0.  1.
    9900012    2    1    2    0    0  0.40108337776E+02  0.12848295848E+02  0.10481684338E+02  0.47787272219E+02  0.20000005355E+02 0.  0.
        -12    1    1    2    0    0 -0.40108337776E+02 -0.12848295848E+02 -0.10481684338E+02  0.43400727781E+02  0.00000000000E+00 0.  1.
         11    1    3    3    0    0  0.34785978573E+02  0.11804436162E+02  0.45426947138E+01  0.37014120196E+02  0.51100000000E-03 0. -1.
        -11    1    3    3    0    0 -0.96507780032E+00 -0.11399538339E+01 -0.43686485741E+00  0.15561879928E+01  0.51100000000E-03 0.  1.
         12    1    3    3    0    0  0.62874370036E+01  0.21838135200E+01  0.63758544814E+01  0.92169640301E+01  0.00000000000E+00 0. -1.
</event>
<event>
 7    1  0.2530788E-009  0.4778727E+02  0.7816164E-02  0.1312668E+00
        -11   -1    0    0    0    0  0.00000000000E+00  0.00000000000E+00  0.45593999997E+02  0.45594000000E+02  0.51100000000E-03 0.  1.
         11   -1    0    0    0    0 -0.00000000000E+00 -0.00000000000E+00 -0.45593999997E+02  0.45594000000E+02  0.51100000000E-03 0. -1.
    9900012    2    1    2    0    0  0.89454538015E+00  0.30253783336E+02 -0.31105172410E+02  0.47787269957E+02  0.19999995044E+02 0.  0.
        -12    1    1    2    0    0 -0.89454538015E+00 -0.30253783336E+02  0.31105172410E+02  0.43400730043E+02  0.00000000000E+00 0.  1.
         11    1    3    3    0    0 -0.45595175474E+01  0.28702705701E+02 -0.22804765854E+02  0.36941736028E+02  0.51100000000E-03 0. -1.
        -11    1    3    3    0    0  0.24421643353E+01  0.18029009973E+01 -0.68513635078E+01  0.74937174236E+01  0.51100000000E-03 0.  1.
         12    1    3    3    0    0  0.30118985923E+01 -0.25182336215E+00 -0.14490430474E+01  0.33518165059E+01  0.00000000000E+00 0. -1.
</event>
<event>
 7    1  0.2530788E-009  0.4778727E+02  0.7816164E-02  0.1312668E+00
        -11   -1    0    0    0    0  0.00000000000E+00  0.00000000000E+00  0.45593999997E+02  0.45594000000E+02  0.51100000000E-03 0. -1.
         11   -1    0    0    0    0 -0.00000000000E+00 -0.00000000000E+00 -0.45593999997E+02  0.45594000000E+02  0.51100000000E-03 0.  1.
    9900012    2    1    2    0    0 -0.58770203112E+00 -0.20671041989E+02  0.38157383661E+02  0.47787270761E+02  0.19999998708E+02 0.  0.
        -12    1    1    2    0    0  0.58770203112E+00  0.20671041989E+02 -0.38157383661E+02  0.43400729239E+02  0.00000000000E+00 0.  1.
         11    1    3    3    0    0  0.22665768994E+01 -0.13831273009E+02  0.13624399288E+02  0.19546501992E+02  0.51100000000E-03 0. -1.
        -11    1    3    3    0    0 -0.70830775993E+01 -0.34372050735E+01  0.10000074033E+02  0.12727366103E+02  0.51100000000E-03 0.  1.
        -12    1    3    3    0    0  0.42287986688E+01 -0.34025639062E+01  0.14532910340E+02  0.15513402666E+02  0.00000000000E+00 0.  1.
</event>
<event>
 7    1  0.2530788E-009  0.4778727E+02  0.7816164E-02  0.1312668E+00
        -11   -1    0    0    0    0  0.00000000000E+00  0.00000000000E+00  0.45593999997E+02  0.45594000000E+02  0.51100000000E-03 0.  1.
         11   -1    0    0    0    0 -0.00000000000E+00 -0.00000000000E+00 -0.45593999997E+02  0.45594000000E+02  0.51100000000E-03 0. -1.
    9900012    2    1    2    0    0 -0.10580805141E+02  0.41233826767E+02  0.84523292639E+01  0.47787265245E+02  0.19999973559E+02 0.  0.
        -12    1    1    2    0    0  0.10580805141E+02 -0.41233826767E+02 -0.84523292639E+01  0.43400734755E+02  0.00000000000E+00 0.  1.
         11    1    3    3    0    0 -0.58127154649E+01  0.34837505563E+01 -0.16741971251E+00  0.67788058414E+01  0.51100000000E-03 0. -1.
        -11    1    3    3    0    0  0.37437408900E+01  0.19877025494E+02  0.55619712724E+01  0.20977303522E+02  0.51100000000E-03 0.  1.
        -12    1    3    3    0    0 -0.85118305656E+01  0.17873050716E+02  0.30577777040E+01  0.20031155882E+02  0.00000000000E+00 0.  1.
</event>
<event>
 7    1  0.2530788E-009  0.4778726E+02  0.7816164E-02  0.1312668E+00
        -11   -1    0    0    0    0  0.00000000000E+00  0.00000000000E+00  0.45593999997E+02  0.45594000000E+02  0.51100000000E-03 0.  1.
         11   -1    0    0    0    0 -0.00000000000E+00 -0.00000000000E+00 -0.45593999997E+02  0.45594000000E+02  0.51100000000E-03 0. -1.
    9900012    2    1    2    0    0  0.33809410133E+02 -0.27212048099E+02 -0.22851941460E+00  0.47787262721E+02  0.19999962050E+02 0.  0.
        -12    1    1    2    0    0 -0.33809410133E+02  0.27212048099E+02  0.22851941460E+00  0.43400737279E+02  0.00000000000E+00 0.  1.
         11    1    3    3    0    0  0.26999534296E+01 -0.12200342512E+02 -0.12590956723E+01  0.12558798832E+02  0.51100000000E-03 0. -1.
        -11    1    3    3    0    0  0.94553618920E+00  0.71755617061E+00 -0.98266029309E-01  0.11910424076E+01  0.51100000000E-03 0.  1.
         12    1    3    3    0    0  0.30163920514E+02 -0.15729261758E+02  0.11288422870E+01  0.34037421482E+02  0.00000000000E+00 0. -1.
</event>
<event>
 7    1  0.2530788E-009  0.4778729E+02  0.7816164E-02  0.1312668E+00
        -11   -1    0    0    0    0  0.00000000000E+00  0.00000000000E+00  0.45593999997E+02  0.45594000000E+02  0.51100000000E-03 0.  1.
         11   -1    0    0    0    0 -0.00000000000E+00 -0.00000000000E+00 -0.45593999997E+02  0.45594000000E+02  0.51100000000E-03 0. -1.
    9900012    2    1    2    0    0 -0.30092585229E+02 -0.31270965612E+02  0.42993832978E+00  0.47787287759E+02  0.20000076208E+02 0.  0.
        -12    1    1    2    0    0  0.30092585229E+02  0.31270965612E+02 -0.42993832978E+00  0.43400712241E+02  0.00000000000E+00 0.  1.
         11    1    3    3    0    0 -0.23827648698E+02 -0.26613105667E+02  0.31271795618E+01  0.35857962686E+02  0.51100000000E-03 0. -1.
        -11    1    3    3    0    0 -0.59758491111E+01  0.90694865698E+00 -0.12508472871E+01  0.61723534945E+01  0.51100000000E-03 0.  1.
         12    1    3    3    0    0 -0.28908741996E+00 -0.55648086015E+01 -0.14463939450E+01  0.57569715782E+01  0.00000000000E+00 0. -1.
</event>
<event>
 7    1  0.2530788E-009  0.4778727E+02  0.7816164E-02  0.1312668E+00
        -11   -1    0    0    0    0  0.00000000000E+00  0.00000000000E+00  0.45593999997E+02  0.45594000000E+02  0.51100000000E-03 0. -1.
         11   -1    0    0    0    0 -0.00000000000E+00 -0.00000000000E+00 -0.45593999997E+02  0.45594000000E+02  0.51100000000E-03 0.  1.
    9900012    2    1    2    0    0 -0.31843428183E+02  0.21593027135E+02  0.20083842039E+02  0.47787269012E+02  0.19999990733E+02 0.  0.
        -12    1    1    2    0    0  0.31843428183E+02 -0.21593027135E+02 -0.20083842039E+02  0.43400730988E+02  0.00000000000E+00 0.  1.
         11    1    3    3    0    0  0.11940008538E+01  0.61751761927E+01  0.85272463239E+00  0.63470921381E+01  0.51100000000E-03 0. -1.
        -11    1    3    3    0    0 -0.18194734428E+02  0.78583757606E+01  0.81237415332E+01  0.21419561323E+02  0.51100000000E-03 0.  1.
         12    1    3    3    0    0 -0.14842694608E+02  0.75594751812E+01  0.11107375873E+02  0.20020615551E+02  0.00000000000E+00 0. -1.
</event>
<event>
 7    1  0.2530788E-009  0.4778721E+02  0.7816164E-02  0.1312668E+00
        -11   -1    0    0    0    0  0.00000000000E+00  0.00000000000E+00  0.45593999997E+02  0.45594000000E+02  0.51100000000E-03 0.  1.
         11   -1    0    0    0    0 -0.00000000000E+00 -0.00000000000E+00 -0.45593999997E+02  0.45594000000E+02  0.51100000000E-03 0. -1.
    9900012    2    1    2    0    0 -0.56765774806E+01  0.35688262542E+02  0.24036486825E+02  0.47787212979E+02  0.19999735255E+02 0.  0.
        -12    1    1    2    0    0  0.56765774806E+01 -0.35688262542E+02 -0.24036486825E+02  0.43400787021E+02  0.00000000000E+00 0.  1.
         11    1    3    3    0    0 -0.10576519813E+02  0.24183758744E+02  0.15121320342E+02  0.30419915967E+02  0.51100000000E-03 0. -1.
        -11    1    3    3    0    0  0.48879085929E+01  0.26114436716E+01  0.13796269905E+01  0.57109245624E+01  0.51100000000E-03 0.  1.
        -12    1    3    3    0    0  0.12033739549E-01  0.88930601270E+01  0.75355394926E+01  0.11656372449E+02  0.00000000000E+00 0.  1.
</event>
<event>
 7    1  0.2530788E-009  0.4778727E+02  0.7816164E-02  0.1312668E+00
        -11   -1    0    0    0    0  0.00000000000E+00  0.00000000000E+00  0.45593999997E+02  0.45594000000E+02  0.51100000000E-03 0.  1.
         11   -1    0    0    0    0 -0.00000000000E+00 -0.00000000000E+00 -0.45593999997E+02  0.45594000000E+02  0.51100000000E-03 0. -1.
    9900012    2    1    2    0    0  0.58416248580E+01 -0.36448294202E+02 -0.22825873340E+02  0.47787271608E+02  0.20000002570E+02 0.  0.
        -12    1    1    2    0    0 -0.58416248580E+01  0.36448294202E+02  0.22825873340E+02  0.43400728392E+02  0.00000000000E+00 0.  1.
         11    1    3    3    0    0  0.41969657863E+01 -0.81811728592E+01 -0.97869020176E+01  0.13428684318E+02  0.51100000000E-03 0. -1.
        -11    1    3    3    0    0  0.19172954717E+01 -0.97589674918E+00  0.22188741961E+01  0.30905985424E+01  0.51100000000E-03 0.  1.
        -12    1    3    3    0    0 -0.27263639995E+00 -0.27291224594E+02 -0.15257845518E+02  0.31267988747E+02  0.00000000000E+00 0.  1.
</event>
<event>
 7    1  0.2530788E-009  0.4778727E+02  0.7816164E-02  0.1312668E+00
        -11   -1    0    0    0    0  0.00000000000E+00  0.00000000000E+00  0.45593999997E+02  0.45594000000E+02  0.51100000000E-03 0.  1.
         11   -1    0    0    0    0 -0.00000000000E+00 -0.00000000000E+00 -0.45593999997E+02  0.45594000000E+02  0.51100000000E-03 0. -1.
    9900012    2    1    2    0    0 -0.81464636541E+01 -0.86710786304E+01 -0.41738121210E+02  0.47787271471E+02  0.20000001946E+02 0.  0.
        -12    1    1    2    0    0  0.81464636541E+01  0.86710786304E+01  0.41738121210E+02  0.43400728529E+02  0.00000000000E+00 0.  1.
         11    1    3    3    0    0  0.53437980527E+01 -0.28383292390E+01 -0.99838176147E+01  0.11674283915E+02  0.51100000000E-03 0.  1.
        -11    1    3    3    0    0 -0.63919215265E+00 -0.10926315936E+01 -0.12045477233E+02  0.12111809627E+02  0.51100000000E-03 0. -1.
         12    1    3    3    0    0 -0.12851069554E+02 -0.47401177978E+01 -0.19708826362E+02  0.24001177929E+02  0.00000000000E+00 0. -1.
</event>
<event>
 7    1  0.2530788E-009  0.4778723E+02  0.7816164E-02  0.1312668E+00
        -11   -1    0    0    0    0  0.00000000000E+00  0.00000000000E+00  0.45593999997E+02  0.45594000000E+02  0.51100000000E-03 0.  1.
         11   -1    0    0    0    0 -0.00000000000E+00 -0.00000000000E+00 -0.45593999997E+02  0.45594000000E+02  0.51100000000E-03 0. -1.
    9900012    2    1    2    0    0 -0.13667416992E+02 -0.36686810602E+02 -0.18732493197E+02  0.47787232026E+02  0.19999822097E+02 0.  0.
        -12    1    1    2    0    0  0.13667416992E+02  0.36686810602E+02  0.18732493197E+02  0.43400767974E+02  0.00000000000E+00 0.  1.
         11    1    3    3    0    0 -0.37147037372E+01 -0.29504511151E+02 -0.13382076057E+02  0.32609740293E+02  0.51100000000E-03 0. -1.
        -11    1    3    3    0    0 -0.12691086380E+01  0.13558493356E+01  0.45155728510E-01  0.18576876640E+01  0.51100000000E-03 0.  1.
         12    1    3    3    0    0 -0.86836046167E+01 -0.85381487867E+01 -0.53955728684E+01  0.13319804068E+02  0.00000000000E+00 0. -1.
</event>
<event>
 7    1  0.2530788E-009  0.4778727E+02  0.7816164E-02  0.1312668E+00
        -11   -1    0    0    0    0  0.00000000000E+00  0.00000000000E+00  0.45593999997E+02  0.45594000000E+02  0.51100000000E-03 0.  1.
         11   -1    0    0    0    0 -0.00000000000E+00 -0.00000000000E+00 -0.45593999997E+02  0.45594000000E+02  0.51100000000E-03 0. -1.
    9900012    2    1    2    0    0 -0.22192695694E+02 -0.49580033472E+01 -0.36966549743E+02  0.47787270292E+02  0.19999996568E+02 0.  0.
        -12    1    1    2    0    0  0.22192695694E+02  0.49580033472E+01  0.36966549743E+02  0.43400729708E+02  0.00000000000E+00 0.  1.
         11    1    3    3    0    0 -0.16787098486E+02 -0.70276615316E+01 -0.14674961617E+02  0.23378391752E+02  0.51100000000E-03 0. -1.
        -11    1    3    3    0    0 -0.13840610546E+01  0.31083018542E+01 -0.18417236655E+02  0.18728902042E+02  0.51100000000E-03 0.  1.
        -12    1    3    3    0    0 -0.40215361527E+01 -0.10386436698E+01 -0.38743514700E+01  0.56799764976E+01  0.00000000000E+00 0.  1.
</event>
<event>
 7    1  0.2530788E-009  0.4778728E+02  0.7816164E-02  0.1312668E+00
        -11   -1    0    0    0    0  0.00000000000E+00  0.00000000000E+00  0.45593999997E+02  0.45594000000E+02  0.51100000000E-03 0. -1.
         11   -1    0    0    0    0 -0.00000000000E+00 -0.00000000000E+00 -0.45593999997E+02  0.45594000000E+02  0.51100000000E-03 0.  1.
    9900012    2    1    2    0    0  0.11297297145E+02  0.18814779311E+02  0.37443262116E+02  0.47787277412E+02  0.20000029032E+02 0.  0.
        -12    1    1    2    0    0 -0.11297297145E+02 -0.18814779311E+02 -0.37443262116E+02  0.43400722588E+02  0.00000000000E+00 0.  1.
         11    1    3    3    0    0 -0.22120762397E+01  0.93609548571E+01  0.63371119953E+01  0.11518669447E+02  0.51100000000E-03 0. -1.
        -11    1    3    3    0    0  0.10742907640E+02  0.26635851088E+01  0.21523806583E+02  0.24202871736E+02  0.51100000000E-03 0.  1.
        -12    1    3    3    0    0  0.27664657451E+01  0.67902393447E+01  0.95823435378E+01  0.12065736229E+02  0.00000000000E+00 0.  1.
</event>
<event>
 7    1  0.2530788E-009  0.4778727E+02  0.7816164E-02  0.1312668E+00
        -11   -1    0    0    0    0  0.00000000000E+00  0.00000000000E+00  0.45593999997E+02  0.45594000000E+02  0.51100000000E-03 0.  1.
         11   -1    0    0    0    0 -0.00000000000E+00 -0.00000000000E+00 -0.45593999997E+02  0.45594000000E+02  0.51100000000E-03 0. -1.
    9900012    2    1    2    0    0 -0.15929908523E+02 -0.36144393176E+02 -0.17984549749E+02  0.47787272203E+02  0.20000005282E+02 0.  0.
        -12    1    1    2    0    0  0.15929908523E+02  0.36144393176E+02  0.17984549749E+02  0.43400727797E+02  0.00000000000E+00 0.  1.
         11    1    3    3    0    0 -0.10922580211E+02 -0.16743940501E+02 -0.17720466290E+02  0.26714738026E+02  0.51100000000E-03 0. -1.
        -11    1    3    3    0    0 -0.65393145704E+01 -0.13962985889E+02 -0.35846157326E+00  0.15422584250E+02  0.51100000000E-03 0.  1.
        -12    1    3    3    0    0  0.15319862591E+01 -0.54374667870E+01  0.94378114342E-01  0.56499499278E+01  0.00000000000E+00 0.  1.
</event>
<event>
 7    1  0.2530788E-009  0.4778727E+02  0.7816164E-02  0.1312668E+00
        -11   -1    0    0    0    0  0.00000000000E+00  0.00000000000E+00  0.45593999997E+02  0.45594000000E+02  0.51100000000E-03 0.  1.
         11   -1    0    0    0    0 -0.00000000000E+00 -0.00000000000E+00 -0.45593999997E+02  0.45594000000E+02  0.51100000000E-03 0. -1.
    9900012    2    1    2    0    0 -0.14635961646E+02  0.39202615557E+02  0.11513759279E+02  0.47787273133E+02  0.20000009525E+02 0.  0.
        -12    1    1    2    0    0  0.14635961646E+02 -0.39202615557E+02 -0.11513759279E+02  0.43400726867E+02  0.00000000000E+00 0.  1.
         11    1    3    3    0    0 -0.72179729412E+01  0.30201932178E+02  0.11766388135E+02  0.33206983161E+02  0.51100000000E-03 0. -1.
        -11    1    3    3    0    0 -0.64631312337E+01  0.31508147143E+01  0.30324241341E+01  0.78035437525E+01  0.51100000000E-03 0.  1.
        -12    1    3    3    0    0 -0.95485747131E+00  0.58498686644E+01 -0.32850529897E+01  0.67767462198E+01  0.00000000000E+00 0.  1.
</event>
<event>
 7    1  0.2530788E-009  0.4778725E+02  0.7816164E-02  0.1312668E+00
        -11   -1    0    0    0    0  0.00000000000E+00  0.00000000000E+00  0.45593999997E+02  0.45594000000E+02  0.51100000000E-03 0.  1.
         11   -1    0    0    0    0 -0.00000000000E+00 -0.00000000000E+00 -0.45593999997E+02  0.45594000000E+02  0.51100000000E-03 0. -1.
    9900012    2    1    2    0    0  0.13947505290E+02  0.59709946363E+01 -0.40662508053E+02  0.47787248372E+02  0.19999896626E+02 0.  0.
        -12    1    1    2    0    0 -0.13947505290E+02 -0.59709946363E+01  0.40662508053E+02  0.43400751628E+02  0.00000000000E+00 0.  1.
         11    1    3    3    0    0  0.73695529162E+01 -0.41823983832E+01 -0.14737871854E+02  0.17000224512E+02  0.51100000000E-03 0. -1.
        -11    1    3    3    0    0  0.20033168210E+01  0.63169113106E+01 -0.33293996521E+01  0.74163029263E+01  0.51100000000E-03 0.  1.
        -12    1    3    3    0    0  0.45746355528E+01  0.38364817090E+01 -0.22595236547E+02  0.23370720934E+02  0.00000000000E+00 0.  1.
</event>
<event>
 7    1  0.2530788E-009  0.4778727E+02  0.7816164E-02  0.1312668E+00
        -11   -1    0    0    0    0  0.00000000000E+00  0.00000000000E+00  0.45593999997E+02  0.45594000000E+02  0.51100000000E-03 0.  1.
         11   -1    0    0    0    0 -0.00000000000E+00 -0.00000000000E+00 -0.45593999997E+02  0.45594000000E+02  0.51100000000E-03 0. -1.
    9900012    2    1    2    0    0  0.19740572549E+02 -0.37387153203E+02 -0.98048023601E+01  0.47787267535E+02  0.19999984001E+02 0.  0.
        -12    1    1    2    0    0 -0.19740572549E+02  0.37387153203E+02  0.98048023601E+01  0.43400732465E+02  0.00000000000E+00 0.  1.
         11    1    3    3    0    0  0.14885288486E+02 -0.16998609335E+02 -0.43737495239E+01  0.23014217731E+02  0.51100000000E-03 0. -1.
        -11    1    3    3    0    0  0.15729654159E+01 -0.18152327610E+02 -0.22086748826E+00  0.18221690387E+02  0.51100000000E-03 0.  1.
        -12    1    3    3    0    0  0.32823186470E+01 -0.22362162581E+01 -0.52101853479E+01  0.65513594172E+01  0.00000000000E+00 0.  1.
</event>
<event>
 7    1  0.2530788E-009  0.4778727E+02  0.7816164E-02  0.1312668E+00
        -11   -1    0    0    0    0  0.00000000000E+00  0.00000000000E+00  0.45593999997E+02  0.45594000000E+02  0.51100000000E-03 0. -1.
         11   -1    0    0    0    0 -0.00000000000E+00 -0.00000000000E+00 -0.45593999997E+02  0.45594000000E+02  0.51100000000E-03 0.  1.
    9900012    2    1    2    0    0  0.19019911323E+02  0.37848285752E+02  0.94537566305E+01  0.47787271025E+02  0.19999999912E+02 0.  0.
        -12    1    1    2    0    0 -0.19019911323E+02 -0.37848285752E+02 -0.94537566305E+01  0.43400728975E+02  0.00000000000E+00 0.  1.
         11    1    3    3    0    0  0.81665337400E+01  0.12629076533E+02 -0.53050918900E+01  0.15947722334E+02  0.51100000000E-03 0. -1.
        -11    1    3    3    0    0  0.56720493114E+01  0.19152069006E+02  0.85385906975E+01  0.21722831813E+02  0.51100000000E-03 0.  1.
        -12    1    3    3    0    0  0.51813282714E+01  0.60671402132E+01  0.62202578230E+01  0.10116716879E+02  0.00000000000E+00 0.  1.
</event>
<event>
 7    1  0.2530788E-009  0.4778727E+02  0.7816164E-02  0.1312668E+00
        -11   -1    0    0    0    0  0.00000000000E+00  0.00000000000E+00  0.45593999997E+02  0.45594000000E+02  0.51100000000E-03 0.  1.
         11   -1    0    0    0    0 -0.00000000000E+00 -0.00000000000E+00 -0.45593999997E+02  0.45594000000E+02  0.51100000000E-03 0. -1.
    9900012    2    1    2    0    0 -0.19739903360E+02 -0.36519199367E+02 -0.12661255128E+02  0.47787273181E+02  0.20000009740E+02 0.  0.
        -12    1    1    2    0    0  0.19739903360E+02  0.36519199367E+02  0.12661255128E+02  0.43400726819E+02  0.00000000000E+00 0.  1.
         11    1    3    3    0    0 -0.86816883778E+01 -0.22448561915E+02  0.23093414403E+00  0.24069960032E+02  0.51100000000E-03 0. -1.
        -11    1    3    3    0    0 -0.69345793868E+01 -0.23246274700E+01 -0.61742808454E+01  0.95715217372E+01  0.51100000000E-03 0.  1.
         12    1    3    3    0    0 -0.41236355957E+01 -0.11746009982E+02 -0.67179084262E+01  0.14145791411E+02  0.00000000000E+00 0. -1.
</event>
<event>
 7    1  0.2530788E-009  0.4778727E+02  0.7816164E-02  0.1312668E+00
        -11   -1    0    0    0    0  0.00000000000E+00  0.00000000000E+00  0.45593999997E+02  0.45594000000E+02  0.51100000000E-03 0.  1.
         11   -1    0    0    0    0 -0.00000000000E+00 -0.00000000000E+00 -0.45593999997E+02  0.45594000000E+02  0.51100000000E-03 0. -1.
    9900012    2    1    2    0    0  0.16035012345E+01  0.40984896328E+02 -0.14187684128E+02  0.47787270465E+02  0.19999997360E+02 0.  0.
        -12    1    1    2    0    0 -0.16035012345E+01 -0.40984896328E+02  0.14187684128E+02  0.43400729535E+02  0.00000000000E+00 0.  1.
         11    1    3    3    0    0 -0.81759036775E+00  0.90035972885E+01  0.25434925219E+00  0.90442198086E+01  0.51100000000E-03 0. -1.
        -11    1    3    3    0    0 -0.64816686307E+01  0.19996292255E+02 -0.83652993338E+01  0.22623924624E+02  0.51100000000E-03 0.  1.
        -12    1    3    3    0    0  0.89027602329E+01  0.11985006784E+02 -0.60767340463E+01  0.16119126033E+02  0.00000000000E+00 0.  1.
</event>
<event>
 7    1  0.2530788E-009  0.4778723E+02  0.7816164E-02  0.1312668E+00
        -11   -1    0    0    0    0  0.00000000000E+00  0.00000000000E+00  0.45593999997E+02  0.45594000000E+02  0.51100000000E-03 0. -1.
         11   -1    0    0    0    0 -0.00000000000E+00 -0.00000000000E+00 -0.45593999997E+02  0.45594000000E+02  0.51100000000E-03 0.  1.
    9900012    2    1    2    0    0 -0.34411853364E+02 -0.20164714329E+02  0.17112437611E+02  0.47787229535E+02  0.19999810742E+02 0.  0.
        -12    1    1    2    0    0  0.34411853364E+02  0.20164714329E+02 -0.17112437611E+02  0.43400770465E+02  0.00000000000E+00 0.  1.
         11    1    3    3    0    0 -0.94950465318E+01 -0.31351957900E+01  0.10081834491E+02  0.14199603806E+02  0.51100000000E-03 0. -1.
        -11    1    3    3    0    0 -0.16835308331E+02 -0.18026400891E+02  0.46074636142E+01  0.25091979932E+02  0.51100000000E-03 0.  1.
        -12    1    3    3    0    0 -0.80814985016E+01  0.99688235201E+00  0.24231395062E+01  0.84956457978E+01  0.00000000000E+00 0.  1.
</event>
<event>
 7    1  0.2530788E-009  0.4778727E+02  0.7816164E-02  0.1312668E+00
        -11   -1    0    0    0    0  0.00000000000E+00  0.00000000000E+00  0.45593999997E+02  0.45594000000E+02  0.51100000000E-03 0.  1.
         11   -1    0    0    0    0 -0.00000000000E+00 -0.00000000000E+00 -0.45593999997E+02  0.45594000000E+02  0.51100000000E-03 0. -1.
    9900012    2    1    2    0    0 -0.10859597061E+02 -0.41994487459E+02  0.14681566804E+01  0.47787270636E+02  0.19999998139E+02 0.  0.
        -12    1    1    2    0    0  0.10859597061E+02  0.41994487459E+02 -0.14681566804E+01  0.43400729364E+02  0.00000000000E+00 0.  1.
         11    1    3    3    0    0 -0.66802219963E+01 -0.14568246897E+02 -0.52013178525E+01  0.16849714871E+02  0.51100000000E-03 0. -1.
        -11    1    3    3    0    0 -0.25593659073E+01 -0.27645195655E+02  0.43533778906E+01  0.28102652828E+02  0.51100000000E-03 0.  1.
        -12    1    3    3    0    0 -0.16200091576E+01  0.21895509389E+00  0.23160966424E+01  0.28349029367E+01  0.00000000000E+00 0.  1.
</event>
<event>
 7    1  0.2530788E-009  0.4778727E+02  0.7816164E-02  0.1312668E+00
        -11   -1    0    0    0    0  0.00000000000E+00  0.00000000000E+00  0.45593999997E+02  0.45594000000E+02  0.51100000000E-03 0.  1.
         11   -1    0    0    0    0 -0.00000000000E+00 -0.00000000000E+00 -0.45593999997E+02  0.45594000000E+02  0.51100000000E-03 0. -1.
    9900012    2    1    2    0    0  0.39336312549E+02 -0.18164223805E+02  0.25176915261E+01  0.47787270950E+02  0.19999999571E+02 0.  0.
        -12    1    1    2    0    0 -0.39336312549E+02  0.18164223805E+02 -0.25176915261E+01  0.43400729050E+02  0.00000000000E+00 0.  1.
         11    1    3    3    0    0  0.22968950081E+02 -0.58576537357E+01  0.52092144709E+01  0.24269748470E+02  0.51100000000E-03 0. -1.
        -11    1    3    3    0    0  0.12071706413E+02 -0.70876511475E+01  0.34139930998E+01  0.14408894602E+02  0.51100000000E-03 0.  1.
         12    1    3    3    0    0  0.42956560555E+01 -0.52189189219E+01 -0.61055160446E+01  0.91086278787E+01  0.00000000000E+00 0. -1.
</event>
<event>
 7    1  0.2530788E-009  0.4778727E+02  0.7816164E-02  0.1312668E+00
        -11   -1    0    0    0    0  0.00000000000E+00  0.00000000000E+00  0.45593999997E+02  0.45594000000E+02  0.51100000000E-03 0.  1.
         11   -1    0    0    0    0 -0.00000000000E+00 -0.00000000000E+00 -0.45593999997E+02  0.45594000000E+02  0.51100000000E-03 0. -1.
    9900012    2    1    2    0    0  0.26556274935E+02  0.13091129457E+02 -0.31733416389E+02  0.47787272764E+02  0.20000007840E+02 0.  0.
        -12    1    1    2    0    0 -0.26556274935E+02 -0.13091129457E+02  0.31733416389E+02  0.43400727236E+02  0.00000000000E+00 0.  1.
         11    1    3    3    0    0  0.88367800371E+01  0.68638530520E+00 -0.44329269050E+01  0.99101285268E+01  0.51100000000E-03 0. -1.
        -11    1    3    3    0    0  0.88464488014E+01  0.12092720382E+00 -0.18107514712E+02  0.20153321540E+02  0.51100000000E-03 0.  1.
        -12    1    3    3    0    0  0.88730460960E+01  0.12283816948E+02 -0.91929747724E+01  0.17723822697E+02  0.00000000000E+00 0.  1.
</event>
<event>
 7    1  0.2884276E-009  0.4778727E+02  0.7816164E-02  0.1312668E+00
        -11   -1    0    0    0    0  0.00000000000E+00  0.00000000000E+00  0.45593999997E+02  0.45594000000E+02  0.51100000000E-03 0.  1.
         11   -1    0    0    0    0 -0.00000000000E+00 -0.00000000000E+00 -0.45593999997E+02  0.45594000000E+02  0.51100000000E-03 0. -1.
    9900012    2    1    2    0    0  0.26549632865E+02 -0.33615745186E+02  0.69801057579E+01  0.47787271826E+02  0.20000003562E+02 0.  0.
        -12    1    1    2    0    0 -0.26549632865E+02  0.33615745186E+02 -0.69801057579E+01  0.43400728174E+02  0.00000000000E+00 0.  1.
         11    1    3    3    0    0  0.15562842928E+02 -0.18961500163E+02  0.12581890720E+01  0.24562646609E+02  0.51100000000E-03 0. -1.
        -11    1    3    3    0    0 -0.22373511206E+01 -0.54371348770E+01  0.37775986893E+01  0.69884496010E+01  0.51100000000E-03 0.  1.
        -12    1    3    3    0    0  0.13224141057E+02 -0.92171101465E+01  0.19443179966E+01  0.16236175616E+02  0.00000000000E+00 0.  1.
</event>
<event>
 7    1  0.2530788E-009  0.4778727E+02  0.7816164E-02  0.1312668E+00
        -11   -1    0    0    0    0  0.00000000000E+00  0.00000000000E+00  0.45593999997E+02  0.45594000000E+02  0.51100000000E-03 0.  1.
         11   -1    0    0    0    0 -0.00000000000E+00 -0.00000000000E+00 -0.45593999997E+02  0.45594000000E+02  0.51100000000E-03 0. -1.
    9900012    2    1    2    0    0  0.22815474283E+02 -0.20984770563E+02 -0.30376253491E+02  0.47787271453E+02  0.20000001861E+02 0.  0.
        -12    1    1    2    0    0 -0.22815474283E+02  0.20984770563E+02  0.30376253491E+02  0.43400728547E+02  0.00000000000E+00 0.  1.
         11    1    3    3    0    0  0.11773238643E+02 -0.16902409228E+02 -0.16054936649E+02  0.26116308639E+02  0.51100000000E-03 0. -1.
        -11    1    3    3    0    0  0.31948239073E+01  0.19518413779E+01  0.57258063456E+00  0.37874045741E+01  0.51100000000E-03 0.  1.
        -12    1    3    3    0    0  0.78474117321E+01 -0.60342027126E+01 -0.14893897476E+02  0.17883558239E+02  0.00000000000E+00 0.  1.
</event>
<event>
 7    1  0.2530788E-009  0.4778727E+02  0.7816164E-02  0.1312668E+00
        -11   -1    0    0    0    0  0.00000000000E+00  0.00000000000E+00  0.45593999997E+02  0.45594000000E+02  0.51100000000E-03 0.  1.
         11   -1    0    0    0    0 -0.00000000000E+00 -0.00000000000E+00 -0.45593999997E+02  0.45594000000E+02  0.51100000000E-03 0. -1.
    9900012    2    1    2    0    0  0.40480906170E+02 -0.70192785302E+01 -0.13987463786E+02  0.47787272142E+02  0.20000005005E+02 0.  0.
        -12    1    1    2    0    0 -0.40480906170E+02  0.70192785302E+01  0.13987463786E+02  0.43400727858E+02  0.00000000000E+00 0.  1.
         11    1    3    3    0    0  0.26478645219E+02 -0.23703531146E+01 -0.54423508205E+01  0.27135887847E+02  0.51100000000E-03 0. -1.
        -11    1    3    3    0    0  0.46986028449E+01 -0.45098474582E+01 -0.92581508909E+01  0.11319405946E+02  0.51100000000E-03 0.  1.
        -12    1    3    3    0    0  0.93036581061E+01 -0.13907795741E+00  0.71303792516E+00  0.93319783495E+01  0.00000000000E+00 0.  1.
</event>
<event>
 7    1  0.2530788E-009  0.4778727E+02  0.7816164E-02  0.1312668E+00
        -11   -1    0    0    0    0  0.00000000000E+00  0.00000000000E+00  0.45593999997E+02  0.45594000000E+02  0.51100000000E-03 0. -1.
         11   -1    0    0    0    0 -0.00000000000E+00 -0.00000000000E+00 -0.45593999997E+02  0.45594000000E+02  0.51100000000E-03 0.  1.
    9900012    2    1    2    0    0 -0.22679818029E+02 -0.33123173839E+02  0.16495588458E+02  0.47787271555E+02  0.20000002327E+02 0.  0.
        -12    1    1    2    0    0  0.22679818029E+02  0.33123173839E+02 -0.16495588458E+02  0.43400728445E+02  0.00000000000E+00 0.  1.
         11    1    3    3    0    0 -0.17822291324E+02 -0.25377080503E+02  0.17075190822E+02  0.35400457974E+02  0.51100000000E-03 0. -1.
        -11    1    3    3    0    0  0.10973380481E+01 -0.43970660783E+01  0.21670086517E+01  0.50233721389E+01  0.51100000000E-03 0.  1.
         12    1    3    3    0    0 -0.59548647531E+01 -0.33490272576E+01 -0.27466110154E+01  0.73634414420E+01  0.00000000000E+00 0. -1.
</event>
<event>
 7    1  0.2530788E-009  0.4778727E+02  0.7816164E-02  0.1312668E+00
        -11   -1    0    0    0    0  0.00000000000E+00  0.00000000000E+00  0.45593999997E+02  0.45594000000E+02  0.51100000000E-03 0.  1.
         11   -1    0    0    0    0 -0.00000000000E+00 -0.00000000000E+00 -0.45593999997E+02  0.45594000000E+02  0.51100000000E-03 0. -1.
    9900012    2    1    2    0    0  0.11448237860E+02  0.14807355873E+02 -0.39157414860E+02  0.47787273317E+02  0.20000010363E+02 0.  0.
        -12    1    1    2    0    0 -0.11448237860E+02 -0.14807355873E+02  0.39157414860E+02  0.43400726683E+02  0.00000000000E+00 0.  1.
         11    1    3    3    0    0  0.10054262567E+02  0.69054878567E+01 -0.24809043413E+02  0.27645299666E+02  0.51100000000E-03 0. -1.
        -11    1    3    3    0    0  0.25942074936E+01  0.37575436119E+01  0.57984441435E+00  0.46027455199E+01  0.51100000000E-03 0.  1.
        -12    1    3    3    0    0 -0.12002322002E+01  0.41443244047E+01 -0.14928215861E+02  0.15539228131E+02  0.00000000000E+00 0.  1.
</event>
<event>
 7    1  0.2530788E-009  0.4778729E+02  0.7816164E-02  0.1312668E+00
        -11   -1    0    0    0    0  0.00000000000E+00  0.00000000000E+00  0.45593999997E+02  0.45594000000E+02  0.51100000000E-03 0. -1.
         11   -1    0    0    0    0 -0.00000000000E+00 -0.00000000000E+00 -0.45593999997E+02  0.45594000000E+02  0.51100000000E-03 0.  1.
    9900012    2    1    2    0    0 -0.54353659754E+01 -0.19037664170E+02  0.38621824934E+02  0.47787294688E+02  0.20000107801E+02 0.  0.
        -12    1    1    2    0    0  0.54353659754E+01  0.19037664170E+02 -0.38621824934E+02  0.43400705312E+02  0.00000000000E+00 0.  1.
         11    1    3    3    0    0 -0.17410849500E+01 -0.17335717616E+02  0.29617345651E+02  0.34361979654E+02  0.51100000000E-03 0. -1.
        -11    1    3    3    0    0 -0.46659891155E+01  0.20044986954E+01  0.20328569620E+01  0.54700984575E+01  0.51100000000E-03 0.  1.
        -12    1    3    3    0    0  0.97170809011E+00 -0.37064452486E+01  0.69716223216E+01  0.79552165771E+01  0.00000000000E+00 0.  1.
</event>
<event>
 7    1  0.2530788E-009  0.4778727E+02  0.7816164E-02  0.1312668E+00
        -11   -1    0    0    0    0  0.00000000000E+00  0.00000000000E+00  0.45593999997E+02  0.45594000000E+02  0.51100000000E-03 0.  1.
         11   -1    0    0    0    0 -0.00000000000E+00 -0.00000000000E+00 -0.45593999997E+02  0.45594000000E+02  0.51100000000E-03 0. -1.
    9900012    2    1    2    0    0  0.39392300117E+02 -0.16706832013E+02 -0.72630656695E+01  0.47787266511E+02  0.19999979332E+02 0.  0.
        -12    1    1    2    0    0 -0.39392300117E+02  0.16706832013E+02  0.72630656695E+01  0.43400733489E+02  0.00000000000E+00 0.  1.
         11    1    3    3    0    0  0.90954492739E+01 -0.73239595921E+01 -0.10694103603E+02  0.15834501373E+02  0.51100000000E-03 0. -1.
        -11    1    3    3    0    0  0.16750447225E+02 -0.50725404716E+01  0.99496801444E+00  0.17529920441E+02  0.51100000000E-03 0.  1.
         12    1    3    3    0    0  0.13546403618E+02 -0.43103319497E+01  0.24360699192E+01  0.14422844697E+02  0.00000000000E+00 0. -1.
</event>
<event>
 7    1  0.2530788E-009  0.4778727E+02  0.7816164E-02  0.1312668E+00
        -11   -1    0    0    0    0  0.00000000000E+00  0.00000000000E+00  0.45593999997E+02  0.45594000000E+02  0.51100000000E-03 0.  1.
         11   -1    0    0    0    0 -0.00000000000E+00 -0.00000000000E+00 -0.45593999997E+02  0.45594000000E+02  0.51100000000E-03 0. -1.
    9900012    2    1    2    0    0 -0.39386898091E+02  0.18036103181E+02 -0.26446895551E+01  0.47787272563E+02  0.20000006923E+02 0.  0.
        -12    1    1    2    0    0  0.39386898091E+02 -0.18036103181E+02  0.26446895551E+01  0.43400727437E+02  0.00000000000E+00 0.  1.
         11    1    3    3    0    0 -0.17652625849E+02  0.12083408223E+02 -0.56319530523E+01  0.22121095115E+02  0.51100000000E-03 0. -1.
        -11    1    3    3    0    0 -0.29190290693E+01 -0.17604721280E+01  0.40621555549E+01  0.53029332293E+01  0.51100000000E-03 0.  1.
        -12    1    3    3    0    0 -0.18815243174E+02  0.77131670868E+01 -0.10748920578E+01  0.20363244219E+02  0.00000000000E+00 0.  1.
</event>
<event>
 7    1  0.2530788E-009  0.4778727E+02  0.7816164E-02  0.1312668E+00
        -11   -1    0    0    0    0  0.00000000000E+00  0.00000000000E+00  0.45593999997E+02  0.45594000000E+02  0.51100000000E-03 0.  1.
         11   -1    0    0    0    0 -0.00000000000E+00 -0.00000000000E+00 -0.45593999997E+02  0.45594000000E+02  0.51100000000E-03 0. -1.
    9900012    2    1    2    0    0 -0.17581971731E+02  0.39671448793E+02  0.82073750184E+00  0.47787272018E+02  0.20000004440E+02 0.  0.
        -12    1    1    2    0    0  0.17581971731E+02 -0.39671448793E+02 -0.82073750184E+00  0.43400727982E+02  0.00000000000E+00 0.  1.
         11    1    3    3    0    0 -0.20496332565E+02  0.30350945457E+02 -0.23012155014E+01  0.36695709992E+02  0.51100000000E-03 0. -1.
        -11    1    3    3    0    0  0.33881200453E+01  0.37930385556E+01  0.12594463825E+01  0.52395328396E+01  0.51100000000E-03 0.  1.
         12    1    3    3    0    0 -0.47375921117E+00  0.55274647804E+01  0.18625066207E+01  0.58520291866E+01  0.00000000000E+00 0. -1.
</event>
<event>
 7    1  0.2530788E-009  0.4778728E+02  0.7816164E-02  0.1312668E+00
        -11   -1    0    0    0    0  0.00000000000E+00  0.00000000000E+00  0.45593999997E+02  0.45594000000E+02  0.51100000000E-03 0.  1.
         11   -1    0    0    0    0 -0.00000000000E+00 -0.00000000000E+00 -0.45593999997E+02  0.45594000000E+02  0.51100000000E-03 0. -1.
    9900012    2    1    2    0    0 -0.93130240713E+01 -0.22126745595E+02 -0.36156566315E+02  0.47787279088E+02  0.20000036674E+02 0.  0.
        -12    1    1    2    0    0  0.93130240713E+01  0.22126745595E+02  0.36156566315E+02  0.43400720912E+02  0.00000000000E+00 0.  1.
         11    1    3    3    0    0 -0.11855226206E+02 -0.66947018486E+01 -0.22047193077E+02  0.25912239271E+02  0.51100000000E-03 0. -1.
        -11    1    3    3    0    0  0.41473403163E+01 -0.72528256778E+01 -0.64480110133E+01  0.10553708272E+02  0.51100000000E-03 0.  1.
         12    1    3    3    0    0 -0.16051381818E+01 -0.81792180683E+01 -0.76613622251E+01  0.11321331544E+02  0.00000000000E+00 0. -1.
</event>
<event>
 7    1  0.2530788E-009  0.4778727E+02  0.7816164E-02  0.1312668E+00
        -11   -1    0    0    0    0  0.00000000000E+00  0.00000000000E+00  0.45593999997E+02  0.45594000000E+02  0.51100000000E-03 0. -1.
         11   -1    0    0    0    0 -0.00000000000E+00 -0.00000000000E+00 -0.45593999997E+02  0.45594000000E+02  0.51100000000E-03 0.  1.
    9900012    2    1    2    0    0 -0.63961797321E+01  0.10115939426E+02  0.41717860961E+02  0.47787271103E+02  0.20000000265E+02 0.  0.
        -12    1    1    2    0    0  0.63961797321E+01 -0.10115939426E+02 -0.41717860961E+02  0.43400728897E+02  0.00000000000E+00 0.  1.
         11    1    3    3    0    0  0.58662042370E+00  0.21798810528E+01  0.43910690768E+01  0.49373568663E+01  0.51100000000E-03 0. -1.
        -11    1    3    3    0    0 -0.87652038654E+01  0.37109784455E+00  0.61373936047E+01  0.10706732131E+02  0.51100000000E-03 0.  1.
        -12    1    3    3    0    0  0.17824037097E+01  0.75649605290E+01  0.31189398280E+02  0.32143182105E+02  0.00000000000E+00 0.  1.
</event>
<event>
 7    1  0.2530788E-009  0.4778728E+02  0.7816164E-02  0.1312668E+00
        -11   -1    0    0    0    0  0.00000000000E+00  0.00000000000E+00  0.45593999997E+02  0.45594000000E+02  0.51100000000E-03 0. -1.
         11   -1    0    0    0    0 -0.00000000000E+00 -0.00000000000E+00 -0.45593999997E+02  0.45594000000E+02  0.51100000000E-03 0.  1.
    9900012    2    1    2    0    0  0.34007880932E+01 -0.42136697109E+02 -0.98262937598E+01  0.47787278209E+02  0.20000032665E+02 0.  0.
        -12    1    1    2    0    0 -0.34007880932E+01  0.42136697109E+02  0.98262937598E+01  0.43400721791E+02  0.00000000000E+00 0.  1.
         11    1    3    3    0    0  0.49809146964E+01 -0.30113072770E+02 -0.13609474432E+01  0.30552558666E+02  0.51100000000E-03 0. -1.
        -11    1    3    3    0    0 -0.25036485680E+01 -0.53827994554E+01 -0.86923491079E+01  0.10526144565E+02  0.51100000000E-03 0.  1.
        -12    1    3    3    0    0  0.92352196481E+00 -0.66408248843E+01  0.22700279129E+00  0.67085749776E+01  0.00000000000E+00 0.  1.
</event>
<event>
 7    1  0.2530788E-009  0.4778725E+02  0.7816164E-02  0.1312668E+00
        -11   -1    0    0    0    0  0.00000000000E+00  0.00000000000E+00  0.45593999997E+02  0.45594000000E+02  0.51100000000E-03 0.  1.
         11   -1    0    0    0    0 -0.00000000000E+00 -0.00000000000E+00 -0.45593999997E+02  0.45594000000E+02  0.51100000000E-03 0. -1.
    9900012    2    1    2    0    0  0.11781780228E+01 -0.28315491110E+02 -0.32870501853E+02  0.47787250786E+02  0.19999907632E+02 0.  0.
        -12    1    1    2    0    0 -0.11781780228E+01  0.28315491110E+02  0.32870501853E+02  0.43400749214E+02  0.00000000000E+00 0.  1.
         11    1    3    3    0    0  0.31380278082E+01 -0.19755267660E+02 -0.20153448808E+02  0.28395057985E+02  0.51100000000E-03 0. -1.
        -11    1    3    3    0    0 -0.57736411961E+01 -0.38439423085E+01 -0.22450254204E+01  0.72904708032E+01  0.51100000000E-03 0.  1.
        -12    1    3    3    0    0  0.38137914108E+01 -0.47162811416E+01 -0.10472027625E+02  0.12101721998E+02  0.00000000000E+00 0.  1.
</event>
<event>
 7    1  0.2530788E-009  0.4778727E+02  0.7816164E-02  0.1312668E+00
        -11   -1    0    0    0    0  0.00000000000E+00  0.00000000000E+00  0.45593999997E+02  0.45594000000E+02  0.51100000000E-03 0.  1.
         11   -1    0    0    0    0 -0.00000000000E+00 -0.00000000000E+00 -0.45593999997E+02  0.45594000000E+02  0.51100000000E-03 0. -1.
    9900012    2    1    2    0    0 -0.10990914295E+02  0.33869438827E+02 -0.24812980748E+02  0.47787273081E+02  0.20000009285E+02 0.  0.
        -12    1    1    2    0    0  0.10990914295E+02 -0.33869438827E+02  0.24812980748E+02  0.43400726919E+02  0.00000000000E+00 0.  1.
         11    1    3    3    0    0 -0.72729014124E+01  0.60950270890E+01 -0.14386712479E+02  0.17234324657E+02  0.51100000000E-03 0. -1.
        -11    1    3    3    0    0 -0.17982088102E+01  0.20235021065E+02 -0.45890686529E+01  0.20826646005E+02  0.51100000000E-03 0.  1.
        -12    1    3    3    0    0 -0.19198040723E+01  0.75393906727E+01 -0.58371996162E+01  0.97263024193E+01  0.00000000000E+00 0.  1.
</event>
<event>
 7    1  0.2530788E-009  0.4778727E+02  0.7816164E-02  0.1312668E+00
        -11   -1    0    0    0    0  0.00000000000E+00  0.00000000000E+00  0.45593999997E+02  0.45594000000E+02  0.51100000000E-03 0.  1.
         11   -1    0    0    0    0 -0.00000000000E+00 -0.00000000000E+00 -0.45593999997E+02  0.45594000000E+02  0.51100000000E-03 0. -1.
    9900012    2    1    2    0    0 -0.10315594164E+02 -0.25352130930E+02 -0.33682059403E+02  0.47787272457E+02  0.20000006439E+02 0.  0.
        -12    1    1    2    0    0  0.10315594164E+02  0.25352130930E+02  0.33682059403E+02  0.43400727543E+02  0.00000000000E+00 0.  1.
         11    1    3    3    0    0 -0.29628547927E+01  0.21323666250E+01 -0.12052419343E+01  0.38442300045E+01  0.51100000000E-03 0. -1.
        -11    1    3    3    0    0  0.65948981981E+00 -0.33887414090E+01 -0.11974641281E+01  0.36540957512E+01  0.51100000000E-03 0.  1.
         12    1    3    3    0    0 -0.80122291909E+01 -0.24095756146E+02 -0.31279353341E+02  0.40288946701E+02  0.00000000000E+00 0. -1.
</event>
<event>
 7    1  0.2530788E-009  0.4778727E+02  0.7816164E-02  0.1312668E+00
        -11   -1    0    0    0    0  0.00000000000E+00  0.00000000000E+00  0.45593999997E+02  0.45594000000E+02  0.51100000000E-03 0.  1.
         11   -1    0    0    0    0 -0.00000000000E+00 -0.00000000000E+00 -0.45593999997E+02  0.45594000000E+02  0.51100000000E-03 0. -1.
    9900012    2    1    2    0    0  0.34558387754E+02 -0.98771159292E+01 -0.24326599745E+02  0.47787273757E+02  0.20000012370E+02 0.  0.
        -12    1    1    2    0    0 -0.34558387754E+02  0.98771159292E+01  0.24326599745E+02  0.43400726243E+02  0.00000000000E+00 0.  1.
         11    1    3    3    0    0  0.21101803342E+02  0.94090538896E+00 -0.10556264580E+02  0.23613685214E+02  0.51100000000E-03 0. -1.
        -11    1    3    3    0    0  0.85374079183E+01 -0.10807361118E+02 -0.13439400655E+02  0.19243281387E+02  0.51100000000E-03 0.  1.
         12    1    3    3    0    0  0.49191764935E+01 -0.10660200280E-01 -0.33093451037E+00  0.49303071572E+01  0.00000000000E+00 0. -1.
</event>
<event>
 7    1  0.2530788E-009  0.4778727E+02  0.7816164E-02  0.1312668E+00
        -11   -1    0    0    0    0  0.00000000000E+00  0.00000000000E+00  0.45593999997E+02  0.45594000000E+02  0.51100000000E-03 0. -1.
         11   -1    0    0    0    0 -0.00000000000E+00 -0.00000000000E+00 -0.45593999997E+02  0.45594000000E+02  0.51100000000E-03 0.  1.
    9900012    2    1    2    0    0  0.28300251104E+02 -0.31865893479E+02  0.82026701759E+01  0.47787272151E+02  0.20000005047E+02 0.  0.
        -12    1    1    2    0    0 -0.28300251104E+02  0.31865893479E+02 -0.82026701759E+01  0.43400727849E+02  0.00000000000E+00 0.  1.
         11    1    3    3    0    0  0.58484620647E+01 -0.35017523417E+01  0.77373505554E+01  0.10311807400E+02  0.51100000000E-03 0. -1.
        -11    1    3    3    0    0  0.10577229177E+02 -0.20596361322E+02 -0.12228182745E+01  0.23185839678E+02  0.51100000000E-03 0.  1.
        -12    1    3    3    0    0  0.11874559862E+02 -0.77677798153E+01  0.16881378950E+01  0.14289625073E+02  0.00000000000E+00 0.  1.
</event>
<event>
 7    1  0.2530788E-009  0.4778727E+02  0.7816164E-02  0.1312668E+00
        -11   -1    0    0    0    0  0.00000000000E+00  0.00000000000E+00  0.45593999997E+02  0.45594000000E+02  0.51100000000E-03 0. -1.
         11   -1    0    0    0    0 -0.00000000000E+00 -0.00000000000E+00 -0.45593999997E+02  0.45594000000E+02  0.51100000000E-03 0.  1.
    9900012    2    1    2    0    0 -0.33276319266E+02  0.15304234409E+02  0.23282836558E+02  0.47787268520E+02  0.19999988491E+02 0.  0.
        -12    1    1    2    0    0  0.33276319266E+02 -0.15304234409E+02 -0.23282836558E+02  0.43400731480E+02  0.00000000000E+00 0.  1.
         11    1    3    3    0    0 -0.22703837776E+02  0.88767975663E+01  0.57316617861E+01  0.25042238955E+02  0.51100000000E-03 0. -1.
        -11    1    3    3    0    0 -0.57757651640E+01  0.34170742439E+01  0.15195694140E+02  0.16611591744E+02  0.51100000000E-03 0.  1.
        -12    1    3    3    0    0 -0.47967163265E+01  0.30103625991E+01  0.23554806319E+01  0.61334378208E+01  0.00000000000E+00 0.  1.
</event>
<event>
 7    1  0.2530788E-009  0.4778727E+02  0.7816164E-02  0.1312668E+00
        -11   -1    0    0    0    0  0.00000000000E+00  0.00000000000E+00  0.45593999997E+02  0.45594000000E+02  0.51100000000E-03 0.  1.
         11   -1    0    0    0    0 -0.00000000000E+00 -0.00000000000E+00 -0.45593999997E+02  0.45594000000E+02  0.51100000000E-03 0. -1.
    9900012    2    1    2    0    0 -0.42706830991E+02 -0.49534175965E+01 -0.59340842339E+01  0.47787272876E+02  0.20000008352E+02 0.  0.
        -12    1    1    2    0    0  0.42706830991E+02  0.49534175965E+01  0.59340842339E+01  0.43400727124E+02  0.00000000000E+00 0.  1.
         11    1    3    3    0    0 -0.12682130775E+02  0.58244059133E+01 -0.56849916626E+01  0.15069149800E+02  0.51100000000E-03 0. -1.
        -11    1    3    3    0    0 -0.19371598643E+02 -0.76239399149E+01  0.32499125000E+01  0.21070007721E+02  0.51100000000E-03 0.  1.
         12    1    3    3    0    0 -0.10653101573E+02 -0.31538835948E+01 -0.34990050714E+01  0.11648115356E+02  0.00000000000E+00 0. -1.
</event>
<event>
 7    1  0.2530788E-009  0.4778727E+02  0.7816164E-02  0.1312668E+00
        -11   -1    0    0    0    0  0.00000000000E+00  0.00000000000E+00  0.45593999997E+02  0.45594000000E+02  0.51100000000E-03 0.  1.
         11   -1    0    0    0    0 -0.00000000000E+00 -0.00000000000E+00 -0.45593999997E+02  0.45594000000E+02  0.51100000000E-03 0. -1.
    9900012    2    1    2    0    0 -0.24563715832E+02  0.28434402504E+02 -0.21719393712E+02  0.47787269080E+02  0.19999991043E+02 0.  0.
        -12    1    1    2    0    0  0.24563715832E+02 -0.28434402504E+02  0.21719393712E+02  0.43400730920E+02  0.00000000000E+00 0.  1.
         11    1    3    3    0    0 -0.48725489927E+01  0.25883095399E+01 -0.66938112661E+01  0.86745714296E+01  0.51100000000E-03 0. -1.
        -11    1    3    3    0    0 -0.13830040542E+02  0.22217475386E+02 -0.45356398617E+01  0.26560464287E+02  0.51100000000E-03 0.  1.
        -12    1    3    3    0    0 -0.58611262964E+01  0.36286175779E+01 -0.10489942584E+02  0.12552233363E+02  0.00000000000E+00 0.  1.
</event>
<event>
 7    1  0.2530788E-009  0.4778726E+02  0.7816164E-02  0.1312668E+00
        -11   -1    0    0    0    0  0.00000000000E+00  0.00000000000E+00  0.45593999997E+02  0.45594000000E+02  0.51100000000E-03 0.  1.
         11   -1    0    0    0    0 -0.00000000000E+00 -0.00000000000E+00 -0.45593999997E+02  0.45594000000E+02  0.51100000000E-03 0. -1.
    9900012    2    1    2    0    0 -0.20475454755E+02  0.27125029627E+02 -0.26992819881E+02  0.47787264928E+02  0.19999972112E+02 0.  0.
        -12    1    1    2    0    0  0.20475454755E+02 -0.27125029627E+02  0.26992819881E+02  0.43400735072E+02  0.00000000000E+00 0.  1.
         11    1    3    3    0    0 -0.21916754306E+02  0.24911037428E+02 -0.21765034241E+02  0.39681489650E+02  0.51100000000E-03 0. -1.
        -11    1    3    3    0    0  0.26684664784E+01  0.13690251024E+01 -0.36671441867E+00  0.30214934723E+01  0.51100000000E-03 0.  1.
         12    1    3    3    0    0 -0.12271669275E+01  0.84496709619E+00 -0.48610712215E+01  0.50842818060E+01  0.00000000000E+00 0. -1.
</event>
<event>
 7    1  0.2530788E-009  0.4778727E+02  0.7816164E-02  0.1312668E+00
        -11   -1    0    0    0    0  0.00000000000E+00  0.00000000000E+00  0.45593999997E+02  0.45594000000E+02  0.51100000000E-03 0.  1.
         11   -1    0    0    0    0 -0.00000000000E+00 -0.00000000000E+00 -0.45593999997E+02  0.45594000000E+02  0.51100000000E-03 0. -1.
    9900012    2    1    2    0    0  0.13393246074E+02  0.66902844967E+01 -0.40736769662E+02  0.47787270172E+02  0.19999996024E+02 0.  0.
        -12    1    1    2    0    0 -0.13393246074E+02 -0.66902844967E+01  0.40736769662E+02  0.43400729828E+02  0.00000000000E+00 0.  1.
         11    1    3    3    0    0  0.14465192644E+02  0.62233245933E+01 -0.38655616412E+02  0.41740007759E+02  0.51100000000E-03 0. -1.
        -11    1    3    3    0    0 -0.33094650882E+01  0.80674654499E+00 -0.14100625826E+01  0.36866890167E+01  0.51100000000E-03 0.  1.
         12    1    3    3    0    0  0.22375185178E+01 -0.33978664166E+00 -0.67109066775E+00  0.23605733972E+01  0.00000000000E+00 0. -1.
</event>
<event>
 7    1  0.2530788E-009  0.4778726E+02  0.7816164E-02  0.1312668E+00
        -11   -1    0    0    0    0  0.00000000000E+00  0.00000000000E+00  0.45593999997E+02  0.45594000000E+02  0.51100000000E-03 0. -1.
         11   -1    0    0    0    0 -0.00000000000E+00 -0.00000000000E+00 -0.45593999997E+02  0.45594000000E+02  0.51100000000E-03 0.  1.
    9900012    2    1    2    0    0 -0.25701071160E+02 -0.34947972022E+02  0.13107660351E+01  0.47787263661E+02  0.19999966334E+02 0.  0.
        -12    1    1    2    0    0  0.25701071160E+02  0.34947972022E+02 -0.13107660351E+01  0.43400736339E+02  0.00000000000E+00 0.  1.
         11    1    3    3    0    0 -0.86963605012E+01 -0.31168542284E+01 -0.27182354244E+01  0.96296557743E+01  0.51100000000E-03 0. -1.
        -11    1    3    3    0    0 -0.20974094198E+01 -0.53126426133E+01 -0.36547725726E+01  0.67809041159E+01  0.51100000000E-03 0.  1.
        -12    1    3    3    0    0 -0.14907301239E+02 -0.26518475180E+02  0.76837740321E+01  0.31376703770E+02  0.00000000000E+00 0.  1.
</event>
<event>
 7    1  0.2530788E-009  0.4778727E+02  0.7816164E-02  0.1312668E+00
        -11   -1    0    0    0    0  0.00000000000E+00  0.00000000000E+00  0.45593999997E+02  0.45594000000E+02  0.51100000000E-03 0.  1.
         11   -1    0    0    0    0 -0.00000000000E+00 -0.00000000000E+00 -0.45593999997E+02  0.45594000000E+02  0.51100000000E-03 0. -1.
    9900012    2    1    2    0    0 -0.39815178966E+02  0.17214157639E+02 -0.14308892055E+01  0.47787272549E+02  0.20000006862E+02 0.  0.
        -12    1    1    2    0    0  0.39815178966E+02 -0.17214157639E+02  0.14308892055E+01  0.43400727451E+02  0.00000000000E+00 0.  1.
         11    1    3    3    0    0 -0.18351855311E+02 -0.11234855967E+01 -0.38323400846E+01  0.18781364275E+02  0.51100000000E-03 0. -1.
        -11    1    3    3    0    0 -0.17012096109E+02  0.15849875151E+02  0.41425692953E+01  0.23617595918E+02  0.51100000000E-03 0.  1.
        -12    1    3    3    0    0 -0.44512275461E+01  0.24877680847E+01 -0.17411184162E+01  0.53883123564E+01  0.00000000000E+00 0.  1.
</event>
<event>
 7    1  0.2530788E-009  0.4778727E+02  0.7816164E-02  0.1312668E+00
        -11   -1    0    0    0    0  0.00000000000E+00  0.00000000000E+00  0.45593999997E+02  0.45594000000E+02  0.51100000000E-03 0.  1.
         11   -1    0    0    0    0 -0.00000000000E+00 -0.00000000000E+00 -0.45593999997E+02  0.45594000000E+02  0.51100000000E-03 0. -1.
    9900012    2    1    2    0    0  0.12331576051E+01  0.38381186591E+02 -0.20223427897E+02  0.47787271922E+02  0.20000004000E+02 0.  0.
        -12    1    1    2    0    0 -0.12331576051E+01 -0.38381186591E+02  0.20223427897E+02  0.43400728078E+02  0.00000000000E+00 0.  1.
         11    1    3    3    0    0  0.29785799201E+01  0.15952351997E+02 -0.14745565735E+02  0.21926723004E+02  0.51100000000E-03 0. -1.
        -11    1    3    3    0    0 -0.48383086127E+01  0.21142616977E+02 -0.34977368854E+01  0.21969379747E+02  0.51100000000E-03 0.  1.
        -12    1    3    3    0    0  0.30928862978E+01  0.12862176166E+01 -0.19801252770E+01  0.38911691715E+01  0.00000000000E+00 0.  1.
</event>
<event>
 7    1  0.2530788E-009  0.4778727E+02  0.7816164E-02  0.1312668E+00
        -11   -1    0    0    0    0  0.00000000000E+00  0.00000000000E+00  0.45593999997E+02  0.45594000000E+02  0.51100000000E-03 0. -1.
         11   -1    0    0    0    0 -0.00000000000E+00 -0.00000000000E+00 -0.45593999997E+02  0.45594000000E+02  0.51100000000E-03 0.  1.
    9900012    2    1    2    0    0  0.18054501752E+02  0.37806218439E+02  0.11329095393E+02  0.47787267419E+02  0.19999983471E+02 0.  0.
        -12    1    1    2    0    0 -0.18054501752E+02 -0.37806218439E+02 -0.11329095393E+02  0.43400732581E+02  0.00000000000E+00 0.  1.
         11    1    3    3    0    0  0.21636946701E+02  0.35352533831E+02  0.11188364439E+02  0.42931790202E+02  0.51100000000E-03 0. -1.
        -11    1    3    3    0    0 -0.15964318650E+01  0.81134800055E+00 -0.98434659708E+00  0.20434820190E+01  0.51100000000E-03 0.  1.
         12    1    3    3    0    0 -0.19860130842E+01  0.16423366069E+01  0.11250775505E+01  0.28119951984E+01  0.00000000000E+00 0. -1.
</event>
<event>
 7    1  0.2530788E-009  0.4778727E+02  0.7816164E-02  0.1312668E+00
        -11   -1    0    0    0    0  0.00000000000E+00  0.00000000000E+00  0.45593999997E+02  0.45594000000E+02  0.51100000000E-03 0.  1.
         11   -1    0    0    0    0 -0.00000000000E+00 -0.00000000000E+00 -0.45593999997E+02  0.45594000000E+02  0.51100000000E-03 0. -1.
    9900012    2    1    2    0    0  0.20185010700E+02  0.38344691646E+02 -0.24234320748E+01  0.47787273538E+02  0.20000011370E+02 0.  0.
        -12    1    1    2    0    0 -0.20185010700E+02 -0.38344691646E+02  0.24234320748E+01  0.43400726462E+02  0.00000000000E+00 0.  1.
         11    1    3    3    0    0  0.10514770269E+02  0.10752927558E+02  0.40481325809E+01  0.15574762359E+02  0.51100000000E-03 0. -1.
        -11    1    3    3    0    0 -0.25699778474E+01  0.38718931155E+01 -0.23390538393E+01  0.52026450541E+01  0.51100000000E-03 0.  1.
         12    1    3    3    0    0  0.12240218278E+02  0.23719870973E+02 -0.41325108163E+01  0.27009866125E+02  0.00000000000E+00 0. -1.
</event>
<event>
 7    1  0.2530788E-009  0.4778727E+02  0.7816164E-02  0.1312668E+00
        -11   -1    0    0    0    0  0.00000000000E+00  0.00000000000E+00  0.45593999997E+02  0.45594000000E+02  0.51100000000E-03 0. -1.
         11   -1    0    0    0    0 -0.00000000000E+00 -0.00000000000E+00 -0.45593999997E+02  0.45594000000E+02  0.51100000000E-03 0.  1.
    9900012    2    1    2    0    0  0.32301846294E+02  0.27711357846E+02 -0.85026403981E+01  0.47787268192E+02  0.19999986996E+02 0.  0.
        -12    1    1    2    0    0 -0.32301846294E+02 -0.27711357846E+02  0.85026403981E+01  0.43400731808E+02  0.00000000000E+00 0.  1.
         11    1    3    3    0    0  0.47512258080E+00  0.42879988461E+01  0.49003367747E+00  0.43419821323E+01  0.51100000000E-03 0. -1.
        -11    1    3    3    0    0  0.25778452455E+02  0.11508887993E+02 -0.10227967286E+02  0.30026562056E+02  0.51100000000E-03 0.  1.
        -12    1    3    3    0    0  0.60482712581E+01  0.11914471007E+02  0.12352932102E+01  0.13418724004E+02  0.00000000000E+00 0.  1.
</event>
<event>
 7    1  0.2530788E-009  0.4778726E+02  0.7816164E-02  0.1312668E+00
        -11   -1    0    0    0    0  0.00000000000E+00  0.00000000000E+00  0.45593999997E+02  0.45594000000E+02  0.51100000000E-03 0.  1.
         11   -1    0    0    0    0 -0.00000000000E+00 -0.00000000000E+00 -0.45593999997E+02  0.45594000000E+02  0.51100000000E-03 0. -1.
    9900012    2    1    2    0    0  0.18083767644E+02 -0.31025598986E+02 -0.24372390721E+02  0.47787264129E+02  0.19999968472E+02 0.  0.
        -12    1    1    2    0    0 -0.18083767644E+02  0.31025598986E+02  0.24372390721E+02  0.43400735871E+02  0.00000000000E+00 0.  1.
         11    1    3    3    0    0  0.32949341584E+01 -0.11630661615E+02  0.82909942795E+00  0.12116777081E+02  0.51100000000E-03 0. -1.
        -11    1    3    3    0    0  0.11673999393E+02 -0.17916592646E+02 -0.23665996619E+02  0.31896174537E+02  0.51100000000E-03 0.  1.
         12    1    3    3    0    0  0.31148340927E+01 -0.14783447256E+01 -0.15354935296E+01  0.37743125112E+01  0.00000000000E+00 0. -1.
</event>
<event>
 7    1  0.2530788E-009  0.4778727E+02  0.7816164E-02  0.1312668E+00
        -11   -1    0    0    0    0  0.00000000000E+00  0.00000000000E+00  0.45593999997E+02  0.45594000000E+02  0.51100000000E-03 0.  1.
         11   -1    0    0    0    0 -0.00000000000E+00 -0.00000000000E+00 -0.45593999997E+02  0.45594000000E+02  0.51100000000E-03 0. -1.
    9900012    2    1    2    0    0  0.28943682610E+02  0.39260463692E+01 -0.32100979308E+02  0.47787268719E+02  0.19999989399E+02 0.  0.
        -12    1    1    2    0    0 -0.28943682610E+02 -0.39260463692E+01  0.32100979308E+02  0.43400731281E+02  0.00000000000E+00 0.  1.
         11    1    3    3    0    0  0.10616038288E+02  0.92028836627E+00 -0.15031580028E+02  0.18425406319E+02  0.51100000000E-03 0.  1.
        -11    1    3    3    0    0  0.17905832383E+02 -0.18860178642E+00 -0.77697092460E+01  0.19519804968E+02  0.51100000000E-03 0. -1.
        -12    1    3    3    0    0  0.42181193938E+00  0.31943597894E+01 -0.92996900343E+01  0.98420574327E+01  0.00000000000E+00 0.  1.
</event>
<event>
 7    1  0.2530788E-009  0.4778727E+02  0.7816164E-02  0.1312668E+00
        -11   -1    0    0    0    0  0.00000000000E+00  0.00000000000E+00  0.45593999997E+02  0.45594000000E+02  0.51100000000E-03 0.  1.
         11   -1    0    0    0    0 -0.00000000000E+00 -0.00000000000E+00 -0.45593999997E+02  0.45594000000E+02  0.51100000000E-03 0. -1.
    9900012    2    1    2    0    0  0.14731190350E+01 -0.21145214888E+02 -0.37872590281E+02  0.47787270893E+02  0.19999999311E+02 0.  0.
        -12    1    1    2    0    0 -0.14731190350E+01  0.21145214888E+02  0.37872590281E+02  0.43400729107E+02  0.00000000000E+00 0.  1.
         11    1    3    3    0    0  0.16332183820E+01 -0.16956772201E+02 -0.31172265435E+02  0.35523367779E+02  0.51100000000E-03 0. -1.
        -11    1    3    3    0    0  0.24094332887E+01 -0.62567048987E+01 -0.57463921876E+01  0.88302179133E+01  0.51100000000E-03 0.  1.
         12    1    3    3    0    0 -0.25695326357E+01  0.20682622118E+01 -0.95393265926E+00  0.34336852012E+01  0.00000000000E+00 0. -1.
</event>
<event>
 7    1 -0.2530788E-009  0.4778727E+02  0.7816164E-02  0.1312668E+00
        -11   -1    0    0    0    0  0.00000000000E+00  0.00000000000E+00  0.45593999997E+02  0.45594000000E+02  0.51100000000E-03 0.  1.
         11   -1    0    0    0    0 -0.00000000000E+00 -0.00000000000E+00 -0.45593999997E+02  0.45594000000E+02  0.51100000000E-03 0. -1.
    9900012    2    1    2    0    0 -0.41188596079E+02 -0.79801868104E+01 -0.11110339901E+02  0.47787268656E+02  0.19999989109E+02 0.  0.
        -12    1    1    2    0    0  0.41188596079E+02  0.79801868104E+01  0.11110339901E+02  0.43400731344E+02  0.00000000000E+00 0.  1.
         11    1    3    3    0    0 -0.33229804646E+02 -0.24995613164E+01 -0.66873964424E+01  0.33988071363E+02  0.51100000000E-03 0. -1.
        -11    1    3    3    0    0 -0.28155815145E+01  0.17917818826E+00  0.22819123077E+01  0.36285986453E+01  0.51100000000E-03 0.  1.
         12    1    3    3    0    0 -0.51432099191E+01 -0.56598036822E+01 -0.67048557662E+01  0.10170598647E+02  0.00000000000E+00 0. -1.
</event>
<event>
 7    1  0.2530788E-009  0.4778727E+02  0.7816164E-02  0.1312668E+00
        -11   -1    0    0    0    0  0.00000000000E+00  0.00000000000E+00  0.45593999997E+02  0.45594000000E+02  0.51100000000E-03 0. -1.
         11   -1    0    0    0    0 -0.00000000000E+00 -0.00000000000E+00 -0.45593999997E+02  0.45594000000E+02  0.51100000000E-03 0.  1.
    9900012    2    1    2    0    0 -0.19302608732E+02 -0.37892778182E+02  0.86700646006E+01  0.47787270025E+02  0.19999995352E+02 0.  0.
        -12    1    1    2    0    0  0.19302608732E+02  0.37892778182E+02 -0.86700646006E+01  0.43400729975E+02  0.00000000000E+00 0.  1.
         11    1    3    3    0    0 -0.51469894172E+01 -0.70595287715E+01  0.76363923311E+01  0.11603574218E+02  0.51100000000E-03 0. -1.
        -11    1    3    3    0    0 -0.11590569337E+02 -0.30642421022E+02 -0.11910916091E+01  0.32782891318E+02  0.51100000000E-03 0.  1.
        -12    1    3    3    0    0 -0.25650499773E+01 -0.19082838813E+00  0.22247638786E+01  0.34008044894E+01  0.00000000000E+00 0.  1.
</event>
<event>
 7    1  0.2530788E-009  0.4778727E+02  0.7816164E-02  0.1312668E+00
        -11   -1    0    0    0    0  0.00000000000E+00  0.00000000000E+00  0.45593999997E+02  0.45594000000E+02  0.51100000000E-03 0.  1.
         11   -1    0    0    0    0 -0.00000000000E+00 -0.00000000000E+00 -0.45593999997E+02  0.45594000000E+02  0.51100000000E-03 0. -1.
    9900012    2    1    2    0    0  0.23580777747E+02  0.19310963108E+02 -0.30897527657E+02  0.47787267395E+02  0.19999983363E+02 0.  0.
        -12    1    1    2    0    0 -0.23580777747E+02 -0.19310963108E+02  0.30897527657E+02  0.43400732605E+02  0.00000000000E+00 0.  1.
         11    1    3    3    0    0  0.16549264432E+02  0.16408216469E+02 -0.25140316840E+02  0.34280362483E+02  0.51100000000E-03 0. -1.
        -11    1    3    3    0    0  0.27869185287E+01 -0.34153878527E+01 -0.33070057052E+01  0.55107237333E+01  0.51100000000E-03 0.  1.
        -12    1    3    3    0    0  0.42445947858E+01  0.63181344918E+01 -0.24502051122E+01  0.79961811788E+01  0.00000000000E+00 0.  1.
</event>
<event>
 7    1  0.2530788E-009  0.4778727E+02  0.7816164E-02  0.1312668E+00
        -11   -1    0    0    0    0  0.00000000000E+00  0.00000000000E+00  0.45593999997E+02  0.45594000000E+02  0.51100000000E-03 0.  1.
         11   -1    0    0    0    0 -0.00000000000E+00 -0.00000000000E+00 -0.45593999997E+02  0.45594000000E+02  0.51100000000E-03 0. -1.
    9900012    2    1    2    0    0 -0.52384960044E+01  0.10935669216E+02 -0.41672445645E+02  0.47787269274E+02  0.19999991926E+02 0.  0.
        -12    1    1    2    0    0  0.52384960044E+01 -0.10935669216E+02  0.41672445645E+02  0.43400730726E+02  0.00000000000E+00 0.  1.
         11    1    3    3    0    0  0.40677230545E+01  0.28131125998E+01 -0.21919549588E+02  0.22470572484E+02  0.51100000000E-03 0. -1.
        -11    1    3    3    0    0 -0.11425503377E+02  0.73141033980E+01 -0.17023429036E+02  0.21767759929E+02  0.51100000000E-03 0.  1.
         12    1    3    3    0    0  0.21192843177E+01  0.80845321800E+00 -0.27294670207E+01  0.35489368608E+01  0.00000000000E+00 0. -1.
</event>
<event>
 7    1  0.2530788E-009  0.4778727E+02  0.7816164E-02  0.1312668E+00
        -11   -1    0    0    0    0  0.00000000000E+00  0.00000000000E+00  0.45593999997E+02  0.45594000000E+02  0.51100000000E-03 0. -1.
         11   -1    0    0    0    0 -0.00000000000E+00 -0.00000000000E+00 -0.45593999997E+02  0.45594000000E+02  0.51100000000E-03 0.  1.
    9900012    2    1    2    0    0  0.29011757600E+02  0.19756044746E+02  0.25527247271E+02  0.47787265717E+02  0.19999975712E+02 0.  0.
        -12    1    1    2    0    0 -0.29011757600E+02 -0.19756044746E+02 -0.25527247271E+02  0.43400734283E+02  0.00000000000E+00 0.  1.
         11    1    3    3    0    0  0.15600845290E+02  0.99608001998E+01  0.19765565309E+02  0.27079170715E+02  0.51100000000E-03 0. -1.
        -11    1    3    3    0    0  0.20625059513E+01  0.11250224343E+01 -0.31083195595E+01  0.38963132602E+01  0.51100000000E-03 0.  1.
        -12    1    3    3    0    0  0.11348406359E+02  0.86702221118E+01  0.88700015213E+01  0.16811781742E+02  0.00000000000E+00 0.  1.
</event>
<event>
 7    1  0.2530788E-009  0.4778727E+02  0.7816164E-02  0.1312668E+00
        -11   -1    0    0    0    0  0.00000000000E+00  0.00000000000E+00  0.45593999997E+02  0.45594000000E+02  0.51100000000E-03 0.  1.
         11   -1    0    0    0    0 -0.00000000000E+00 -0.00000000000E+00 -0.45593999997E+02  0.45594000000E+02  0.51100000000E-03 0. -1.
    9900012    2    1    2    0    0 -0.27670417640E+02  0.32780172705E+02 -0.65902840263E+01  0.47787267535E+02  0.19999984001E+02 0.  0.
        -12    1    1    2    0    0  0.27670417640E+02 -0.32780172705E+02  0.65902840263E+01  0.43400732465E+02  0.00000000000E+00 0.  1.
         11    1    3    3    0    0 -0.29803252676E+01  0.12167411589E+02  0.18773913117E+01  0.12666998140E+02  0.51100000000E-03 0.  1.
        -11    1    3    3    0    0 -0.25310384646E+02  0.20491661882E+02 -0.67064254923E+01  0.33249058945E+02  0.51100000000E-03 0. -1.
         12    1    3    3    0    0  0.62029227361E+00  0.12109923384E+00 -0.17612498457E+01  0.18712104500E+01  0.00000000000E+00 0. -1.
</event>
<event>
 7    1  0.2530788E-009  0.4778727E+02  0.7816164E-02  0.1312668E+00
        -11   -1    0    0    0    0  0.00000000000E+00  0.00000000000E+00  0.45593999997E+02  0.45594000000E+02  0.51100000000E-03 0.  1.
         11   -1    0    0    0    0 -0.00000000000E+00 -0.00000000000E+00 -0.45593999997E+02  0.45594000000E+02  0.51100000000E-03 0. -1.
    9900012    2    1    2    0    0 -0.13714410679E+02  0.21257858959E+02 -0.35265306791E+02  0.47787268544E+02  0.19999988601E+02 0.  0.
        -12    1    1    2    0    0  0.13714410679E+02 -0.21257858959E+02  0.35265306791E+02  0.43400731456E+02  0.00000000000E+00 0.  1.
         11    1    3    3    0    0 -0.68135951677E+01  0.16289149708E+02 -0.23277883980E+02  0.29216799280E+02  0.51100000000E-03 0. -1.
        -11    1    3    3    0    0 -0.61120600515E+01  0.39942643665E+01 -0.83642462543E+00  0.73492198442E+01  0.51100000000E-03 0.  1.
        -12    1    3    3    0    0 -0.78875546008E+00  0.97444488474E+00 -0.11150998186E+02  0.11221249420E+02  0.00000000000E+00 0.  1.
</event>
<event>
 7    1  0.2530788E-009  0.4778727E+02  0.7816164E-02  0.1312668E+00
        -11   -1    0    0    0    0  0.00000000000E+00  0.00000000000E+00  0.45593999997E+02  0.45594000000E+02  0.51100000000E-03 0.  1.
         11   -1    0    0    0    0 -0.00000000000E+00 -0.00000000000E+00 -0.45593999997E+02  0.45594000000E+02  0.51100000000E-03 0. -1.
    9900012    2    1    2    0    0 -0.24208927916E+02  0.29623639102E+02 -0.20493689578E+02  0.47787268473E+02  0.19999988278E+02 0.  0.
        -12    1    1    2    0    0  0.24208927916E+02 -0.29623639102E+02  0.20493689578E+02  0.43400731527E+02  0.00000000000E+00 0.  1.
         11    1    3    3    0    0  0.31381814839E+01  0.29251263207E+01 -0.47425272586E+01  0.63950068082E+01  0.51100000000E-03 0. -1.
        -11    1    3    3    0    0 -0.11234100344E+02  0.98020694896E+01 -0.54690608145E+01  0.15880686486E+02  0.51100000000E-03 0.  1.
         12    1    3    3    0    0 -0.16113009056E+02  0.16896443292E+02 -0.10282101505E+02  0.25511575179E+02  0.00000000000E+00 0. -1.
</event>
<event>
 7    1  0.2530788E-009  0.4778727E+02  0.7816164E-02  0.1312668E+00
        -11   -1    0    0    0    0  0.00000000000E+00  0.00000000000E+00  0.45593999997E+02  0.45594000000E+02  0.51100000000E-03 0.  1.
         11   -1    0    0    0    0 -0.00000000000E+00 -0.00000000000E+00 -0.45593999997E+02  0.45594000000E+02  0.51100000000E-03 0. -1.
    9900012    2    1    2    0    0  0.27652399001E+02  0.95481655659E+01 -0.32059326799E+02  0.47787273381E+02  0.20000010655E+02 0.  0.
        -12    1    1    2    0    0 -0.27652399001E+02 -0.95481655659E+01  0.32059326799E+02  0.43400726619E+02  0.00000000000E+00 0.  1.
         11    1    3    3    0    0  0.13941611347E+02  0.72544785196E+01 -0.27301500248E+02  0.31501871398E+02  0.51100000000E-03 0. -1.
        -11    1    3    3    0    0  0.14488882322E+02  0.22595399675E+01 -0.40024608099E+01  0.15200425146E+02  0.51100000000E-03 0.  1.
         12    1    3    3    0    0 -0.77809466753E+00  0.34147078799E-01 -0.75536574170E+00  0.10849768377E+01  0.00000000000E+00 0. -1.
</event>
<event>
 7    1  0.2530788E-009  0.4778727E+02  0.7816164E-02  0.1312668E+00
        -11   -1    0    0    0    0  0.00000000000E+00  0.00000000000E+00  0.45593999997E+02  0.45594000000E+02  0.51100000000E-03 0.  1.
         11   -1    0    0    0    0 -0.00000000000E+00 -0.00000000000E+00 -0.45593999997E+02  0.45594000000E+02  0.51100000000E-03 0. -1.
    9900012    2    1    2    0    0 -0.18477816044E+02  0.76791326559E+00 -0.39263262674E+02  0.47787272214E+02  0.20000005333E+02 0.  0.
        -12    1    1    2    0    0  0.18477816044E+02 -0.76791326559E+00  0.39263262674E+02  0.43400727786E+02  0.00000000000E+00 0.  1.
         11    1    3    3    0    0 -0.12858672578E+02 -0.46149606815E+01 -0.12107904464E+02  0.18254990368E+02  0.51100000000E-03 0. -1.
        -11    1    3    3    0    0 -0.23473030629E+01  0.14022512799E+01 -0.22252106073E+02  0.22419463983E+02  0.51100000000E-03 0.  1.
         12    1    3    3    0    0 -0.32718404032E+01  0.39806226672E+01 -0.49032521363E+01  0.71128178632E+01  0.00000000000E+00 0. -1.
</event>
<event>
 7    1  0.2530788E-009  0.4778727E+02  0.7816164E-02  0.1312668E+00
        -11   -1    0    0    0    0  0.00000000000E+00  0.00000000000E+00  0.45593999997E+02  0.45594000000E+02  0.51100000000E-03 0.  1.
         11   -1    0    0    0    0 -0.00000000000E+00 -0.00000000000E+00 -0.45593999997E+02  0.45594000000E+02  0.51100000000E-03 0. -1.
    9900012    2    1    2    0    0 -0.34765742272E+01  0.42762591367E+02 -0.65495987032E+01  0.47787273832E+02  0.20000012709E+02 0.  0.
        -12    1    1    2    0    0  0.34765742272E+01 -0.42762591367E+02  0.65495987032E+01  0.43400726168E+02  0.00000000000E+00 0.  1.
         11    1    3    3    0    0 -0.28793695179E+01  0.71581583749E+01 -0.78287932609E+01  0.10991815333E+02  0.51100000000E-03 0. -1.
        -11    1    3    3    0    0 -0.38956053083E+00  0.34681380559E+02 -0.60304444361E+00  0.34688810555E+02  0.51100000000E-03 0.  1.
        -12    1    3    3    0    0 -0.20764417849E+00  0.92305243262E+00  0.18822390013E+01  0.21066479431E+01  0.00000000000E+00 0.  1.
</event>
<event>
 7    1  0.2530788E-009  0.4778727E+02  0.7816164E-02  0.1312668E+00
        -11   -1    0    0    0    0  0.00000000000E+00  0.00000000000E+00  0.45593999997E+02  0.45594000000E+02  0.51100000000E-03 0.  1.
         11   -1    0    0    0    0 -0.00000000000E+00 -0.00000000000E+00 -0.45593999997E+02  0.45594000000E+02  0.51100000000E-03 0. -1.
    9900012    2    1    2    0    0  0.87465304037E+01  0.34994031076E+02 -0.24135851758E+02  0.47787270224E+02  0.19999996258E+02 0.  0.
        -12    1    1    2    0    0 -0.87465304037E+01 -0.34994031076E+02  0.24135851758E+02  0.43400729776E+02  0.00000000000E+00 0.  1.
         11    1    3    3    0    0  0.81730278546E+01  0.74346708492E+01 -0.20503526859E+01  0.11237288879E+02  0.51100000000E-03 0. -1.
        -11    1    3    3    0    0  0.34372813298E+00  0.18350151684E+02 -0.19921544502E+02  0.27087158423E+02  0.51100000000E-03 0.  1.
         12    1    3    3    0    0  0.22977441609E+00  0.92092085427E+01 -0.21639545703E+01  0.94628229217E+01  0.00000000000E+00 0. -1.
</event>
<event>
 7    1  0.2530788E-009  0.4778725E+02  0.7816164E-02  0.1312668E+00
        -11   -1    0    0    0    0  0.00000000000E+00  0.00000000000E+00  0.45593999997E+02  0.45594000000E+02  0.51100000000E-03 0. -1.
         11   -1    0    0    0    0 -0.00000000000E+00 -0.00000000000E+00 -0.45593999997E+02  0.45594000000E+02  0.51100000000E-03 0.  1.
    9900012    2    1    2    0    0  0.80082835414E+01  0.34602607861E+02 -0.24942967359E+02  0.47787254652E+02  0.19999925262E+02 0.  0.
        -12    1    1    2    0    0 -0.80082835414E+01 -0.34602607861E+02  0.24942967359E+02  0.43400745348E+02  0.00000000000E+00 0.  1.
         11    1    3    3    0    0  0.93587755210E+01  0.28503483024E+02 -0.17899112069E+02  0.34934416223E+02  0.51100000000E-03 0. -1.
        -11    1    3    3    0    0  0.28041578792E+01  0.22853920858E+01  0.25794002072E+00  0.36266860511E+01  0.51100000000E-03 0.  1.
         12    1    3    3    0    0 -0.41546498588E+01  0.38137327515E+01 -0.73017953103E+01  0.92261523780E+01  0.00000000000E+00 0. -1.
</event>
<event>
 7    1  0.2530788E-009  0.4778727E+02  0.7816164E-02  0.1312668E+00
        -11   -1    0    0    0    0  0.00000000000E+00  0.00000000000E+00  0.45593999997E+02  0.45594000000E+02  0.51100000000E-03 0. -1.
         11   -1    0    0    0    0 -0.00000000000E+00 -0.00000000000E+00 -0.45593999997E+02  0.45594000000E+02  0.51100000000E-03 0.  1.
    9900012    2    1    2    0    0 -0.23838969798E+02  0.13216120586E+02  0.33773678972E+02  0.47787265954E+02  0.19999976793E+02 0.  0.
        -12    1    1    2    0    0  0.23838969798E+02 -0.13216120586E+02 -0.33773678972E+02  0.43400734046E+02  0.00000000000E+00 0.  1.
         11    1    3    3    0    0 -0.24019228129E+02  0.72517757796E+01  0.28395262419E+02  0.37891984640E+02  0.51100000000E-03 0. -1.
        -11    1    3    3    0    0 -0.11004170288E+01  0.64726717735E+01  0.31663541724E+01  0.72891835298E+01  0.51100000000E-03 0.  1.
         12    1    3    3    0    0  0.12806753603E+01 -0.50832696716E+00  0.22120623812E+01  0.26060977845E+01  0.00000000000E+00 0. -1.
</event>
<event>
 7    1  0.2530788E-009  0.4778727E+02  0.7816164E-02  0.1312668E+00
        -11   -1    0    0    0    0  0.00000000000E+00  0.00000000000E+00  0.45593999997E+02  0.45594000000E+02  0.51100000000E-03 0.  1.
         11   -1    0    0    0    0 -0.00000000000E+00 -0.00000000000E+00 -0.45593999997E+02  0.45594000000E+02  0.51100000000E-03 0. -1.
    9900012    2    1    2    0    0  0.31367155259E+02 -0.28724691862E+02 -0.86381169956E+01  0.47787269397E+02  0.19999992490E+02 0.  0.
        -12    1    1    2    0    0 -0.31367155259E+02  0.28724691862E+02  0.86381169956E+01  0.43400730603E+02  0.00000000000E+00 0.  1.
         11    1    3    3    0    0  0.26748126068E+01 -0.37086348837E+00 -0.22595881258E+01  0.35210653172E+01  0.51100000000E-03 0. -1.
        -11    1    3    3    0    0  0.28213368072E+02 -0.19611543750E+02 -0.18517990225E+01  0.34409823395E+02  0.51100000000E-03 0.  1.
        -12    1    3    3    0    0  0.47897458023E+00 -0.87422846239E+01 -0.45267298473E+01  0.98563806848E+01  0.00000000000E+00 0.  1.
</event>
<event>
 7    1  0.2530788E-009  0.4778727E+02  0.7816164E-02  0.1312668E+00
        -11   -1    0    0    0    0  0.00000000000E+00  0.00000000000E+00  0.45593999997E+02  0.45594000000E+02  0.51100000000E-03 0.  1.
         11   -1    0    0    0    0 -0.00000000000E+00 -0.00000000000E+00 -0.45593999997E+02  0.45594000000E+02  0.51100000000E-03 0. -1.
    9900012    2    1    2    0    0 -0.29750679747E+02  0.26913361925E+02 -0.16558720691E+02  0.47787271591E+02  0.20000002491E+02 0.  0.
        -12    1    1    2    0    0  0.29750679747E+02 -0.26913361925E+02  0.16558720691E+02  0.43400728409E+02  0.00000000000E+00 0.  1.
         11    1    3    3    0    0 -0.23474436719E+02  0.12035311269E+02 -0.49933007651E+01  0.26848295093E+02  0.51100000000E-03 0.  1.
        -11    1    3    3    0    0 -0.27872669517E+01  0.13129468223E+02 -0.78419845884E+01  0.15545047939E+02  0.51100000000E-03 0. -1.
        -12    1    3    3    0    0 -0.34889760766E+01  0.17485824339E+01 -0.37234353378E+01  0.53939285596E+01  0.00000000000E+00 0.  1.
</event>
<event>
 7    1  0.2530788E-009  0.4778727E+02  0.7816164E-02  0.1312668E+00
        -11   -1    0    0    0    0  0.00000000000E+00  0.00000000000E+00  0.45593999997E+02  0.45594000000E+02  0.51100000000E-03 0.  1.
         11   -1    0    0    0    0 -0.00000000000E+00 -0.00000000000E+00 -0.45593999997E+02  0.45594000000E+02  0.51100000000E-03 0. -1.
    9900012    2    1    2    0    0  0.21732118947E+02  0.16665046980E+02 -0.33669190419E+02  0.47787272261E+02  0.20000005549E+02 0.  0.
        -12    1    1    2    0    0 -0.21732118947E+02 -0.16665046980E+02  0.33669190419E+02  0.43400727739E+02  0.00000000000E+00 0.  1.
         11    1    3    3    0    0  0.13464840677E+02  0.15355032203E+02 -0.28371939887E+02  0.34957773407E+02  0.51100000000E-03 0. -1.
        -11    1    3    3    0    0  0.91736625084E+01 -0.35972369992E+00 -0.26211370498E+01  0.95475569992E+01  0.51100000000E-03 0.  1.
         12    1    3    3    0    0 -0.90638423830E+00  0.16697384770E+01 -0.26761134824E+01  0.32819418550E+01  0.00000000000E+00 0. -1.
</event>
<event>
 7    1  0.2530788E-009  0.4778727E+02  0.7816164E-02  0.1312668E+00
        -11   -1    0    0    0    0  0.00000000000E+00  0.00000000000E+00  0.45593999997E+02  0.45594000000E+02  0.51100000000E-03 0.  1.
         11   -1    0    0    0    0 -0.00000000000E+00 -0.00000000000E+00 -0.45593999997E+02  0.45594000000E+02  0.51100000000E-03 0. -1.
    9900012    2    1    2    0    0  0.24572633940E+02 -0.25231056792E+01 -0.35685330601E+02  0.47787271652E+02  0.20000002771E+02 0.  0.
        -12    1    1    2    0    0 -0.24572633940E+02  0.25231056792E+01  0.35685330601E+02  0.43400728348E+02  0.00000000000E+00 0.  1.
         11    1    3    3    0    0  0.14911701830E+02 -0.78934369395E+01 -0.16152646734E+02  0.23357508321E+02  0.51100000000E-03 0. -1.
        -11    1    3    3    0    0  0.13372568583E+01  0.61667049814E+01 -0.85395013082E+01  0.10617890049E+02  0.51100000000E-03 0.  1.
        -12    1    3    3    0    0  0.83236752519E+01 -0.79637372102E+00 -0.10993182559E+02  0.13811873282E+02  0.00000000000E+00 0.  1.
</event>
<event>
 7    1  0.2530788E-009  0.4778728E+02  0.7816164E-02  0.1312668E+00
        -11   -1    0    0    0    0  0.00000000000E+00  0.00000000000E+00  0.45593999997E+02  0.45594000000E+02  0.51100000000E-03 0.  1.
         11   -1    0    0    0    0 -0.00000000000E+00 -0.00000000000E+00 -0.45593999997E+02  0.45594000000E+02  0.51100000000E-03 0. -1.
    9900012    2    1    2    0    0 -0.31802277008E+02 -0.41879960020E+01 -0.29235229566E+02  0.47787276721E+02  0.20000025880E+02 0.  0.
        -12    1    1    2    0    0  0.31802277008E+02  0.41879960020E+01  0.29235229566E+02  0.43400723279E+02  0.00000000000E+00 0.  1.
         11    1    3    3    0    0 -0.11855289144E+02 -0.73153021765E+01 -0.10939888377E+02  0.17712783084E+02  0.51100000000E-03 0. -1.
        -11    1    3    3    0    0 -0.50806820678E+01  0.63032846676E+01 -0.33663566830E+01  0.87679578839E+01  0.51100000000E-03 0.  1.
        -12    1    3    3    0    0 -0.14866305796E+02 -0.31759784931E+01 -0.14928984505E+02  0.21306535753E+02  0.00000000000E+00 0.  1.
</event>
<event>
 7    1  0.2530788E-009  0.4778725E+02  0.7816164E-02  0.1312668E+00
        -11   -1    0    0    0    0  0.00000000000E+00  0.00000000000E+00  0.45593999997E+02  0.45594000000E+02  0.51100000000E-03 0.  1.
         11   -1    0    0    0    0 -0.00000000000E+00 -0.00000000000E+00 -0.45593999997E+02  0.45594000000E+02  0.51100000000E-03 0. -1.
    9900012    2    1    2    0    0 -0.28710105448E+02  0.20720860463E+02 -0.25099815149E+02  0.47787251922E+02  0.19999912813E+02 0.  0.
        -12    1    1    2    0    0  0.28710105448E+02 -0.20720860463E+02  0.25099815149E+02  0.43400748078E+02  0.00000000000E+00 0.  1.
         11    1    3    3    0    0 -0.14481506037E+02  0.22236763834E+01 -0.29388096039E+01  0.14943070498E+02  0.51100000000E-03 0. -1.
        -11    1    3    3    0    0 -0.14273727252E+02  0.15327136018E+02 -0.18023157180E+02  0.27631405740E+02  0.51100000000E-03 0.  1.
         12    1    3    3    0    0  0.45127840438E-01  0.31700480617E+01 -0.41378483654E+01  0.52127756839E+01  0.00000000000E+00 0. -1.
</event>
<event>
 7    1  0.2530788E-009  0.4778727E+02  0.7816164E-02  0.1312668E+00
        -11   -1    0    0    0    0  0.00000000000E+00  0.00000000000E+00  0.45593999997E+02  0.45594000000E+02  0.51100000000E-03 0.  1.
         11   -1    0    0    0    0 -0.00000000000E+00 -0.00000000000E+00 -0.45593999997E+02  0.45594000000E+02  0.51100000000E-03 0. -1.
    9900012    2    1    2    0    0 -0.38948714884E+02  0.80567059763E+01 -0.17369808650E+02  0.47787272415E+02  0.20000006250E+02 0.  0.
        -12    1    1    2    0    0  0.38948714884E+02 -0.80567059763E+01  0.17369808650E+02  0.43400727585E+02  0.00000000000E+00 0.  1.
         11    1    3    3    0    0 -0.28525955648E+02  0.40701293058E-01 -0.84635385685E+01  0.29755054824E+02  0.51100000000E-03 0. -1.
        -11    1    3    3    0    0  0.77730706117E-01 -0.31292085156E+00 -0.36047147140E+01  0.36191062367E+01  0.51100000000E-03 0.  1.
         12    1    3    3    0    0 -0.10500489943E+02  0.83289255348E+01 -0.53015553676E+01  0.14413111354E+02  0.00000000000E+00 0. -1.
</event>
<event>
 7    1  0.2530788E-009  0.4778728E+02  0.7816164E-02  0.1312668E+00
        -11   -1    0    0    0    0  0.00000000000E+00  0.00000000000E+00  0.45593999997E+02  0.45594000000E+02  0.51100000000E-03 0.  1.
         11   -1    0    0    0    0 -0.00000000000E+00 -0.00000000000E+00 -0.45593999997E+02  0.45594000000E+02  0.51100000000E-03 0. -1.
    9900012    2    1    2    0    0 -0.32839030789E+02 -0.25886821097E+02  0.11622945418E+02  0.47787282150E+02  0.20000050636E+02 0.  0.
        -12    1    1    2    0    0  0.32839030789E+02  0.25886821097E+02 -0.11622945418E+02  0.43400717850E+02  0.00000000000E+00 0.  1.
         11    1    3    3    0    0 -0.21331276328E+02 -0.23067892748E+02  0.23169454789E+01  0.31504273714E+02  0.51100000000E-03 0. -1.
        -11    1    3    3    0    0 -0.10875517451E+02 -0.43306199107E+01  0.84249373505E+01  0.14422576686E+02  0.51100000000E-03 0.  1.
         12    1    3    3    0    0 -0.63223700943E+00  0.15116915614E+01  0.88106258881E+00  0.18604317505E+01  0.00000000000E+00 0. -1.
</event>
<event>
 7    1  0.2530788E-009  0.4778727E+02  0.7816164E-02  0.1312668E+00
        -11   -1    0    0    0    0  0.00000000000E+00  0.00000000000E+00  0.45593999997E+02  0.45594000000E+02  0.51100000000E-03 0.  1.
         11   -1    0    0    0    0 -0.00000000000E+00 -0.00000000000E+00 -0.45593999997E+02  0.45594000000E+02  0.51100000000E-03 0. -1.
    9900012    2    1    2    0    0 -0.19777438987E+02 -0.12536888334E+01 -0.38612231337E+02  0.47787271465E+02  0.20000001917E+02 0.  0.
        -12    1    1    2    0    0  0.19777438987E+02  0.12536888334E+01  0.38612231337E+02  0.43400728535E+02  0.00000000000E+00 0.  1.
         11    1    3    3    0    0 -0.35549802248E+01 -0.24184301848E+01 -0.21761007558E+02  0.22181707309E+02  0.51100000000E-03 0. -1.
        -11    1    3    3    0    0 -0.15723430637E+02  0.34991579249E+01 -0.11639991947E+02  0.19873595295E+02  0.51100000000E-03 0.  1.
        -12    1    3    3    0    0 -0.49902812512E+00 -0.23344165735E+01 -0.52112318320E+01  0.57319688602E+01  0.00000000000E+00 0.  1.
</event>
<event>
 7    1  0.2530788E-009  0.4778727E+02  0.7816164E-02  0.1312668E+00
        -11   -1    0    0    0    0  0.00000000000E+00  0.00000000000E+00  0.45593999997E+02  0.45594000000E+02  0.51100000000E-03 0. -1.
         11   -1    0    0    0    0 -0.00000000000E+00 -0.00000000000E+00 -0.45593999997E+02  0.45594000000E+02  0.51100000000E-03 0.  1.
    9900012    2    1    2    0    0  0.13236260231E+02  0.35766586352E+02  0.20716563432E+02  0.47787270921E+02  0.19999999437E+02 0.  0.
        -12    1    1    2    0    0 -0.13236260231E+02 -0.35766586352E+02 -0.20716563432E+02  0.43400729079E+02  0.00000000000E+00 0.  1.
         11    1    3    3    0    0 -0.28766254514E+01  0.30899699819E+01 -0.65920536955E+00  0.42728726235E+01  0.51100000000E-03 0. -1.
        -11    1    3    3    0    0 -0.11675095649E+01  0.27339191851E+01  0.35095238165E+01  0.45993641272E+01  0.51100000000E-03 0.  1.
         12    1    3    3    0    0  0.17280395247E+02  0.29942697185E+02  0.17866244986E+02  0.38915034170E+02  0.00000000000E+00 0. -1.
</event>
<event>
 7    1  0.2530788E-009  0.4778727E+02  0.7816164E-02  0.1312668E+00
        -11   -1    0    0    0    0  0.00000000000E+00  0.00000000000E+00  0.45593999997E+02  0.45594000000E+02  0.51100000000E-03 0. -1.
         11   -1    0    0    0    0 -0.00000000000E+00 -0.00000000000E+00 -0.45593999997E+02  0.45594000000E+02  0.51100000000E-03 0.  1.
    9900012    2    1    2    0    0  0.10450367024E+02 -0.39410771249E+02  0.14872936898E+02  0.47787270589E+02  0.19999997924E+02 0.  0.
        -12    1    1    2    0    0 -0.10450367024E+02  0.39410771249E+02 -0.14872936898E+02  0.43400729411E+02  0.00000000000E+00 0.  1.
         11    1    3    3    0    0 -0.13131722977E+01 -0.11314127453E+02  0.10566541104E+02  0.15536592055E+02  0.51100000000E-03 0. -1.
        -11    1    3    3    0    0  0.22415231453E+01 -0.20346452735E-01  0.87249443631E+00  0.24054286087E+01  0.51100000000E-03 0.  1.
         12    1    3    3    0    0  0.95220161769E+01 -0.28076297343E+02  0.34339013582E+01  0.29845249926E+02  0.00000000000E+00 0. -1.
</event>
<event>
 7    1  0.2530788E-009  0.4778727E+02  0.7816164E-02  0.1312668E+00
        -11   -1    0    0    0    0  0.00000000000E+00  0.00000000000E+00  0.45593999997E+02  0.45594000000E+02  0.51100000000E-03 0.  1.
         11   -1    0    0    0    0 -0.00000000000E+00 -0.00000000000E+00 -0.45593999997E+02  0.45594000000E+02  0.51100000000E-03 0. -1.
    9900012    2    1    2    0    0  0.32731836437E+02 -0.40168462202E+01 -0.28215513968E+02  0.47787269608E+02  0.19999993450E+02 0.  0.
        -12    1    1    2    0    0 -0.32731836437E+02  0.40168462202E+01  0.28215513968E+02  0.43400730392E+02  0.00000000000E+00 0.  1.
         11    1    3    3    0    0  0.25762002999E+02 -0.11098923972E+02 -0.17244578737E+02  0.32927836368E+02  0.51100000000E-03 0. -1.
        -11    1    3    3    0    0  0.67928826831E+01  0.64739800105E+01 -0.10159079979E+02  0.13829771459E+02  0.51100000000E-03 0.  1.
         12    1    3    3    0    0  0.17695075575E+00  0.60809774089E+00 -0.81185525258E+00  0.10296617812E+01  0.00000000000E+00 0. -1.
</event>
<event>
 7    1  0.2530788E-009  0.4778728E+02  0.7816164E-02  0.1312668E+00
        -11   -1    0    0    0    0  0.00000000000E+00  0.00000000000E+00  0.45593999997E+02  0.45594000000E+02  0.51100000000E-03 0.  1.
         11   -1    0    0    0    0 -0.00000000000E+00 -0.00000000000E+00 -0.45593999997E+02  0.45594000000E+02  0.51100000000E-03 0. -1.
    9900012    2    1    2    0    0 -0.39990457685E+02  0.16852688019E+02 -0.61046871789E+00  0.47787280289E+02  0.20000042151E+02 0.  0.
        -12    1    1    2    0    0  0.39990457685E+02 -0.16852688019E+02  0.61046871789E+00  0.43400719711E+02  0.00000000000E+00 0.  1.
         11    1    3    3    0    0 -0.39372992285E+02  0.11613478553E+02  0.32698576277E+01  0.41180060402E+02  0.51100000000E-03 0. -1.
        -11    1    3    3    0    0  0.10232166702E+00  0.28612742533E+01 -0.21030332692E+01  0.35524793129E+01  0.51100000000E-03 0.  1.
         12    1    3    3    0    0 -0.71978706786E+00  0.23779352127E+01 -0.17772930763E+01  0.30547405746E+01  0.00000000000E+00 0. -1.
</event>
<event>
 7    1  0.2530788E-009  0.4778727E+02  0.7816164E-02  0.1312668E+00
        -11   -1    0    0    0    0  0.00000000000E+00  0.00000000000E+00  0.45593999997E+02  0.45594000000E+02  0.51100000000E-03 0.  1.
         11   -1    0    0    0    0 -0.00000000000E+00 -0.00000000000E+00 -0.45593999997E+02  0.45594000000E+02  0.51100000000E-03 0. -1.
    9900012    2    1    2    0    0  0.21122172106E+02  0.19580641302E+01 -0.37863481083E+02  0.47787269945E+02  0.19999994988E+02 0.  0.
        -12    1    1    2    0    0 -0.21122172106E+02 -0.19580641302E+01  0.37863481083E+02  0.43400730055E+02  0.00000000000E+00 0.  1.
         11    1    3    3    0    0  0.17286599878E+02  0.15955004888E+01 -0.20943020980E+02  0.27202615411E+02  0.51100000000E-03 0. -1.
        -11    1    3    3    0    0 -0.17489787093E+01 -0.31755771324E+01 -0.17280048678E+01  0.40161197359E+01  0.51100000000E-03 0.  1.
        -12    1    3    3    0    0  0.55845509367E+01  0.35381407738E+01 -0.15192455235E+02  0.16568534798E+02  0.00000000000E+00 0.  1.
</event>
<event>
 7    1  0.2530788E-009  0.4778727E+02  0.7816164E-02  0.1312668E+00
        -11   -1    0    0    0    0  0.00000000000E+00  0.00000000000E+00  0.45593999997E+02  0.45594000000E+02  0.51100000000E-03 0.  1.
         11   -1    0    0    0    0 -0.00000000000E+00 -0.00000000000E+00 -0.45593999997E+02  0.45594000000E+02  0.51100000000E-03 0. -1.
    9900012    2    1    2    0    0  0.25724852337E+01  0.94165157031E+01 -0.42288705924E+02  0.47787273082E+02  0.20000009292E+02 0.  0.
        -12    1    1    2    0    0 -0.25724852337E+01 -0.94165157031E+01  0.42288705924E+02  0.43400726918E+02  0.00000000000E+00 0.  1.
         11    1    3    3    0    0 -0.30361784851E+01  0.42230146220E+01 -0.13997699625E+02  0.14932776946E+02  0.51100000000E-03 0. -1.
        -11    1    3    3    0    0  0.19035243478E+01  0.38201965779E+01  0.20844486936E-01  0.42682246414E+01  0.51100000000E-03 0.  1.
        -12    1    3    3    0    0  0.37051393709E+01  0.13733045033E+01 -0.28311850786E+02  0.28586271495E+02  0.00000000000E+00 0.  1.
</event>
<event>
 7    1  0.2530788E-009  0.4778727E+02  0.7816164E-02  0.1312668E+00
        -11   -1    0    0    0    0  0.00000000000E+00  0.00000000000E+00  0.45593999997E+02  0.45594000000E+02  0.51100000000E-03 0.  1.
         11   -1    0    0    0    0 -0.00000000000E+00 -0.00000000000E+00 -0.45593999997E+02  0.45594000000E+02  0.51100000000E-03 0. -1.
    9900012    2    1    2    0    0 -0.21985951693E+02 -0.34378452802E+02 -0.14777119377E+02  0.47787270214E+02  0.19999996213E+02 0.  0.
        -12    1    1    2    0    0  0.21985951693E+02  0.34378452802E+02  0.14777119377E+02  0.43400729786E+02  0.00000000000E+00 0.  1.
         11    1    3    3    0    0 -0.13216390822E+02 -0.97097611010E+01  0.22386276578E+01  0.16551854912E+02  0.51100000000E-03 0.  1.
        -11    1    3    3    0    0 -0.52804034890E+01 -0.14469249201E+02 -0.95551198213E+01  0.18125731668E+02  0.51100000000E-03 0. -1.
        -12    1    3    3    0    0 -0.34891573820E+01 -0.10199442500E+02 -0.74606272134E+01  0.13109683633E+02  0.00000000000E+00 0.  1.
</event>
<event>
 7    1  0.2530788E-009  0.4778728E+02  0.7816164E-02  0.1312668E+00
        -11   -1    0    0    0    0  0.00000000000E+00  0.00000000000E+00  0.45593999997E+02  0.45594000000E+02  0.51100000000E-03 0.  1.
         11   -1    0    0    0    0 -0.00000000000E+00 -0.00000000000E+00 -0.45593999997E+02  0.45594000000E+02  0.51100000000E-03 0. -1.
    9900012    2    1    2    0    0 -0.12686245705E+02 -0.10069020135E+02 -0.40265321026E+02  0.47787284869E+02  0.20000063031E+02 0.  0.
        -12    1    1    2    0    0  0.12686245705E+02  0.10069020135E+02  0.40265321026E+02  0.43400715131E+02  0.00000000000E+00 0.  1.
         11    1    3    3    0    0 -0.60236777155E+01 -0.58161516807E+01 -0.34769049492E+01  0.90664867440E+01  0.51100000000E-03 0. -1.
        -11    1    3    3    0    0  0.11217514869E+01 -0.24574062843E+01 -0.31634830113E+01  0.41599034927E+01  0.51100000000E-03 0.  1.
         12    1    3    3    0    0 -0.77843194764E+01 -0.17954621696E+01 -0.33624933066E+02  0.34560894632E+02  0.00000000000E+00 0. -1.
</event>
<event>
 7    1  0.2530788E-009  0.4778727E+02  0.7816164E-02  0.1312668E+00
        -11   -1    0    0    0    0  0.00000000000E+00  0.00000000000E+00  0.45593999997E+02  0.45594000000E+02  0.51100000000E-03 0.  1.
         11   -1    0    0    0    0 -0.00000000000E+00 -0.00000000000E+00 -0.45593999997E+02  0.45594000000E+02  0.51100000000E-03 0. -1.
    9900012    2    1    2    0    0 -0.45754619711E+01 -0.24393028210E+02 -0.35604337777E+02  0.47787267908E+02  0.19999985701E+02 0.  0.
        -12    1    1    2    0    0  0.45754619711E+01  0.24393028210E+02  0.35604337777E+02  0.43400732092E+02  0.00000000000E+00 0.  1.
         11    1    3    3    0    0  0.67730662915E+00  0.29417576657E+01 -0.23761231361E+01  0.38416980429E+01  0.51100000000E-03 0. -1.
        -11    1    3    3    0    0 -0.89177549174E+00 -0.79118591267E+00 -0.42182594334E+01  0.43834862364E+01  0.51100000000E-03 0.  1.
         12    1    3    3    0    0 -0.43609931085E+01 -0.26543599963E+02 -0.29009955208E+02  0.39562083629E+02  0.00000000000E+00 0. -1.
</event>
<event>
 7    1  0.2530788E-009  0.4778727E+02  0.7816164E-02  0.1312668E+00
        -11   -1    0    0    0    0  0.00000000000E+00  0.00000000000E+00  0.45593999997E+02  0.45594000000E+02  0.51100000000E-03 0.  1.
         11   -1    0    0    0    0 -0.00000000000E+00 -0.00000000000E+00 -0.45593999997E+02  0.45594000000E+02  0.51100000000E-03 0. -1.
    9900012    2    1    2    0    0 -0.39539152350E+02 -0.17860017498E+02  0.11396990840E+01  0.47787266048E+02  0.19999977219E+02 0.  0.
        -12    1    1    2    0    0  0.39539152350E+02  0.17860017498E+02 -0.11396990840E+01  0.43400733952E+02  0.00000000000E+00 0.  1.
         11    1    3    3    0    0 -0.23374259102E+02 -0.17676313754E+02  0.20728574647E+01  0.29378645217E+02  0.51100000000E-03 0. -1.
        -11    1    3    3    0    0  0.22559982544E+00  0.17271910933E+01  0.58487708126E+00  0.18374345744E+01  0.51100000000E-03 0.  1.
         12    1    3    3    0    0 -0.16390493074E+02 -0.19108948374E+01 -0.15180354620E+01  0.16571186256E+02  0.00000000000E+00 0. -1.
</event>
<event>
 7    1  0.2530788E-009  0.4778727E+02  0.7816164E-02  0.1312668E+00
        -11   -1    0    0    0    0  0.00000000000E+00  0.00000000000E+00  0.45593999997E+02  0.45594000000E+02  0.51100000000E-03 0.  1.
         11   -1    0    0    0    0 -0.00000000000E+00 -0.00000000000E+00 -0.45593999997E+02  0.45594000000E+02  0.51100000000E-03 0. -1.
    9900012    2    1    2    0    0 -0.78073845620E+01 -0.30378616138E+02 -0.29996794766E+02  0.47787271107E+02  0.20000000286E+02 0.  0.
        -12    1    1    2    0    0  0.78073845620E+01  0.30378616138E+02  0.29996794766E+02  0.43400728893E+02  0.00000000000E+00 0.  1.
         11    1    3    3    0    0 -0.13257077658E+01 -0.98926917731E+01 -0.43744942304E+01  0.10897662668E+02  0.51100000000E-03 0. -1.
        -11    1    3    3    0    0 -0.89987985603E+01 -0.21422710574E+02 -0.19996910104E+02  0.30655950773E+02  0.51100000000E-03 0.  1.
        -12    1    3    3    0    0  0.25171217641E+01  0.93678620880E+00 -0.56253904322E+01  0.62336576655E+01  0.00000000000E+00 0.  1.
</event>
<event>
 7    1  0.2530788E-009  0.4778727E+02  0.7816164E-02  0.1312668E+00
        -11   -1    0    0    0    0  0.00000000000E+00  0.00000000000E+00  0.45593999997E+02  0.45594000000E+02  0.51100000000E-03 0. -1.
         11   -1    0    0    0    0 -0.00000000000E+00 -0.00000000000E+00 -0.45593999997E+02  0.45594000000E+02  0.51100000000E-03 0.  1.
    9900012    2    1    2    0    0  0.25197043434E+02  0.34979560269E+02  0.50162463291E+01  0.47787270033E+02  0.19999995388E+02 0.  0.
        -12    1    1    2    0    0 -0.25197043434E+02 -0.34979560269E+02 -0.50162463291E+01  0.43400729967E+02  0.00000000000E+00 0.  1.
         11    1    3    3    0    0  0.30503176582E+01  0.12017363517E+02 -0.66078020936E+00  0.12416041819E+02  0.51100000000E-03 0.  1.
        -11    1    3    3    0    0  0.43729416717E+01  0.66816748538E+01 -0.45470353668E+01  0.91892833564E+01  0.51100000000E-03 0. -1.
         12    1    3    3    0    0  0.17773784104E+02  0.16280521898E+02  0.10224061905E+02  0.26181944857E+02  0.00000000000E+00 0. -1.
</event>
<event>
 7    1  0.2530788E-009  0.4778728E+02  0.7816164E-02  0.1312668E+00
        -11   -1    0    0    0    0  0.00000000000E+00  0.00000000000E+00  0.45593999997E+02  0.45594000000E+02  0.51100000000E-03 0. -1.
         11   -1    0    0    0    0 -0.00000000000E+00 -0.00000000000E+00 -0.45593999997E+02  0.45594000000E+02  0.51100000000E-03 0.  1.
    9900012    2    1    2    0    0  0.36330939477E+02 -0.15994853853E+02 -0.17545663084E+02  0.47787276434E+02  0.20000024571E+02 0.  0.
        -12    1    1    2    0    0 -0.36330939477E+02  0.15994853853E+02  0.17545663084E+02  0.43400723566E+02  0.00000000000E+00 0.  1.
         11    1    3    3    0    0  0.34409801666E+02 -0.10736521021E+02 -0.10110968463E+02  0.37437134210E+02  0.51100000000E-03 0. -1.
        -11    1    3    3    0    0  0.53999919754E+00 -0.14451978999E+01  0.34131007471E+00  0.15800914313E+01  0.51100000000E-03 0.  1.
         12    1    3    3    0    0  0.13811386134E+01 -0.38131349317E+01 -0.77760046958E+01  0.87700507927E+01  0.00000000000E+00 0. -1.
</event>
<event>
 7    1  0.2530788E-009  0.4778728E+02  0.7816164E-02  0.1312668E+00
        -11   -1    0    0    0    0  0.00000000000E+00  0.00000000000E+00  0.45593999997E+02  0.45594000000E+02  0.51100000000E-03 0.  1.
         11   -1    0    0    0    0 -0.00000000000E+00 -0.00000000000E+00 -0.45593999997E+02  0.45594000000E+02  0.51100000000E-03 0. -1.
    9900012    2    1    2    0    0  0.20000452474E+02  0.28826507322E+02 -0.25546763224E+02  0.47787277255E+02  0.20000028317E+02 0.  0.
        -12    1    1    2    0    0 -0.20000452474E+02 -0.28826507322E+02  0.25546763224E+02  0.43400722745E+02  0.00000000000E+00 0.  1.
         11    1    3    3    0    0  0.40832648776E+01  0.85245638637E+01  0.14204506473E+01  0.95581860951E+01  0.51100000000E-03 0. -1.
        -11    1    3    3    0    0  0.15481358068E+02  0.15631909262E+02 -0.24503754128E+02  0.32931185849E+02  0.51100000000E-03 0.  1.
        -12    1    3    3    0    0  0.43582952852E+00  0.46700341965E+01 -0.24634597428E+01  0.52979053105E+01  0.00000000000E+00 0.  1.
</event>
<event>
 7    1  0.2530788E-009  0.4778727E+02  0.7816164E-02  0.1312668E+00
        -11   -1    0    0    0    0  0.00000000000E+00  0.00000000000E+00  0.45593999997E+02  0.45594000000E+02  0.51100000000E-03 0. -1.
         11   -1    0    0    0    0 -0.00000000000E+00 -0.00000000000E+00 -0.45593999997E+02  0.45594000000E+02  0.51100000000E-03 0.  1.
    9900012    2    1    2    0    0  0.34439753012E+02  0.26050969134E+02  0.43443793101E+01  0.47787271758E+02  0.20000003253E+02 0.  0.
        -12    1    1    2    0    0 -0.34439753012E+02 -0.26050969134E+02 -0.43443793101E+01  0.43400728242E+02  0.00000000000E+00 0.  1.
         11    1    3    3    0    0  0.10255061710E+02  0.20120904928E+02  0.10582984303E+01  0.22608341417E+02  0.51100000000E-03 0. -1.
        -11    1    3    3    0    0  0.15857347492E+02  0.41781322799E+01  0.13658339756E+01  0.16455326236E+02  0.51100000000E-03 0.  1.
         12    1    3    3    0    0  0.83273438100E+01  0.17519319260E+01  0.19202469042E+01  0.87236041047E+01  0.00000000000E+00 0. -1.
</event>
<event>
 7    1  0.2530788E-009  0.4778727E+02  0.7816164E-02  0.1312668E+00
        -11   -1    0    0    0    0  0.00000000000E+00  0.00000000000E+00  0.45593999997E+02  0.45594000000E+02  0.51100000000E-03 0.  1.
         11   -1    0    0    0    0 -0.00000000000E+00 -0.00000000000E+00 -0.45593999997E+02  0.45594000000E+02  0.51100000000E-03 0. -1.
    9900012    2    1    2    0    0 -0.77188709712E+01 -0.25839295999E+02 -0.34005487181E+02  0.47787270223E+02  0.19999996253E+02 0.  0.
        -12    1    1    2    0    0  0.77188709712E+01  0.25839295999E+02  0.34005487181E+02  0.43400729777E+02  0.00000000000E+00 0.  1.
         11    1    3    3    0    0 -0.14806867612E+01 -0.81816548858E+01 -0.11444933860E+02  0.14146321828E+02  0.51100000000E-03 0. -1.
        -11    1    3    3    0    0  0.32040781516E+01 -0.13980282008E+02 -0.99144104277E+01  0.17435880713E+02  0.51100000000E-03 0.  1.
        -12    1    3    3    0    0 -0.94422623616E+01 -0.36773591049E+01 -0.12646142893E+02  0.16205067682E+02  0.00000000000E+00 0.  1.
</event>
<event>
 7    1  0.2546006E-009  0.4778727E+02  0.7816164E-02  0.1312668E+00
        -11   -1    0    0    0    0  0.00000000000E+00  0.00000000000E+00  0.45593999997E+02  0.45594000000E+02  0.51100000000E-03 0.  1.
         11   -1    0    0    0    0 -0.00000000000E+00 -0.00000000000E+00 -0.45593999997E+02  0.45594000000E+02  0.51100000000E-03 0. -1.
    9900012    2    1    2    0    0 -0.16718598423E+02  0.37999574876E+02 -0.12654797313E+02  0.47787272829E+02  0.20000008136E+02 0.  0.
        -12    1    1    2    0    0  0.16718598423E+02 -0.37999574876E+02  0.12654797313E+02  0.43400727171E+02  0.00000000000E+00 0.  1.
         11    1    3    3    0    0 -0.56737357912E+01  0.19087363849E+02 -0.85024950854E+01  0.21652047466E+02  0.51100000000E-03 0. -1.
        -11    1    3    3    0    0 -0.53083667044E+01 -0.54085263343E+00 -0.21596083314E+01  0.57563171425E+01  0.51100000000E-03 0.  1.
        -12    1    3    3    0    0 -0.57364959271E+01  0.19453063660E+02 -0.19926938961E+01  0.20378908220E+02  0.00000000000E+00 0.  1.
</event>
<event>
 7    1  0.2530788E-009  0.4778727E+02  0.7816164E-02  0.1312668E+00
        -11   -1    0    0    0    0  0.00000000000E+00  0.00000000000E+00  0.45593999997E+02  0.45594000000E+02  0.51100000000E-03 0. -1.
         11   -1    0    0    0    0 -0.00000000000E+00 -0.00000000000E+00 -0.45593999997E+02  0.45594000000E+02  0.51100000000E-03 0.  1.
    9900012    2    1    2    0    0 -0.10730486368E+02  0.33817504469E+02  0.24997125440E+02  0.47787271591E+02  0.20000002490E+02 0.  0.
        -12    1    1    2    0    0  0.10730486368E+02 -0.33817504469E+02 -0.24997125440E+02  0.43400728409E+02  0.00000000000E+00 0.  1.
         11    1    3    3    0    0 -0.66961502022E+00  0.22356461428E+02  0.18192260503E+02  0.28830853167E+02  0.51100000000E-03 0. -1.
        -11    1    3    3    0    0 -0.45258186346E+01 -0.45956170951E+00  0.16679220616E+01  0.48452239931E+01  0.51100000000E-03 0.  1.
         12    1    3    3    0    0 -0.55350527129E+01  0.11920604750E+02  0.51369428757E+01  0.14111194431E+02  0.00000000000E+00 0. -1.
</event>
<event>
 7    1  0.2530788E-009  0.4778727E+02  0.7816164E-02  0.1312668E+00
        -11   -1    0    0    0    0  0.00000000000E+00  0.00000000000E+00  0.45593999997E+02  0.45594000000E+02  0.51100000000E-03 0. -1.
         11   -1    0    0    0    0 -0.00000000000E+00 -0.00000000000E+00 -0.45593999997E+02  0.45594000000E+02  0.51100000000E-03 0.  1.
    9900012    2    1    2    0    0  0.41249832814E+01 -0.25762788359E+02  0.34682655492E+02  0.47787270247E+02  0.19999996366E+02 0.  0.
        -12    1    1    2    0    0 -0.41249832814E+01  0.25762788359E+02 -0.34682655492E+02  0.43400729753E+02  0.00000000000E+00 0.  1.
         11    1    3    3    0    0 -0.12927470878E+01 -0.84449650526E+00  0.10579032670E+02  0.10691131927E+02  0.51100000000E-03 0. -1.
        -11    1    3    3    0    0  0.30714393592E+01 -0.76204606344E+01  0.12072016637E+01  0.83043660887E+01  0.51100000000E-03 0.  1.
        -12    1    3    3    0    0  0.23462910101E+01 -0.17297831220E+02  0.22896421157E+02  0.28791772232E+02  0.00000000000E+00 0.  1.
</event>
<event>
 7    1  0.2530788E-009  0.4778727E+02  0.7816164E-02  0.1312668E+00
        -11   -1    0    0    0    0  0.00000000000E+00  0.00000000000E+00  0.45593999997E+02  0.45594000000E+02  0.51100000000E-03 0. -1.
         11   -1    0    0    0    0 -0.00000000000E+00 -0.00000000000E+00 -0.45593999997E+02  0.45594000000E+02  0.51100000000E-03 0.  1.
    9900012    2    1    2    0    0 -0.13512470046E+02  0.87292846632E+01  0.40309255092E+02  0.47787270702E+02  0.19999998440E+02 0.  0.
        -12    1    1    2    0    0  0.13512470046E+02 -0.87292846632E+01 -0.40309255092E+02  0.43400729298E+02  0.00000000000E+00 0.  1.
         11    1    3    3    0    0 -0.74783638338E+01  0.13686870643E+02  0.22475005054E+02  0.27356575189E+02  0.51100000000E-03 0. -1.
        -11    1    3    3    0    0  0.64089288771E+00 -0.29150878392E+01  0.51388102595E+01  0.59427141904E+01  0.51100000000E-03 0.  1.
         12    1    3    3    0    0 -0.66749990996E+01 -0.20424981409E+01  0.12695439779E+02  0.14487981323E+02  0.00000000000E+00 0. -1.
</event>
<event>
 7    1  0.2530788E-009  0.4778727E+02  0.7816164E-02  0.1312668E+00
        -11   -1    0    0    0    0  0.00000000000E+00  0.00000000000E+00  0.45593999997E+02  0.45594000000E+02  0.51100000000E-03 0. -1.
         11   -1    0    0    0    0 -0.00000000000E+00 -0.00000000000E+00 -0.45593999997E+02  0.45594000000E+02  0.51100000000E-03 0.  1.
    9900012    2    1    2    0    0 -0.28618833952E+02  0.12862867505E+02  0.29985537197E+02  0.47787268920E+02  0.19999990315E+02 0.  0.
        -12    1    1    2    0    0  0.28618833952E+02 -0.12862867505E+02 -0.29985537197E+02  0.43400731080E+02  0.00000000000E+00 0.  1.
         11    1    3    3    0    0 -0.14992359035E+02 -0.27272041271E+00  0.96676570847E+01  0.17841210711E+02  0.51100000000E-03 0. -1.
        -11    1    3    3    0    0 -0.12575169019E+02  0.15148031908E+02  0.17629815442E+02  0.26427412649E+02  0.51100000000E-03 0.  1.
        -12    1    3    3    0    0 -0.10513058984E+01 -0.20124439905E+01  0.26880646704E+01  0.35186455603E+01  0.00000000000E+00 0.  1.
</event>
<event>
 7    1  0.2530788E-009  0.4778728E+02  0.7816164E-02  0.1312668E+00
        -11   -1    0    0    0    0  0.00000000000E+00  0.00000000000E+00  0.45593999997E+02  0.45594000000E+02  0.51100000000E-03 0.  1.
         11   -1    0    0    0    0 -0.00000000000E+00 -0.00000000000E+00 -0.45593999997E+02  0.45594000000E+02  0.51100000000E-03 0. -1.
    9900012    2    1    2    0    0 -0.20426486850E+02 -0.25610899830E+02 -0.28468638256E+02  0.47787275129E+02  0.20000018623E+02 0.  0.
        -12    1    1    2    0    0  0.20426486850E+02  0.25610899830E+02  0.28468638256E+02  0.43400724871E+02  0.00000000000E+00 0.  1.
         11    1    3    3    0    0 -0.14755947454E+02 -0.20741758447E+02 -0.10785021015E+02  0.27645527799E+02  0.51100000000E-03 0. -1.
        -11    1    3    3    0    0 -0.15317773607E+01 -0.52155286026E+01 -0.11061817803E+02  0.12325254312E+02  0.51100000000E-03 0.  1.
         12    1    3    3    0    0 -0.41387620358E+01  0.34638721982E+00 -0.66217994382E+01  0.78164930176E+01  0.00000000000E+00 0. -1.
</event>
<event>
 7    1  0.2530788E-009  0.4778727E+02  0.7816164E-02  0.1312668E+00
        -11   -1    0    0    0    0  0.00000000000E+00  0.00000000000E+00  0.45593999997E+02  0.45594000000E+02  0.51100000000E-03 0. -1.
         11   -1    0    0    0    0 -0.00000000000E+00 -0.00000000000E+00 -0.45593999997E+02  0.45594000000E+02  0.51100000000E-03 0.  1.
    9900012    2    1    2    0    0  0.43330104650E+02 -0.36875990510E+00 -0.24473179338E+01  0.47787270537E+02  0.19999997685E+02 0.  0.
        -12    1    1    2    0    0 -0.43330104650E+02  0.36875990510E+00  0.24473179338E+01  0.43400729463E+02  0.00000000000E+00 0.  1.
         11    1    3    3    0    0  0.13646632090E+02 -0.93422318358E+01 -0.26880531400E+01  0.16755103492E+02  0.51100000000E-03 0. -1.
        -11    1    3    3    0    0  0.27646667182E+02  0.81501584233E+01  0.80354570952E-02  0.28822965730E+02  0.51100000000E-03 0.  1.
         12    1    3    3    0    0  0.20368053776E+01  0.82331350742E+00  0.23269974916E+00  0.22092013151E+01  0.00000000000E+00 0. -1.
</event>
<event>
 7    1  0.2530788E-009  0.4778727E+02  0.7816164E-02  0.1312668E+00
        -11   -1    0    0    0    0  0.00000000000E+00  0.00000000000E+00  0.45593999997E+02  0.45594000000E+02  0.51100000000E-03 0.  1.
         11   -1    0    0    0    0 -0.00000000000E+00 -0.00000000000E+00 -0.45593999997E+02  0.45594000000E+02  0.51100000000E-03 0. -1.
    9900012    2    1    2    0    0  0.24766838013E+02  0.15887699878E+02 -0.31903107447E+02  0.47787268009E+02  0.19999986160E+02 0.  0.
        -12    1    1    2    0    0 -0.24766838013E+02 -0.15887699878E+02  0.31903107447E+02  0.43400731991E+02  0.00000000000E+00 0.  1.
         11    1    3    3    0    0  0.28541645927E+01  0.27308961778E+01 -0.34015779145E+01  0.52129437006E+01  0.51100000000E-03 0. -1.
        -11    1    3    3    0    0  0.17457782382E+02  0.45445922543E+00 -0.11590325106E+02  0.20959874409E+02  0.51100000000E-03 0.  1.
        -12    1    3    3    0    0  0.44548910377E+01  0.12702344475E+02 -0.16911204427E+02  0.21614449900E+02  0.00000000000E+00 0.  1.
</event>
<event>
 7    1  0.2530788E-009  0.4778727E+02  0.7816164E-02  0.1312668E+00
        -11   -1    0    0    0    0  0.00000000000E+00  0.00000000000E+00  0.45593999997E+02  0.45594000000E+02  0.51100000000E-03 0. -1.
         11   -1    0    0    0    0 -0.00000000000E+00 -0.00000000000E+00 -0.45593999997E+02  0.45594000000E+02  0.51100000000E-03 0.  1.
    9900012    2    1    2    0    0  0.48469356782E+01 -0.43032155841E+02  0.28920629833E+01  0.47787271319E+02  0.20000001250E+02 0.  0.
        -12    1    1    2    0    0 -0.48469356782E+01  0.43032155841E+02 -0.28920629833E+01  0.43400728681E+02  0.00000000000E+00 0.  1.
         11    1    3    3    0    0 -0.42889167011E+01 -0.19355943959E+02  0.35337558519E+01  0.20137894719E+02  0.51100000000E-03 0. -1.
        -11    1    3    3    0    0  0.59456889599E+01 -0.29731152273E+01 -0.84392168737E+00  0.67009578001E+01  0.51100000000E-03 0.  1.
         12    1    3    3    0    0  0.31901634193E+01 -0.20703096654E+02  0.20222881882E+00  0.20948418800E+02  0.00000000000E+00 0. -1.
</event>
<event>
 7    1  0.2530788E-009  0.4778727E+02  0.7816164E-02  0.1312668E+00
        -11   -1    0    0    0    0  0.00000000000E+00  0.00000000000E+00  0.45593999997E+02  0.45594000000E+02  0.51100000000E-03 0. -1.
         11   -1    0    0    0    0 -0.00000000000E+00 -0.00000000000E+00 -0.45593999997E+02  0.45594000000E+02  0.51100000000E-03 0.  1.
    9900012    2    1    2    0    0  0.41757662551E+02  0.11374123998E+02 -0.32481196991E+01  0.47787270052E+02  0.19999995474E+02 0.  0.
        -12    1    1    2    0    0 -0.41757662551E+02 -0.11374123998E+02  0.32481196991E+01  0.43400729948E+02  0.00000000000E+00 0.  1.
         11    1    3    3    0    0  0.38317651200E+02  0.38647543225E+01 -0.15062191410E+01  0.38541502512E+02  0.51100000000E-03 0. -1.
        -11    1    3    3    0    0  0.18530415634E+01  0.72102160497E+01 -0.11893479180E+01  0.75389340925E+01  0.51100000000E-03 0.  1.
         12    1    3    3    0    0  0.15869697874E+01  0.29915362549E+00 -0.55255264006E+00  0.17068334476E+01  0.00000000000E+00 0. -1.
</event>
<event>
 7    1  0.2530788E-009  0.4778726E+02  0.7816164E-02  0.1312668E+00
        -11   -1    0    0    0    0  0.00000000000E+00  0.00000000000E+00  0.45593999997E+02  0.45594000000E+02  0.51100000000E-03 0. -1.
         11   -1    0    0    0    0 -0.00000000000E+00 -0.00000000000E+00 -0.45593999997E+02  0.45594000000E+02  0.51100000000E-03 0.  1.
    9900012    2    1    2    0    0  0.24990053152E+02  0.14453189931E+02  0.32407197655E+02  0.47787263652E+02  0.19999966294E+02 0.  0.
        -12    1    1    2    0    0 -0.24990053152E+02 -0.14453189931E+02 -0.32407197655E+02  0.43400736348E+02  0.00000000000E+00 0.  1.
         11    1    3    3    0    0  0.11686687161E+02  0.41378390511E+01  0.23640865432E+02  0.26694398053E+02  0.51100000000E-03 0. -1.
        -11    1    3    3    0    0  0.13981629987E+02  0.85601823415E+01  0.96400631562E+01  0.19018241683E+02  0.51100000000E-03 0.  1.
         12    1    3    3    0    0 -0.67826399541E+00  0.17551685383E+01 -0.87373093312E+00  0.20746239151E+01  0.00000000000E+00 0. -1.
</event>
<event>
 7    1  0.2530788E-009  0.4778727E+02  0.7816164E-02  0.1312668E+00
        -11   -1    0    0    0    0  0.00000000000E+00  0.00000000000E+00  0.45593999997E+02  0.45594000000E+02  0.51100000000E-03 0. -1.
         11   -1    0    0    0    0 -0.00000000000E+00 -0.00000000000E+00 -0.45593999997E+02  0.45594000000E+02  0.51100000000E-03 0.  1.
    9900012    2    1    2    0    0  0.44537036969E+01  0.27491981316E+02  0.33286313162E+02  0.47787272389E+02  0.20000006129E+02 0.  0.
        -12    1    1    2    0    0 -0.44537036969E+01 -0.27491981316E+02 -0.33286313162E+02  0.43400727611E+02  0.00000000000E+00 0.  1.
         11    1    3    3    0    0 -0.88722954069E+00  0.12244925081E+02  0.26838913316E+02  0.29513600843E+02  0.51100000000E-03 0. -1.
        -11    1    3    3    0    0  0.41256827817E+01  0.40651003215E+01  0.14812846983E+01  0.59783361948E+01  0.51100000000E-03 0.  1.
         12    1    3    3    0    0  0.12152504558E+01  0.11181955914E+02  0.49661151476E+01  0.12295335351E+02  0.00000000000E+00 0. -1.
</event>
<event>
 7    1  0.2530788E-009  0.4778727E+02  0.7816164E-02  0.1312668E+00
        -11   -1    0    0    0    0  0.00000000000E+00  0.00000000000E+00  0.45593999997E+02  0.45594000000E+02  0.51100000000E-03 0.  1.
         11   -1    0    0    0    0 -0.00000000000E+00 -0.00000000000E+00 -0.45593999997E+02  0.45594000000E+02  0.51100000000E-03 0. -1.
    9900012    2    1    2    0    0 -0.44840396700E+01  0.26969530095E+02 -0.33706992262E+02  0.47787268524E+02  0.19999988507E+02 0.  0.
        -12    1    1    2    0    0  0.44840396700E+01 -0.26969530095E+02  0.33706992262E+02  0.43400731476E+02  0.00000000000E+00 0.  1.
         11    1    3    3    0    0 -0.75721530609E+01  0.17602178665E+02 -0.28242448462E+02  0.34129314249E+02  0.51100000000E-03 0. -1.
        -11    1    3    3    0    0 -0.84595091154E+00 -0.77094823286E+00 -0.18921464912E+01  0.22113825377E+01  0.51100000000E-03 0.  1.
         12    1    3    3    0    0  0.39340643024E+01  0.10138299664E+02 -0.35723973091E+01  0.11446571737E+02  0.00000000000E+00 0. -1.
</event>
<event>
 7    1  0.2859940E-009  0.4778727E+02  0.7816164E-02  0.1312668E+00
        -11   -1    0    0    0    0  0.00000000000E+00  0.00000000000E+00  0.45593999997E+02  0.45594000000E+02  0.51100000000E-03 0.  1.
         11   -1    0    0    0    0 -0.00000000000E+00 -0.00000000000E+00 -0.45593999997E+02  0.45594000000E+02  0.51100000000E-03 0. -1.
    9900012    2    1    2    0    0 -0.36532422593E+02  0.15434562018E+02  0.17628948147E+02  0.47787269385E+02  0.19999992432E+02 0.  0.
        -12    1    1    2    0    0  0.36532422593E+02 -0.15434562018E+02 -0.17628948147E+02  0.43400730615E+02  0.00000000000E+00 0.  1.
         11    1    3    3    0    0 -0.80567293028E+01  0.37509651092E+01  0.62755189977E+01  0.10879465302E+02  0.51100000000E-03 0.  1.
        -11    1    3    3    0    0 -0.14716759180E+02 -0.14782791195E+01  0.99282021478E+01  0.17813969464E+02  0.51100000000E-03 0. -1.
        -12    1    3    3    0    0 -0.13758934110E+02  0.13161876028E+02  0.14252270017E+01  0.19093834619E+02  0.00000000000E+00 0.  1.
</event>
<event>
 7    1  0.2530788E-009  0.4778727E+02  0.7816164E-02  0.1312668E+00
        -11   -1    0    0    0    0  0.00000000000E+00  0.00000000000E+00  0.45593999997E+02  0.45594000000E+02  0.51100000000E-03 0.  1.
         11   -1    0    0    0    0 -0.00000000000E+00 -0.00000000000E+00 -0.45593999997E+02  0.45594000000E+02  0.51100000000E-03 0. -1.
    9900012    2    1    2    0    0 -0.41493391380E+02  0.11329447872E+02  0.57935720661E+01  0.47787269653E+02  0.19999993658E+02 0.  0.
        -12    1    1    2    0    0  0.41493391380E+02 -0.11329447872E+02 -0.57935720661E+01  0.43400730347E+02  0.00000000000E+00 0.  1.
         11    1    3    3    0    0 -0.21807211485E+02  0.91511842443E+01 -0.13399428585E+01  0.23687424786E+02  0.51100000000E-03 0. -1.
        -11    1    3    3    0    0 -0.17619900669E+02  0.38203119437E+01  0.96532045494E+01  0.20450917859E+02  0.51100000000E-03 0.  1.
        -12    1    3    3    0    0 -0.20662792262E+01 -0.16420483161E+01 -0.25196896249E+01  0.36489270092E+01  0.00000000000E+00 0.  1.
</event>
<event>
 7    1  0.2530788E-009  0.4778727E+02  0.7816164E-02  0.1312668E+00
        -11   -1    0    0    0    0  0.00000000000E+00  0.00000000000E+00  0.45593999997E+02  0.45594000000E+02  0.51100000000E-03 0.  1.
         11   -1    0    0    0    0 -0.00000000000E+00 -0.00000000000E+00 -0.45593999997E+02  0.45594000000E+02  0.51100000000E-03 0. -1.
    9900012    2    1    2    0    0  0.92369304837E+00  0.31703285058E+02 -0.29625526814E+02  0.47787270383E+02  0.19999996983E+02 0.  0.
        -12    1    1    2    0    0 -0.92369304837E+00 -0.31703285058E+02  0.29625526814E+02  0.43400729617E+02  0.00000000000E+00 0.  1.
         11    1    3    3    0    0  0.72701128504E+01  0.13362605248E+02 -0.15365418905E+02  0.21621976280E+02  0.51100000000E-03 0. -1.
        -11    1    3    3    0    0 -0.24361669097E+01 -0.62974499392E+00 -0.10870141059E+01  0.27410012581E+01  0.51100000000E-03 0.  1.
         12    1    3    3    0    0 -0.39102528923E+01  0.18970424804E+02 -0.13173093804E+02  0.23424292845E+02  0.00000000000E+00 0. -1.
</event>
<event>
 7    1  0.2530788E-009  0.4778729E+02  0.7816164E-02  0.1312668E+00
        -11   -1    0    0    0    0  0.00000000000E+00  0.00000000000E+00  0.45593999997E+02  0.45594000000E+02  0.51100000000E-03 0.  1.
         11   -1    0    0    0    0 -0.00000000000E+00 -0.00000000000E+00 -0.45593999997E+02  0.45594000000E+02  0.51100000000E-03 0. -1.
    9900012    2    1    2    0    0 -0.14381068770E+02 -0.15441675821E+02 -0.37925735659E+02  0.47787286683E+02  0.20000071304E+02 0.  0.
        -12    1    1    2    0    0  0.14381068770E+02  0.15441675821E+02  0.37925735659E+02  0.43400713317E+02  0.00000000000E+00 0.  1.
         11    1    3    3    0    0  0.52548201120E+00 -0.17775781306E+01 -0.39121749485E+01  0.43290909488E+01  0.51100000000E-03 0. -1.
        -11    1    3    3    0    0 -0.10844640595E+02 -0.12667756026E+02 -0.35334861200E+02  0.39072121630E+02  0.51100000000E-03 0.  1.
        -12    1    3    3    0    0 -0.40619101857E+01 -0.99634166410E+00  0.13213004896E+01  0.43860741047E+01  0.00000000000E+00 0.  1.
</event>
<event>
 7    1  0.2530788E-009  0.4778727E+02  0.7816164E-02  0.1312668E+00
        -11   -1    0    0    0    0  0.00000000000E+00  0.00000000000E+00  0.45593999997E+02  0.45594000000E+02  0.51100000000E-03 0.  1.
         11   -1    0    0    0    0 -0.00000000000E+00 -0.00000000000E+00 -0.45593999997E+02  0.45594000000E+02  0.51100000000E-03 0. -1.
    9900012    2    1    2    0    0  0.36148989847E+02 -0.52156767478E+00 -0.24012533656E+02  0.47787271061E+02  0.20000000076E+02 0.  0.
        -12    1    1    2    0    0 -0.36148989847E+02  0.52156767478E+00  0.24012533656E+02  0.43400728939E+02  0.00000000000E+00 0.  1.
         11    1    3    3    0    0  0.20431718537E+02 -0.54687087827E+01 -0.15687796611E+02  0.26333796933E+02  0.51100000000E-03 0. -1.
        -11    1    3    3    0    0  0.41061977815E+01  0.68694508332E+01 -0.33221660986E+01  0.86652756920E+01  0.51100000000E-03 0.  1.
         12    1    3    3    0    0  0.11611073529E+02 -0.19223097253E+01 -0.50025709469E+01  0.12788198437E+02  0.00000000000E+00 0. -1.
</event>
<event>
 7    1  0.3059763E-009  0.4778727E+02  0.7816164E-02  0.1312668E+00
        -11   -1    0    0    0    0  0.00000000000E+00  0.00000000000E+00  0.45593999997E+02  0.45594000000E+02  0.51100000000E-03 0.  1.
         11   -1    0    0    0    0 -0.00000000000E+00 -0.00000000000E+00 -0.45593999997E+02  0.45594000000E+02  0.51100000000E-03 0. -1.
    9900012    2    1    2    0    0  0.15755372263E+02  0.36062575628E+02 -0.18299781991E+02  0.47787272622E+02  0.20000007192E+02 0.  0.
        -12    1    1    2    0    0 -0.15755372263E+02 -0.36062575628E+02  0.18299781991E+02  0.43400727378E+02  0.00000000000E+00 0.  1.
         11    1    3    3    0    0  0.73973045758E+01  0.12429500376E+02 -0.71681470787E+01  0.16142952870E+02  0.51100000000E-03 0. -1.
        -11    1    3    3    0    0  0.80517660241E+01  0.82373971486E+01  0.16442959582E+01  0.11635693248E+02  0.51100000000E-03 0.  1.
        -12    1    3    3    0    0  0.30630166354E+00  0.15395678103E+02 -0.12775930870E+02  0.20008626504E+02  0.00000000000E+00 0.  1.
</event>
<event>
 7    1  0.2530788E-009  0.4778728E+02  0.7816164E-02  0.1312668E+00
        -11   -1    0    0    0    0  0.00000000000E+00  0.00000000000E+00  0.45593999997E+02  0.45594000000E+02  0.51100000000E-03 0.  1.
         11   -1    0    0    0    0 -0.00000000000E+00 -0.00000000000E+00 -0.45593999997E+02  0.45594000000E+02  0.51100000000E-03 0. -1.
    9900012    2    1    2    0    0 -0.31464468241E+01 -0.25290766405E+02 -0.35129749296E+02  0.47787282511E+02  0.20000052279E+02 0.  0.
        -12    1    1    2    0    0  0.31464468241E+01  0.25290766405E+02  0.35129749296E+02  0.43400717489E+02  0.00000000000E+00 0.  1.
         11    1    3    3    0    0  0.77474368821E+00 -0.19275905413E+02 -0.11810210439E+02  0.22619501059E+02  0.51100000000E-03 0. -1.
        -11    1    3    3    0    0 -0.47218856247E+01 -0.16516258945E+01 -0.13322158816E+02  0.14230389585E+02  0.51100000000E-03 0.  1.
         12    1    3    3    0    0  0.80069511242E+00 -0.43632350982E+01 -0.99973800406E+01  0.10937391867E+02  0.00000000000E+00 0. -1.
</event>
<event>
 7    1  0.2530788E-009  0.4778729E+02  0.7816164E-02  0.1312668E+00
        -11   -1    0    0    0    0  0.00000000000E+00  0.00000000000E+00  0.45593999997E+02  0.45594000000E+02  0.51100000000E-03 0.  1.
         11   -1    0    0    0    0 -0.00000000000E+00 -0.00000000000E+00 -0.45593999997E+02  0.45594000000E+02  0.51100000000E-03 0. -1.
    9900012    2    1    2    0    0 -0.36470164353E+02 -0.14053833465E+02 -0.18868990425E+02  0.47787286611E+02  0.20000070975E+02 0.  0.
        -12    1    1    2    0    0  0.36470164353E+02  0.14053833465E+02  0.18868990425E+02  0.43400713389E+02  0.00000000000E+00 0.  1.
         11    1    3    3    0    0 -0.11604494963E+02 -0.49571847626E-01  0.22248534472E+01  0.11815952515E+02  0.51100000000E-03 0. -1.
        -11    1    3    3    0    0 -0.69914069865E+01 -0.71327298708E+01 -0.72361705816E+01  0.12333603367E+02  0.51100000000E-03 0.  1.
         12    1    3    3    0    0 -0.17874262404E+02 -0.68715317468E+01 -0.13857673290E+02  0.23637730730E+02  0.00000000000E+00 0. -1.
</event>
<event>
 7    1  0.2530788E-009  0.4778727E+02  0.7816164E-02  0.1312668E+00
        -11   -1    0    0    0    0  0.00000000000E+00  0.00000000000E+00  0.45593999997E+02  0.45594000000E+02  0.51100000000E-03 0.  1.
         11   -1    0    0    0    0 -0.00000000000E+00 -0.00000000000E+00 -0.45593999997E+02  0.45594000000E+02  0.51100000000E-03 0. -1.
    9900012    2    1    2    0    0  0.39444713990E+01 -0.42568388248E+02 -0.74831050727E+01  0.47787269659E+02  0.19999993682E+02 0.  0.
        -12    1    1    2    0    0 -0.39444713990E+01  0.42568388248E+02  0.74831050727E+01  0.43400730341E+02  0.00000000000E+00 0.  1.
         11    1    3    3    0    0  0.20832722252E+01  0.35063676532E+00 -0.14049250988E+01  0.25370818079E+01  0.51100000000E-03 0. -1.
        -11    1    3    3    0    0  0.48779580642E+01 -0.81116762898E+01  0.12633662308E+01  0.95493382808E+01  0.51100000000E-03 0.  1.
         12    1    3    3    0    0 -0.30167588904E+01 -0.34807348723E+02 -0.73415462046E+01  0.35700849570E+02  0.00000000000E+00 0. -1.
</event>
<event>
 7    1  0.2530788E-009  0.4778727E+02  0.7816164E-02  0.1312668E+00
        -11   -1    0    0    0    0  0.00000000000E+00  0.00000000000E+00  0.45593999997E+02  0.45594000000E+02  0.51100000000E-03 0.  1.
         11   -1    0    0    0    0 -0.00000000000E+00 -0.00000000000E+00 -0.45593999997E+02  0.45594000000E+02  0.51100000000E-03 0. -1.
    9900012    2    1    2    0    0  0.24675148325E+02 -0.39761581463E+00 -0.35701574593E+02  0.47787268766E+02  0.19999989614E+02 0.  0.
        -12    1    1    2    0    0 -0.24675148325E+02  0.39761581463E+00  0.35701574593E+02  0.43400731234E+02  0.00000000000E+00 0.  1.
         11    1    3    3    0    0  0.17129156722E+02 -0.17248625270E+01 -0.21041117682E+02  0.27186610571E+02  0.51100000000E-03 0. -1.
        -11    1    3    3    0    0 -0.20111437455E+01 -0.20657065564E+01 -0.13636324974E+00  0.28862498054E+01  0.51100000000E-03 0.  1.
        -12    1    3    3    0    0  0.95571353480E+01  0.33929532687E+01 -0.14524093661E+02  0.17714408390E+02  0.00000000000E+00 0.  1.
</event>
<event>
 7    1  0.2530788E-009  0.4778727E+02  0.7816164E-02  0.1312668E+00
        -11   -1    0    0    0    0  0.00000000000E+00  0.00000000000E+00  0.45593999997E+02  0.45594000000E+02  0.51100000000E-03 0.  1.
         11   -1    0    0    0    0 -0.00000000000E+00 -0.00000000000E+00 -0.45593999997E+02  0.45594000000E+02  0.51100000000E-03 0. -1.
    9900012    2    1    2    0    0 -0.85348990296E+01  0.10660100085E+02 -0.41196376644E+02  0.47787266321E+02  0.19999978465E+02 0.  0.
        -12    1    1    2    0    0  0.85348990296E+01 -0.10660100085E+02  0.41196376644E+02  0.43400733679E+02  0.00000000000E+00 0.  1.
         11    1    3    3    0    0 -0.19895426566E+00  0.13954907310E+01 -0.15239996099E+02  0.15305046832E+02  0.51100000000E-03 0. -1.
        -11    1    3    3    0    0 -0.10613416552E+02  0.27379395593E+01 -0.90395304474E+01  0.14207534442E+02  0.51100000000E-03 0.  1.
        -12    1    3    3    0    0  0.22774717883E+01  0.65266697943E+01 -0.16916850098E+02  0.18274685047E+02  0.00000000000E+00 0.  1.
</event>
<event>
 7    1  0.2530788E-009  0.4778726E+02  0.7816164E-02  0.1312668E+00
        -11   -1    0    0    0    0  0.00000000000E+00  0.00000000000E+00  0.45593999997E+02  0.45594000000E+02  0.51100000000E-03 0. -1.
         11   -1    0    0    0    0 -0.00000000000E+00 -0.00000000000E+00 -0.45593999997E+02  0.45594000000E+02  0.51100000000E-03 0.  1.
    9900012    2    1    2    0    0 -0.17812388562E+02 -0.65593888311E+00  0.39571619124E+02  0.47787257124E+02  0.19999936531E+02 0.  0.
        -12    1    1    2    0    0  0.17812388562E+02  0.65593888311E+00 -0.39571619124E+02  0.43400742876E+02  0.00000000000E+00 0.  1.
         11    1    3    3    0    0 -0.14864592127E+02 -0.30022521751E+01  0.25718730183E+02  0.29856702760E+02  0.51100000000E-03 0. -1.
        -11    1    3    3    0    0 -0.25463677985E+01  0.65339634505E+01  0.71355590509E+01  0.10004642451E+02  0.51100000000E-03 0.  1.
        -12    1    3    3    0    0 -0.40142863623E+00 -0.41876501584E+01  0.67173298900E+01  0.79259119128E+01  0.00000000000E+00 0.  1.
</event>
<event>
 7    1  0.2530788E-009  0.4778727E+02  0.7816164E-02  0.1312668E+00
        -11   -1    0    0    0    0  0.00000000000E+00  0.00000000000E+00  0.45593999997E+02  0.45594000000E+02  0.51100000000E-03 0. -1.
         11   -1    0    0    0    0 -0.00000000000E+00 -0.00000000000E+00 -0.45593999997E+02  0.45594000000E+02  0.51100000000E-03 0.  1.
    9900012    2    1    2    0    0 -0.25585079865E+02 -0.34652958446E+02  0.53103485593E+01  0.47787266796E+02  0.19999980631E+02 0.  0.
        -12    1    1    2    0    0  0.25585079865E+02  0.34652958446E+02 -0.53103485593E+01  0.43400733204E+02  0.00000000000E+00 0.  1.
         11    1    3    3    0    0 -0.38066418718E+01  0.92626555527E+00  0.46039238098E+01  0.60452133897E+01  0.51100000000E-03 0.  1.
        -11    1    3    3    0    0 -0.15266965542E+02 -0.25927690907E+02  0.79314608579E+00  0.30099077620E+02  0.51100000000E-03 0. -1.
        -12    1    3    3    0    0 -0.65114724514E+01 -0.96515330950E+01 -0.86721336339E-01  0.11642975786E+02  0.00000000000E+00 0.  1.
</event>
<event>
 7    1  0.2530788E-009  0.4778727E+02  0.7816164E-02  0.1312668E+00
        -11   -1    0    0    0    0  0.00000000000E+00  0.00000000000E+00  0.45593999997E+02  0.45594000000E+02  0.51100000000E-03 0.  1.
         11   -1    0    0    0    0 -0.00000000000E+00 -0.00000000000E+00 -0.45593999997E+02  0.45594000000E+02  0.51100000000E-03 0. -1.
    9900012    2    1    2    0    0 -0.36946460805E+02 -0.99282559796E+01 -0.20494198996E+02  0.47787269300E+02  0.19999992047E+02 0.  0.
        -12    1    1    2    0    0  0.36946460805E+02  0.99282559796E+01  0.20494198996E+02  0.43400730700E+02  0.00000000000E+00 0.  1.
         11    1    3    3    0    0 -0.82163310359E+01 -0.73655757859E+01 -0.91045393757E+01  0.14305678588E+02  0.51100000000E-03 0. -1.
        -11    1    3    3    0    0 -0.11770385752E+02  0.50943086177E+01 -0.37129395218E+01  0.13352148935E+02  0.51100000000E-03 0.  1.
         12    1    3    3    0    0 -0.16959744017E+02 -0.76569888114E+01 -0.76767200983E+01  0.20129441777E+02  0.00000000000E+00 0. -1.
</event>
<event>
 7    1  0.2530788E-009  0.4778727E+02  0.7816164E-02  0.1312668E+00
        -11   -1    0    0    0    0  0.00000000000E+00  0.00000000000E+00  0.45593999997E+02  0.45594000000E+02  0.51100000000E-03 0.  1.
         11   -1    0    0    0    0 -0.00000000000E+00 -0.00000000000E+00 -0.45593999997E+02  0.45594000000E+02  0.51100000000E-03 0. -1.
    9900012    2    1    2    0    0  0.17792254930E+02 -0.69389256456E+01 -0.38973200134E+02  0.47787270130E+02  0.19999995829E+02 0.  0.
        -12    1    1    2    0    0 -0.17792254930E+02  0.69389256456E+01  0.38973200134E+02  0.43400729870E+02  0.00000000000E+00 0.  1.
         11    1    3    3    0    0  0.26763167939E+01  0.30595917945E+00 -0.84655871155E+01  0.88838307094E+01  0.51100000000E-03 0.  1.
        -11    1    3    3    0    0  0.28326686563E+01 -0.13917671234E+01 -0.23286627954E+02  0.23499533382E+02  0.51100000000E-03 0. -1.
        -12    1    3    3    0    0  0.12283269480E+02 -0.58531177016E+01 -0.72209850642E+01  0.15403906038E+02  0.00000000000E+00 0.  1.
</event>
<event>
 7    1  0.2530788E-009  0.4778728E+02  0.7816164E-02  0.1312668E+00
        -11   -1    0    0    0    0  0.00000000000E+00  0.00000000000E+00  0.45593999997E+02  0.45594000000E+02  0.51100000000E-03 0.  1.
         11   -1    0    0    0    0 -0.00000000000E+00 -0.00000000000E+00 -0.45593999997E+02  0.45594000000E+02  0.51100000000E-03 0. -1.
    9900012    2    1    2    0    0  0.12763158816E+00  0.31519396393E+02 -0.29835118147E+02  0.47787275195E+02  0.20000018923E+02 0.  0.
        -12    1    1    2    0    0 -0.12763158816E+00 -0.31519396393E+02  0.29835118147E+02  0.43400724805E+02  0.00000000000E+00 0.  1.
         11    1    3    3    0    0  0.20278459242E+00  0.68741296571E+00 -0.35041444049E+01  0.35766865179E+01  0.51100000000E-03 0. -1.
        -11    1    3    3    0    0  0.70112776168E+00  0.29161131554E+02 -0.28891687285E+02  0.41055971162E+02  0.51100000000E-03 0.  1.
        -12    1    3    3    0    0 -0.77628076593E+00  0.16708518735E+01  0.25607135434E+01  0.31546175144E+01  0.00000000000E+00 0.  1.
</event>
<event>
 7    1  0.2530788E-009  0.4778727E+02  0.7816164E-02  0.1312668E+00
        -11   -1    0    0    0    0  0.00000000000E+00  0.00000000000E+00  0.45593999997E+02  0.45594000000E+02  0.51100000000E-03 0.  1.
         11   -1    0    0    0    0 -0.00000000000E+00 -0.00000000000E+00 -0.45593999997E+02  0.45594000000E+02  0.51100000000E-03 0. -1.
    9900012    2    1    2    0    0 -0.31789814740E+01 -0.25231032908E+02 -0.35169764849E+02  0.47787270693E+02  0.19999998399E+02 0.  0.
        -12    1    1    2    0    0  0.31789814740E+01  0.25231032908E+02  0.35169764849E+02  0.43400729307E+02  0.00000000000E+00 0.  1.
         11    1    3    3    0    0 -0.13438024716E+01 -0.24207517898E+02 -0.20887798297E+02  0.32001716295E+02  0.51100000000E-03 0. -1.
        -11    1    3    3    0    0 -0.26652404612E+01  0.54989569587E+00 -0.20046259146E+01  0.33800025608E+01  0.51100000000E-03 0.  1.
         12    1    3    3    0    0  0.83006145876E+00 -0.15734107064E+01 -0.12277340637E+02  0.12405551838E+02  0.00000000000E+00 0. -1.
</event>
<event>
 7    1  0.2530788E-009  0.4778728E+02  0.7816164E-02  0.1312668E+00
        -11   -1    0    0    0    0  0.00000000000E+00  0.00000000000E+00  0.45593999997E+02  0.45594000000E+02  0.51100000000E-03 0. -1.
         11   -1    0    0    0    0 -0.00000000000E+00 -0.00000000000E+00 -0.45593999997E+02  0.45594000000E+02  0.51100000000E-03 0.  1.
    9900012    2    1    2    0    0 -0.36804910331E+00  0.42469084215E+02 -0.89366813038E+01  0.47787275963E+02  0.20000022428E+02 0.  0.
        -12    1    1    2    0    0  0.36804910331E+00 -0.42469084215E+02  0.89366813038E+01  0.43400724037E+02  0.00000000000E+00 0.  1.
         11    1    3    3    0    0  0.25657730463E+01 -0.54334253576E+00 -0.22394490627E+01  0.34487019010E+01  0.51100000000E-03 0.  1.
        -11    1    3    3    0    0 -0.22559997054E+01  0.32849571410E+02 -0.16426006589E+01  0.32967893680E+02  0.51100000000E-03 0. -1.
         12    1    3    3    0    0 -0.67782244424E+00  0.10162855340E+02 -0.50546315822E+01  0.11370680383E+02  0.00000000000E+00 0. -1.
</event>
<event>
 7    1  0.2530788E-009  0.4778727E+02  0.7816164E-02  0.1312668E+00
        -11   -1    0    0    0    0  0.00000000000E+00  0.00000000000E+00  0.45593999997E+02  0.45594000000E+02  0.51100000000E-03 0.  1.
         11   -1    0    0    0    0 -0.00000000000E+00 -0.00000000000E+00 -0.45593999997E+02  0.45594000000E+02  0.51100000000E-03 0. -1.
    9900012    2    1    2    0    0 -0.28175236608E+02  0.95294885264E+01 -0.31606458788E+02  0.47787270206E+02  0.19999996179E+02 0.  0.
        -12    1    1    2    0    0  0.28175236608E+02 -0.95294885264E+01  0.31606458788E+02  0.43400729794E+02  0.00000000000E+00 0.  1.
         11    1    3    3    0    0  0.30349519557E+00  0.52824477893E+01 -0.22472513597E+01  0.57486087808E+01  0.51100000000E-03 0. -1.
        -11    1    3    3    0    0 -0.25803809856E+01  0.14497961873E+01 -0.73958858358E+01  0.79661410088E+01  0.51100000000E-03 0.  1.
         12    1    3    3    0    0 -0.25898350818E+02  0.27972445499E+01 -0.21963321593E+02  0.34072520417E+02  0.00000000000E+00 0. -1.
</event>
<event>
 7    1  0.2530788E-009  0.4778727E+02  0.7816164E-02  0.1312668E+00
        -11   -1    0    0    0    0  0.00000000000E+00  0.00000000000E+00  0.45593999997E+02  0.45594000000E+02  0.51100000000E-03 0.  1.
         11   -1    0    0    0    0 -0.00000000000E+00 -0.00000000000E+00 -0.45593999997E+02  0.45594000000E+02  0.51100000000E-03 0. -1.
    9900012    2    1    2    0    0 -0.90372856547E+01  0.40820423987E+02 -0.11646612482E+02  0.47787272716E+02  0.20000007623E+02 0.  0.
        -12    1    1    2    0    0  0.90372856547E+01 -0.40820423987E+02  0.11646612482E+02  0.43400727284E+02  0.00000000000E+00 0.  1.
         11    1    3    3    0    0 -0.40846936408E+01  0.33557397010E+02 -0.11450123056E+02  0.35691580723E+02  0.51100000000E-03 0. -1.
        -11    1    3    3    0    0 -0.59826313795E+00  0.76861578211E+01  0.10927526804E+00  0.77101804245E+01  0.51100000000E-03 0.  1.
         12    1    3    3    0    0 -0.43543288760E+01 -0.42313084486E+00 -0.30576469370E+00  0.43855115688E+01  0.00000000000E+00 0. -1.
</event>
<event>
 7    1  0.2530788E-009  0.4778727E+02  0.7816164E-02  0.1312668E+00
        -11   -1    0    0    0    0  0.00000000000E+00  0.00000000000E+00  0.45593999997E+02  0.45594000000E+02  0.51100000000E-03 0. -1.
         11   -1    0    0    0    0 -0.00000000000E+00 -0.00000000000E+00 -0.45593999997E+02  0.45594000000E+02  0.51100000000E-03 0.  1.
    9900012    2    1    2    0    0  0.17891573493E+02  0.18426835095E+02  0.34985235245E+02  0.47787270296E+02  0.19999996589E+02 0.  0.
        -12    1    1    2    0    0 -0.17891573493E+02 -0.18426835095E+02 -0.34985235245E+02  0.43400729704E+02  0.00000000000E+00 0.  1.
         11    1    3    3    0    0 -0.10344989542E+01  0.78039047171E-01  0.95671213630E+01  0.96232057868E+01  0.51100000000E-03 0.  1.
        -11    1    3    3    0    0  0.87221538760E+01  0.72033157651E+01  0.40971444625E+01  0.12031222683E+02  0.51100000000E-03 0. -1.
         12    1    3    3    0    0  0.10203918571E+02  0.11145480282E+02  0.21320969419E+02  0.26132841826E+02  0.00000000000E+00 0. -1.
</event>
<event>
 7    1  0.2530788E-009  0.4778727E+02  0.7816164E-02  0.1312668E+00
        -11   -1    0    0    0    0  0.00000000000E+00  0.00000000000E+00  0.45593999997E+02  0.45594000000E+02  0.51100000000E-03 0. -1.
         11   -1    0    0    0    0 -0.00000000000E+00 -0.00000000000E+00 -0.45593999997E+02  0.45594000000E+02  0.51100000000E-03 0.  1.
    9900012    2    1    2    0    0 -0.10259515078E+02  0.37544396693E+02  0.19203746587E+02  0.47787271254E+02  0.20000000957E+02 0.  0.
        -12    1    1    2    0    0  0.10259515078E+02 -0.37544396693E+02 -0.19203746587E+02  0.43400728746E+02  0.00000000000E+00 0.  1.
         11    1    3    3    0    0 -0.22484276123E+01  0.15577322400E+02  0.75053620554E+01  0.17436710118E+02  0.51100000000E-03 0. -1.
        -11    1    3    3    0    0 -0.19503645975E+01  0.37398344109E+01  0.10254333476E+02  0.11087905067E+02  0.51100000000E-03 0.  1.
        -12    1    3    3    0    0 -0.60607228684E+01  0.18227239882E+02  0.14440510554E+01  0.19262656070E+02  0.00000000000E+00 0.  1.
</event>
<event>
 7    1  0.2530788E-009  0.4778727E+02  0.7816164E-02  0.1312668E+00
        -11   -1    0    0    0    0  0.00000000000E+00  0.00000000000E+00  0.45593999997E+02  0.45594000000E+02  0.51100000000E-03 0.  1.
         11   -1    0    0    0    0 -0.00000000000E+00 -0.00000000000E+00 -0.45593999997E+02  0.45594000000E+02  0.51100000000E-03 0. -1.
    9900012    2    1    2    0    0 -0.29816846457E+02  0.27359521004E+02 -0.15685520323E+02  0.47787271089E+02  0.20000000203E+02 0.  0.
        -12    1    1    2    0    0  0.29816846457E+02 -0.27359521004E+02  0.15685520323E+02  0.43400728911E+02  0.00000000000E+00 0.  1.
         11    1    3    3    0    0  0.20731157736E+01  0.49826796468E+01 -0.35933834417E+01  0.64836186111E+01  0.51100000000E-03 0.  1.
        -11    1    3    3    0    0 -0.20810053987E+02  0.11723308401E+02 -0.95527060341E+01  0.25724472777E+02  0.51100000000E-03 0. -1.
        -12    1    3    3    0    0 -0.11079908243E+02  0.10653532957E+02 -0.25394308476E+01  0.15579179701E+02  0.00000000000E+00 0.  1.
</event>
<event>
 7    1  0.2530788E-009  0.4778727E+02  0.7816164E-02  0.1312668E+00
        -11   -1    0    0    0    0  0.00000000000E+00  0.00000000000E+00  0.45593999997E+02  0.45594000000E+02  0.51100000000E-03 0.  1.
         11   -1    0    0    0    0 -0.00000000000E+00 -0.00000000000E+00 -0.45593999997E+02  0.45594000000E+02  0.51100000000E-03 0. -1.
    9900012    2    1    2    0    0  0.26528529174E+02  0.17618699281E+02 -0.29486294405E+02  0.47787274404E+02  0.20000015319E+02 0.  0.
        -12    1    1    2    0    0 -0.26528529174E+02 -0.17618699281E+02  0.29486294405E+02  0.43400725596E+02  0.00000000000E+00 0.  1.
         11    1    3    3    0    0  0.13510831621E+02  0.16260612180E+02 -0.23018715866E+02  0.31253981505E+02  0.51100000000E-03 0. -1.
        -11    1    3    3    0    0  0.65528604966E+01 -0.76873335527E-01  0.91383046649E+00  0.66167194727E+01  0.51100000000E-03 0.  1.
        -12    1    3    3    0    0  0.64648370564E+01  0.14349604374E+01 -0.73814090050E+01  0.99165734265E+01  0.00000000000E+00 0.  1.
</event>
<event>
 7    1  0.2530788E-009  0.4778727E+02  0.7816164E-02  0.1312668E+00
        -11   -1    0    0    0    0  0.00000000000E+00  0.00000000000E+00  0.45593999997E+02  0.45594000000E+02  0.51100000000E-03 0.  1.
         11   -1    0    0    0    0 -0.00000000000E+00 -0.00000000000E+00 -0.45593999997E+02  0.45594000000E+02  0.51100000000E-03 0. -1.
    9900012    2    1    2    0    0  0.14918666946E+02  0.27865452123E+02 -0.29741770367E+02  0.47787274776E+02  0.20000017012E+02 0.  0.
        -12    1    1    2    0    0 -0.14918666946E+02 -0.27865452123E+02  0.29741770367E+02  0.43400725224E+02  0.00000000000E+00 0.  1.
         11    1    3    3    0    0  0.77504733775E+00  0.47410652905E+01 -0.27542211864E+01  0.55375204802E+01  0.51100000000E-03 0. -1.
        -11    1    3    3    0    0  0.95229756066E+01  0.24379369920E+02 -0.26796527380E+02  0.37457904667E+02  0.51100000000E-03 0.  1.
        -12    1    3    3    0    0  0.46206440013E+01 -0.12549830879E+01 -0.19102180005E+00  0.47918496288E+01  0.00000000000E+00 0.  1.
</event>
<event>
 7    1  0.2530788E-009  0.4778727E+02  0.7816164E-02  0.1312668E+00
        -11   -1    0    0    0    0  0.00000000000E+00  0.00000000000E+00  0.45593999997E+02  0.45594000000E+02  0.51100000000E-03 0.  1.
         11   -1    0    0    0    0 -0.00000000000E+00 -0.00000000000E+00 -0.45593999997E+02  0.45594000000E+02  0.51100000000E-03 0. -1.
    9900012    2    1    2    0    0  0.35867355046E+02 -0.19160061683E+02 -0.15167336784E+02  0.47787271587E+02  0.20000002473E+02 0.  0.
        -12    1    1    2    0    0 -0.35867355046E+02  0.19160061683E+02  0.15167336784E+02  0.43400728413E+02  0.00000000000E+00 0.  1.
         11    1    3    3    0    0  0.28347587212E+02 -0.10378656254E+02 -0.11186350318E+02  0.32193736037E+02  0.51100000000E-03 0. -1.
        -11    1    3    3    0    0  0.43245756530E-02 -0.65460478629E+01 -0.41503299717E+01  0.77508709484E+01  0.51100000000E-03 0.  1.
        -12    1    3    3    0    0  0.75154432584E+01 -0.22353575662E+01  0.16934350482E+00  0.78426646009E+01  0.00000000000E+00 0.  1.
</event>
<event>
 7    1  0.2530788E-009  0.4778727E+02  0.7816164E-02  0.1312668E+00
        -11   -1    0    0    0    0  0.00000000000E+00  0.00000000000E+00  0.45593999997E+02  0.45594000000E+02  0.51100000000E-03 0.  1.
         11   -1    0    0    0    0 -0.00000000000E+00 -0.00000000000E+00 -0.45593999997E+02  0.45594000000E+02  0.51100000000E-03 0. -1.
    9900012    2    1    2    0    0  0.18290476937E+01  0.18521091498E+02 -0.39207739321E+02  0.47787273412E+02  0.20000010793E+02 0.  0.
        -12    1    1    2    0    0 -0.18290476937E+01 -0.18521091498E+02  0.39207739321E+02  0.43400726588E+02  0.00000000000E+00 0.  1.
         11    1    3    3    0    0  0.98408644940E+01  0.13974845518E+02 -0.30201149079E+02  0.34702281297E+02  0.51100000000E-03 0. -1.
        -11    1    3    3    0    0 -0.45572820751E+01  0.18434151469E+01 -0.60493093769E+01  0.77949434580E+01  0.51100000000E-03 0.  1.
         12    1    3    3    0    0 -0.34545347252E+01  0.27028308325E+01 -0.29572808650E+01  0.52900486569E+01  0.00000000000E+00 0. -1.
</event>
<event>
 7    1  0.2530788E-009  0.4778727E+02  0.7816164E-02  0.1312668E+00
        -11   -1    0    0    0    0  0.00000000000E+00  0.00000000000E+00  0.45593999997E+02  0.45594000000E+02  0.51100000000E-03 0.  1.
         11   -1    0    0    0    0 -0.00000000000E+00 -0.00000000000E+00 -0.45593999997E+02  0.45594000000E+02  0.51100000000E-03 0. -1.
    9900012    2    1    2    0    0 -0.20682193917E+02 -0.37114659842E+02 -0.88527920873E+01  0.47787273645E+02  0.20000011858E+02 0.  0.
        -12    1    1    2    0    0  0.20682193917E+02  0.37114659842E+02  0.88527920873E+01  0.43400726355E+02  0.00000000000E+00 0.  1.
         11    1    3    3    0    0 -0.74629084113E+01 -0.16015139819E+02 -0.12962922007E+02  0.21913855265E+02  0.51100000000E-03 0. -1.
        -11    1    3    3    0    0 -0.75753758627E+01 -0.76217236876E+01  0.32910311785E+01  0.11238677765E+02  0.51100000000E-03 0.  1.
         12    1    3    3    0    0 -0.56439096428E+01 -0.13477796336E+02  0.81909874076E+00  0.14634740615E+02  0.00000000000E+00 0. -1.
</event>
<event>
 7    1  0.2530788E-009  0.4778727E+02  0.7816164E-02  0.1312668E+00
        -11   -1    0    0    0    0  0.00000000000E+00  0.00000000000E+00  0.45593999997E+02  0.45594000000E+02  0.51100000000E-03 0. -1.
         11   -1    0    0    0    0 -0.00000000000E+00 -0.00000000000E+00 -0.45593999997E+02  0.45594000000E+02  0.51100000000E-03 0.  1.
    9900012    2    1    2    0    0  0.91278359835E+01  0.10106056692E+02  0.41208900357E+02  0.47787271432E+02  0.20000001767E+02 0.  0.
        -12    1    1    2    0    0 -0.91278359835E+01 -0.10106056692E+02 -0.41208900357E+02  0.43400728568E+02  0.00000000000E+00 0.  1.
         11    1    3    3    0    0  0.94152618347E+01 -0.36555485135E+01  0.19055467682E+02  0.21566665000E+02  0.51100000000E-03 0. -1.
        -11    1    3    3    0    0  0.52962611391E+00  0.11031636116E+02  0.16026993643E+02  0.19463864588E+02  0.51100000000E-03 0.  1.
         12    1    3    3    0    0 -0.81705196515E+00  0.27299690897E+01  0.61264390315E+01  0.67567418443E+01  0.00000000000E+00 0. -1.
</event>
<event>
 7    1  0.2530788E-009  0.4778727E+02  0.7816164E-02  0.1312668E+00
        -11   -1    0    0    0    0  0.00000000000E+00  0.00000000000E+00  0.45593999997E+02  0.45594000000E+02  0.51100000000E-03 0.  1.
         11   -1    0    0    0    0 -0.00000000000E+00 -0.00000000000E+00 -0.45593999997E+02  0.45594000000E+02  0.51100000000E-03 0. -1.
    9900012    2    1    2    0    0  0.26001991913E+02 -0.31636108767E+02  0.14376230195E+02  0.47787274707E+02  0.20000016697E+02 0.  0.
        -12    1    1    2    0    0 -0.26001991913E+02  0.31636108767E+02 -0.14376230195E+02  0.43400725293E+02  0.00000000000E+00 0.  1.
         11    1    3    3    0    0  0.12435235109E+02 -0.23332899790E+02  0.15027441517E+02  0.30411893786E+02  0.51100000000E-03 0. -1.
        -11    1    3    3    0    0  0.36316764453E+00  0.76330320087E-01 -0.16636147663E+01  0.17045032730E+01  0.51100000000E-03 0.  1.
         12    1    3    3    0    0  0.13203589159E+02 -0.83795392971E+01  0.10124034443E+01  0.15670877647E+02  0.00000000000E+00 0. -1.
</event>
<event>
 7    1  0.2530788E-009  0.4778726E+02  0.7816164E-02  0.1312668E+00
        -11   -1    0    0    0    0  0.00000000000E+00  0.00000000000E+00  0.45593999997E+02  0.45594000000E+02  0.51100000000E-03 0.  1.
         11   -1    0    0    0    0 -0.00000000000E+00 -0.00000000000E+00 -0.45593999997E+02  0.45594000000E+02  0.51100000000E-03 0. -1.
    9900012    2    1    2    0    0 -0.34265635404E+02  0.11599297686E+01  0.26610989046E+02  0.47787263316E+02  0.19999964765E+02 0.  0.
        -12    1    1    2    0    0  0.34265635404E+02 -0.11599297686E+01 -0.26610989046E+02  0.43400736684E+02  0.00000000000E+00 0.  1.
         11    1    3    3    0    0 -0.67107370599E+01  0.70143967894E+01  0.11150196907E+02  0.14783864364E+02  0.51100000000E-03 0. -1.
        -11    1    3    3    0    0 -0.19643932494E+02 -0.60142989261E+00  0.10799214388E+02  0.22424737087E+02  0.51100000000E-03 0.  1.
        -12    1    3    3    0    0 -0.79109658497E+01 -0.52530371282E+01  0.46615777510E+01  0.10578661866E+02  0.00000000000E+00 0.  1.
</event>
<event>
 7    1  0.2530788E-009  0.4778727E+02  0.7816164E-02  0.1312668E+00
        -11   -1    0    0    0    0  0.00000000000E+00  0.00000000000E+00  0.45593999997E+02  0.45594000000E+02  0.51100000000E-03 0.  1.
         11   -1    0    0    0    0 -0.00000000000E+00 -0.00000000000E+00 -0.45593999997E+02  0.45594000000E+02  0.51100000000E-03 0. -1.
    9900012    2    1    2    0    0 -0.24836400897E+02  0.26313826747E+02 -0.23965790768E+02  0.47787269421E+02  0.19999992599E+02 0.  0.
        -12    1    1    2    0    0  0.24836400897E+02 -0.26313826747E+02  0.23965790768E+02  0.43400730579E+02  0.00000000000E+00 0.  1.
         11    1    3    3    0    0 -0.10781376006E+02  0.22058419737E+02 -0.14890055626E+02  0.28714555659E+02  0.51100000000E-03 0. -1.
        -11    1    3    3    0    0 -0.69145287164E+01 -0.15952024745E+01 -0.61460073577E+01  0.93876932740E+01  0.51100000000E-03 0.  1.
         12    1    3    3    0    0 -0.71404961749E+01  0.58506094851E+01 -0.29297277846E+01  0.96850204885E+01  0.00000000000E+00 0. -1.
</event>
<event>
 7    1  0.2530788E-009  0.4778727E+02  0.7816164E-02  0.1312668E+00
        -11   -1    0    0    0    0  0.00000000000E+00  0.00000000000E+00  0.45593999997E+02  0.45594000000E+02  0.51100000000E-03 0. -1.
         11   -1    0    0    0    0 -0.00000000000E+00 -0.00000000000E+00 -0.45593999997E+02  0.45594000000E+02  0.51100000000E-03 0.  1.
    9900012    2    1    2    0    0 -0.40743511637E+01 -0.32895551978E+02  0.28016170785E+02  0.47787268407E+02  0.19999987977E+02 0.  0.
        -12    1    1    2    0    0  0.40743511637E+01  0.32895551978E+02 -0.28016170785E+02  0.43400731593E+02  0.00000000000E+00 0.  1.
         11    1    3    3    0    0  0.13158351347E+01 -0.18981081335E+02  0.13431584982E+02  0.23289919410E+02  0.51100000000E-03 0. -1.
        -11    1    3    3    0    0 -0.27508250365E+01 -0.29828257644E+01 -0.19492015205E+01  0.45015191603E+01  0.51100000000E-03 0.  1.
        -12    1    3    3    0    0 -0.26393612619E+01 -0.10931644879E+02  0.16533787323E+02  0.19995829837E+02  0.00000000000E+00 0.  1.
</event>
<event>
 7    1  0.2530788E-009  0.4778727E+02  0.7816164E-02  0.1312668E+00
        -11   -1    0    0    0    0  0.00000000000E+00  0.00000000000E+00  0.45593999997E+02  0.45594000000E+02  0.51100000000E-03 0.  1.
         11   -1    0    0    0    0 -0.00000000000E+00 -0.00000000000E+00 -0.45593999997E+02  0.45594000000E+02  0.51100000000E-03 0. -1.
    9900012    2    1    2    0    0 -0.64268739641E+01  0.98896161988E+01 -0.41767382162E+02  0.47787269244E+02  0.19999991791E+02 0.  0.
        -12    1    1    2    0    0  0.64268739641E+01 -0.98896161988E+01  0.41767382162E+02  0.43400730756E+02  0.00000000000E+00 0.  1.
         11    1    3    3    0    0 -0.82451481114E+01  0.82515955012E+00 -0.79977276933E+01  0.11516379821E+02  0.51100000000E-03 0. -1.
        -11    1    3    3    0    0 -0.67803788667E+00 -0.17717427163E+01 -0.29583923926E+01  0.35143837921E+01  0.51100000000E-03 0.  1.
         12    1    3    3    0    0  0.24963120339E+01  0.10836199365E+02 -0.30811262076E+02  0.32756505631E+02  0.00000000000E+00 0. -1.
</event>
<event>
 7    1  0.2530788E-009  0.4778728E+02  0.7816164E-02  0.1312668E+00
        -11   -1    0    0    0    0  0.00000000000E+00  0.00000000000E+00  0.45593999997E+02  0.45594000000E+02  0.51100000000E-03 0.  1.
         11   -1    0    0    0    0 -0.00000000000E+00 -0.00000000000E+00 -0.45593999997E+02  0.45594000000E+02  0.51100000000E-03 0. -1.
    9900012    2    1    2    0    0  0.10504622300E+01  0.21620360718E+02 -0.37617540986E+02  0.47787275832E+02  0.20000021828E+02 0.  0.
        -12    1    1    2    0    0 -0.10504622300E+01 -0.21620360718E+02  0.37617540986E+02  0.43400724168E+02  0.00000000000E+00 0.  1.
         11    1    3    3    0    0  0.65733353625E+01  0.89543603358E+00 -0.56143199482E+01  0.86908648718E+01  0.51100000000E-03 0. -1.
        -11    1    3    3    0    0 -0.53366093933E+01  0.12646030958E+02 -0.15387624141E+02  0.20619904844E+02  0.51100000000E-03 0.  1.
        -12    1    3    3    0    0 -0.18626373917E+00  0.80788937273E+01 -0.16615596897E+02  0.18476506117E+02  0.00000000000E+00 0.  1.
</event>
<event>
 7    1  0.2530788E-009  0.4778723E+02  0.7816164E-02  0.1312668E+00
        -11   -1    0    0    0    0  0.00000000000E+00  0.00000000000E+00  0.45593999997E+02  0.45594000000E+02  0.51100000000E-03 0.  1.
         11   -1    0    0    0    0 -0.00000000000E+00 -0.00000000000E+00 -0.45593999997E+02  0.45594000000E+02  0.51100000000E-03 0. -1.
    9900012    2    1    2    0    0 -0.20688552191E+02 -0.20359851059E+00 -0.38151923044E+02  0.47787229545E+02  0.19999810785E+02 0.  0.
        -12    1    1    2    0    0  0.20688552191E+02  0.20359851059E+00  0.38151923044E+02  0.43400770455E+02  0.00000000000E+00 0.  1.
         11    1    3    3    0    0 -0.68174331366E+01  0.37352385829E+01 -0.24160410928E+02  0.25380206034E+02  0.51100000000E-03 0. -1.
        -11    1    3    3    0    0 -0.32865193724E+01 -0.57486933177E+01 -0.39807087375E+01  0.77262362610E+01  0.51100000000E-03 0.  1.
         12    1    3    3    0    0 -0.10584599682E+02  0.18098562243E+01 -0.10010803379E+02  0.14680787250E+02  0.00000000000E+00 0. -1.
</event>
<event>
 7    1  0.2530788E-009  0.4778727E+02  0.7816164E-02  0.1312668E+00
        -11   -1    0    0    0    0  0.00000000000E+00  0.00000000000E+00  0.45593999997E+02  0.45594000000E+02  0.51100000000E-03 0.  1.
         11   -1    0    0    0    0 -0.00000000000E+00 -0.00000000000E+00 -0.45593999997E+02  0.45594000000E+02  0.51100000000E-03 0. -1.
    9900012    2    1    2    0    0  0.19331765539E+02 -0.11007821714E+02 -0.37265719543E+02  0.47787272462E+02  0.20000006464E+02 0.  0.
        -12    1    1    2    0    0 -0.19331765539E+02  0.11007821714E+02  0.37265719543E+02  0.43400727538E+02  0.00000000000E+00 0.  1.
         11    1    3    3    0    0  0.30283425207E+01 -0.40258635394E+00 -0.59467059442E+01  0.66855251135E+01  0.51100000000E-03 0. -1.
        -11    1    3    3    0    0  0.95424745954E+01  0.34222011662E+00 -0.30198267926E+01  0.10014753623E+02  0.51100000000E-03 0.  1.
        -12    1    3    3    0    0  0.67609484233E+01 -0.10947455477E+02 -0.28299186806E+02  0.31086993726E+02  0.00000000000E+00 0.  1.
</event>
<event>
 7    1  0.2530788E-009  0.4778729E+02  0.7816164E-02  0.1312668E+00
        -11   -1    0    0    0    0  0.00000000000E+00  0.00000000000E+00  0.45593999997E+02  0.45594000000E+02  0.51100000000E-03 0. -1.
         11   -1    0    0    0    0 -0.00000000000E+00 -0.00000000000E+00 -0.45593999997E+02  0.45594000000E+02  0.51100000000E-03 0.  1.
    9900012    2    1    2    0    0  0.27657913707E+02 -0.25438274671E+02  0.21715338875E+02  0.47787286281E+02  0.20000069472E+02 0.  0.
        -12    1    1    2    0    0 -0.27657913707E+02  0.25438274671E+02 -0.21715338875E+02  0.43400713719E+02  0.00000000000E+00 0.  1.
         11    1    3    3    0    0  0.23023431899E+02 -0.24738243062E+02  0.19853970841E+02  0.39194887991E+02  0.51100000000E-03 0. -1.
        -11    1    3    3    0    0  0.38500948497E+01  0.25479446676E+01  0.24072750342E+01  0.52067480957E+01  0.51100000000E-03 0.  1.
         12    1    3    3    0    0  0.78438695870E+00 -0.32479762760E+01 -0.54590700038E+00  0.33856501951E+01  0.00000000000E+00 0. -1.
</event>
<event>
 7    1  0.2927780E-009  0.4778727E+02  0.7816164E-02  0.1312668E+00
        -11   -1    0    0    0    0  0.00000000000E+00  0.00000000000E+00  0.45593999997E+02  0.45594000000E+02  0.51100000000E-03 0.  1.
         11   -1    0    0    0    0 -0.00000000000E+00 -0.00000000000E+00 -0.45593999997E+02  0.45594000000E+02  0.51100000000E-03 0. -1.
    9900012    2    1    2    0    0  0.27380124066E+02  0.19573649943E+02 -0.27401167365E+02  0.47787274903E+02  0.20000017592E+02 0.  0.
        -12    1    1    2    0    0 -0.27380124066E+02 -0.19573649943E+02  0.27401167365E+02  0.43400725097E+02  0.00000000000E+00 0.  1.
         11    1    3    3    0    0  0.11480448666E+02  0.55007815977E+01 -0.99948714690E+01  0.16185078180E+02  0.51100000000E-03 0. -1.
        -11    1    3    3    0    0  0.41341868546E+01 -0.31088829251E+01 -0.57638269764E+01  0.77445694307E+01  0.51100000000E-03 0.  1.
        -12    1    3    3    0    0  0.11765488545E+02  0.17181751271E+02 -0.11642468920E+02  0.23857627292E+02  0.00000000000E+00 0.  1.
</event>
<event>
 7    1  0.2530788E-009  0.4778727E+02  0.7816164E-02  0.1312668E+00
        -11   -1    0    0    0    0  0.00000000000E+00  0.00000000000E+00  0.45593999997E+02  0.45594000000E+02  0.51100000000E-03 0.  1.
         11   -1    0    0    0    0 -0.00000000000E+00 -0.00000000000E+00 -0.45593999997E+02  0.45594000000E+02  0.51100000000E-03 0. -1.
    9900012    2    1    2    0    0 -0.41085843977E+02 -0.13743889208E+02 -0.25850086872E+01  0.47787270332E+02  0.19999996749E+02 0.  0.
        -12    1    1    2    0    0  0.41085843977E+02  0.13743889208E+02  0.25850086872E+01  0.43400729668E+02  0.00000000000E+00 0.  1.
         11    1    3    3    0    0 -0.24121994414E+02 -0.48132269122E+01 -0.94029214485E+01  0.26333490081E+02  0.51100000000E-03 0. -1.
        -11    1    3    3    0    0 -0.35042415417E+01 -0.34564827357E+01  0.46341748075E+01  0.67603667129E+01  0.51100000000E-03 0.  1.
         12    1    3    3    0    0 -0.13459608021E+02 -0.54741795605E+01  0.21837379538E+01  0.14693413538E+02  0.00000000000E+00 0. -1.
</event>
<event>
 7    1  0.2530788E-009  0.4778727E+02  0.7816164E-02  0.1312668E+00
        -11   -1    0    0    0    0  0.00000000000E+00  0.00000000000E+00  0.45593999997E+02  0.45594000000E+02  0.51100000000E-03 0. -1.
         11   -1    0    0    0    0 -0.00000000000E+00 -0.00000000000E+00 -0.45593999997E+02  0.45594000000E+02  0.51100000000E-03 0.  1.
    9900012    2    1    2    0    0 -0.11667385557E+02  0.41800632954E+02 -0.45005034170E+00  0.47787270208E+02  0.19999996188E+02 0.  0.
        -12    1    1    2    0    0  0.11667385557E+02 -0.41800632954E+02  0.45005034170E+00  0.43400729792E+02  0.00000000000E+00 0.  1.
         11    1    3    3    0    0 -0.71995164436E+01  0.18476568480E+01 -0.26683100841E+00  0.74376119754E+01  0.51100000000E-03 0. -1.
        -11    1    3    3    0    0 -0.59033745541E+00  0.12993419969E+01 -0.46499386301E+00  0.15010021619E+01  0.51100000000E-03 0.  1.
         12    1    3    3    0    0 -0.38775316584E+01  0.38653634110E+02  0.28177452972E+00  0.38848656071E+02  0.00000000000E+00 0. -1.
</event>
<event>
 7    1  0.2530788E-009  0.4778727E+02  0.7816164E-02  0.1312668E+00
        -11   -1    0    0    0    0  0.00000000000E+00  0.00000000000E+00  0.45593999997E+02  0.45594000000E+02  0.51100000000E-03 0.  1.
         11   -1    0    0    0    0 -0.00000000000E+00 -0.00000000000E+00 -0.45593999997E+02  0.45594000000E+02  0.51100000000E-03 0. -1.
    9900012    2    1    2    0    0  0.29345234951E+02  0.15519210223E+02 -0.27957730051E+02  0.47787269938E+02  0.19999994956E+02 0.  0.
        -12    1    1    2    0    0 -0.29345234951E+02 -0.15519210223E+02  0.27957730051E+02  0.43400730062E+02  0.00000000000E+00 0.  1.
         11    1    3    3    0    0  0.17244904465E+02  0.13995084509E+02 -0.22977855885E+02  0.31956704801E+02  0.51100000000E-03 0. -1.
        -11    1    3    3    0    0  0.49719931767E+00  0.19982969281E+01  0.14856430688E+01  0.25391993548E+01  0.51100000000E-03 0.  1.
         12    1    3    3    0    0  0.11603131168E+02 -0.47417121361E+00 -0.64655172356E+01  0.13291365783E+02  0.00000000000E+00 0. -1.
</event>
<event>
 7    1  0.2530788E-009  0.4778725E+02  0.7816164E-02  0.1312668E+00
        -11   -1    0    0    0    0  0.00000000000E+00  0.00000000000E+00  0.45593999997E+02  0.45594000000E+02  0.51100000000E-03 0. -1.
         11   -1    0    0    0    0 -0.00000000000E+00 -0.00000000000E+00 -0.45593999997E+02  0.45594000000E+02  0.51100000000E-03 0.  1.
    9900012    2    1    2    0    0  0.93402884058E+01 -0.42226457492E+02  0.36482897895E+01  0.47787254405E+02  0.19999924134E+02 0.  0.
        -12    1    1    2    0    0 -0.93402884058E+01  0.42226457492E+02 -0.36482897895E+01  0.43400745595E+02  0.00000000000E+00 0.  1.
         11    1    3    3    0    0 -0.10744653528E+01 -0.14294425259E+02 -0.43944770480E+01  0.14993215067E+02  0.51100000000E-03 0. -1.
        -11    1    3    3    0    0  0.10570163128E+02 -0.15585791747E+02  0.16881620283E+01  0.18907541993E+02  0.51100000000E-03 0.  1.
         12    1    3    3    0    0 -0.15540936928E+00 -0.12346240486E+02  0.63546048092E+01  0.13886497345E+02  0.00000000000E+00 0. -1.
</event>
<event>
 7    1  0.2530788E-009  0.4778727E+02  0.7816164E-02  0.1312668E+00
        -11   -1    0    0    0    0  0.00000000000E+00  0.00000000000E+00  0.45593999997E+02  0.45594000000E+02  0.51100000000E-03 0.  1.
         11   -1    0    0    0    0 -0.00000000000E+00 -0.00000000000E+00 -0.45593999997E+02  0.45594000000E+02  0.51100000000E-03 0. -1.
    9900012    2    1    2    0    0  0.28308834162E+02  0.50889170945E+01 -0.32501324180E+02  0.47787271409E+02  0.20000001661E+02 0.  0.
        -12    1    1    2    0    0 -0.28308834162E+02 -0.50889170945E+01  0.32501324180E+02  0.43400728591E+02  0.00000000000E+00 0.  1.
         11    1    3    3    0    0  0.24918085359E+02  0.11395023923E+02 -0.26522361254E+02  0.38133885127E+02  0.51100000000E-03 0. -1.
        -11    1    3    3    0    0  0.21360491306E+01 -0.54443063119E+01 -0.37260405199E+01  0.69344470092E+01  0.51100000000E-03 0.  1.
         12    1    3    3    0    0  0.12546996721E+01 -0.86180051637E+00 -0.22529224062E+01  0.27189392721E+01  0.00000000000E+00 0. -1.
</event>
<event>
 7    1  0.2530788E-009  0.4778727E+02  0.7816164E-02  0.1312668E+00
        -11   -1    0    0    0    0  0.00000000000E+00  0.00000000000E+00  0.45593999997E+02  0.45594000000E+02  0.51100000000E-03 0.  1.
         11   -1    0    0    0    0 -0.00000000000E+00 -0.00000000000E+00 -0.45593999997E+02  0.45594000000E+02  0.51100000000E-03 0. -1.
    9900012    2    1    2    0    0  0.91528880145E+01  0.42416149710E+02  0.84747392332E+00  0.47787270430E+02  0.19999997197E+02 0.  0.
        -12    1    1    2    0    0 -0.91528880145E+01 -0.42416149710E+02 -0.84747392332E+00  0.43400729570E+02  0.00000000000E+00 0.  1.
         11    1    3    3    0    0  0.73833089151E+01  0.37412376569E+02  0.60870472192E+01  0.38616723258E+02  0.51100000000E-03 0. -1.
        -11    1    3    3    0    0 -0.14272434547E+01  0.31871141952E+01 -0.39540896544E+01  0.52753716484E+01  0.51100000000E-03 0.  1.
         12    1    3    3    0    0  0.31968225540E+01  0.18166589457E+01 -0.12854836415E+01  0.38951755236E+01  0.00000000000E+00 0. -1.
</event>
<event>
 7    1  0.2530788E-009  0.4778726E+02  0.7816164E-02  0.1312668E+00
        -11   -1    0    0    0    0  0.00000000000E+00  0.00000000000E+00  0.45593999997E+02  0.45594000000E+02  0.51100000000E-03 0.  1.
         11   -1    0    0    0    0 -0.00000000000E+00 -0.00000000000E+00 -0.45593999997E+02  0.45594000000E+02  0.51100000000E-03 0. -1.
    9900012    2    1    2    0    0 -0.14916290922E+02 -0.40551448889E+02 -0.40875563654E+01  0.47787264304E+02  0.19999969268E+02 0.  0.
        -12    1    1    2    0    0  0.14916290922E+02  0.40551448889E+02  0.40875563654E+01  0.43400735696E+02  0.00000000000E+00 0.  1.
         11    1    3    3    0    0 -0.76779570714E+01 -0.21786255158E+02  0.42821001246E+01  0.23493154754E+02  0.51100000000E-03 0. -1.
        -11    1    3    3    0    0 -0.36484729308E+00 -0.31340114569E+01  0.25231055746E+01  0.40399509107E+01  0.51100000000E-03 0.  1.
         12    1    3    3    0    0 -0.68734865575E+01 -0.15631182275E+02 -0.10892762065E+02  0.20254158639E+02  0.00000000000E+00 0. -1.
</event>
<event>
 7    1  0.2530788E-009  0.4778727E+02  0.7816164E-02  0.1312668E+00
        -11   -1    0    0    0    0  0.00000000000E+00  0.00000000000E+00  0.45593999997E+02  0.45594000000E+02  0.51100000000E-03 0.  1.
         11   -1    0    0    0    0 -0.00000000000E+00 -0.00000000000E+00 -0.45593999997E+02  0.45594000000E+02  0.51100000000E-03 0. -1.
    9900012    2    1    2    0    0 -0.43107083340E+02 -0.39985431122E+01 -0.30682306292E+01  0.47787273965E+02  0.20000013318E+02 0.  0.
        -12    1    1    2    0    0  0.43107083340E+02  0.39985431122E+01  0.30682306292E+01  0.43400726035E+02  0.00000000000E+00 0.  1.
         11    1    3    3    0    0 -0.26232998982E+01 -0.42688938126E+01 -0.32194475225E+01  0.59556695132E+01  0.51100000000E-03 0. -1.
        -11    1    3    3    0    0 -0.40911221145E+02  0.54368136329E+00 -0.60695356385E+00  0.40919335258E+02  0.51100000000E-03 0.  1.
        -12    1    3    3    0    0  0.42743770327E+00 -0.27333066291E+00  0.75817045713E+00  0.91226919466E+00  0.00000000000E+00 0.  1.
</event>
<event>
 7    1  0.2530788E-009  0.4778723E+02  0.7816164E-02  0.1312668E+00
        -11   -1    0    0    0    0  0.00000000000E+00  0.00000000000E+00  0.45593999997E+02  0.45594000000E+02  0.51100000000E-03 0. -1.
         11   -1    0    0    0    0 -0.00000000000E+00 -0.00000000000E+00 -0.45593999997E+02  0.45594000000E+02  0.51100000000E-03 0.  1.
    9900012    2    1    2    0    0  0.23858817774E+02  0.25433836520E+02  0.25836092835E+02  0.47787229055E+02  0.19999808550E+02 0.  0.
        -12    1    1    2    0    0 -0.23858817774E+02 -0.25433836520E+02 -0.25836092835E+02  0.43400770945E+02  0.00000000000E+00 0.  1.
         11    1    3    3    0    0  0.15489192945E+02  0.21251713181E+02  0.14068927035E+02  0.29824237114E+02  0.51100000000E-03 0. -1.
        -11    1    3    3    0    0  0.11604029216E+01  0.58607550176E+01  0.67843114217E+01  0.90400147148E+01  0.51100000000E-03 0.  1.
         12    1    3    3    0    0  0.72092219075E+01 -0.16786316792E+01  0.49828543778E+01  0.89229772261E+01  0.00000000000E+00 0. -1.
</event>
<event>
 7    1  0.2530788E-009  0.4778731E+02  0.7816164E-02  0.1312668E+00
        -11   -1    0    0    0    0  0.00000000000E+00  0.00000000000E+00  0.45593999997E+02  0.45594000000E+02  0.51100000000E-03 0.  1.
         11   -1    0    0    0    0 -0.00000000000E+00 -0.00000000000E+00 -0.45593999997E+02  0.45594000000E+02  0.51100000000E-03 0. -1.
    9900012    2    1    2    0    0  0.34371283446E+02  0.15358982002E+02 -0.21594814544E+02  0.47787314878E+02  0.20000199854E+02 0.  0.
        -12    1    1    2    0    0 -0.34371283446E+02 -0.15358982002E+02  0.21594814544E+02  0.43400685122E+02  0.00000000000E+00 0.  1.
         11    1    3    3    0    0  0.17843103546E+02  0.34670895074E+01 -0.17138523576E+02  0.24982514774E+02  0.51100000000E-03 0. -1.
        -11    1    3    3    0    0  0.62235665817E+00  0.84007766269E+00  0.21089523039E+01  0.23538773058E+01  0.51100000000E-03 0.  1.
         12    1    3    3    0    0  0.15905823242E+02  0.11051814832E+02 -0.65652432719E+01  0.20450922798E+02  0.00000000000E+00 0. -1.
</event>
<event>
 7    1  0.2530788E-009  0.4778728E+02  0.7816164E-02  0.1312668E+00
        -11   -1    0    0    0    0  0.00000000000E+00  0.00000000000E+00  0.45593999997E+02  0.45594000000E+02  0.51100000000E-03 0. -1.
         11   -1    0    0    0    0 -0.00000000000E+00 -0.00000000000E+00 -0.45593999997E+02  0.45594000000E+02  0.51100000000E-03 0.  1.
    9900012    2    1    2    0    0  0.90887699016E-01  0.42551747148E+02  0.85418548175E+01  0.47787277314E+02  0.20000028587E+02 0.  0.
        -12    1    1    2    0    0 -0.90887699016E-01 -0.42551747148E+02 -0.85418548175E+01  0.43400722686E+02  0.00000000000E+00 0.  1.
         11    1    3    3    0    0  0.37110461711E+01  0.38761020348E+02  0.47423062859E+01  0.39225986683E+02  0.51100000000E-03 0. -1.
        -11    1    3    3    0    0 -0.47157784496E+01  0.42475991765E+01  0.25558159291E+01  0.68419924345E+01  0.51100000000E-03 0.  1.
        -12    1    3    3    0    0  0.10956199775E+01 -0.45687237623E+00  0.12437326026E+01  0.17192981969E+01  0.00000000000E+00 0.  1.
</event>
<event>
 7    1  0.2530788E-009  0.4778727E+02  0.7816164E-02  0.1312668E+00
        -11   -1    0    0    0    0  0.00000000000E+00  0.00000000000E+00  0.45593999997E+02  0.45594000000E+02  0.51100000000E-03 0. -1.
         11   -1    0    0    0    0 -0.00000000000E+00 -0.00000000000E+00 -0.45593999997E+02  0.45594000000E+02  0.51100000000E-03 0.  1.
    9900012    2    1    2    0    0  0.15773677089E+01 -0.42038434847E+02  0.10672625137E+02  0.47787273962E+02  0.20000013302E+02 0.  0.
        -12    1    1    2    0    0 -0.15773677089E+01  0.42038434847E+02 -0.10672625137E+02  0.43400726038E+02  0.00000000000E+00 0.  1.
         11    1    3    3    0    0 -0.37752689215E+01 -0.11643771764E+02  0.35711800777E+01  0.12750819728E+02  0.51100000000E-03 0. -1.
        -11    1    3    3    0    0 -0.28707422846E+01 -0.23186696380E+02  0.52362732978E+01  0.23943320751E+02  0.51100000000E-03 0.  1.
        -12    1    3    3    0    0  0.82233789149E+01 -0.72079667037E+01  0.18651717613E+01  0.11093133483E+02  0.00000000000E+00 0.  1.
</event>
<event>
 7    1  0.2530788E-009  0.4778727E+02  0.7816164E-02  0.1312668E+00
        -11   -1    0    0    0    0  0.00000000000E+00  0.00000000000E+00  0.45593999997E+02  0.45594000000E+02  0.51100000000E-03 0.  1.
         11   -1    0    0    0    0 -0.00000000000E+00 -0.00000000000E+00 -0.45593999997E+02  0.45594000000E+02  0.51100000000E-03 0. -1.
    9900012    2    1    2    0    0 -0.16212349774E+02 -0.26194147006E+02 -0.30572040118E+02  0.47787271210E+02  0.20000000753E+02 0.  0.
        -12    1    1    2    0    0  0.16212349774E+02  0.26194147006E+02  0.30572040118E+02  0.43400728790E+02  0.00000000000E+00 0.  1.
         11    1    3    3    0    0  0.17827514223E+01 -0.59504191848E+01 -0.13502945500E+02  0.14863217301E+02  0.51100000000E-03 0. -1.
        -11    1    3    3    0    0 -0.18549027128E+02 -0.19987689525E+02 -0.17274992395E+02  0.32280017076E+02  0.51100000000E-03 0.  1.
        -12    1    3    3    0    0  0.55392593123E+00 -0.25603829644E+00  0.20589777732E+00  0.64403683220E+00  0.00000000000E+00 0.  1.
</event>
<event>
 7    1  0.2530788E-009  0.4778726E+02  0.7816164E-02  0.1312668E+00
        -11   -1    0    0    0    0  0.00000000000E+00  0.00000000000E+00  0.45593999997E+02  0.45594000000E+02  0.51100000000E-03 0.  1.
         11   -1    0    0    0    0 -0.00000000000E+00 -0.00000000000E+00 -0.45593999997E+02  0.45594000000E+02  0.51100000000E-03 0. -1.
    9900012    2    1    2    0    0 -0.32443731361E+02 -0.20181964161E+02 -0.20584376254E+02  0.47787263511E+02  0.19999965651E+02 0.  0.
        -12    1    1    2    0    0  0.32443731361E+02  0.20181964161E+02  0.20584376254E+02  0.43400736489E+02  0.00000000000E+00 0.  1.
         11    1    3    3    0    0 -0.40468904952E+01 -0.21911829378E+01 -0.40424801986E+00  0.46197426411E+01  0.51100000000E-03 0. -1.
        -11    1    3    3    0    0 -0.10396223628E+02  0.13674909846E+00 -0.12970035302E+02  0.16622935422E+02  0.51100000000E-03 0.  1.
        -12    1    3    3    0    0 -0.18000617238E+02 -0.18127530322E+02 -0.72100929322E+01  0.26544585448E+02  0.00000000000E+00 0.  1.
</event>
<event>
 7    1  0.2530788E-009  0.4778726E+02  0.7816164E-02  0.1312668E+00
        -11   -1    0    0    0    0  0.00000000000E+00  0.00000000000E+00  0.45593999997E+02  0.45594000000E+02  0.51100000000E-03 0.  1.
         11   -1    0    0    0    0 -0.00000000000E+00 -0.00000000000E+00 -0.45593999997E+02  0.45594000000E+02  0.51100000000E-03 0. -1.
    9900012    2    1    2    0    0  0.31030520132E+02 -0.15320794676E+02 -0.26191684897E+02  0.47787259374E+02  0.19999946790E+02 0.  0.
        -12    1    1    2    0    0 -0.31030520132E+02  0.15320794676E+02  0.26191684897E+02  0.43400740626E+02  0.00000000000E+00 0.  1.
         11    1    3    3    0    0  0.26675782242E+01 -0.25642619833E+01 -0.12075679117E+02  0.12629863004E+02  0.51100000000E-03 0. -1.
        -11    1    3    3    0    0  0.22557213888E+02 -0.61675225863E+01 -0.10954409551E+02  0.25823735634E+02  0.51100000000E-03 0.  1.
         12    1    3    3    0    0  0.58057280191E+01 -0.65890101068E+01 -0.31615962293E+01  0.93336607361E+01  0.00000000000E+00 0. -1.
</event>
<event>
 7    1  0.2530788E-009  0.4778727E+02  0.7816164E-02  0.1312668E+00
        -11   -1    0    0    0    0  0.00000000000E+00  0.00000000000E+00  0.45593999997E+02  0.45594000000E+02  0.51100000000E-03 0.  1.
         11   -1    0    0    0    0 -0.00000000000E+00 -0.00000000000E+00 -0.45593999997E+02  0.45594000000E+02  0.51100000000E-03 0. -1.
    9900012    2    1    2    0    0  0.27115633583E+01  0.24435762829E+02 -0.35765406859E+02  0.47787269491E+02  0.19999992919E+02 0.  0.
        -12    1    1    2    0    0 -0.27115633583E+01 -0.24435762829E+02  0.35765406859E+02  0.43400730509E+02  0.00000000000E+00 0.  1.
         11    1    3    3    0    0 -0.66749792852E+01  0.63355180194E+01 -0.16845674419E+02  0.19195595431E+02  0.51100000000E-03 0. -1.
        -11    1    3    3    0    0  0.53795604050E+01  0.16058850581E+02 -0.15162264922E+02  0.22731489831E+02  0.51100000000E-03 0.  1.
         12    1    3    3    0    0  0.40069822385E+01  0.20413942291E+01 -0.37574675179E+01  0.58601842298E+01  0.00000000000E+00 0. -1.
</event>
<event>
 7    1  0.2530788E-009  0.4778728E+02  0.7816164E-02  0.1312668E+00
        -11   -1    0    0    0    0  0.00000000000E+00  0.00000000000E+00  0.45593999997E+02  0.45594000000E+02  0.51100000000E-03 0. -1.
         11   -1    0    0    0    0 -0.00000000000E+00 -0.00000000000E+00 -0.45593999997E+02  0.45594000000E+02  0.51100000000E-03 0.  1.
    9900012    2    1    2    0    0 -0.88553617137E+01 -0.40337531885E+02  0.13344993037E+02  0.47787277094E+02  0.20000027581E+02 0.  0.
        -12    1    1    2    0    0  0.88553617137E+01  0.40337531885E+02 -0.13344993037E+02  0.43400722906E+02  0.00000000000E+00 0.  1.
         11    1    3    3    0    0 -0.67026164193E+01 -0.26329046042E+01  0.45746345390E+00  0.72157138657E+01  0.51100000000E-03 0.  1.
        -11    1    3    3    0    0  0.11537120871E+01 -0.83529979226E+00  0.78340740194E+00  0.16255782791E+01  0.51100000000E-03 0. -1.
         12    1    3    3    0    0 -0.33064573815E+01 -0.36869327488E+02  0.12104122181E+02  0.38945984949E+02  0.00000000000E+00 0. -1.
</event>
<event>
 7    1  0.2530788E-009  0.4778727E+02  0.7816164E-02  0.1312668E+00
        -11   -1    0    0    0    0  0.00000000000E+00  0.00000000000E+00  0.45593999997E+02  0.45594000000E+02  0.51100000000E-03 0.  1.
         11   -1    0    0    0    0 -0.00000000000E+00 -0.00000000000E+00 -0.45593999997E+02  0.45594000000E+02  0.51100000000E-03 0. -1.
    9900012    2    1    2    0    0  0.35635840612E+02 -0.22999724414E+02  0.92044908199E+01  0.47787272927E+02  0.20000008584E+02 0.  0.
        -12    1    1    2    0    0 -0.35635840612E+02  0.22999724414E+02 -0.92044908199E+01  0.43400727073E+02  0.00000000000E+00 0.  1.
         11    1    3    3    0    0  0.24666819669E+02 -0.10657125295E+02  0.97283046594E+01  0.28577372587E+02  0.51100000000E-03 0. -1.
        -11    1    3    3    0    0  0.29620780063E+01 -0.10440240982E+02  0.76735400213E+00  0.10879401193E+02  0.51100000000E-03 0.  1.
        -12    1    3    3    0    0  0.80069429359E+01 -0.19023581364E+01 -0.12911678416E+01  0.83304991479E+01  0.00000000000E+00 0.  1.
</event>
<event>
 7    1  0.2530788E-009  0.4778727E+02  0.7816164E-02  0.1312668E+00
        -11   -1    0    0    0    0  0.00000000000E+00  0.00000000000E+00  0.45593999997E+02  0.45594000000E+02  0.51100000000E-03 0. -1.
         11   -1    0    0    0    0 -0.00000000000E+00 -0.00000000000E+00 -0.45593999997E+02  0.45594000000E+02  0.51100000000E-03 0.  1.
    9900012    2    1    2    0    0 -0.89983473677E+01 -0.25307249991E+02  0.34090997249E+02  0.47787271309E+02  0.20000001207E+02 0.  0.
        -12    1    1    2    0    0  0.89983473677E+01  0.25307249991E+02 -0.34090997249E+02  0.43400728691E+02  0.00000000000E+00 0.  1.
         11    1    3    3    0    0 -0.13291179439E+02 -0.19804999025E+02  0.17740797657E+02  0.29725903502E+02  0.51100000000E-03 0. -1.
        -11    1    3    3    0    0  0.42772204547E+01 -0.54395611050E+01  0.13141507787E+02  0.14852025687E+02  0.51100000000E-03 0.  1.
         12    1    3    3    0    0  0.15611616945E-01 -0.62689861235E-01  0.32086918050E+01  0.32093421196E+01  0.00000000000E+00 0. -1.
</event>
<event>
 7    1  0.2530788E-009  0.4778727E+02  0.7816164E-02  0.1312668E+00
        -11   -1    0    0    0    0  0.00000000000E+00  0.00000000000E+00  0.45593999997E+02  0.45594000000E+02  0.51100000000E-03 0.  1.
         11   -1    0    0    0    0 -0.00000000000E+00 -0.00000000000E+00 -0.45593999997E+02  0.45594000000E+02  0.51100000000E-03 0. -1.
    9900012    2    1    2    0    0 -0.12918503127E+02 -0.26240681346E+02 -0.32064973468E+02  0.47787267241E+02  0.19999982658E+02 0.  0.
        -12    1    1    2    0    0  0.12918503127E+02  0.26240681346E+02  0.32064973468E+02  0.43400732759E+02  0.00000000000E+00 0.  1.
         11    1    3    3    0    0  0.11134442834E+00 -0.10600891296E+02 -0.17021084199E+02  0.20052645746E+02  0.51100000000E-03 0. -1.
        -11    1    3    3    0    0 -0.12236459682E+02 -0.12747975151E+02 -0.67507349652E+01  0.18915978400E+02  0.51100000000E-03 0.  1.
        -12    1    3    3    0    0 -0.79338787326E+00 -0.28918148990E+01 -0.82931543034E+01  0.88186430945E+01  0.00000000000E+00 0.  1.
</event>
<event>
 7    1  0.2530788E-009  0.4778725E+02  0.7816164E-02  0.1312668E+00
        -11   -1    0    0    0    0  0.00000000000E+00  0.00000000000E+00  0.45593999997E+02  0.45594000000E+02  0.51100000000E-03 0.  1.
         11   -1    0    0    0    0 -0.00000000000E+00 -0.00000000000E+00 -0.45593999997E+02  0.45594000000E+02  0.51100000000E-03 0. -1.
    9900012    2    1    2    0    0  0.21093788283E+02  0.14146491443E+02 -0.35193094092E+02  0.47787251204E+02  0.19999909541E+02 0.  0.
        -12    1    1    2    0    0 -0.21093788283E+02 -0.14146491443E+02  0.35193094092E+02  0.43400748796E+02  0.00000000000E+00 0.  1.
         11    1    3    3    0    0  0.55161714621E+01  0.54841219217E+01 -0.16601258223E+02  0.18333180731E+02  0.51100000000E-03 0. -1.
        -11    1    3    3    0    0  0.43149951190E+01 -0.84242311546E+00  0.14030612831E+01  0.46149150379E+01  0.51100000000E-03 0.  1.
        -12    1    3    3    0    0  0.11262621702E+02  0.95047926364E+01 -0.19994897152E+02  0.24839155436E+02  0.00000000000E+00 0.  1.
</event>
<event>
 7    1  0.2530788E-009  0.4778727E+02  0.7816164E-02  0.1312668E+00
        -11   -1    0    0    0    0  0.00000000000E+00  0.00000000000E+00  0.45593999997E+02  0.45594000000E+02  0.51100000000E-03 0. -1.
         11   -1    0    0    0    0 -0.00000000000E+00 -0.00000000000E+00 -0.45593999997E+02  0.45594000000E+02  0.51100000000E-03 0.  1.
    9900012    2    1    2    0    0 -0.23411004793E+02  0.16358458728E+02  0.32679489402E+02  0.47787270225E+02  0.19999996266E+02 0.  0.
        -12    1    1    2    0    0  0.23411004793E+02 -0.16358458728E+02 -0.32679489402E+02  0.43400729775E+02  0.00000000000E+00 0.  1.
         11    1    3    3    0    0 -0.14359210443E+01 -0.34956865810E+01  0.11176730462E+01  0.39409246653E+01  0.51100000000E-03 0.  1.
        -11    1    3    3    0    0 -0.51759305616E+01  0.89861873772E+01  0.12073328415E+02  0.15915623771E+02  0.51100000000E-03 0. -1.
         12    1    3    3    0    0 -0.16799153187E+02  0.10867957932E+02  0.19488487941E+02  0.27930721789E+02  0.00000000000E+00 0. -1.
</event>
<event>
 7    1  0.2530788E-009  0.4778727E+02  0.7816164E-02  0.1312668E+00
        -11   -1    0    0    0    0  0.00000000000E+00  0.00000000000E+00  0.45593999997E+02  0.45594000000E+02  0.51100000000E-03 0.  1.
         11   -1    0    0    0    0 -0.00000000000E+00 -0.00000000000E+00 -0.45593999997E+02  0.45594000000E+02  0.51100000000E-03 0. -1.
    9900012    2    1    2    0    0 -0.12787973370E+02 -0.37489368842E+02  0.17738040071E+02  0.47787272994E+02  0.20000008888E+02 0.  0.
        -12    1    1    2    0    0  0.12787973370E+02  0.37489368842E+02 -0.17738040071E+02  0.43400727006E+02  0.00000000000E+00 0.  1.
         11    1    3    3    0    0  0.28702641814E+01 -0.12670991368E+02  0.28089240444E+01  0.13292196705E+02  0.51100000000E-03 0. -1.
        -11    1    3    3    0    0 -0.14374869253E+02 -0.25385002241E+02  0.15434510208E+02  0.33003928712E+02  0.51100000000E-03 0.  1.
        -12    1    3    3    0    0 -0.12833682986E+01  0.56662476594E+00 -0.50539418181E+00  0.14911475763E+01  0.00000000000E+00 0.  1.
</event>
<event>
 7    1  0.2530788E-009  0.4778727E+02  0.7816164E-02  0.1312668E+00
        -11   -1    0    0    0    0  0.00000000000E+00  0.00000000000E+00  0.45593999997E+02  0.45594000000E+02  0.51100000000E-03 0.  1.
         11   -1    0    0    0    0 -0.00000000000E+00 -0.00000000000E+00 -0.45593999997E+02  0.45594000000E+02  0.51100000000E-03 0. -1.
    9900012    2    1    2    0    0  0.40255920781E+02  0.54828394208E+01 -0.15265080838E+02  0.47787269833E+02  0.19999994476E+02 0.  0.
        -12    1    1    2    0    0 -0.40255920781E+02 -0.54828394208E+01  0.15265080838E+02  0.43400730167E+02  0.00000000000E+00 0.  1.
         11    1    3    3    0    0  0.29024845555E+02 -0.30604114543E+01 -0.37107996854E+01  0.29420703804E+02  0.51100000000E-03 0. -1.
        -11    1    3    3    0    0  0.47905130226E+01  0.47647171941E+01 -0.62813748181E+01  0.92253571652E+01  0.51100000000E-03 0.  1.
         12    1    3    3    0    0  0.64405622033E+01  0.37785336810E+01 -0.52729063345E+01  0.91412088634E+01  0.00000000000E+00 0. -1.
</event>
<event>
 7    1  0.2530788E-009  0.4778727E+02  0.7816164E-02  0.1312668E+00
        -11   -1    0    0    0    0  0.00000000000E+00  0.00000000000E+00  0.45593999997E+02  0.45594000000E+02  0.51100000000E-03 0.  1.
         11   -1    0    0    0    0 -0.00000000000E+00 -0.00000000000E+00 -0.45593999997E+02  0.45594000000E+02  0.51100000000E-03 0. -1.
    9900012    2    1    2    0    0 -0.23416518756E+02  0.11503000669E+02 -0.34683871715E+02  0.47787270372E+02  0.19999996936E+02 0.  0.
        -12    1    1    2    0    0  0.23416518756E+02 -0.11503000669E+02  0.34683871715E+02  0.43400729628E+02  0.00000000000E+00 0.  1.
         11    1    3    3    0    0 -0.18741735530E+02  0.98790684646E+01 -0.18064909507E+02  0.27842226925E+02  0.51100000000E-03 0. -1.
        -11    1    3    3    0    0  0.24320709553E+01  0.28905348821E+01 -0.50084802351E+01  0.62733591929E+01  0.51100000000E-03 0.  1.
         12    1    3    3    0    0 -0.71068541817E+01 -0.12666026776E+01 -0.11610481973E+02  0.13671684255E+02  0.00000000000E+00 0. -1.
</event>
<event>
 7    1  0.2530788E-009  0.4778724E+02  0.7816164E-02  0.1312668E+00
        -11   -1    0    0    0    0  0.00000000000E+00  0.00000000000E+00  0.45593999997E+02  0.45594000000E+02  0.51100000000E-03 0.  1.
         11   -1    0    0    0    0 -0.00000000000E+00 -0.00000000000E+00 -0.45593999997E+02  0.45594000000E+02  0.51100000000E-03 0. -1.
    9900012    2    1    2    0    0  0.42886240814E+02  0.64557945917E+01 -0.16489108293E+01  0.47787241459E+02  0.19999865108E+02 0.  0.
        -12    1    1    2    0    0 -0.42886240814E+02 -0.64557945917E+01  0.16489108293E+01  0.43400758541E+02  0.00000000000E+00 0.  1.
         11    1    3    3    0    0  0.17583745139E+02  0.20694677012E+01 -0.47192550597E+01  0.18323268220E+02  0.51100000000E-03 0. -1.
        -11    1    3    3    0    0  0.72572379083E+01 -0.51447300413E+01  0.90065345964E+00  0.89413045005E+01  0.51100000000E-03 0.  1.
        -12    1    3    3    0    0  0.18045257767E+02  0.95310569318E+01  0.21696907707E+01  0.20522668739E+02  0.00000000000E+00 0.  1.
</event>
<event>
 7    1  0.2530788E-009  0.4778729E+02  0.7816164E-02  0.1312668E+00
        -11   -1    0    0    0    0  0.00000000000E+00  0.00000000000E+00  0.45593999997E+02  0.45594000000E+02  0.51100000000E-03 0.  1.
         11   -1    0    0    0    0 -0.00000000000E+00 -0.00000000000E+00 -0.45593999997E+02  0.45594000000E+02  0.51100000000E-03 0. -1.
    9900012    2    1    2    0    0  0.14320151337E+02  0.10948965436E+02 -0.39480059032E+02  0.47787289872E+02  0.20000085842E+02 0.  0.
        -12    1    1    2    0    0 -0.14320151337E+02 -0.10948965436E+02  0.39480059032E+02  0.43400710128E+02  0.00000000000E+00 0.  1.
         11    1    3    3    0    0  0.11274501396E+02  0.13251852116E+02 -0.26776670675E+02  0.31932993266E+02  0.51100000000E-03 0. -1.
        -11    1    3    3    0    0  0.35935741295E+01  0.32276557948E+00 -0.12668057609E+02  0.13171850155E+02  0.51100000000E-03 0.  1.
         12    1    3    3    0    0 -0.54792418836E+00 -0.26256522592E+01 -0.35330747813E-01  0.26824464513E+01  0.00000000000E+00 0. -1.
</event>
<event>
 7    1  0.2530788E-009  0.4778727E+02  0.7816164E-02  0.1312668E+00
        -11   -1    0    0    0    0  0.00000000000E+00  0.00000000000E+00  0.45593999997E+02  0.45594000000E+02  0.51100000000E-03 0.  1.
         11   -1    0    0    0    0 -0.00000000000E+00 -0.00000000000E+00 -0.45593999997E+02  0.45594000000E+02  0.51100000000E-03 0. -1.
    9900012    2    1    2    0    0  0.92304197047E+01 -0.28565854094E+02 -0.31343490073E+02  0.47787273762E+02  0.20000012390E+02 0.  0.
        -12    1    1    2    0    0 -0.92304197047E+01  0.28565854094E+02  0.31343490073E+02  0.43400726238E+02  0.00000000000E+00 0.  1.
         11    1    3    3    0    0  0.97859145703E+01 -0.12612363483E+02 -0.23233976600E+02  0.28189599243E+02  0.51100000000E-03 0. -1.
        -11    1    3    3    0    0  0.20286218175E+01 -0.23215200383E+01  0.70135268071E+00  0.31617491378E+01  0.51100000000E-03 0.  1.
         12    1    3    3    0    0 -0.25841166830E+01 -0.13631970573E+02 -0.88108661534E+01  0.16435925381E+02  0.00000000000E+00 0. -1.
</event>
<event>
 7    1  0.2530788E-009  0.4778729E+02  0.7816164E-02  0.1312668E+00
        -11   -1    0    0    0    0  0.00000000000E+00  0.00000000000E+00  0.45593999997E+02  0.45594000000E+02  0.51100000000E-03 0. -1.
         11   -1    0    0    0    0 -0.00000000000E+00 -0.00000000000E+00 -0.45593999997E+02  0.45594000000E+02  0.51100000000E-03 0.  1.
    9900012    2    1    2    0    0  0.36805750110E+02 -0.20694583924E+02  0.10034579424E+02  0.47787287688E+02  0.20000075885E+02 0.  0.
        -12    1    1    2    0    0 -0.36805750110E+02  0.20694583924E+02 -0.10034579424E+02  0.43400712312E+02  0.00000000000E+00 0.  1.
         11    1    3    3    0    0  0.14672136175E+02 -0.67265207980E+01  0.27847373007E+01  0.16379023905E+02  0.51100000000E-03 0. -1.
        -11    1    3    3    0    0  0.30406803179E+01 -0.46995824794E+01  0.84667021601E+01  0.10149722065E+02  0.51100000000E-03 0.  1.
        -12    1    3    3    0    0  0.19092933618E+02 -0.92684806469E+01 -0.12168600365E+01  0.21258541718E+02  0.00000000000E+00 0.  1.
</event>
<event>
 7    1  0.2530788E-009  0.4778727E+02  0.7816164E-02  0.1312668E+00
        -11   -1    0    0    0    0  0.00000000000E+00  0.00000000000E+00  0.45593999997E+02  0.45594000000E+02  0.51100000000E-03 0.  1.
         11   -1    0    0    0    0 -0.00000000000E+00 -0.00000000000E+00 -0.45593999997E+02  0.45594000000E+02  0.51100000000E-03 0. -1.
    9900012    2    1    2    0    0  0.97612017600E+01  0.40858641186E+02 -0.10904766220E+02  0.47787267913E+02  0.19999985721E+02 0.  0.
        -12    1    1    2    0    0 -0.97612017600E+01 -0.40858641186E+02  0.10904766220E+02  0.43400732087E+02  0.00000000000E+00 0.  1.
         11    1    3    3    0    0 -0.43279978086E+01  0.21271556848E+02 -0.84377341899E+01  0.23289612583E+02  0.51100000000E-03 0. -1.
        -11    1    3    3    0    0 -0.10305432068E+00  0.25646810293E+00  0.23765502691E+00  0.36452195239E+00  0.51100000000E-03 0.  1.
         12    1    3    3    0    0  0.14192253889E+02  0.19330616236E+02 -0.27046870571E+01  0.24133133377E+02  0.00000000000E+00 0. -1.
</event>
<event>
 7    1  0.2530788E-009  0.4778730E+02  0.7816164E-02  0.1312668E+00
        -11   -1    0    0    0    0  0.00000000000E+00  0.00000000000E+00  0.45593999997E+02  0.45594000000E+02  0.51100000000E-03 0.  1.
         11   -1    0    0    0    0 -0.00000000000E+00 -0.00000000000E+00 -0.45593999997E+02  0.45594000000E+02  0.51100000000E-03 0. -1.
    9900012    2    1    2    0    0 -0.21075497463E+02  0.34368582123E+01 -0.37784021227E+02  0.47787298994E+02  0.20000127433E+02 0.  0.
        -12    1    1    2    0    0  0.21075497463E+02 -0.34368582123E+01  0.37784021227E+02  0.43400701006E+02  0.00000000000E+00 0.  1.
         11    1    3    3    0    0  0.79928443656E-02  0.53558380814E+01 -0.51886410261E+01  0.74570142415E+01  0.51100000000E-03 0.  1.
        -11    1    3    3    0    0 -0.12504185215E+02 -0.20681224194E+01 -0.27674893407E+02  0.30438980002E+02  0.51100000000E-03 0. -1.
         12    1    3    3    0    0 -0.85793050924E+01  0.14914255039E+00 -0.49204867942E+01  0.98913047502E+01  0.00000000000E+00 0. -1.
</event>
<event>
 7    1  0.2530788E-009  0.4778727E+02  0.7816164E-02  0.1312668E+00
        -11   -1    0    0    0    0  0.00000000000E+00  0.00000000000E+00  0.45593999997E+02  0.45594000000E+02  0.51100000000E-03 0.  1.
         11   -1    0    0    0    0 -0.00000000000E+00 -0.00000000000E+00 -0.45593999997E+02  0.45594000000E+02  0.51100000000E-03 0. -1.
    9900012    2    1    2    0    0 -0.20178688442E+02 -0.37572881440E+02 -0.80450278537E+01  0.47787270051E+02  0.19999995472E+02 0.  0.
        -12    1    1    2    0    0  0.20178688442E+02  0.37572881440E+02  0.80450278537E+01  0.43400729949E+02  0.00000000000E+00 0.  1.
         11    1    3    3    0    0 -0.17806832379E+02 -0.28001587029E+02  0.12034648027E+01  0.33205729676E+02  0.51100000000E-03 0. -1.
        -11    1    3    3    0    0  0.14987823373E+01 -0.17539910668E+01 -0.32873624125E+01  0.40161654658E+01  0.51100000000E-03 0.  1.
         12    1    3    3    0    0 -0.38706384002E+01 -0.78173033435E+01 -0.59611302440E+01  0.10565374909E+02  0.00000000000E+00 0. -1.
</event>
<event>
 7    1  0.2530788E-009  0.4778727E+02  0.7816164E-02  0.1312668E+00
        -11   -1    0    0    0    0  0.00000000000E+00  0.00000000000E+00  0.45593999997E+02  0.45594000000E+02  0.51100000000E-03 0.  1.
         11   -1    0    0    0    0 -0.00000000000E+00 -0.00000000000E+00 -0.45593999997E+02  0.45594000000E+02  0.51100000000E-03 0. -1.
    9900012    2    1    2    0    0 -0.13382711772E+02  0.31494504133E+02 -0.26694990545E+02  0.47787270914E+02  0.19999999406E+02 0.  0.
        -12    1    1    2    0    0  0.13382711772E+02 -0.31494504133E+02  0.26694990545E+02  0.43400729086E+02  0.00000000000E+00 0.  1.
         11    1    3    3    0    0 -0.10027692852E+02  0.15177849087E+02 -0.18231145314E+02  0.25754541086E+02  0.51100000000E-03 0. -1.
        -11    1    3    3    0    0  0.28175655575E+01  0.13003415828E+02 -0.61224336295E+01  0.14646217692E+02  0.51100000000E-03 0.  1.
        -12    1    3    3    0    0 -0.61725844773E+01  0.33132392177E+01 -0.23414116020E+01  0.73865121359E+01  0.00000000000E+00 0.  1.
</event>
<event>
 7    1  0.2530788E-009  0.4778725E+02  0.7816164E-02  0.1312668E+00
        -11   -1    0    0    0    0  0.00000000000E+00  0.00000000000E+00  0.45593999997E+02  0.45594000000E+02  0.51100000000E-03 0.  1.
         11   -1    0    0    0    0 -0.00000000000E+00 -0.00000000000E+00 -0.45593999997E+02  0.45594000000E+02  0.51100000000E-03 0. -1.
    9900012    2    1    2    0    0 -0.22735150915E+02  0.31287712119E+02 -0.19693076863E+02  0.47787247782E+02  0.19999893936E+02 0.  0.
        -12    1    1    2    0    0  0.22735150915E+02 -0.31287712119E+02  0.19693076863E+02  0.43400752218E+02  0.00000000000E+00 0.  1.
         11    1    3    3    0    0 -0.12008718410E+02  0.11435623766E+02 -0.17148834149E+02  0.23855090058E+02  0.51100000000E-03 0. -1.
        -11    1    3    3    0    0 -0.11661359746E+02  0.19590682682E+02 -0.26647056386E+01  0.22953928105E+02  0.51100000000E-03 0.  1.
        -12    1    3    3    0    0  0.93492724048E+00  0.26140567157E+00  0.12046292452E+00  0.97822961840E+00  0.00000000000E+00 0.  1.
</event>
<event>
 7    1  0.2530788E-009  0.4778728E+02  0.7816164E-02  0.1312668E+00
        -11   -1    0    0    0    0  0.00000000000E+00  0.00000000000E+00  0.45593999997E+02  0.45594000000E+02  0.51100000000E-03 0.  1.
         11   -1    0    0    0    0 -0.00000000000E+00 -0.00000000000E+00 -0.45593999997E+02  0.45594000000E+02  0.51100000000E-03 0. -1.
    9900012    2    1    2    0    0 -0.35821917326E+02 -0.22286126801E+02 -0.10185361857E+02  0.47787276448E+02  0.20000024635E+02 0.  0.
        -12    1    1    2    0    0  0.35821917326E+02  0.22286126801E+02  0.10185361857E+02  0.43400723552E+02  0.00000000000E+00 0.  1.
         11    1    3    3    0    0 -0.19398435548E+02 -0.20124342582E+02 -0.93876795432E+01  0.29485877866E+02  0.51100000000E-03 0. -1.
        -11    1    3    3    0    0 -0.34614675113E+01  0.21660085677E+01  0.16760319603E+01  0.44138910091E+01  0.51100000000E-03 0.  1.
        -12    1    3    3    0    0 -0.12962014267E+02 -0.43277927866E+01 -0.24737142738E+01  0.13887507573E+02  0.00000000000E+00 0.  1.
</event>
<event>
 7    1  0.2530788E-009  0.4778727E+02  0.7816164E-02  0.1312668E+00
        -11   -1    0    0    0    0  0.00000000000E+00  0.00000000000E+00  0.45593999997E+02  0.45594000000E+02  0.51100000000E-03 0.  1.
         11   -1    0    0    0    0 -0.00000000000E+00 -0.00000000000E+00 -0.45593999997E+02  0.45594000000E+02  0.51100000000E-03 0. -1.
    9900012    2    1    2    0    0 -0.28560892031E+02 -0.31860268199E+02  0.72678723442E+01  0.47787271761E+02  0.20000003266E+02 0.  0.
        -12    1    1    2    0    0  0.28560892031E+02  0.31860268199E+02 -0.72678723442E+01  0.43400728239E+02  0.00000000000E+00 0.  1.
         11    1    3    3    0    0 -0.92918398589E+01 -0.10600554281E+02  0.10850968482E+02  0.17789141527E+02  0.51100000000E-03 0. -1.
        -11    1    3    3    0    0  0.55669904816E+00 -0.83393674524E-01  0.43660319388E+00  0.71238398719E+00  0.51100000000E-03 0.  1.
         12    1    3    3    0    0 -0.19825751220E+02 -0.21176320243E+02 -0.40196993314E+01  0.29285746246E+02  0.00000000000E+00 0. -1.
</event>
<event>
 7    1  0.2530788E-009  0.4778726E+02  0.7816164E-02  0.1312668E+00
        -11   -1    0    0    0    0  0.00000000000E+00  0.00000000000E+00  0.45593999997E+02  0.45594000000E+02  0.51100000000E-03 0.  1.
         11   -1    0    0    0    0 -0.00000000000E+00 -0.00000000000E+00 -0.45593999997E+02  0.45594000000E+02  0.51100000000E-03 0. -1.
    9900012    2    1    2    0    0  0.17026336164E+02 -0.16527982952E+02 -0.36339426229E+02  0.47787259888E+02  0.19999949134E+02 0.  0.
        -12    1    1    2    0    0 -0.17026336164E+02  0.16527982952E+02  0.36339426229E+02  0.43400740112E+02  0.00000000000E+00 0.  1.
         11    1    3    3    0    0  0.63078078960E+00 -0.10880763400E+02 -0.15855255564E+02  0.19240011066E+02  0.51100000000E-03 0. -1.
        -11    1    3    3    0    0  0.57774531193E+01 -0.39418536757E+01 -0.21946950566E+01  0.73303384368E+01  0.51100000000E-03 0.  1.
         12    1    3    3    0    0  0.10618102255E+02 -0.17053658768E+01 -0.18289475608E+02  0.21216910385E+02  0.00000000000E+00 0. -1.
</event>
<event>
 7    1  0.2530788E-009  0.4778727E+02  0.7816164E-02  0.1312668E+00
        -11   -1    0    0    0    0  0.00000000000E+00  0.00000000000E+00  0.45593999997E+02  0.45594000000E+02  0.51100000000E-03 0.  1.
         11   -1    0    0    0    0 -0.00000000000E+00 -0.00000000000E+00 -0.45593999997E+02  0.45594000000E+02  0.51100000000E-03 0. -1.
    9900012    2    1    2    0    0 -0.29271613114E+02 -0.32035141279E+02  0.73875957190E+00  0.47787269860E+02  0.19999994598E+02 0.  0.
        -12    1    1    2    0    0  0.29271613114E+02  0.32035141279E+02 -0.73875957190E+00  0.43400730140E+02  0.00000000000E+00 0.  1.
         11    1    3    3    0    0 -0.25981533949E+02 -0.32522163932E+02  0.28994257671E+01  0.41726944810E+02  0.51100000000E-03 0. -1.
        -11    1    3    3    0    0 -0.40892385596E+01  0.78128772089E-01 -0.43233961945E+00  0.41127720470E+01  0.51100000000E-03 0.  1.
         12    1    3    3    0    0  0.79915939497E+00  0.40889388107E+00 -0.17283265758E+01  0.19475530024E+01  0.00000000000E+00 0. -1.
</event>
<event>
 7    1  0.2530788E-009  0.4778726E+02  0.7816164E-02  0.1312668E+00
        -11   -1    0    0    0    0  0.00000000000E+00  0.00000000000E+00  0.45593999997E+02  0.45594000000E+02  0.51100000000E-03 0.  1.
         11   -1    0    0    0    0 -0.00000000000E+00 -0.00000000000E+00 -0.45593999997E+02  0.45594000000E+02  0.51100000000E-03 0. -1.
    9900012    2    1    2    0    0 -0.21704243952E+02  0.34847950009E+02 -0.14077286082E+02  0.47787264882E+02  0.19999971904E+02 0.  0.
        -12    1    1    2    0    0  0.21704243952E+02 -0.34847950009E+02  0.14077286082E+02  0.43400735118E+02  0.00000000000E+00 0.  1.
         11    1    3    3    0    0 -0.93241151508E+00  0.56097951454E+01 -0.72990715404E+01  0.92528719011E+01  0.51100000000E-03 0.  1.
        -11    1    3    3    0    0 -0.17398145942E+02  0.27759750573E+02 -0.24525061871E+01  0.32852914953E+02  0.51100000000E-03 0. -1.
         12    1    3    3    0    0 -0.33736864950E+01  0.14784042909E+01 -0.43257083545E+01  0.56814780280E+01  0.00000000000E+00 0. -1.
</event>
<event>
 7    1  0.2530788E-009  0.4778727E+02  0.7816164E-02  0.1312668E+00
        -11   -1    0    0    0    0  0.00000000000E+00  0.00000000000E+00  0.45593999997E+02  0.45594000000E+02  0.51100000000E-03 0.  1.
         11   -1    0    0    0    0 -0.00000000000E+00 -0.00000000000E+00 -0.45593999997E+02  0.45594000000E+02  0.51100000000E-03 0. -1.
    9900012    2    1    2    0    0 -0.68049871831E+01  0.34510950164E+02 -0.25422626868E+02  0.47787268570E+02  0.19999988718E+02 0.  0.
        -12    1    1    2    0    0  0.68049871831E+01 -0.34510950164E+02  0.25422626868E+02  0.43400731430E+02  0.00000000000E+00 0.  1.
         11    1    3    3    0    0 -0.81463192744E+01  0.32773368541E+02 -0.18764200102E+02  0.38633552891E+02  0.51100000000E-03 0. -1.
        -11    1    3    3    0    0  0.12874189928E+01 -0.20115801039E+01 -0.16744316118E+01  0.29167831015E+01  0.51100000000E-03 0.  1.
        -12    1    3    3    0    0  0.53913098586E-01  0.37491617265E+01 -0.49839951549E+01  0.62369325776E+01  0.00000000000E+00 0.  1.
</event>
<event>
 7    1  0.2530788E-009  0.4778728E+02  0.7816164E-02  0.1312668E+00
        -11   -1    0    0    0    0  0.00000000000E+00  0.00000000000E+00  0.45593999997E+02  0.45594000000E+02  0.51100000000E-03 0.  1.
         11   -1    0    0    0    0 -0.00000000000E+00 -0.00000000000E+00 -0.45593999997E+02  0.45594000000E+02  0.51100000000E-03 0. -1.
    9900012    2    1    2    0    0  0.62851992796E+01 -0.14513889776E+02 -0.40416159090E+02  0.47787278324E+02  0.20000033190E+02 0.  0.
        -12    1    1    2    0    0 -0.62851992796E+01  0.14513889776E+02  0.40416159090E+02  0.43400721676E+02  0.00000000000E+00 0.  1.
         11    1    3    3    0    0  0.69612850213E+01 -0.60407992560E+01 -0.10156399523E+02  0.13715071868E+02  0.51100000000E-03 0. -1.
        -11    1    3    3    0    0 -0.37490955361E+01 -0.78893085784E+01 -0.29617890083E+02  0.30879059578E+02  0.51100000000E-03 0.  1.
        -12    1    3    3    0    0  0.30730097944E+01 -0.58378194165E+00 -0.64186948361E+00  0.31931468782E+01  0.00000000000E+00 0.  1.
</event>
<event>
 7    1  0.2530788E-009  0.4778727E+02  0.7816164E-02  0.1312668E+00
        -11   -1    0    0    0    0  0.00000000000E+00  0.00000000000E+00  0.45593999997E+02  0.45594000000E+02  0.51100000000E-03 0. -1.
         11   -1    0    0    0    0 -0.00000000000E+00 -0.00000000000E+00 -0.45593999997E+02  0.45594000000E+02  0.51100000000E-03 0.  1.
    9900012    2    1    2    0    0  0.77588293753E+01 -0.11316181785E+02  0.41174846688E+02  0.47787269554E+02  0.19999993204E+02 0.  0.
        -12    1    1    2    0    0 -0.77588293753E+01  0.11316181785E+02 -0.41174846688E+02  0.43400730446E+02  0.00000000000E+00 0.  1.
         11    1    3    3    0    0  0.44850652214E+01  0.31744432874E+00  0.76277301865E+01  0.88543124522E+01  0.51100000000E-03 0. -1.
        -11    1    3    3    0    0 -0.49237633253E+01 -0.10048715850E+02  0.22013615219E+02  0.24694521473E+02  0.51100000000E-03 0.  1.
        -12    1    3    3    0    0  0.81975274793E+01 -0.15849102638E+01  0.11533501283E+02  0.14238435629E+02  0.00000000000E+00 0.  1.
</event>
<event>
 7    1  0.2530788E-009  0.4778727E+02  0.7816164E-02  0.1312668E+00
        -11   -1    0    0    0    0  0.00000000000E+00  0.00000000000E+00  0.45593999997E+02  0.45594000000E+02  0.51100000000E-03 0.  1.
         11   -1    0    0    0    0 -0.00000000000E+00 -0.00000000000E+00 -0.45593999997E+02  0.45594000000E+02  0.51100000000E-03 0. -1.
    9900012    2    1    2    0    0  0.19862800717E+02  0.16087405183E+02 -0.35075458544E+02  0.47787271321E+02  0.20000001259E+02 0.  0.
        -12    1    1    2    0    0 -0.19862800717E+02 -0.16087405183E+02  0.35075458544E+02  0.43400728679E+02  0.00000000000E+00 0.  1.
         11    1    3    3    0    0  0.87336402910E+01  0.15464519323E+01 -0.41009930891E+01  0.97717005117E+01  0.51100000000E-03 0. -1.
        -11    1    3    3    0    0 -0.22757668421E+01  0.34805600174E+01 -0.96391826711E+01  0.10497964354E+02  0.51100000000E-03 0.  1.
        -12    1    3    3    0    0  0.13404927268E+02  0.11060393234E+02 -0.21335282784E+02  0.27517606455E+02  0.00000000000E+00 0.  1.
</event>
<event>
 7    1  0.2530788E-009  0.4778727E+02  0.7816164E-02  0.1312668E+00
        -11   -1    0    0    0    0  0.00000000000E+00  0.00000000000E+00  0.45593999997E+02  0.45594000000E+02  0.51100000000E-03 0.  1.
         11   -1    0    0    0    0 -0.00000000000E+00 -0.00000000000E+00 -0.45593999997E+02  0.45594000000E+02  0.51100000000E-03 0. -1.
    9900012    2    1    2    0    0  0.17067700328E+02 -0.39369879393E+02 -0.65061092628E+01  0.47787271254E+02  0.20000000956E+02 0.  0.
        -12    1    1    2    0    0 -0.17067700328E+02  0.39369879393E+02  0.65061092628E+01  0.43400728746E+02  0.00000000000E+00 0.  1.
         11    1    3    3    0    0  0.11259089959E+02 -0.26213366932E+02 -0.34501435579E+01  0.28736931002E+02  0.51100000000E-03 0. -1.
        -11    1    3    3    0    0 -0.21430994402E+01  0.96032818440E+00  0.63536128845E+00  0.24328562761E+01  0.51100000000E-03 0.  1.
        -12    1    3    3    0    0  0.79517098095E+01 -0.14116840646E+02 -0.36913269933E+01  0.16617483976E+02  0.00000000000E+00 0.  1.
</event>
<event>
 7    1  0.2530788E-009  0.4778728E+02  0.7816164E-02  0.1312668E+00
        -11   -1    0    0    0    0  0.00000000000E+00  0.00000000000E+00  0.45593999997E+02  0.45594000000E+02  0.51100000000E-03 0.  1.
         11   -1    0    0    0    0 -0.00000000000E+00 -0.00000000000E+00 -0.45593999997E+02  0.45594000000E+02  0.51100000000E-03 0. -1.
    9900012    2    1    2    0    0  0.32603118680E+02  0.18608219034E+02 -0.21780580811E+02  0.47787275769E+02  0.20000021543E+02 0.  0.
        -12    1    1    2    0    0 -0.32603118680E+02 -0.18608219034E+02  0.21780580811E+02  0.43400724231E+02  0.00000000000E+00 0.  1.
         11    1    3    3    0    0  0.18567955962E+02  0.67668001690E+01 -0.13455544081E+02  0.23908371754E+02  0.51100000000E-03 0. -1.
        -11    1    3    3    0    0  0.11232812084E+01  0.88192497705E+01 -0.16859364767E+01  0.90489396756E+01  0.51100000000E-03 0.  1.
        -12    1    3    3    0    0  0.12911881509E+02  0.30221690941E+01 -0.66391002529E+01  0.14829964340E+02  0.00000000000E+00 0.  1.
</event>
<event>
 7    1  0.2530788E-009  0.4778727E+02  0.7816164E-02  0.1312668E+00
        -11   -1    0    0    0    0  0.00000000000E+00  0.00000000000E+00  0.45593999997E+02  0.45594000000E+02  0.51100000000E-03 0.  1.
         11   -1    0    0    0    0 -0.00000000000E+00 -0.00000000000E+00 -0.45593999997E+02  0.45594000000E+02  0.51100000000E-03 0. -1.
    9900012    2    1    2    0    0 -0.56413888903E+01  0.39232775655E+02 -0.17680137188E+02  0.47787271836E+02  0.20000003609E+02 0.  0.
        -12    1    1    2    0    0  0.56413888903E+01 -0.39232775655E+02  0.17680137188E+02  0.43400728164E+02  0.00000000000E+00 0.  1.
         11    1    3    3    0    0 -0.97333053810E+00  0.16412013026E+02  0.92644151515E+00  0.16466931653E+02  0.51100000000E-03 0. -1.
        -11    1    3    3    0    0 -0.39105864935E+00  0.27272928191E+01  0.99134436611E+00  0.29281080755E+01  0.51100000000E-03 0.  1.
         12    1    3    3    0    0 -0.42769997028E+01  0.20093469809E+02 -0.19597923069E+02  0.28392232108E+02  0.00000000000E+00 0. -1.
</event>
<event>
 7    1  0.2530788E-009  0.4778728E+02  0.7816164E-02  0.1312668E+00
        -11   -1    0    0    0    0  0.00000000000E+00  0.00000000000E+00  0.45593999997E+02  0.45594000000E+02  0.51100000000E-03 0.  1.
         11   -1    0    0    0    0 -0.00000000000E+00 -0.00000000000E+00 -0.45593999997E+02  0.45594000000E+02  0.51100000000E-03 0. -1.
    9900012    2    1    2    0    0 -0.30528591579E+01  0.27176659780E+02 -0.33700623853E+02  0.47787276114E+02  0.20000023112E+02 0.  0.
        -12    1    1    2    0    0  0.30528591579E+01 -0.27176659780E+02  0.33700623853E+02  0.43400723886E+02  0.00000000000E+00 0.  1.
         11    1    3    3    0    0  0.24798539709E+01  0.23212397552E+02 -0.23590031232E+02  0.33188170326E+02  0.51100000000E-03 0. -1.
        -11    1    3    3    0    0 -0.23949212847E+01  0.23871951957E+01 -0.10532528209E+02  0.11062029633E+02  0.51100000000E-03 0.  1.
         12    1    3    3    0    0 -0.31377918441E+01  0.15770670324E+01  0.42193558846E+00  0.35370761544E+01  0.00000000000E+00 0. -1.
</event>
<event>
 7    1  0.2530788E-009  0.4778727E+02  0.7816164E-02  0.1312668E+00
        -11   -1    0    0    0    0  0.00000000000E+00  0.00000000000E+00  0.45593999997E+02  0.45594000000E+02  0.51100000000E-03 0.  1.
         11   -1    0    0    0    0 -0.00000000000E+00 -0.00000000000E+00 -0.45593999997E+02  0.45594000000E+02  0.51100000000E-03 0. -1.
    9900012    2    1    2    0    0  0.20280088446E+02  0.30795769252E+02 -0.22890212722E+02  0.47787271554E+02  0.20000002323E+02 0.  0.
        -12    1    1    2    0    0 -0.20280088446E+02 -0.30795769252E+02  0.22890212722E+02  0.43400728446E+02  0.00000000000E+00 0.  1.
         11    1    3    3    0    0 -0.11416059282E+01 -0.11712199835E+01  0.87554476613E+00  0.18551547762E+01  0.51100000000E-03 0.  1.
        -11    1    3    3    0    0  0.20284067307E+02  0.27797804897E+02 -0.18334223820E+02  0.38991090097E+02  0.51100000000E-03 0. -1.
        -12    1    3    3    0    0  0.11376270665E+01  0.41691843389E+01 -0.54315336681E+01  0.69410266807E+01  0.00000000000E+00 0.  1.
</event>
<event>
 7    1  0.2530788E-009  0.4778728E+02  0.7816164E-02  0.1312668E+00
        -11   -1    0    0    0    0  0.00000000000E+00  0.00000000000E+00  0.45593999997E+02  0.45594000000E+02  0.51100000000E-03 0.  1.
         11   -1    0    0    0    0 -0.00000000000E+00 -0.00000000000E+00 -0.45593999997E+02  0.45594000000E+02  0.51100000000E-03 0. -1.
    9900012    2    1    2    0    0  0.31406358252E+01  0.25957114532E+02 -0.34640835086E+02  0.47787276000E+02  0.20000022596E+02 0.  0.
        -12    1    1    2    0    0 -0.31406358252E+01 -0.25957114532E+02  0.34640835086E+02  0.43400724000E+02  0.00000000000E+00 0.  1.
         11    1    3    3    0    0  0.20513940005E+00  0.69104730038E+01 -0.48064549013E+01  0.84201382583E+01  0.51100000000E-03 0. -1.
        -11    1    3    3    0    0  0.99863826178E+01  0.92769375653E+01 -0.15430117887E+02  0.20588296351E+02  0.51100000000E-03 0.  1.
        -12    1    3    3    0    0 -0.70508861927E+01  0.97697039630E+01 -0.14404262298E+02  0.18778841391E+02  0.00000000000E+00 0.  1.
</event>
<event>
 7    1  0.2530788E-009  0.4778726E+02  0.7816164E-02  0.1312668E+00
        -11   -1    0    0    0    0  0.00000000000E+00  0.00000000000E+00  0.45593999997E+02  0.45594000000E+02  0.51100000000E-03 0.  1.
         11   -1    0    0    0    0 -0.00000000000E+00 -0.00000000000E+00 -0.45593999997E+02  0.45594000000E+02  0.51100000000E-03 0. -1.
    9900012    2    1    2    0    0 -0.36932589260E+02  0.96155582270E+01 -0.20667579404E+02  0.47787263280E+02  0.19999964599E+02 0.  0.
        -12    1    1    2    0    0  0.36932589260E+02 -0.96155582270E+01  0.20667579404E+02  0.43400736720E+02  0.00000000000E+00 0.  1.
         11    1    3    3    0    0 -0.23393439192E+02  0.90171941052E+01 -0.39863069751E+01  0.25386087338E+02  0.51100000000E-03 0. -1.
        -11    1    3    3    0    0 -0.27169329753E+01 -0.11321646267E+00 -0.27367265436E+00  0.27330275781E+01  0.51100000000E-03 0.  1.
         12    1    3    3    0    0 -0.10822217092E+02  0.71158058450E+00 -0.16407599774E+02  0.19668148364E+02  0.00000000000E+00 0. -1.
</event>
<event>
 7    1  0.2530788E-009  0.4778732E+02  0.7816164E-02  0.1312668E+00
        -11   -1    0    0    0    0  0.00000000000E+00  0.00000000000E+00  0.45593999997E+02  0.45594000000E+02  0.51100000000E-03 0.  1.
         11   -1    0    0    0    0 -0.00000000000E+00 -0.00000000000E+00 -0.45593999997E+02  0.45594000000E+02  0.51100000000E-03 0. -1.
    9900012    2    1    2    0    0  0.34220754811E+02 -0.86276905926E+01 -0.25261079838E+02  0.47787317294E+02  0.20000210869E+02 0.  0.
        -12    1    1    2    0    0 -0.34220754811E+02  0.86276905926E+01  0.25261079838E+02  0.43400682706E+02  0.00000000000E+00 0.  1.
         11    1    3    3    0    0  0.57262638625E+01 -0.84854285845E+01 -0.36785482519E+01  0.10877697991E+02  0.51100000000E-03 0. -1.
        -11    1    3    3    0    0  0.14944912838E+02 -0.49589998446E+00 -0.56336421288E+01  0.15979182095E+02  0.51100000000E-03 0.  1.
         12    1    3    3    0    0  0.13549578110E+02  0.35363797627E+00 -0.15948889457E+02  0.20930437207E+02  0.00000000000E+00 0. -1.
</event>
<event>
 7    1  0.2530788E-009  0.4778728E+02  0.7816164E-02  0.1312668E+00
        -11   -1    0    0    0    0  0.00000000000E+00  0.00000000000E+00  0.45593999997E+02  0.45594000000E+02  0.51100000000E-03 0. -1.
         11   -1    0    0    0    0 -0.00000000000E+00 -0.00000000000E+00 -0.45593999997E+02  0.45594000000E+02  0.51100000000E-03 0.  1.
    9900012    2    1    2    0    0 -0.15983997319E+01 -0.14346257912E+02  0.40929851871E+02  0.47787276826E+02  0.20000026362E+02 0.  0.
        -12    1    1    2    0    0  0.15983997319E+01  0.14346257912E+02 -0.40929851871E+02  0.43400723174E+02  0.00000000000E+00 0.  1.
         11    1    3    3    0    0 -0.96433548192E+01 -0.42678030545E+01  0.23506979651E+02  0.25764054954E+02  0.51100000000E-03 0. -1.
        -11    1    3    3    0    0  0.81877241044E+01 -0.89511594481E+01  0.14612139311E+02  0.18991490120E+02  0.51100000000E-03 0.  1.
        -12    1    3    3    0    0 -0.14276901702E+00 -0.11272954093E+01  0.28107329095E+01  0.30317317527E+01  0.00000000000E+00 0.  1.
</event>
<event>
 7    1  0.2530788E-009  0.4778727E+02  0.7816164E-02  0.1312668E+00
        -11   -1    0    0    0    0  0.00000000000E+00  0.00000000000E+00  0.45593999997E+02  0.45594000000E+02  0.51100000000E-03 0.  1.
         11   -1    0    0    0    0 -0.00000000000E+00 -0.00000000000E+00 -0.45593999997E+02  0.45594000000E+02  0.51100000000E-03 0. -1.
    9900012    2    1    2    0    0  0.68885785192E+01  0.33990286053E+02 -0.26092747704E+02  0.47787267947E+02  0.19999985879E+02 0.  0.
        -12    1    1    2    0    0 -0.68885785192E+01 -0.33990286053E+02  0.26092747704E+02  0.43400732053E+02  0.00000000000E+00 0.  1.
         11    1    3    3    0    0 -0.16980057367E+00  0.80738176786E+01  0.11070899846E+01  0.81511356655E+01  0.51100000000E-03 0. -1.
        -11    1    3    3    0    0  0.11052239504E+01  0.29520186825E+00  0.66012742591E+00  0.13207697010E+01  0.51100000000E-03 0.  1.
         12    1    3    3    0    0  0.59531551425E+01  0.25621266506E+02 -0.27859965115E+02  0.38315362581E+02  0.00000000000E+00 0. -1.
</event>
<event>
 7    1  0.2747003E-009  0.4778727E+02  0.7816164E-02  0.1312668E+00
        -11   -1    0    0    0    0  0.00000000000E+00  0.00000000000E+00  0.45593999997E+02  0.45594000000E+02  0.51100000000E-03 0. -1.
         11   -1    0    0    0    0 -0.00000000000E+00 -0.00000000000E+00 -0.45593999997E+02  0.45594000000E+02  0.51100000000E-03 0.  1.
    9900012    2    1    2    0    0  0.41056874792E+01 -0.28226786415E+02  0.32711082320E+02  0.47787273652E+02  0.20000011891E+02 0.  0.
        -12    1    1    2    0    0 -0.41056874792E+01  0.28226786415E+02 -0.32711082320E+02  0.43400726348E+02  0.00000000000E+00 0.  1.
         11    1    3    3    0    0  0.24751223725E+01 -0.16524662469E+02  0.14281771607E+02  0.21980893999E+02  0.51100000000E-03 0. -1.
        -11    1    3    3    0    0  0.60808557812E+01 -0.18724381352E+01  0.10994349194E+02  0.12702698377E+02  0.51100000000E-03 0.  1.
        -12    1    3    3    0    0 -0.44502906746E+01 -0.98296858105E+01  0.74349615186E+01  0.13103681277E+02  0.00000000000E+00 0.  1.
</event>
<event>
 7    1  0.2530788E-009  0.4778723E+02  0.7816164E-02  0.1312668E+00
        -11   -1    0    0    0    0  0.00000000000E+00  0.00000000000E+00  0.45593999997E+02  0.45594000000E+02  0.51100000000E-03 0.  1.
         11   -1    0    0    0    0 -0.00000000000E+00 -0.00000000000E+00 -0.45593999997E+02  0.45594000000E+02  0.51100000000E-03 0. -1.
    9900012    2    1    2    0    0  0.96578418291E+01 -0.41529157482E+02 -0.81044338669E+01  0.47787231824E+02  0.19999821178E+02 0.  0.
        -12    1    1    2    0    0 -0.96578418291E+01  0.41529157482E+02  0.81044338669E+01  0.43400768176E+02  0.00000000000E+00 0.  1.
         11    1    3    3    0    0 -0.96581113809E+00 -0.20653290936E+02 -0.56764465032E+01  0.21440924952E+02  0.51100000000E-03 0. -1.
        -11    1    3    3    0    0  0.94546527479E+01 -0.19748496689E+02  0.16496896206E+01  0.21957118577E+02  0.51100000000E-03 0.  1.
        -12    1    3    3    0    0  0.11690002193E+01 -0.11273698568E+01 -0.40776769843E+01  0.43891882957E+01  0.00000000000E+00 0.  1.
</event>
<event>
 7    1  0.2530788E-009  0.4778725E+02  0.7816164E-02  0.1312668E+00
        -11   -1    0    0    0    0  0.00000000000E+00  0.00000000000E+00  0.45593999997E+02  0.45594000000E+02  0.51100000000E-03 0. -1.
         11   -1    0    0    0    0 -0.00000000000E+00 -0.00000000000E+00 -0.45593999997E+02  0.45594000000E+02  0.51100000000E-03 0.  1.
    9900012    2    1    2    0    0  0.17971612246E+02  0.39298247715E+02 -0.40365964585E+01  0.47787248495E+02  0.19999897189E+02 0.  0.
        -12    1    1    2    0    0 -0.17971612246E+02 -0.39298247715E+02  0.40365964585E+01  0.43400751505E+02  0.00000000000E+00 0.  1.
         11    1    3    3    0    0  0.98506609818E-01  0.90554950257E+01 -0.83686293514E+01  0.12330679267E+02  0.51100000000E-03 0.  1.
        -11    1    3    3    0    0  0.13627258987E+02  0.23946573940E+02  0.41262503292E+01  0.27859765488E+02  0.51100000000E-03 0. -1.
        -12    1    3    3    0    0  0.42458466489E+01  0.62961787491E+01  0.20578256370E+00  0.75968037404E+01  0.00000000000E+00 0.  1.
</event>
<event>
 7    1  0.2530788E-009  0.4778728E+02  0.7816164E-02  0.1312668E+00
        -11   -1    0    0    0    0  0.00000000000E+00  0.00000000000E+00  0.45593999997E+02  0.45594000000E+02  0.51100000000E-03 0.  1.
         11   -1    0    0    0    0 -0.00000000000E+00 -0.00000000000E+00 -0.45593999997E+02  0.45594000000E+02  0.51100000000E-03 0. -1.
    9900012    2    1    2    0    0 -0.26232468911E+02 -0.11342231147E+02 -0.32662423705E+02  0.47787279328E+02  0.20000037770E+02 0.  0.
        -12    1    1    2    0    0  0.26232468911E+02  0.11342231147E+02  0.32662423705E+02  0.43400720672E+02  0.00000000000E+00 0.  1.
         11    1    3    3    0    0  0.48317396485E+00  0.30820238012E+01 -0.21628969253E+01  0.37961100039E+01  0.51100000000E-03 0. -1.
        -11    1    3    3    0    0 -0.40525798022E+01 -0.55160711224E+01 -0.36995863040E+01  0.77805772769E+01  0.51100000000E-03 0.  1.
         12    1    3    3    0    0 -0.22663063073E+02 -0.89081838253E+01 -0.26799940476E+02  0.36210592048E+02  0.00000000000E+00 0. -1.
</event>
<event>
 7    1  0.2530788E-009  0.4778727E+02  0.7816164E-02  0.1312668E+00
        -11   -1    0    0    0    0  0.00000000000E+00  0.00000000000E+00  0.45593999997E+02  0.45594000000E+02  0.51100000000E-03 0.  1.
         11   -1    0    0    0    0 -0.00000000000E+00 -0.00000000000E+00 -0.45593999997E+02  0.45594000000E+02  0.51100000000E-03 0. -1.
    9900012    2    1    2    0    0 -0.78661421975E+01  0.39930510562E+02 -0.15076529189E+02  0.47787267296E+02  0.19999982909E+02 0.  0.
        -12    1    1    2    0    0  0.78661421975E+01 -0.39930510562E+02  0.15076529189E+02  0.43400732704E+02  0.00000000000E+00 0.  1.
         11    1    3    3    0    0 -0.53337644742E+00  0.51752628293E+01  0.36312666605E+01  0.63445987744E+01  0.51100000000E-03 0.  1.
        -11    1    3    3    0    0 -0.96118805954E+01  0.25518929776E+02 -0.15696937686E+02  0.31464231732E+02  0.51100000000E-03 0. -1.
         12    1    3    3    0    0  0.22791148453E+01  0.92363179571E+01 -0.30108581637E+01  0.99784367896E+01  0.00000000000E+00 0. -1.
</event>
<event>
 7    1  0.2530788E-009  0.4778727E+02  0.7816164E-02  0.1312668E+00
        -11   -1    0    0    0    0  0.00000000000E+00  0.00000000000E+00  0.45593999997E+02  0.45594000000E+02  0.51100000000E-03 0.  1.
         11   -1    0    0    0    0 -0.00000000000E+00 -0.00000000000E+00 -0.45593999997E+02  0.45594000000E+02  0.51100000000E-03 0. -1.
    9900012    2    1    2    0    0 -0.26219544207E+02 -0.11722879856E+02 -0.32538174634E+02  0.47787271675E+02  0.20000002877E+02 0.  0.
        -12    1    1    2    0    0  0.26219544207E+02  0.11722879856E+02  0.32538174634E+02  0.43400728325E+02  0.00000000000E+00 0.  1.
         11    1    3    3    0    0 -0.11012127292E+02 -0.98196395167E+01 -0.56521540322E+01  0.15799971936E+02  0.51100000000E-03 0. -1.
        -11    1    3    3    0    0 -0.15458053295E+01  0.10995317832E+01 -0.94273213691E+01  0.96162816471E+01  0.51100000000E-03 0.  1.
         12    1    3    3    0    0 -0.13661611586E+02 -0.30027721223E+01 -0.17458699233E+02  0.22371018092E+02  0.00000000000E+00 0. -1.
</event>
<event>
 7    1  0.2530788E-009  0.4778727E+02  0.7816164E-02  0.1312668E+00
        -11   -1    0    0    0    0  0.00000000000E+00  0.00000000000E+00  0.45593999997E+02  0.45594000000E+02  0.51100000000E-03 0.  1.
         11   -1    0    0    0    0 -0.00000000000E+00 -0.00000000000E+00 -0.45593999997E+02  0.45594000000E+02  0.51100000000E-03 0. -1.
    9900012    2    1    2    0    0 -0.48533684961E+01 -0.10180416997E+02 -0.41909750447E+02  0.47787271221E+02  0.20000000805E+02 0.  0.
        -12    1    1    2    0    0  0.48533684961E+01  0.10180416997E+02  0.41909750447E+02  0.43400728779E+02  0.00000000000E+00 0.  1.
         11    1    3    3    0    0  0.14421294157E-01  0.14739184997E+01 -0.10025864442E+02  0.10133637145E+02  0.51100000000E-03 0. -1.
        -11    1    3    3    0    0 -0.36300555009E+01 -0.10549495270E+02 -0.80391749953E+01  0.13751272242E+02  0.51100000000E-03 0.  1.
        -12    1    3    3    0    0 -0.12377342893E+01 -0.11048402260E+01 -0.23844711010E+02  0.23902361834E+02  0.00000000000E+00 0.  1.
</event>
<event>
 7    1  0.2530788E-009  0.4778724E+02  0.7816164E-02  0.1312668E+00
        -11   -1    0    0    0    0  0.00000000000E+00  0.00000000000E+00  0.45593999997E+02  0.45594000000E+02  0.51100000000E-03 0.  1.
         11   -1    0    0    0    0 -0.00000000000E+00 -0.00000000000E+00 -0.45593999997E+02  0.45594000000E+02  0.51100000000E-03 0. -1.
    9900012    2    1    2    0    0  0.89982887349E+01 -0.28865557811E+02 -0.31135770069E+02  0.47787241877E+02  0.19999867012E+02 0.  0.
        -12    1    1    2    0    0 -0.89982887349E+01  0.28865557811E+02  0.31135770069E+02  0.43400758123E+02  0.00000000000E+00 0.  1.
         11    1    3    3    0    0  0.79484980580E+00 -0.27117579490E+01 -0.15266015557E+01  0.32118421441E+01  0.51100000000E-03 0. -1.
        -11    1    3    3    0    0  0.94138502027E+01 -0.91053586407E+01 -0.38304472979E+01  0.13645528879E+02  0.51100000000E-03 0.  1.
        -12    1    3    3    0    0 -0.12104112735E+01 -0.17048441221E+02 -0.25778721216E+02  0.30929870854E+02  0.00000000000E+00 0.  1.
</event>
<event>
 7    1  0.2530788E-009  0.4778727E+02  0.7816164E-02  0.1312668E+00
        -11   -1    0    0    0    0  0.00000000000E+00  0.00000000000E+00  0.45593999997E+02  0.45594000000E+02  0.51100000000E-03 0. -1.
         11   -1    0    0    0    0 -0.00000000000E+00 -0.00000000000E+00 -0.45593999997E+02  0.45594000000E+02  0.51100000000E-03 0.  1.
    9900012    2    1    2    0    0 -0.22219110682E+02 -0.32300645138E+02  0.18617263489E+02  0.47787273559E+02  0.20000011464E+02 0.  0.
        -12    1    1    2    0    0  0.22219110682E+02  0.32300645138E+02 -0.18617263489E+02  0.43400726441E+02  0.00000000000E+00 0.  1.
         11    1    3    3    0    0 -0.47461064707E+01 -0.88667773385E+01  0.33184378783E+01  0.10590434232E+02  0.51100000000E-03 0. -1.
        -11    1    3    3    0    0 -0.38434758654E+01 -0.12194516854E+02 -0.14317739215E+01  0.12865788932E+02  0.51100000000E-03 0.  1.
        -12    1    3    3    0    0 -0.13629528346E+02 -0.11239350945E+02  0.16730599532E+02  0.24331050395E+02  0.00000000000E+00 0.  1.
</event>
<event>
 7    1  0.2530788E-009  0.4778726E+02  0.7816164E-02  0.1312668E+00
        -11   -1    0    0    0    0  0.00000000000E+00  0.00000000000E+00  0.45593999997E+02  0.45594000000E+02  0.51100000000E-03 0.  1.
         11   -1    0    0    0    0 -0.00000000000E+00 -0.00000000000E+00 -0.45593999997E+02  0.45594000000E+02  0.51100000000E-03 0. -1.
    9900012    2    1    2    0    0  0.20220491390E+02 -0.16521106291E+01 -0.38366998963E+02  0.47787258636E+02  0.19999943423E+02 0.  0.
        -12    1    1    2    0    0 -0.20220491390E+02  0.16521106291E+01  0.38366998963E+02  0.43400741364E+02  0.00000000000E+00 0.  1.
         11    1    3    3    0    0  0.73874469765E+01 -0.62092615237E+01 -0.94230138040E+01  0.13487864579E+02  0.51100000000E-03 0. -1.
        -11    1    3    3    0    0  0.75407657194E+01  0.62726715723E+01 -0.26435660177E+02  0.28196696359E+02  0.51100000000E-03 0.  1.
        -12    1    3    3    0    0  0.52922786938E+01 -0.17155206778E+01 -0.25083249814E+01  0.61026976970E+01  0.00000000000E+00 0.  1.
</event>
<event>
 7    1  0.2530788E-009  0.4778727E+02  0.7816164E-02  0.1312668E+00
        -11   -1    0    0    0    0  0.00000000000E+00  0.00000000000E+00  0.45593999997E+02  0.45594000000E+02  0.51100000000E-03 0. -1.
         11   -1    0    0    0    0 -0.00000000000E+00 -0.00000000000E+00 -0.45593999997E+02  0.45594000000E+02  0.51100000000E-03 0.  1.
    9900012    2    1    2    0    0  0.20262728319E+02 -0.20708650886E+02  0.32314035520E+02  0.47787271066E+02  0.20000000098E+02 0.  0.
        -12    1    1    2    0    0 -0.20262728319E+02  0.20708650886E+02 -0.32314035520E+02  0.43400728934E+02  0.00000000000E+00 0.  1.
         11    1    3    3    0    0  0.14630202136E+02 -0.12302849270E+02  0.80233745935E+01  0.20731074618E+02  0.51100000000E-03 0. -1.
        -11    1    3    3    0    0 -0.57840705490E+00 -0.75714431341E+00  0.12730345733E+00  0.96126409683E+00  0.51100000000E-03 0.  1.
         12    1    3    3    0    0  0.62109332381E+01 -0.76486573018E+01  0.24163357469E+02  0.26094932351E+02  0.00000000000E+00 0. -1.
</event>
<event>
 7    1  0.2530788E-009  0.4778727E+02  0.7816164E-02  0.1312668E+00
        -11   -1    0    0    0    0  0.00000000000E+00  0.00000000000E+00  0.45593999997E+02  0.45594000000E+02  0.51100000000E-03 0. -1.
         11   -1    0    0    0    0 -0.00000000000E+00 -0.00000000000E+00 -0.45593999997E+02  0.45594000000E+02  0.51100000000E-03 0.  1.
    9900012    2    1    2    0    0  0.30555658884E+02 -0.30392126294E+02  0.51277170391E+01  0.47787272903E+02  0.20000008474E+02 0.  0.
        -12    1    1    2    0    0 -0.30555658884E+02  0.30392126294E+02 -0.51277170391E+01  0.43400727097E+02  0.00000000000E+00 0.  1.
         11    1    3    3    0    0  0.22690573540E+01 -0.55589663355E+01  0.65532424334E+01  0.88879533441E+01  0.51100000000E-03 0. -1.
        -11    1    3    3    0    0  0.92981618864E+01 -0.34073643060E+01 -0.26259007579E+01  0.10245062276E+02  0.51100000000E-03 0.  1.
         12    1    3    3    0    0  0.18988439644E+02 -0.21425795652E+02  0.12003753636E+01  0.28654257283E+02  0.00000000000E+00 0. -1.
</event>
<event>
 7    1  0.2530788E-009  0.4778726E+02  0.7816164E-02  0.1312668E+00
        -11   -1    0    0    0    0  0.00000000000E+00  0.00000000000E+00  0.45593999997E+02  0.45594000000E+02  0.51100000000E-03 0. -1.
         11   -1    0    0    0    0 -0.00000000000E+00 -0.00000000000E+00 -0.45593999997E+02  0.45594000000E+02  0.51100000000E-03 0.  1.
    9900012    2    1    2    0    0  0.31498475312E+02 -0.34931478081E+01  0.29652455266E+02  0.47787261160E+02  0.19999954932E+02 0.  0.
        -12    1    1    2    0    0 -0.31498475312E+02  0.34931478081E+01 -0.29652455266E+02  0.43400738840E+02  0.00000000000E+00 0.  1.
         11    1    3    3    0    0  0.16952023613E+02 -0.92564764833E+01  0.11475855819E+02  0.22466613641E+02  0.51100000000E-03 0. -1.
        -11    1    3    3    0    0  0.57198788512E+01  0.35595039815E+01  0.13508758169E+02  0.15095483769E+02  0.51100000000E-03 0.  1.
         12    1    3    3    0    0  0.88265728485E+01  0.22038246937E+01  0.46678412768E+01  0.10225163750E+02  0.00000000000E+00 0. -1.
</event>
