<event>
 7    1  0.4623443E-009  0.4614232E+02  0.7816164E-02  0.1320468E+00
        -11   -1    0    0    0    0  0.00000000000E+00  0.00000000000E+00  0.45593999997E+02  0.45594000000E+02  0.51100000000E-03 0. -1.
         11   -1    0    0    0    0 -0.00000000000E+00 -0.00000000000E+00 -0.45593999997E+02  0.45594000000E+02  0.51100000000E-03 0.  1.
    9900012    2    1    2    0    0  0.99758492877E+01 -0.14409268860E+02  0.41496611888E+02  0.46142318783E+02  0.10000009322E+02 0.  0.
        -12    1    1    2    0    0 -0.99758492877E+01  0.14409268860E+02 -0.41496611888E+02  0.45045681217E+02  0.00000000000E+00 0.  1.
         11    1    3    3    0    0  0.28658127976E+00 -0.13430838459E+01  0.20890957492E+01  0.25000648706E+01  0.51100000000E-03 0. -1.
        -11    1    3    3    0    0  0.35594658594E+01 -0.23190710888E+01  0.30294537991E+01  0.52178039922E+01  0.51100000000E-03 0.  1.
         12    1    3    3    0    0  0.61298021485E+01 -0.10747113926E+02  0.36378062340E+02  0.38424449920E+02  0.00000000000E+00 0. -1.
</event>
<event>
 7    1  0.4623443E-009  0.4614232E+02  0.7816164E-02  0.1320468E+00
        -11   -1    0    0    0    0  0.00000000000E+00  0.00000000000E+00  0.45593999997E+02  0.45594000000E+02  0.51100000000E-03 0. -1.
         11   -1    0    0    0    0 -0.00000000000E+00 -0.00000000000E+00 -0.45593999997E+02  0.45594000000E+02  0.51100000000E-03 0.  1.
    9900012    2    1    2    0    0  0.36520495528E+02 -0.10595351572E+02  0.24147575977E+02  0.46142317697E+02  0.99999994154E+01 0.  0.
        -12    1    1    2    0    0 -0.36520495528E+02  0.10595351572E+02 -0.24147575977E+02  0.45045682303E+02  0.00000000000E+00 0.  1.
         11    1    3    3    0    0  0.18853347386E+02 -0.28147367624E+01  0.10902377739E+02  0.21959810821E+02  0.51100000000E-03 0. -1.
        -11    1    3    3    0    0  0.51670937202E+01  0.22476342532E+00  0.19399649056E+01  0.55238428840E+01  0.51100000000E-03 0.  1.
         12    1    3    3    0    0  0.12500054423E+02 -0.80053782353E+01  0.11305233332E+02  0.18658663992E+02  0.00000000000E+00 0. -1.
</event>
<event>
 7    1  0.4623443E-009  0.4614233E+02  0.7816164E-02  0.1320468E+00
        -11   -1    0    0    0    0  0.00000000000E+00  0.00000000000E+00  0.45593999997E+02  0.45594000000E+02  0.51100000000E-03 0. -1.
         11   -1    0    0    0    0 -0.00000000000E+00 -0.00000000000E+00 -0.45593999997E+02  0.45594000000E+02  0.51100000000E-03 0.  1.
    9900012    2    1    2    0    0 -0.17877323696E+02 -0.37394233800E+02 -0.17640433520E+02  0.46142330743E+02  0.10000118376E+02 0.  0.
         12    1    1    2    0    0  0.17877323696E+02  0.37394233800E+02  0.17640433520E+02  0.45045669257E+02  0.00000000000E+00 0. -1.
         11    1    3    3    0    0 -0.17765373546E+01 -0.23274920771E+01 -0.35556520955E-01  0.29282364776E+01  0.51100000000E-03 0. -1.
        -11    1    3    3    0    0 -0.13285276979E+02 -0.19814942753E+02 -0.91603971025E+01  0.25554714165E+02  0.51100000000E-03 0.  1.
         12    1    3    3    0    0 -0.28155093628E+01 -0.15251798970E+02 -0.84444798971E+01  0.17659380101E+02  0.00000000000E+00 0. -1.
</event>
<event>
 7    1  0.4623443E-009  0.4614231E+02  0.7816164E-02  0.1320468E+00
        -11   -1    0    0    0    0  0.00000000000E+00  0.00000000000E+00  0.45593999997E+02  0.45594000000E+02  0.51100000000E-03 0. -1.
         11   -1    0    0    0    0 -0.00000000000E+00 -0.00000000000E+00 -0.45593999997E+02  0.45594000000E+02  0.51100000000E-03 0.  1.
    9900012    2    1    2    0    0 -0.35568613729E+01 -0.23211078525E+02  0.38440980887E+02  0.46142307191E+02  0.99999036135E+01 0.  0.
        -12    1    1    2    0    0  0.35568613729E+01  0.23211078525E+02 -0.38440980887E+02  0.45045692809E+02  0.00000000000E+00 0.  1.
         11    1    3    3    0    0 -0.30379996403E+01 -0.20303982041E+02  0.34047539146E+02  0.39758219914E+02  0.51100000000E-03 0. -1.
        -11    1    3    3    0    0 -0.12522560292E+01 -0.18341076346E+01  0.45616810736E+01  0.50735619102E+01  0.51100000000E-03 0.  1.
         12    1    3    3    0    0  0.73339429659E+00 -0.10729888487E+01 -0.16823933334E+00  0.13105253667E+01  0.00000000000E+00 0. -1.
</event>
<event>
 7    1  0.4623443E-009  0.4614232E+02  0.7816164E-02  0.1320468E+00
        -11   -1    0    0    0    0  0.00000000000E+00  0.00000000000E+00  0.45593999997E+02  0.45594000000E+02  0.51100000000E-03 0. -1.
         11   -1    0    0    0    0 -0.00000000000E+00 -0.00000000000E+00 -0.45593999997E+02  0.45594000000E+02  0.51100000000E-03 0.  1.
    9900012    2    1    2    0    0  0.44337619947E+00  0.24344948764E+02  0.37897762334E+02  0.46142317602E+02  0.99999985470E+01 0.  0.
        -12    1    1    2    0    0 -0.44337619947E+00 -0.24344948764E+02 -0.37897762334E+02  0.45045682398E+02  0.00000000000E+00 0.  1.
         11    1    3    3    0    0  0.38787958266E-02  0.19194018529E+02  0.24618756242E+02  0.31216878792E+02  0.51100000000E-03 0. -1.
        -11    1    3    3    0    0  0.23733215587E+01  0.25621298243E+01  0.81029221353E+01  0.88235203773E+01  0.51100000000E-03 0.  1.
        -12    1    3    3    0    0 -0.19338241551E+01  0.25888004106E+01  0.51760839569E+01  0.61019184326E+01  0.00000000000E+00 0.  1.
</event>
<event>
 7    1  0.4623443E-009  0.4614232E+02  0.7816164E-02  0.1320468E+00
        -11   -1    0    0    0    0  0.00000000000E+00  0.00000000000E+00  0.45593999997E+02  0.45594000000E+02  0.51100000000E-03 0. -1.
         11   -1    0    0    0    0 -0.00000000000E+00 -0.00000000000E+00 -0.45593999997E+02  0.45594000000E+02  0.51100000000E-03 0.  1.
    9900012    2    1    2    0    0 -0.37426868119E+01  0.15852670155E+02  0.41997603210E+02  0.46142317288E+02  0.99999956866E+01 0.  0.
        -12    1    1    2    0    0  0.37426868119E+01 -0.15852670155E+02 -0.41997603210E+02  0.45045682712E+02  0.00000000000E+00 0.  1.
         11    1    3    3    0    0 -0.25180179271E+01  0.11503994653E+02  0.20741714868E+02  0.23851646551E+02  0.51100000000E-03 0. -1.
        -11    1    3    3    0    0  0.38086406817E+00  0.85173537558E+00  0.29356186226E+00  0.97810501304E+00  0.51100000000E-03 0.  1.
        -12    1    3    3    0    0 -0.16055329529E+01  0.34969401262E+01  0.20962326480E+02  0.21312565724E+02  0.00000000000E+00 0.  1.
</event>
<event>
 7    1  0.4623443E-009  0.4614232E+02  0.7816164E-02  0.1320468E+00
        -11   -1    0    0    0    0  0.00000000000E+00  0.00000000000E+00  0.45593999997E+02  0.45594000000E+02  0.51100000000E-03 0. -1.
         11   -1    0    0    0    0 -0.00000000000E+00 -0.00000000000E+00 -0.45593999997E+02  0.45594000000E+02  0.51100000000E-03 0.  1.
    9900012    2    1    2    0    0  0.82223790201E+01 -0.30006227619E+02 -0.32575017418E+02  0.46142323488E+02  0.10000052221E+02 0.  0.
         12    1    1    2    0    0 -0.82223790201E+01  0.30006227619E+02  0.32575017418E+02  0.45045676512E+02  0.00000000000E+00 0. -1.
         11    1    3    3    0    0  0.39500984677E+01 -0.71748108922E+01 -0.10005799977E+02  0.12930476506E+02  0.51100000000E-03 0. -1.
        -11    1    3    3    0    0  0.43355059357E+01 -0.82428511564E+01 -0.12032912298E+02  0.15216181700E+02  0.51100000000E-03 0.  1.
         12    1    3    3    0    0 -0.63225383293E-01 -0.14588565570E+02 -0.10536305144E+02  0.17995665281E+02  0.00000000000E+00 0. -1.
</event>
<event>
 7    1  0.4623443E-009  0.4614232E+02  0.7816164E-02  0.1320468E+00
        -11   -1    0    0    0    0  0.00000000000E+00  0.00000000000E+00  0.45593999997E+02  0.45594000000E+02  0.51100000000E-03 0. -1.
         11   -1    0    0    0    0 -0.00000000000E+00 -0.00000000000E+00 -0.45593999997E+02  0.45594000000E+02  0.51100000000E-03 0.  1.
    9900012    2    1    2    0    0  0.11213545714E+02  0.36785463297E+00 -0.43626072431E+02  0.46142321847E+02  0.10000037257E+02 0.  0.
         12    1    1    2    0    0 -0.11213545714E+02 -0.36785463297E+00  0.43626072431E+02  0.45045678153E+02  0.00000000000E+00 0. -1.
         11    1    3    3    0    0  0.19049020108E+01  0.24622146220E+01 -0.47164173522E+01  0.56511720392E+01  0.51100000000E-03 0. -1.
        -11    1    3    3    0    0  0.33256028309E+01  0.20341366512E+01 -0.12027432655E+02  0.12643436346E+02  0.51100000000E-03 0.  1.
         12    1    3    3    0    0  0.59830408727E+01 -0.41284966402E+01 -0.26882222424E+02  0.27847713461E+02  0.00000000000E+00 0. -1.
</event>
<event>
 7    1  0.4623443E-009  0.4614232E+02  0.7816164E-02  0.1320468E+00
        -11   -1    0    0    0    0  0.00000000000E+00  0.00000000000E+00  0.45593999997E+02  0.45594000000E+02  0.51100000000E-03 0. -1.
         11   -1    0    0    0    0 -0.00000000000E+00 -0.00000000000E+00 -0.45593999997E+02  0.45594000000E+02  0.51100000000E-03 0.  1.
    9900012    2    1    2    0    0 -0.10796325436E+02 -0.16301449627E+02  0.40580975509E+02  0.46142317897E+02  0.10000001235E+02 0.  0.
        -12    1    1    2    0    0  0.10796325436E+02  0.16301449627E+02 -0.40580975509E+02  0.45045682103E+02  0.00000000000E+00 0.  1.
         11    1    3    3    0    0 -0.28102722824E+01 -0.95056984783E+01  0.19152902895E+02  0.21565936647E+02  0.51100000000E-03 0. -1.
        -11    1    3    3    0    0  0.82301447772E+00 -0.71950700175E-01  0.26104840137E+01  0.27380936399E+01  0.51100000000E-03 0.  1.
        -12    1    3    3    0    0 -0.88090676317E+01 -0.67238004484E+01  0.18817588600E+02  0.21838287610E+02  0.00000000000E+00 0.  1.
</event>
<event>
 7    1  0.4623443E-009  0.4614232E+02  0.7816164E-02  0.1320468E+00
        -11   -1    0    0    0    0  0.00000000000E+00  0.00000000000E+00  0.45593999997E+02  0.45594000000E+02  0.51100000000E-03 0. -1.
         11   -1    0    0    0    0 -0.00000000000E+00 -0.00000000000E+00 -0.45593999997E+02  0.45594000000E+02  0.51100000000E-03 0.  1.
    9900012    2    1    2    0    0 -0.33921748374E+02 -0.21209391204E+02  0.20702421051E+02  0.46142317351E+02  0.99999962559E+01 0.  0.
        -12    1    1    2    0    0  0.33921748374E+02  0.21209391204E+02 -0.20702421051E+02  0.45045682649E+02  0.00000000000E+00 0.  1.
         11    1    3    3    0    0 -0.12758587096E+02 -0.10835225081E+02  0.76643851944E+01  0.18409955131E+02  0.51100000000E-03 0. -1.
        -11    1    3    3    0    0 -0.13093511679E+01 -0.30368484190E+01  0.19126972196E+01  0.38203742900E+01  0.51100000000E-03 0.  1.
        -12    1    3    3    0    0 -0.19853810110E+02 -0.73373177040E+01  0.11125338637E+02  0.23911987930E+02  0.00000000000E+00 0.  1.
</event>
<event>
 7    1  0.4623443E-009  0.4614232E+02  0.7816164E-02  0.1320468E+00
        -11   -1    0    0    0    0  0.00000000000E+00  0.00000000000E+00  0.45593999997E+02  0.45594000000E+02  0.51100000000E-03 0. -1.
         11   -1    0    0    0    0 -0.00000000000E+00 -0.00000000000E+00 -0.45593999997E+02  0.45594000000E+02  0.51100000000E-03 0.  1.
    9900012    2    1    2    0    0  0.23781370466E+02 -0.19946806715E+02 -0.32644827339E+02  0.46142318393E+02  0.10000005766E+02 0.  0.
         12    1    1    2    0    0 -0.23781370466E+02  0.19946806715E+02  0.32644827339E+02  0.45045681607E+02  0.00000000000E+00 0. -1.
         11    1    3    3    0    0  0.89354479882E+01 -0.43186985926E+01 -0.14656504289E+02  0.17700466280E+02  0.51100000000E-03 0. -1.
        -11    1    3    3    0    0  0.85850425220E+01 -0.94123054677E+01 -0.76871391621E+01  0.14879064422E+02  0.51100000000E-03 0.  1.
        -12    1    3    3    0    0  0.62608799560E+01 -0.62158026549E+01 -0.10301183888E+02  0.13562787692E+02  0.00000000000E+00 0.  1.
</event>
<event>
 7    1  0.4623443E-009  0.4614232E+02  0.7816164E-02  0.1320468E+00
        -11   -1    0    0    0    0  0.00000000000E+00  0.00000000000E+00  0.45593999997E+02  0.45594000000E+02  0.51100000000E-03 0. -1.
         11   -1    0    0    0    0 -0.00000000000E+00 -0.00000000000E+00 -0.45593999997E+02  0.45594000000E+02  0.51100000000E-03 0.  1.
    9900012    2    1    2    0    0 -0.95899309462E+01 -0.37048337374E+02  0.23760628267E+02  0.46142317262E+02  0.99999954479E+01 0.  0.
        -12    1    1    2    0    0  0.95899309462E+01  0.37048337374E+02 -0.23760628267E+02  0.45045682738E+02  0.00000000000E+00 0.  1.
         11    1    3    3    0    0 -0.96452061435E+01 -0.26872652091E+02  0.15666025776E+02  0.32566759063E+02  0.51100000000E-03 0. -1.
        -11    1    3    3    0    0  0.11229978485E+01 -0.64878051658E+00  0.74320780578E+00  0.14947904302E+01  0.51100000000E-03 0.  1.
        -12    1    3    3    0    0 -0.10677226511E+01 -0.95269047657E+01  0.73513946846E+01  0.12080767769E+02  0.00000000000E+00 0.  1.
</event>
<event>
 7    1  0.4623443E-009  0.4614232E+02  0.7816164E-02  0.1320468E+00
        -11   -1    0    0    0    0  0.00000000000E+00  0.00000000000E+00  0.45593999997E+02  0.45594000000E+02  0.51100000000E-03 0. -1.
         11   -1    0    0    0    0 -0.00000000000E+00 -0.00000000000E+00 -0.45593999997E+02  0.45594000000E+02  0.51100000000E-03 0.  1.
    9900012    2    1    2    0    0 -0.12955575332E+02  0.23188983160E+02  0.36380456310E+02  0.46142317926E+02  0.10000001508E+02 0.  0.
        -12    1    1    2    0    0  0.12955575332E+02 -0.23188983160E+02 -0.36380456310E+02  0.45045682074E+02  0.00000000000E+00 0.  1.
         11    1    3    3    0    0 -0.30625766378E+01  0.12203672599E+02  0.19435461742E+02  0.23152670989E+02  0.51100000000E-03 0. -1.
        -11    1    3    3    0    0 -0.29351577126E+01  0.59499283174E+01  0.97075564277E+01  0.11758122717E+02  0.51100000000E-03 0.  1.
        -12    1    3    3    0    0 -0.69578409818E+01  0.50353822435E+01  0.72374381401E+01  0.11231524220E+02  0.00000000000E+00 0.  1.
</event>
<event>
 7    1  0.4623443E-009  0.4614232E+02  0.7816164E-02  0.1320468E+00
        -11   -1    0    0    0    0  0.00000000000E+00  0.00000000000E+00  0.45593999997E+02  0.45594000000E+02  0.51100000000E-03 0.  1.
         11   -1    0    0    0    0 -0.00000000000E+00 -0.00000000000E+00 -0.45593999997E+02  0.45594000000E+02  0.51100000000E-03 0. -1.
    9900012    2    1    2    0    0 -0.33811834478E+02 -0.24193846020E+02 -0.17335830162E+02  0.46142319370E+02  0.10000014672E+02 0.  0.
         12    1    1    2    0    0  0.33811834478E+02  0.24193846020E+02  0.17335830162E+02  0.45045680630E+02  0.00000000000E+00 0. -1.
         11    1    3    3    0    0 -0.70529897717E+01 -0.64818763909E+01 -0.83395885589E+01  0.12700713518E+02  0.51100000000E-03 0. -1.
        -11    1    3    3    0    0 -0.71703495731E+01 -0.62534771117E+01 -0.25443785729E+01  0.98485405807E+01  0.51100000000E-03 0.  1.
        -12    1    3    3    0    0 -0.19588495133E+02 -0.11458492518E+02 -0.64518630303E+01  0.23593065272E+02  0.00000000000E+00 0.  1.
</event>
<event>
 7    1  0.4623443E-009  0.4614232E+02  0.7816164E-02  0.1320468E+00
        -11   -1    0    0    0    0  0.00000000000E+00  0.00000000000E+00  0.45593999997E+02  0.45594000000E+02  0.51100000000E-03 0. -1.
         11   -1    0    0    0    0 -0.00000000000E+00 -0.00000000000E+00 -0.45593999997E+02  0.45594000000E+02  0.51100000000E-03 0.  1.
    9900012    2    1    2    0    0 -0.21286973733E+02 -0.10014933921E+02  0.38414571962E+02  0.46142317730E+02  0.99999997164E+01 0.  0.
        -12    1    1    2    0    0  0.21286973733E+02  0.10014933921E+02 -0.38414571962E+02  0.45045682270E+02  0.00000000000E+00 0.  1.
         11    1    3    3    0    0 -0.14040977195E+02 -0.51753067589E+01  0.23289887882E+02  0.27683058329E+02  0.51100000000E-03 0. -1.
        -11    1    3    3    0    0 -0.57364456237E+01 -0.53963843531E+00  0.63685068942E+01  0.85881254274E+01  0.51100000000E-03 0.  1.
        -12    1    3    3    0    0 -0.15095509144E+01 -0.42999887270E+01  0.87561771856E+01  0.98711339734E+01  0.00000000000E+00 0.  1.
</event>
<event>
 7    1  0.4623443E-009  0.4614232E+02  0.7816164E-02  0.1320468E+00
        -11   -1    0    0    0    0  0.00000000000E+00  0.00000000000E+00  0.45593999997E+02  0.45594000000E+02  0.51100000000E-03 0. -1.
         11   -1    0    0    0    0 -0.00000000000E+00 -0.00000000000E+00 -0.45593999997E+02  0.45594000000E+02  0.51100000000E-03 0.  1.
    9900012    2    1    2    0    0 -0.20630036256E+02  0.34738272543E+02  0.19919022538E+02  0.46142318364E+02  0.10000005495E+02 0.  0.
        -12    1    1    2    0    0  0.20630036256E+02 -0.34738272543E+02 -0.19919022538E+02  0.45045681636E+02  0.00000000000E+00 0.  1.
         11    1    3    3    0    0 -0.65590535204E+01  0.11331878601E+02  0.37287328494E+01  0.13613820354E+02  0.51100000000E-03 0.  1.
        -11    1    3    3    0    0 -0.85380475012E+01  0.18832199728E+02  0.14183702529E+02  0.25074437569E+02  0.51100000000E-03 0. -1.
         12    1    3    3    0    0 -0.55329352344E+01  0.45741942149E+01  0.20065871591E+01  0.74540604405E+01  0.00000000000E+00 0. -1.
</event>
<event>
 7    1  0.4623443E-009  0.4614232E+02  0.7816164E-02  0.1320468E+00
        -11   -1    0    0    0    0  0.00000000000E+00  0.00000000000E+00  0.45593999997E+02  0.45594000000E+02  0.51100000000E-03 0. -1.
         11   -1    0    0    0    0 -0.00000000000E+00 -0.00000000000E+00 -0.45593999997E+02  0.45594000000E+02  0.51100000000E-03 0.  1.
    9900012    2    1    2    0    0 -0.24203932065E+02  0.34364898116E+02  0.16196816975E+02  0.46142318408E+02  0.10000005899E+02 0.  0.
        -12    1    1    2    0    0  0.24203932065E+02 -0.34364898116E+02 -0.16196816975E+02  0.45045681592E+02  0.00000000000E+00 0.  1.
         11    1    3    3    0    0 -0.28071888612E+01  0.12995266961E+01  0.12256541134E+01  0.33273573904E+01  0.51100000000E-03 0.  1.
        -11    1    3    3    0    0 -0.12133948701E+02  0.17767225303E+02  0.41493058669E+01  0.21911726210E+02  0.51100000000E-03 0. -1.
         12    1    3    3    0    0 -0.92627945030E+01  0.15298146117E+02  0.10821856994E+02  0.20903234808E+02  0.00000000000E+00 0. -1.
</event>
<event>
 7    1  0.4623443E-009  0.4614232E+02  0.7816164E-02  0.1320468E+00
        -11   -1    0    0    0    0  0.00000000000E+00  0.00000000000E+00  0.45593999997E+02  0.45594000000E+02  0.51100000000E-03 0. -1.
         11   -1    0    0    0    0 -0.00000000000E+00 -0.00000000000E+00 -0.45593999997E+02  0.45594000000E+02  0.51100000000E-03 0.  1.
    9900012    2    1    2    0    0 -0.10047691616E+02  0.45300635325E+01 -0.43676490882E+02  0.46142318318E+02  0.10000005081E+02 0.  0.
         12    1    1    2    0    0  0.10047691616E+02 -0.45300635325E+01  0.43676490882E+02  0.45045681682E+02  0.00000000000E+00 0. -1.
         11    1    3    3    0    0 -0.44481314893E+01 -0.16586395837E+01 -0.14697014895E+02  0.15444714503E+02  0.51100000000E-03 0. -1.
        -11    1    3    3    0    0 -0.27472634965E+01 -0.47748118030E+00 -0.99574265884E+01  0.10340492712E+02  0.51100000000E-03 0.  1.
        -12    1    3    3    0    0 -0.28522966307E+01  0.66661842965E+01 -0.19022049399E+02  0.20357111103E+02  0.00000000000E+00 0.  1.
</event>
<event>
 7    1  0.4623443E-009  0.4614232E+02  0.7816164E-02  0.1320468E+00
        -11   -1    0    0    0    0  0.00000000000E+00  0.00000000000E+00  0.45593999997E+02  0.45594000000E+02  0.51100000000E-03 0. -1.
         11   -1    0    0    0    0 -0.00000000000E+00 -0.00000000000E+00 -0.45593999997E+02  0.45594000000E+02  0.51100000000E-03 0.  1.
    9900012    2    1    2    0    0  0.19442061059E+02 -0.27408119344E+02 -0.29998578758E+02  0.46142317946E+02  0.10000001690E+02 0.  0.
         12    1    1    2    0    0 -0.19442061059E+02  0.27408119344E+02  0.29998578758E+02  0.45045682054E+02  0.00000000000E+00 0. -1.
         11    1    3    3    0    0 -0.50032062988E+00 -0.57991168446E+00 -0.15687138333E+01  0.17457037682E+01  0.51100000000E-03 0. -1.
        -11    1    3    3    0    0  0.13605460632E+02 -0.14900383170E+02 -0.13572722404E+02  0.24317663773E+02  0.51100000000E-03 0.  1.
        -12    1    3    3    0    0  0.63369210564E+01 -0.11927824489E+02 -0.14857142521E+02  0.20078950406E+02  0.00000000000E+00 0.  1.
</event>
<event>
 7    1  0.4623443E-009  0.4614232E+02  0.7816164E-02  0.1320468E+00
        -11   -1    0    0    0    0  0.00000000000E+00  0.00000000000E+00  0.45593999997E+02  0.45594000000E+02  0.51100000000E-03 0. -1.
         11   -1    0    0    0    0 -0.00000000000E+00 -0.00000000000E+00 -0.45593999997E+02  0.45594000000E+02  0.51100000000E-03 0.  1.
    9900012    2    1    2    0    0 -0.26817464911E+02 -0.11281538038E+02 -0.34389882298E+02  0.46142317308E+02  0.99999958641E+01 0.  0.
         12    1    1    2    0    0  0.26817464911E+02  0.11281538038E+02  0.34389882298E+02  0.45045682692E+02  0.00000000000E+00 0. -1.
         11    1    3    3    0    0 -0.49075800745E+01 -0.24830352167E+01 -0.24994007891E+01  0.60412590278E+01  0.51100000000E-03 0. -1.
        -11    1    3    3    0    0 -0.16307855517E+02 -0.36692721056E+01 -0.22120265102E+02  0.27725725199E+02  0.51100000000E-03 0.  1.
         12    1    3    3    0    0 -0.56020293194E+01 -0.51292307152E+01 -0.97702164069E+01  0.12375333081E+02  0.00000000000E+00 0. -1.
</event>
<event>
 7    1  0.4623443E-009  0.4614232E+02  0.7816164E-02  0.1320468E+00
        -11   -1    0    0    0    0  0.00000000000E+00  0.00000000000E+00  0.45593999997E+02  0.45594000000E+02  0.51100000000E-03 0. -1.
         11   -1    0    0    0    0 -0.00000000000E+00 -0.00000000000E+00 -0.45593999997E+02  0.45594000000E+02  0.51100000000E-03 0.  1.
    9900012    2    1    2    0    0  0.78507818759E+01 -0.35212902058E+02 -0.26972768598E+02  0.46142317707E+02  0.99999995099E+01 0.  0.
         12    1    1    2    0    0 -0.78507818759E+01  0.35212902058E+02  0.26972768598E+02  0.45045682293E+02  0.00000000000E+00 0. -1.
         11    1    3    3    0    0 -0.11784505300E+01 -0.26411130525E+01 -0.26663755638E+01  0.39336729295E+01  0.51100000000E-03 0. -1.
        -11    1    3    3    0    0 -0.68500130334E+00 -0.39919949130E+00 -0.11473733351E+01  0.13946515158E+01  0.51100000000E-03 0.  1.
        -12    1    3    3    0    0  0.97142337093E+01 -0.32172589514E+02 -0.23159019699E+02  0.40813993262E+02  0.00000000000E+00 0.  1.
</event>
<event>
 7    1  0.4623443E-009  0.4614232E+02  0.7816164E-02  0.1320468E+00
        -11   -1    0    0    0    0  0.00000000000E+00  0.00000000000E+00  0.45593999997E+02  0.45594000000E+02  0.51100000000E-03 0.  1.
         11   -1    0    0    0    0 -0.00000000000E+00 -0.00000000000E+00 -0.45593999997E+02  0.45594000000E+02  0.51100000000E-03 0. -1.
    9900012    2    1    2    0    0 -0.13613384570E+02  0.40550500052E+02  0.14122542418E+02  0.46142317651E+02  0.99999989934E+01 0.  0.
         12    1    1    2    0    0  0.13613384570E+02 -0.40550500052E+02 -0.14122542418E+02  0.45045682349E+02  0.00000000000E+00 0. -1.
         11    1    3    3    0    0 -0.10928458731E+02  0.24244252676E+02  0.92201275849E+01  0.28146505129E+02  0.51100000000E-03 0. -1.
        -11    1    3    3    0    0 -0.32120014769E+01  0.46870177512E+01  0.14803994196E+01  0.58716838804E+01  0.51100000000E-03 0.  1.
        -12    1    3    3    0    0  0.52707563782E+00  0.11619229626E+02  0.34220154138E+01  0.12124128641E+02  0.00000000000E+00 0.  1.
</event>
<event>
 7    1  0.4623443E-009  0.4614232E+02  0.7816164E-02  0.1320468E+00
        -11   -1    0    0    0    0  0.00000000000E+00  0.00000000000E+00  0.45593999997E+02  0.45594000000E+02  0.51100000000E-03 0. -1.
         11   -1    0    0    0    0 -0.00000000000E+00 -0.00000000000E+00 -0.45593999997E+02  0.45594000000E+02  0.51100000000E-03 0.  1.
    9900012    2    1    2    0    0  0.63069678128E+01 -0.42694833774E+02 -0.12902967549E+02  0.46142320456E+02  0.10000024574E+02 0.  0.
         12    1    1    2    0    0 -0.63069678128E+01  0.42694833774E+02  0.12902967549E+02  0.45045679544E+02  0.00000000000E+00 0. -1.
         11    1    3    3    0    0  0.13288011404E+01 -0.12350502257E+02 -0.22375023475E+01  0.12621689090E+02  0.51100000000E-03 0. -1.
        -11    1    3    3    0    0  0.53008829764E+01 -0.28969961496E+02 -0.11782482903E+02  0.31720418235E+02  0.51100000000E-03 0.  1.
         12    1    3    3    0    0 -0.32271630403E+00 -0.13743700212E+01  0.11170177018E+01  0.18002131302E+01  0.00000000000E+00 0. -1.
</event>
<event>
 7    1  0.4623443E-009  0.4614232E+02  0.7816164E-02  0.1320468E+00
        -11   -1    0    0    0    0  0.00000000000E+00  0.00000000000E+00  0.45593999997E+02  0.45594000000E+02  0.51100000000E-03 0. -1.
         11   -1    0    0    0    0 -0.00000000000E+00 -0.00000000000E+00 -0.45593999997E+02  0.45594000000E+02  0.51100000000E-03 0.  1.
    9900012    2    1    2    0    0 -0.14862371536E+02 -0.59436801089E+01  0.42105772713E+02  0.46142317447E+02  0.99999971397E+01 0.  0.
        -12    1    1    2    0    0  0.14862371536E+02  0.59436801089E+01 -0.42105772713E+02  0.45045682553E+02  0.00000000000E+00 0.  1.
         11    1    3    3    0    0 -0.12867097219E+01  0.13145774499E+00  0.60658719044E+01  0.62022338934E+01  0.51100000000E-03 0. -1.
        -11    1    3    3    0    0 -0.79826025982E+01 -0.19122156958E+01  0.97693042574E+01  0.12760008583E+02  0.51100000000E-03 0.  1.
         12    1    3    3    0    0 -0.55930592154E+01 -0.41629221581E+01  0.26270596551E+02  0.27180074971E+02  0.00000000000E+00 0. -1.
</event>
<event>
 7    1  0.4623443E-009  0.4614232E+02  0.7816164E-02  0.1320468E+00
        -11   -1    0    0    0    0  0.00000000000E+00  0.00000000000E+00  0.45593999997E+02  0.45594000000E+02  0.51100000000E-03 0. -1.
         11   -1    0    0    0    0 -0.00000000000E+00 -0.00000000000E+00 -0.45593999997E+02  0.45594000000E+02  0.51100000000E-03 0.  1.
    9900012    2    1    2    0    0 -0.18965373694E+02 -0.33702309632E+02 -0.23099403180E+02  0.46142317619E+02  0.99999987054E+01 0.  0.
         12    1    1    2    0    0  0.18965373694E+02  0.33702309632E+02  0.23099403180E+02  0.45045682381E+02  0.00000000000E+00 0. -1.
         11    1    3    3    0    0 -0.62176208454E+00 -0.78865670001E+00  0.77397593706E+00  0.12679142292E+01  0.51100000000E-03 0. -1.
        -11    1    3    3    0    0 -0.43198707887E+01 -0.11586834570E+02 -0.62387216550E+01  0.13850547539E+02  0.51100000000E-03 0.  1.
        -12    1    3    3    0    0 -0.14023740821E+02 -0.21326818362E+02 -0.17634657462E+02  0.31023855851E+02  0.00000000000E+00 0.  1.
</event>
<event>
 7    1  0.4623443E-009  0.4614231E+02  0.7816164E-02  0.1320468E+00
        -11   -1    0    0    0    0  0.00000000000E+00  0.00000000000E+00  0.45593999997E+02  0.45594000000E+02  0.51100000000E-03 0. -1.
         11   -1    0    0    0    0 -0.00000000000E+00 -0.00000000000E+00 -0.45593999997E+02  0.45594000000E+02  0.51100000000E-03 0.  1.
    9900012    2    1    2    0    0  0.19436463328E+02  0.81323624907E+01 -0.39814603193E+02  0.46142311485E+02  0.99999427682E+01 0.  0.
         12    1    1    2    0    0 -0.19436463328E+02 -0.81323624907E+01  0.39814603193E+02  0.45045688515E+02  0.00000000000E+00 0. -1.
         11    1    3    3    0    0  0.17092036425E+01  0.35140547153E+01 -0.53937952679E+01  0.66605544279E+01  0.51100000000E-03 0. -1.
        -11    1    3    3    0    0  0.14428165565E+02  0.34144999170E+01 -0.31842226665E+02  0.35124893886E+02  0.51100000000E-03 0.  1.
         12    1    3    3    0    0  0.32990941206E+01  0.12038078583E+01 -0.25785812602E+01  0.43568631711E+01  0.00000000000E+00 0. -1.
</event>
<event>
 7    1  0.4623443E-009  0.4614232E+02  0.7816164E-02  0.1320468E+00
        -11   -1    0    0    0    0  0.00000000000E+00  0.00000000000E+00  0.45593999997E+02  0.45594000000E+02  0.51100000000E-03 0. -1.
         11   -1    0    0    0    0 -0.00000000000E+00 -0.00000000000E+00 -0.45593999997E+02  0.45594000000E+02  0.51100000000E-03 0.  1.
    9900012    2    1    2    0    0  0.54905498066E+01  0.29305614826E+00 -0.44708849695E+02  0.46142320295E+02  0.10000023105E+02 0.  0.
         12    1    1    2    0    0 -0.54905498066E+01 -0.29305614826E+00  0.44708849695E+02  0.45045679705E+02  0.00000000000E+00 0. -1.
         11    1    3    3    0    0  0.54571392534E+00 -0.23951669185E+00 -0.17283750324E+01  0.18282375250E+01  0.51100000000E-03 0. -1.
        -11    1    3    3    0    0 -0.27729703141E+01 -0.94878268292E+00 -0.11788660371E+02  0.12147512772E+02  0.51100000000E-03 0.  1.
        -12    1    3    3    0    0  0.77178061954E+01  0.14813555230E+01 -0.31191814291E+02  0.32166569998E+02  0.00000000000E+00 0.  1.
</event>
<event>
 7    1  0.4623443E-009  0.4614232E+02  0.7816164E-02  0.1320468E+00
        -11   -1    0    0    0    0  0.00000000000E+00  0.00000000000E+00  0.45593999997E+02  0.45594000000E+02  0.51100000000E-03 0. -1.
         11   -1    0    0    0    0 -0.00000000000E+00 -0.00000000000E+00 -0.45593999997E+02  0.45594000000E+02  0.51100000000E-03 0.  1.
    9900012    2    1    2    0    0 -0.30317790764E+02  0.26514159759E+02  0.20172861316E+02  0.46142318317E+02  0.10000005073E+02 0.  0.
        -12    1    1    2    0    0  0.30317790764E+02 -0.26514159759E+02 -0.20172861316E+02  0.45045681683E+02  0.00000000000E+00 0.  1.
         11    1    3    3    0    0 -0.15850588947E+02  0.13797995625E+02  0.14009142010E+02  0.25256324224E+02  0.51100000000E-03 0. -1.
        -11    1    3    3    0    0 -0.30964308469E+00 -0.23298565764E+00 -0.44801497569E+00  0.59235026473E+00  0.51100000000E-03 0.  1.
        -12    1    3    3    0    0 -0.14157558733E+02  0.12949149792E+02  0.66117342825E+01  0.20293643828E+02  0.00000000000E+00 0.  1.
</event>
<event>
 7    1  0.4623443E-009  0.4614232E+02  0.7816164E-02  0.1320468E+00
        -11   -1    0    0    0    0  0.00000000000E+00  0.00000000000E+00  0.45593999997E+02  0.45594000000E+02  0.51100000000E-03 0. -1.
         11   -1    0    0    0    0 -0.00000000000E+00 -0.00000000000E+00 -0.45593999997E+02  0.45594000000E+02  0.51100000000E-03 0.  1.
    9900012    2    1    2    0    0 -0.26917311072E+02  0.36113716965E+02 -0.60923869472E+00  0.46142319184E+02  0.10000012973E+02 0.  0.
        -12    1    1    2    0    0  0.26917311072E+02 -0.36113716965E+02  0.60923869472E+00  0.45045680816E+02  0.00000000000E+00 0.  1.
         11    1    3    3    0    0 -0.19977946143E+02  0.24673118251E+02  0.22790211787E+01  0.31828839660E+02  0.51100000000E-03 0. -1.
        -11    1    3    3    0    0 -0.65942372535E+01  0.81962961138E+01 -0.10584291735E+01  0.10572771988E+02  0.51100000000E-03 0.  1.
        -12    1    3    3    0    0 -0.34512767625E+00  0.32443026001E+01 -0.18298306999E+01  0.37407075353E+01  0.00000000000E+00 0.  1.
</event>
<event>
 7    1  0.4623443E-009  0.4614232E+02  0.7816164E-02  0.1320468E+00
        -11   -1    0    0    0    0  0.00000000000E+00  0.00000000000E+00  0.45593999997E+02  0.45594000000E+02  0.51100000000E-03 0.  1.
         11   -1    0    0    0    0 -0.00000000000E+00 -0.00000000000E+00 -0.45593999997E+02  0.45594000000E+02  0.51100000000E-03 0. -1.
    9900012    2    1    2    0    0  0.27640653894E+02 -0.31010027647E+02  0.17420837636E+02  0.46142321558E+02  0.10000034627E+02 0.  0.
        -12    1    1    2    0    0 -0.27640653894E+02  0.31010027647E+02 -0.17420837636E+02  0.45045678442E+02  0.00000000000E+00 0.  1.
         11    1    3    3    0    0  0.56697418305E+01 -0.15971532776E+01  0.20107224588E+01  0.62241365734E+01  0.51100000000E-03 0. -1.
        -11    1    3    3    0    0  0.30209784551E+01 -0.40299178448E+01  0.32160130373E+01  0.59757249584E+01  0.51100000000E-03 0.  1.
         12    1    3    3    0    0  0.18949933608E+02 -0.25382956524E+02  0.12194102140E+02  0.33942460027E+02  0.00000000000E+00 0. -1.
</event>
<event>
 7    1  0.4623443E-009  0.4614232E+02  0.7816164E-02  0.1320468E+00
        -11   -1    0    0    0    0  0.00000000000E+00  0.00000000000E+00  0.45593999997E+02  0.45594000000E+02  0.51100000000E-03 0. -1.
         11   -1    0    0    0    0 -0.00000000000E+00 -0.00000000000E+00 -0.45593999997E+02  0.45594000000E+02  0.51100000000E-03 0.  1.
    9900012    2    1    2    0    0 -0.23832880506E+02 -0.16730102805E+02 -0.34368750803E+02  0.46142316912E+02  0.99999922603E+01 0.  0.
         12    1    1    2    0    0  0.23832880506E+02  0.16730102805E+02  0.34368750803E+02  0.45045683088E+02  0.00000000000E+00 0. -1.
         11    1    3    3    0    0 -0.54473987544E+01 -0.28837719824E+01 -0.29163111992E+01  0.68187363424E+01  0.51100000000E-03 0. -1.
        -11    1    3    3    0    0 -0.11714161022E+02 -0.80641033168E+01 -0.15116919367E+02  0.20755061603E+02  0.51100000000E-03 0.  1.
        -12    1    3    3    0    0 -0.66713207299E+01 -0.57822275062E+01 -0.16335520237E+02  0.18568518967E+02  0.00000000000E+00 0.  1.
</event>
<event>
 7    1  0.4623443E-009  0.4614232E+02  0.7816164E-02  0.1320468E+00
        -11   -1    0    0    0    0  0.00000000000E+00  0.00000000000E+00  0.45593999997E+02  0.45594000000E+02  0.51100000000E-03 0.  1.
         11   -1    0    0    0    0 -0.00000000000E+00 -0.00000000000E+00 -0.45593999997E+02  0.45594000000E+02  0.51100000000E-03 0. -1.
    9900012    2    1    2    0    0  0.20124236630E+02  0.38956393638E+02  0.10321231287E+02  0.46142319625E+02  0.10000016993E+02 0.  0.
         12    1    1    2    0    0 -0.20124236630E+02 -0.38956393638E+02 -0.10321231287E+02  0.45045680375E+02  0.00000000000E+00 0. -1.
         11    1    3    3    0    0  0.48318802729E+01  0.55128500917E+01  0.51217981717E+01  0.89426729716E+01  0.51100000000E-03 0. -1.
        -11    1    3    3    0    0  0.21946008423E+01  0.43332772314E+01  0.13881865667E+01  0.50517943967E+01  0.51100000000E-03 0.  1.
         12    1    3    3    0    0  0.13097755515E+02  0.29110266315E+02  0.38112465486E+01  0.32147852256E+02  0.00000000000E+00 0. -1.
</event>
<event>
 7    1  0.4623443E-009  0.4614232E+02  0.7816164E-02  0.1320468E+00
        -11   -1    0    0    0    0  0.00000000000E+00  0.00000000000E+00  0.45593999997E+02  0.45594000000E+02  0.51100000000E-03 0. -1.
         11   -1    0    0    0    0 -0.00000000000E+00 -0.00000000000E+00 -0.45593999997E+02  0.45594000000E+02  0.51100000000E-03 0.  1.
    9900012    2    1    2    0    0  0.22152636454E+02  0.75329034395E+01 -0.38491941168E+02  0.46142317954E+02  0.10000001758E+02 0.  0.
         12    1    1    2    0    0 -0.22152636454E+02 -0.75329034395E+01  0.38491941168E+02  0.45045682046E+02  0.00000000000E+00 0. -1.
         11    1    3    3    0    0  0.50765006774E+01 -0.61836132486E-01 -0.50344864452E+01  0.71498767027E+01  0.51100000000E-03 0. -1.
        -11    1    3    3    0    0  0.45754231606E+00  0.21786395469E+01 -0.64404430023E+01  0.68143320710E+01  0.51100000000E-03 0.  1.
         12    1    3    3    0    0  0.16618593461E+02  0.54161000251E+01 -0.27017011721E+02  0.32178109180E+02  0.00000000000E+00 0. -1.
</event>
<event>
 7    1  0.4623443E-009  0.4614232E+02  0.7816164E-02  0.1320468E+00
        -11   -1    0    0    0    0  0.00000000000E+00  0.00000000000E+00  0.45593999997E+02  0.45594000000E+02  0.51100000000E-03 0. -1.
         11   -1    0    0    0    0 -0.00000000000E+00 -0.00000000000E+00 -0.45593999997E+02  0.45594000000E+02  0.51100000000E-03 0.  1.
    9900012    2    1    2    0    0 -0.15398098709E+02  0.28852351024E+02  0.30976666670E+02  0.46142317838E+02  0.10000000702E+02 0.  0.
        -12    1    1    2    0    0  0.15398098709E+02 -0.28852351024E+02 -0.30976666670E+02  0.45045682162E+02  0.00000000000E+00 0.  1.
         11    1    3    3    0    0 -0.17174400840E+01  0.94832258592E+01  0.66245509426E+01  0.11694693181E+02  0.51100000000E-03 0. -1.
        -11    1    3    3    0    0 -0.24813222183E+01  0.41405190738E+01  0.21387833207E+01  0.52797019334E+01  0.51100000000E-03 0.  1.
        -12    1    3    3    0    0 -0.11199336406E+02  0.15228606091E+02  0.22213332407E+02  0.29167922724E+02  0.00000000000E+00 0.  1.
</event>
<event>
 7    1  0.4623443E-009  0.4614232E+02  0.7816164E-02  0.1320468E+00
        -11   -1    0    0    0    0  0.00000000000E+00  0.00000000000E+00  0.45593999997E+02  0.45594000000E+02  0.51100000000E-03 0. -1.
         11   -1    0    0    0    0 -0.00000000000E+00 -0.00000000000E+00 -0.45593999997E+02  0.45594000000E+02  0.51100000000E-03 0.  1.
    9900012    2    1    2    0    0  0.42015144550E+01 -0.38108727947E+01  0.44687112067E+02  0.46142318076E+02  0.10000002868E+02 0.  0.
        -12    1    1    2    0    0 -0.42015144550E+01  0.38108727947E+01 -0.44687112067E+02  0.45045681924E+02  0.00000000000E+00 0.  1.
         11    1    3    3    0    0  0.83764964584E+00  0.15632220058E+01  0.80300476404E+01  0.82235628128E+01  0.51100000000E-03 0. -1.
        -11    1    3    3    0    0  0.44466020669E+00 -0.63250911269E+01  0.19998161150E+02  0.20979298132E+02  0.51100000000E-03 0.  1.
        -12    1    3    3    0    0  0.29192046025E+01  0.95099632643E+00  0.16658903276E+02  0.16939457131E+02  0.00000000000E+00 0.  1.
</event>
<event>
 7    1  0.4623443E-009  0.4614232E+02  0.7816164E-02  0.1320468E+00
        -11   -1    0    0    0    0  0.00000000000E+00  0.00000000000E+00  0.45593999997E+02  0.45594000000E+02  0.51100000000E-03 0. -1.
         11   -1    0    0    0    0 -0.00000000000E+00 -0.00000000000E+00 -0.45593999997E+02  0.45594000000E+02  0.51100000000E-03 0.  1.
    9900012    2    1    2    0    0  0.96693454963E+01  0.17663047461E+02 -0.40294341081E+02  0.46142318619E+02  0.10000007824E+02 0.  0.
         12    1    1    2    0    0 -0.96693454963E+01 -0.17663047461E+02  0.40294341081E+02  0.45045681381E+02  0.00000000000E+00 0. -1.
         11    1    3    3    0    0  0.19266201833E+01  0.77628560768E-01 -0.35192362527E+01  0.40128438280E+01  0.51100000000E-03 0. -1.
        -11    1    3    3    0    0  0.47919727377E+01  0.59122209026E+01 -0.85665686803E+01  0.11458772095E+02  0.51100000000E-03 0.  1.
        -12    1    3    3    0    0  0.29507525752E+01  0.11673197998E+02 -0.28208536148E+02  0.30670702696E+02  0.00000000000E+00 0.  1.
</event>
<event>
 7    1  0.4623443E-009  0.4614232E+02  0.7816164E-02  0.1320468E+00
        -11   -1    0    0    0    0  0.00000000000E+00  0.00000000000E+00  0.45593999997E+02  0.45594000000E+02  0.51100000000E-03 0. -1.
         11   -1    0    0    0    0 -0.00000000000E+00 -0.00000000000E+00 -0.45593999997E+02  0.45594000000E+02  0.51100000000E-03 0.  1.
    9900012    2    1    2    0    0 -0.18772492175E+02  0.15020899610E+01  0.40920052440E+02  0.46142318427E+02  0.10000006069E+02 0.  0.
        -12    1    1    2    0    0  0.18772492175E+02 -0.15020899610E+01 -0.40920052440E+02  0.45045681573E+02  0.00000000000E+00 0.  1.
         11    1    3    3    0    0 -0.17451433039E+01 -0.19987644248E+01  0.43250875974E+01  0.50741469592E+01  0.51100000000E-03 0. -1.
        -11    1    3    3    0    0 -0.44243213419E+00 -0.88437361701E+00  0.51887659499E+01  0.52821544120E+01  0.51100000000E-03 0.  1.
         12    1    3    3    0    0 -0.16584916737E+02  0.43852280029E+01  0.31406198893E+02  0.35786017055E+02  0.00000000000E+00 0. -1.
</event>
<event>
 7    1  0.4623443E-009  0.4614232E+02  0.7816164E-02  0.1320468E+00
        -11   -1    0    0    0    0  0.00000000000E+00  0.00000000000E+00  0.45593999997E+02  0.45594000000E+02  0.51100000000E-03 0. -1.
         11   -1    0    0    0    0 -0.00000000000E+00 -0.00000000000E+00 -0.45593999997E+02  0.45594000000E+02  0.51100000000E-03 0.  1.
    9900012    2    1    2    0    0  0.98011148758E+01  0.11375476444E+02  0.42469396490E+02  0.46142323677E+02  0.10000053950E+02 0.  0.
        -12    1    1    2    0    0 -0.98011148758E+01 -0.11375476444E+02 -0.42469396490E+02  0.45045676323E+02  0.00000000000E+00 0.  1.
         11    1    3    3    0    0  0.45472191990E+01  0.91986969178E+01  0.24238066448E+02  0.26320659050E+02  0.51100000000E-03 0. -1.
        -11    1    3    3    0    0  0.64892489325E+00  0.23775066108E+01  0.28661568855E+01  0.37800127982E+01  0.51100000000E-03 0.  1.
        -12    1    3    3    0    0  0.46049707836E+01 -0.20072708464E+00  0.15365173157E+02  0.16041651830E+02  0.00000000000E+00 0.  1.
</event>
<event>
 7    1  0.4623443E-009  0.4614232E+02  0.7816164E-02  0.1320468E+00
        -11   -1    0    0    0    0  0.00000000000E+00  0.00000000000E+00  0.45593999997E+02  0.45594000000E+02  0.51100000000E-03 0. -1.
         11   -1    0    0    0    0 -0.00000000000E+00 -0.00000000000E+00 -0.45593999997E+02  0.45594000000E+02  0.51100000000E-03 0.  1.
    9900012    2    1    2    0    0  0.30632181708E+02  0.23114379044E+02  0.23590430846E+02  0.46142317607E+02  0.99999985929E+01 0.  0.
        -12    1    1    2    0    0 -0.30632181708E+02 -0.23114379044E+02 -0.23590430846E+02  0.45045682393E+02  0.00000000000E+00 0.  1.
         11    1    3    3    0    0 -0.27629477106E+00  0.48524513294E+00 -0.33805773296E+00  0.65275181463E+00  0.51100000000E-03 0. -1.
        -11    1    3    3    0    0 -0.18097755451E+00  0.18681638479E+00  0.47644059813E+00  0.54281593707E+00  0.51100000000E-03 0.  1.
         12    1    3    3    0    0  0.31089454033E+02  0.22442317527E+02  0.23452047981E+02  0.44946749855E+02  0.00000000000E+00 0. -1.
</event>
<event>
 7    1  0.4623443E-009  0.4614232E+02  0.7816164E-02  0.1320468E+00
        -11   -1    0    0    0    0  0.00000000000E+00  0.00000000000E+00  0.45593999997E+02  0.45594000000E+02  0.51100000000E-03 0. -1.
         11   -1    0    0    0    0 -0.00000000000E+00 -0.00000000000E+00 -0.45593999997E+02  0.45594000000E+02  0.51100000000E-03 0.  1.
    9900012    2    1    2    0    0  0.17004054952E+02 -0.13455580760E+02  0.39483199558E+02  0.46142316680E+02  0.99999901457E+01 0.  0.
        -12    1    1    2    0    0 -0.17004054952E+02  0.13455580760E+02 -0.39483199558E+02  0.45045683320E+02  0.00000000000E+00 0.  1.
         11    1    3    3    0    0  0.52113713347E+01 -0.11975536312E+01  0.74811283140E+01  0.91956406519E+01  0.51100000000E-03 0. -1.
        -11    1    3    3    0    0  0.39492790286E+01 -0.13723108365E+00  0.55796865273E+01  0.68372903419E+01  0.51100000000E-03 0.  1.
        -12    1    3    3    0    0  0.78434045885E+01 -0.12120796045E+02  0.26422384717E+02  0.30109385687E+02  0.00000000000E+00 0.  1.
</event>
<event>
 7    1  0.4623443E-009  0.4614232E+02  0.7816164E-02  0.1320468E+00
        -11   -1    0    0    0    0  0.00000000000E+00  0.00000000000E+00  0.45593999997E+02  0.45594000000E+02  0.51100000000E-03 0. -1.
         11   -1    0    0    0    0 -0.00000000000E+00 -0.00000000000E+00 -0.45593999997E+02  0.45594000000E+02  0.51100000000E-03 0.  1.
    9900012    2    1    2    0    0 -0.11926723319E+02 -0.13654833922E+01 -0.43416613539E+02  0.46142316464E+02  0.99999881702E+01 0.  0.
         12    1    1    2    0    0  0.11926723319E+02  0.13654833922E+01  0.43416613539E+02  0.45045683536E+02  0.00000000000E+00 0. -1.
         11    1    3    3    0    0 -0.23032647322E+00 -0.19291475756E+01 -0.25504671448E+01  0.32061727294E+01  0.51100000000E-03 0. -1.
        -11    1    3    3    0    0 -0.25251952619E+01 -0.19709802251E+00 -0.19616531520E+02  0.19779377338E+02  0.51100000000E-03 0.  1.
        -12    1    3    3    0    0 -0.91712015841E+01  0.76076220590E+00 -0.21249614874E+02  0.23156766396E+02  0.00000000000E+00 0.  1.
</event>
<event>
 7    1  0.4623443E-009  0.4614232E+02  0.7816164E-02  0.1320468E+00
        -11   -1    0    0    0    0  0.00000000000E+00  0.00000000000E+00  0.45593999997E+02  0.45594000000E+02  0.51100000000E-03 0. -1.
         11   -1    0    0    0    0 -0.00000000000E+00 -0.00000000000E+00 -0.45593999997E+02  0.45594000000E+02  0.51100000000E-03 0.  1.
    9900012    2    1    2    0    0 -0.15148213155E+02 -0.36376418454E+02 -0.21826622344E+02  0.46142316253E+02  0.99999862454E+01 0.  0.
         12    1    1    2    0    0  0.15148213155E+02  0.36376418454E+02  0.21826622344E+02  0.45045683747E+02  0.00000000000E+00 0. -1.
         11    1    3    3    0    0  0.15977136000E+00 -0.15779596391E+00  0.36372375633E+00  0.42745957206E+00  0.51100000000E-03 0. -1.
        -11    1    3    3    0    0 -0.96381180684E+01 -0.28066407257E+02 -0.19197998275E+02  0.35343735997E+02  0.51100000000E-03 0.  1.
        -12    1    3    3    0    0 -0.56698664462E+01 -0.81522152333E+01 -0.29923478254E+01  0.10371120684E+02  0.00000000000E+00 0.  1.
</event>
<event>
 7    1  0.4623443E-009  0.4614232E+02  0.7816164E-02  0.1320468E+00
        -11   -1    0    0    0    0  0.00000000000E+00  0.00000000000E+00  0.45593999997E+02  0.45594000000E+02  0.51100000000E-03 0. -1.
         11   -1    0    0    0    0 -0.00000000000E+00 -0.00000000000E+00 -0.45593999997E+02  0.45594000000E+02  0.51100000000E-03 0.  1.
    9900012    2    1    2    0    0 -0.21168296872E+02 -0.24514526742E+02 -0.31305825880E+02  0.46142317100E+02  0.99999939744E+01 0.  0.
         12    1    1    2    0    0  0.21168296872E+02  0.24514526742E+02  0.31305825880E+02  0.45045682900E+02  0.00000000000E+00 0. -1.
         11    1    3    3    0    0 -0.92678910149E+01 -0.91333653316E+01 -0.80427298372E+01  0.15296982370E+02  0.51100000000E-03 0. -1.
        -11    1    3    3    0    0 -0.45238400089E+00 -0.38372310335E+01 -0.59578091498E+01  0.71010198856E+01  0.51100000000E-03 0.  1.
        -12    1    3    3    0    0 -0.11448021856E+02 -0.11543930377E+02 -0.17305286893E+02  0.23744314844E+02  0.00000000000E+00 0.  1.
</event>
<event>
 7    1  0.4623443E-009  0.4614232E+02  0.7816164E-02  0.1320468E+00
        -11   -1    0    0    0    0  0.00000000000E+00  0.00000000000E+00  0.45593999997E+02  0.45594000000E+02  0.51100000000E-03 0. -1.
         11   -1    0    0    0    0 -0.00000000000E+00 -0.00000000000E+00 -0.45593999997E+02  0.45594000000E+02  0.51100000000E-03 0.  1.
    9900012    2    1    2    0    0 -0.25963079609E+00 -0.43420670111E+02  0.11987142577E+02  0.46142316653E+02  0.99999898964E+01 0.  0.
        -12    1    1    2    0    0  0.25963079609E+00  0.43420670111E+02 -0.11987142577E+02  0.45045683347E+02  0.00000000000E+00 0.  1.
         11    1    3    3    0    0 -0.32956297999E+01 -0.34424487980E+02  0.82425174940E+01  0.35550606793E+02  0.51100000000E-03 0. -1.
        -11    1    3    3    0    0  0.40760383521E+00 -0.58370174964E+00 -0.43819393424E+00  0.83598014577E+00  0.51100000000E-03 0.  1.
        -12    1    3    3    0    0  0.26283951686E+01 -0.84124803816E+01  0.41828190168E+01  0.97557297144E+01  0.00000000000E+00 0.  1.
</event>
<event>
 7    1  0.4623443E-009  0.4614232E+02  0.7816164E-02  0.1320468E+00
        -11   -1    0    0    0    0  0.00000000000E+00  0.00000000000E+00  0.45593999997E+02  0.45594000000E+02  0.51100000000E-03 0.  1.
         11   -1    0    0    0    0 -0.00000000000E+00 -0.00000000000E+00 -0.45593999997E+02  0.45594000000E+02  0.51100000000E-03 0. -1.
    9900012    2    1    2    0    0  0.57327125475E+01  0.42213320774E+02 -0.14638475084E+02  0.46142318778E+02  0.10000009275E+02 0.  0.
         12    1    1    2    0    0 -0.57327125475E+01 -0.42213320774E+02  0.14638475084E+02  0.45045681222E+02  0.00000000000E+00 0. -1.
         11    1    3    3    0    0  0.54811677105E+01  0.24266862231E+02 -0.11343463002E+02  0.27342237567E+02  0.51100000000E-03 0. -1.
        -11    1    3    3    0    0  0.23309021290E+01  0.74843335138E+01 -0.15743280538E+01  0.79954275660E+01  0.51100000000E-03 0.  1.
         12    1    3    3    0    0 -0.20793572920E+01  0.10462125029E+02 -0.17206840284E+01  0.10804653645E+02  0.00000000000E+00 0. -1.
</event>
<event>
 7    1  0.4623443E-009  0.4614232E+02  0.7816164E-02  0.1320468E+00
        -11   -1    0    0    0    0  0.00000000000E+00  0.00000000000E+00  0.45593999997E+02  0.45594000000E+02  0.51100000000E-03 0. -1.
         11   -1    0    0    0    0 -0.00000000000E+00 -0.00000000000E+00 -0.45593999997E+02  0.45594000000E+02  0.51100000000E-03 0.  1.
    9900012    2    1    2    0    0 -0.13356007334E+01  0.64354215589E+01 -0.44563607542E+02  0.46142316554E+02  0.99999889936E+01 0.  0.
         12    1    1    2    0    0  0.13356007334E+01 -0.64354215589E+01  0.44563607542E+02  0.45045683446E+02  0.00000000000E+00 0. -1.
         11    1    3    3    0    0  0.24726284326E+01  0.19633532958E+00 -0.12475962341E+02  0.12720144477E+02  0.51100000000E-03 0. -1.
        -11    1    3    3    0    0 -0.33665140410E+01  0.10071971909E+01 -0.18970794060E+02  0.19293493476E+02  0.51100000000E-03 0.  1.
        -12    1    3    3    0    0 -0.44171512499E+00  0.52318890384E+01 -0.13116851141E+02  0.14128678601E+02  0.00000000000E+00 0.  1.
</event>
<event>
 7    1  0.4623443E-009  0.4614232E+02  0.7816164E-02  0.1320468E+00
        -11   -1    0    0    0    0  0.00000000000E+00  0.00000000000E+00  0.45593999997E+02  0.45594000000E+02  0.51100000000E-03 0. -1.
         11   -1    0    0    0    0 -0.00000000000E+00 -0.00000000000E+00 -0.45593999997E+02  0.45594000000E+02  0.51100000000E-03 0.  1.
    9900012    2    1    2    0    0  0.35202704761E+01 -0.23771861482E+02 -0.38100129341E+02  0.46142316984E+02  0.99999929124E+01 0.  0.
         12    1    1    2    0    0 -0.35202704761E+01  0.23771861482E+02  0.38100129341E+02  0.45045683016E+02  0.00000000000E+00 0. -1.
         11    1    3    3    0    0 -0.12354531924E+01 -0.38686971325E+01 -0.25487724086E+01  0.47947265976E+01  0.51100000000E-03 0. -1.
        -11    1    3    3    0    0  0.28451630689E+01 -0.90871217499E+01 -0.21488854735E+02  0.23504076512E+02  0.51100000000E-03 0.  1.
        -12    1    3    3    0    0  0.19105605996E+01 -0.10816042600E+02 -0.14062502198E+02  0.17843513875E+02  0.00000000000E+00 0.  1.
</event>
<event>
 7    1  0.7411582E-009  0.4614232E+02  0.7816164E-02  0.1320468E+00
        -11   -1    0    0    0    0  0.00000000000E+00  0.00000000000E+00  0.45593999997E+02  0.45594000000E+02  0.51100000000E-03 0. -1.
         11   -1    0    0    0    0 -0.00000000000E+00 -0.00000000000E+00 -0.45593999997E+02  0.45594000000E+02  0.51100000000E-03 0.  1.
    9900012    2    1    2    0    0 -0.31067527207E+02  0.21175400781E+02 -0.24809764650E+02  0.46142320218E+02  0.10000022407E+02 0.  0.
         12    1    1    2    0    0  0.31067527207E+02 -0.21175400781E+02  0.24809764650E+02  0.45045679782E+02  0.00000000000E+00 0. -1.
         11    1    3    3    0    0 -0.22728942218E+01  0.21025613868E+01 -0.55411957382E+01  0.63475714253E+01  0.51100000000E-03 0. -1.
        -11    1    3    3    0    0 -0.10364392626E+02  0.85515956491E+01 -0.93465601080E+01  0.16367914002E+02  0.51100000000E-03 0.  1.
         12    1    3    3    0    0 -0.18430240359E+02  0.10521243745E+02 -0.99220088035E+01  0.23426834791E+02  0.00000000000E+00 0. -1.
</event>
<event>
 7    1  0.4623443E-009  0.4614232E+02  0.7816164E-02  0.1320468E+00
        -11   -1    0    0    0    0  0.00000000000E+00  0.00000000000E+00  0.45593999997E+02  0.45594000000E+02  0.51100000000E-03 0.  1.
         11   -1    0    0    0    0 -0.00000000000E+00 -0.00000000000E+00 -0.45593999997E+02  0.45594000000E+02  0.51100000000E-03 0. -1.
    9900012    2    1    2    0    0  0.34968926977E+02  0.76879062694E+00 -0.28384794978E+02  0.46142317866E+02  0.10000000956E+02 0.  0.
         12    1    1    2    0    0 -0.34968926977E+02 -0.76879062694E+00  0.28384794978E+02  0.45045682134E+02  0.00000000000E+00 0. -1.
         11    1    3    3    0    0  0.90226025685E+01  0.20489927110E+01 -0.87345984156E+01  0.12723951351E+02  0.51100000000E-03 0. -1.
        -11    1    3    3    0    0  0.79706120809E+01  0.19000259334E+01 -0.94473839361E+01  0.12505751436E+02  0.51100000000E-03 0.  1.
         12    1    3    3    0    0  0.17975712328E+02 -0.31802280175E+01 -0.10202812627E+02  0.20912615079E+02  0.00000000000E+00 0. -1.
</event>
<event>
 7    1  0.4623443E-009  0.4614232E+02  0.7816164E-02  0.1320468E+00
        -11   -1    0    0    0    0  0.00000000000E+00  0.00000000000E+00  0.45593999997E+02  0.45594000000E+02  0.51100000000E-03 0. -1.
         11   -1    0    0    0    0 -0.00000000000E+00 -0.00000000000E+00 -0.45593999997E+02  0.45594000000E+02  0.51100000000E-03 0.  1.
    9900012    2    1    2    0    0  0.12768302546E+01  0.76430587426E+01  0.44374168058E+02  0.46142318372E+02  0.10000005571E+02 0.  0.
        -12    1    1    2    0    0 -0.12768302546E+01 -0.76430587426E+01 -0.44374168058E+02  0.45045681628E+02  0.00000000000E+00 0.  1.
         11    1    3    3    0    0  0.83250588258E+00  0.40889467641E+01  0.21751058731E+02  0.22147711121E+02  0.51100000000E-03 0. -1.
        -11    1    3    3    0    0  0.29308455209E+01  0.40857647077E+01  0.10972584457E+02  0.12069835899E+02  0.51100000000E-03 0.  1.
        -12    1    3    3    0    0 -0.24865211489E+01 -0.53165272916E+00  0.11650524870E+02  0.11924771352E+02  0.00000000000E+00 0.  1.
</event>
<event>
 7    1  0.4623443E-009  0.4614232E+02  0.7816164E-02  0.1320468E+00
        -11   -1    0    0    0    0  0.00000000000E+00  0.00000000000E+00  0.45593999997E+02  0.45594000000E+02  0.51100000000E-03 0. -1.
         11   -1    0    0    0    0 -0.00000000000E+00 -0.00000000000E+00 -0.45593999997E+02  0.45594000000E+02  0.51100000000E-03 0.  1.
    9900012    2    1    2    0    0  0.38658617396E+02 -0.74090556798E+01 -0.21902756895E+02  0.46142316915E+02  0.99999922854E+01 0.  0.
         12    1    1    2    0    0 -0.38658617396E+02  0.74090556798E+01  0.21902756895E+02  0.45045683085E+02  0.00000000000E+00 0. -1.
         11    1    3    3    0    0  0.14414646851E+02 -0.12942688189E-01 -0.11279091218E+02  0.18303008231E+02  0.51100000000E-03 0. -1.
        -11    1    3    3    0    0  0.10184463240E+02 -0.87018933977E+00 -0.46164475866E+01  0.11215708162E+02  0.51100000000E-03 0.  1.
         12    1    3    3    0    0  0.14059507304E+02 -0.65259236519E+01 -0.60072180903E+01  0.16623600523E+02  0.00000000000E+00 0. -1.
</event>
<event>
 7    1  0.4623443E-009  0.4614232E+02  0.7816164E-02  0.1320468E+00
        -11   -1    0    0    0    0  0.00000000000E+00  0.00000000000E+00  0.45593999997E+02  0.45594000000E+02  0.51100000000E-03 0. -1.
         11   -1    0    0    0    0 -0.00000000000E+00 -0.00000000000E+00 -0.45593999997E+02  0.45594000000E+02  0.51100000000E-03 0.  1.
    9900012    2    1    2    0    0  0.41396547920E+02  0.50060651416E+01 -0.17040498368E+02  0.46142318159E+02  0.10000003626E+02 0.  0.
         12    1    1    2    0    0 -0.41396547920E+02 -0.50060651416E+01  0.17040498368E+02  0.45045681841E+02  0.00000000000E+00 0. -1.
         11    1    3    3    0    0  0.19862251516E+01  0.20862391777E+00  0.24462818831E+00  0.20120779069E+01  0.51100000000E-03 0. -1.
        -11    1    3    3    0    0  0.21512784453E+02 -0.20783667687E+00 -0.12722458480E+02  0.24994080120E+02  0.51100000000E-03 0.  1.
        -12    1    3    3    0    0  0.17897538316E+02  0.50052779007E+01 -0.45626680768E+01  0.19136160132E+02  0.00000000000E+00 0.  1.
</event>
<event>
 7    1  0.4623443E-009  0.4614232E+02  0.7816164E-02  0.1320468E+00
        -11   -1    0    0    0    0  0.00000000000E+00  0.00000000000E+00  0.45593999997E+02  0.45594000000E+02  0.51100000000E-03 0. -1.
         11   -1    0    0    0    0 -0.00000000000E+00 -0.00000000000E+00 -0.45593999997E+02  0.45594000000E+02  0.51100000000E-03 0.  1.
    9900012    2    1    2    0    0  0.14048010707E+02  0.74068875360E+01 -0.42153349838E+02  0.46142317739E+02  0.99999997959E+01 0.  0.
         12    1    1    2    0    0 -0.14048010707E+02 -0.74068875360E+01  0.42153349838E+02  0.45045682261E+02  0.00000000000E+00 0. -1.
         11    1    3    3    0    0  0.51942928522E+01  0.45501080533E+01 -0.10127791039E+02  0.12257908187E+02  0.51100000000E-03 0.  1.
        -11    1    3    3    0    0  0.32283056814E+01  0.16392480604E+01 -0.22230985099E+02  0.22523893769E+02  0.51100000000E-03 0. -1.
         12    1    3    3    0    0  0.56254121729E+01  0.12175314223E+01 -0.97945737009E+01  0.11360515783E+02  0.00000000000E+00 0. -1.
</event>
<event>
 7    1  0.4623443E-009  0.4614232E+02  0.7816164E-02  0.1320468E+00
        -11   -1    0    0    0    0  0.00000000000E+00  0.00000000000E+00  0.45593999997E+02  0.45594000000E+02  0.51100000000E-03 0. -1.
         11   -1    0    0    0    0 -0.00000000000E+00 -0.00000000000E+00 -0.45593999997E+02  0.45594000000E+02  0.51100000000E-03 0.  1.
    9900012    2    1    2    0    0  0.91721171826E+01 -0.18988706266E+02 -0.39804707949E+02  0.46142317918E+02  0.10000001434E+02 0.  0.
         12    1    1    2    0    0 -0.91721171826E+01  0.18988706266E+02  0.39804707949E+02  0.45045682082E+02  0.00000000000E+00 0. -1.
         11    1    3    3    0    0  0.35722239179E+01 -0.90817004456E+01 -0.11259539904E+02  0.14900178047E+02  0.51100000000E-03 0. -1.
        -11    1    3    3    0    0  0.26515994542E+01 -0.32406357042E+01 -0.46383307702E+01  0.62487448362E+01  0.51100000000E-03 0.  1.
         12    1    3    3    0    0  0.29482938104E+01 -0.66663701166E+01 -0.23906837275E+02  0.24993395036E+02  0.00000000000E+00 0. -1.
</event>
<event>
 7    1  0.4623443E-009  0.4614232E+02  0.7816164E-02  0.1320468E+00
        -11   -1    0    0    0    0  0.00000000000E+00  0.00000000000E+00  0.45593999997E+02  0.45594000000E+02  0.51100000000E-03 0. -1.
         11   -1    0    0    0    0 -0.00000000000E+00 -0.00000000000E+00 -0.45593999997E+02  0.45594000000E+02  0.51100000000E-03 0.  1.
    9900012    2    1    2    0    0  0.32979604081E+02 -0.26633949201E-01 -0.30683196980E+02  0.46142316837E+02  0.99999915731E+01 0.  0.
         12    1    1    2    0    0 -0.32979604081E+02  0.26633949201E-01  0.30683196980E+02  0.45045683163E+02  0.00000000000E+00 0. -1.
         11    1    3    3    0    0  0.52285650158E+01 -0.11913947345E+01 -0.43340140244E+01  0.68949975607E+01  0.51100000000E-03 0. -1.
        -11    1    3    3    0    0  0.17662249178E+02  0.48963689541E+01 -0.16834459396E+02  0.24886311466E+02  0.51100000000E-03 0.  1.
        -12    1    3    3    0    0  0.10088789887E+02 -0.37316081688E+01 -0.95147235600E+01  0.14361007811E+02  0.00000000000E+00 0.  1.
</event>
<event>
 7    1  0.4623443E-009  0.4614232E+02  0.7816164E-02  0.1320468E+00
        -11   -1    0    0    0    0  0.00000000000E+00  0.00000000000E+00  0.45593999997E+02  0.45594000000E+02  0.51100000000E-03 0. -1.
         11   -1    0    0    0    0 -0.00000000000E+00 -0.00000000000E+00 -0.45593999997E+02  0.45594000000E+02  0.51100000000E-03 0.  1.
    9900012    2    1    2    0    0 -0.28651927510E+02 -0.15124720857E+02  0.31295739587E+02  0.46142318216E+02  0.10000004151E+02 0.  0.
        -12    1    1    2    0    0  0.28651927510E+02  0.15124720857E+02 -0.31295739587E+02  0.45045681784E+02  0.00000000000E+00 0.  1.
         11    1    3    3    0    0  0.64881292719E+00 -0.30368096520E+00  0.13922469091E+00  0.72976990811E+00  0.51100000000E-03 0.  1.
        -11    1    3    3    0    0 -0.31907103460E+01 -0.17972351906E+01  0.52000860905E+01  0.63601558512E+01  0.51100000000E-03 0. -1.
        -12    1    3    3    0    0 -0.26110030091E+02 -0.13023804702E+02  0.25956428806E+02  0.39052392457E+02  0.00000000000E+00 0.  1.
</event>
<event>
 7    1  0.4623443E-009  0.4614232E+02  0.7816164E-02  0.1320468E+00
        -11   -1    0    0    0    0  0.00000000000E+00  0.00000000000E+00  0.45593999997E+02  0.45594000000E+02  0.51100000000E-03 0. -1.
         11   -1    0    0    0    0 -0.00000000000E+00 -0.00000000000E+00 -0.45593999997E+02  0.45594000000E+02  0.51100000000E-03 0.  1.
    9900012    2    1    2    0    0  0.43060376775E+02 -0.38597932769E+00  0.13220001812E+02  0.46142317899E+02  0.10000001254E+02 0.  0.
        -12    1    1    2    0    0 -0.43060376775E+02  0.38597932769E+00 -0.13220001812E+02  0.45045682101E+02  0.00000000000E+00 0.  1.
         11    1    3    3    0    0  0.25891926593E+02 -0.17949723847E+01  0.44390824991E+01  0.26330955969E+02  0.51100000000E-03 0. -1.
        -11    1    3    3    0    0  0.10864388386E+02 -0.23953199038E+00  0.34775282518E+01  0.11409886659E+02  0.51100000000E-03 0.  1.
        -12    1    3    3    0    0  0.63040617961E+01  0.16485250474E+01  0.53033910614E+01  0.84014752699E+01  0.00000000000E+00 0.  1.
</event>
<event>
 7    1  0.4623443E-009  0.4614232E+02  0.7816164E-02  0.1320468E+00
        -11   -1    0    0    0    0  0.00000000000E+00  0.00000000000E+00  0.45593999997E+02  0.45594000000E+02  0.51100000000E-03 0. -1.
         11   -1    0    0    0    0 -0.00000000000E+00 -0.00000000000E+00 -0.45593999997E+02  0.45594000000E+02  0.51100000000E-03 0.  1.
    9900012    2    1    2    0    0  0.39512489832E+01 -0.34888460603E+02  0.28218725031E+02  0.46142317697E+02  0.99999994143E+01 0.  0.
        -12    1    1    2    0    0 -0.39512489832E+01  0.34888460603E+02 -0.28218725031E+02  0.45045682303E+02  0.00000000000E+00 0.  1.
         11    1    3    3    0    0  0.23526881156E+01 -0.38504188697E+01  0.21105017347E+01  0.49814741468E+01  0.51100000000E-03 0. -1.
        -11    1    3    3    0    0 -0.11747879732E+01 -0.38682694618E+01  0.12517064549E+01  0.42320686102E+01  0.51100000000E-03 0.  1.
         12    1    3    3    0    0  0.27733488408E+01 -0.27169772272E+02  0.24856516841E+02  0.36928774940E+02  0.00000000000E+00 0. -1.
</event>
<event>
 7    1  0.4623443E-009  0.4614232E+02  0.7816164E-02  0.1320468E+00
        -11   -1    0    0    0    0  0.00000000000E+00  0.00000000000E+00  0.45593999997E+02  0.45594000000E+02  0.51100000000E-03 0. -1.
         11   -1    0    0    0    0 -0.00000000000E+00 -0.00000000000E+00 -0.45593999997E+02  0.45594000000E+02  0.51100000000E-03 0.  1.
    9900012    2    1    2    0    0  0.63368130204E+01  0.39914515770E+02  0.19894461727E+02  0.46142319011E+02  0.10000011394E+02 0.  0.
        -12    1    1    2    0    0 -0.63368130204E+01 -0.39914515770E+02 -0.19894461727E+02  0.45045680989E+02  0.00000000000E+00 0.  1.
         11    1    3    3    0    0  0.40140715874E+01  0.18961718189E+02  0.11664472473E+02  0.22621216716E+02  0.51100000000E-03 0. -1.
        -11    1    3    3    0    0  0.39773520538E+01  0.16331315548E+02  0.79779565042E+01  0.18605885819E+02  0.51100000000E-03 0.  1.
        -12    1    3    3    0    0 -0.16546106208E+01  0.46214820337E+01  0.25203274980E+00  0.49152164755E+01  0.00000000000E+00 0.  1.
</event>
<event>
 7    1  0.4623443E-009  0.4614232E+02  0.7816164E-02  0.1320468E+00
        -11   -1    0    0    0    0  0.00000000000E+00  0.00000000000E+00  0.45593999997E+02  0.45594000000E+02  0.51100000000E-03 0. -1.
         11   -1    0    0    0    0 -0.00000000000E+00 -0.00000000000E+00 -0.45593999997E+02  0.45594000000E+02  0.51100000000E-03 0.  1.
    9900012    2    1    2    0    0  0.13211657914E+02 -0.42817601115E+02 -0.46063441701E+01  0.46142320110E+02  0.10000021420E+02 0.  0.
         12    1    1    2    0    0 -0.13211657914E+02  0.42817601115E+02  0.46063441701E+01  0.45045679890E+02  0.00000000000E+00 0. -1.
         11    1    3    3    0    0  0.28208078794E+01 -0.92371694900E+01 -0.48209945754E+01  0.10794639699E+02  0.51100000000E-03 0. -1.
        -11    1    3    3    0    0  0.68238792647E+01 -0.22158665325E+02 -0.16197398333E+01  0.23242102628E+02  0.51100000000E-03 0.  1.
        -12    1    3    3    0    0  0.35669707701E+01 -0.11421766300E+02  0.18343902386E+01  0.12105577782E+02  0.00000000000E+00 0.  1.
</event>
<event>
 7    1  0.4623443E-009  0.4614233E+02  0.7816164E-02  0.1320468E+00
        -11   -1    0    0    0    0  0.00000000000E+00  0.00000000000E+00  0.45593999997E+02  0.45594000000E+02  0.51100000000E-03 0. -1.
         11   -1    0    0    0    0 -0.00000000000E+00 -0.00000000000E+00 -0.45593999997E+02  0.45594000000E+02  0.51100000000E-03 0.  1.
    9900012    2    1    2    0    0 -0.31698585294E+02  0.11078173973E+02 -0.30026427577E+02  0.46142327607E+02  0.10000089787E+02 0.  0.
         12    1    1    2    0    0  0.31698585294E+02 -0.11078173973E+02  0.30026427577E+02  0.45045672393E+02  0.00000000000E+00 0. -1.
         11    1    3    3    0    0 -0.62566239516E+01  0.53452592978E+01 -0.91317656971E+01  0.12292529652E+02  0.51100000000E-03 0. -1.
        -11    1    3    3    0    0 -0.61910006042E+01  0.38450884550E+01 -0.57434664134E+01  0.92790409209E+01  0.51100000000E-03 0.  1.
        -12    1    3    3    0    0 -0.19250960739E+02  0.18878262206E+01 -0.15151195467E+02  0.24570757035E+02  0.00000000000E+00 0.  1.
</event>
<event>
 7    1  0.4623443E-009  0.4614232E+02  0.7816164E-02  0.1320468E+00
        -11   -1    0    0    0    0  0.00000000000E+00  0.00000000000E+00  0.45593999997E+02  0.45594000000E+02  0.51100000000E-03 0. -1.
         11   -1    0    0    0    0 -0.00000000000E+00 -0.00000000000E+00 -0.45593999997E+02  0.45594000000E+02  0.51100000000E-03 0.  1.
    9900012    2    1    2    0    0  0.29241018656E+02  0.13457670351E+02 -0.31511385097E+02  0.46142318142E+02  0.10000003475E+02 0.  0.
         12    1    1    2    0    0 -0.29241018656E+02 -0.13457670351E+02  0.31511385097E+02  0.45045681858E+02  0.00000000000E+00 0. -1.
         11    1    3    3    0    0  0.15668063598E+02  0.10587791687E+02 -0.20333744621E+02  0.27767800062E+02  0.51100000000E-03 0. -1.
        -11    1    3    3    0    0  0.79975847132E+01  0.95185031713E+00 -0.90289193585E+01  0.12099122502E+02  0.51100000000E-03 0.  1.
        -12    1    3    3    0    0  0.55753703450E+01  0.19180283474E+01 -0.21487211166E+01  0.62753955781E+01  0.00000000000E+00 0.  1.
</event>
<event>
 7    1  0.4623443E-009  0.4614232E+02  0.7816164E-02  0.1320468E+00
        -11   -1    0    0    0    0  0.00000000000E+00  0.00000000000E+00  0.45593999997E+02  0.45594000000E+02  0.51100000000E-03 0. -1.
         11   -1    0    0    0    0 -0.00000000000E+00 -0.00000000000E+00 -0.45593999997E+02  0.45594000000E+02  0.51100000000E-03 0.  1.
    9900012    2    1    2    0    0  0.16536821961E+02  0.43326903429E+01  0.41675827196E+02  0.46142320311E+02  0.10000023254E+02 0.  0.
        -12    1    1    2    0    0 -0.16536821961E+02 -0.43326903429E+01 -0.41675827196E+02  0.45045679689E+02  0.00000000000E+00 0.  1.
         11    1    3    3    0    0  0.74426429825E+01  0.57440391963E+01  0.20859605861E+02  0.22880342607E+02  0.51100000000E-03 0. -1.
        -11    1    3    3    0    0  0.23021922704E+01 -0.24787607568E+01  0.86410263730E+01  0.92796379875E+01  0.51100000000E-03 0.  1.
         12    1    3    3    0    0  0.67919867080E+01  0.10674119035E+01  0.12175194961E+02  0.13982339717E+02  0.00000000000E+00 0. -1.
</event>
<event>
 7    1  0.4623443E-009  0.4614232E+02  0.7816164E-02  0.1320468E+00
        -11   -1    0    0    0    0  0.00000000000E+00  0.00000000000E+00  0.45593999997E+02  0.45594000000E+02  0.51100000000E-03 0.  1.
         11   -1    0    0    0    0 -0.00000000000E+00 -0.00000000000E+00 -0.45593999997E+02  0.45594000000E+02  0.51100000000E-03 0. -1.
    9900012    2    1    2    0    0 -0.12972467366E+02 -0.38052103961E+02 -0.20319103517E+02  0.46142317708E+02  0.99999995164E+01 0.  0.
         12    1    1    2    0    0  0.12972467366E+02  0.38052103961E+02  0.20319103517E+02  0.45045682292E+02  0.00000000000E+00 0. -1.
         11    1    3    3    0    0 -0.15791886859E+01 -0.12373946470E+02 -0.41453968605E+01  0.13145063847E+02  0.51100000000E-03 0.  1.
        -11    1    3    3    0    0  0.29117628669E+00  0.81678909627E-01 -0.68385756144E+00  0.74774093085E+00  0.51100000000E-03 0. -1.
        -12    1    3    3    0    0 -0.11684454966E+02 -0.25759836400E+02 -0.15489849096E+02  0.32249512930E+02  0.00000000000E+00 0.  1.
</event>
<event>
 7    1  0.4623443E-009  0.4614232E+02  0.7816164E-02  0.1320468E+00
        -11   -1    0    0    0    0  0.00000000000E+00  0.00000000000E+00  0.45593999997E+02  0.45594000000E+02  0.51100000000E-03 0.  1.
         11   -1    0    0    0    0 -0.00000000000E+00 -0.00000000000E+00 -0.45593999997E+02  0.45594000000E+02  0.51100000000E-03 0. -1.
    9900012    2    1    2    0    0  0.42432807809E+02 -0.49351709365E+01  0.14290360741E+02  0.46142317623E+02  0.99999987373E+01 0.  0.
         12    1    1    2    0    0 -0.42432807809E+02  0.49351709365E+01 -0.14290360741E+02  0.45045682377E+02  0.00000000000E+00 0. -1.
         11    1    3    3    0    0  0.63435953649E+01  0.16980347909E+01  0.25262407494E+01  0.70360796535E+01  0.51100000000E-03 0. -1.
        -11    1    3    3    0    0  0.15868280674E+02 -0.25831147748E+01  0.17234230642E+01  0.16169260985E+02  0.51100000000E-03 0.  1.
        -12    1    3    3    0    0  0.20220931770E+02 -0.40500909526E+01  0.10040696927E+02  0.22936976984E+02  0.00000000000E+00 0.  1.
</event>
<event>
 7    1  0.4623443E-009  0.4614231E+02  0.7816164E-02  0.1320468E+00
        -11   -1    0    0    0    0  0.00000000000E+00  0.00000000000E+00  0.45593999997E+02  0.45594000000E+02  0.51100000000E-03 0. -1.
         11   -1    0    0    0    0 -0.00000000000E+00 -0.00000000000E+00 -0.45593999997E+02  0.45594000000E+02  0.51100000000E-03 0.  1.
    9900012    2    1    2    0    0  0.29006304972E+02  0.10523357899E+02  0.32817784217E+02  0.46142314851E+02  0.99999734672E+01 0.  0.
        -12    1    1    2    0    0 -0.29006304972E+02 -0.10523357899E+02 -0.32817784217E+02  0.45045685149E+02  0.00000000000E+00 0.  1.
         11    1    3    3    0    0  0.18744161317E+02  0.44116062757E+01  0.24454573495E+02  0.31126066544E+02  0.51100000000E-03 0. -1.
        -11    1    3    3    0    0  0.20947492679E+01  0.73284017384E+00  0.11399844998E+00  0.22221667632E+01  0.51100000000E-03 0.  1.
         12    1    3    3    0    0  0.81673943869E+01  0.53789114497E+01  0.82492122718E+01  0.12794081544E+02  0.00000000000E+00 0. -1.
</event>
<event>
 7    1  0.4623443E-009  0.4614232E+02  0.7816164E-02  0.1320468E+00
        -11   -1    0    0    0    0  0.00000000000E+00  0.00000000000E+00  0.45593999997E+02  0.45594000000E+02  0.51100000000E-03 0. -1.
         11   -1    0    0    0    0 -0.00000000000E+00 -0.00000000000E+00 -0.45593999997E+02  0.45594000000E+02  0.51100000000E-03 0.  1.
    9900012    2    1    2    0    0 -0.24307703309E+01  0.34447423374E+02  0.28923689920E+02  0.46142318074E+02  0.10000002857E+02 0.  0.
        -12    1    1    2    0    0  0.24307703309E+01 -0.34447423374E+02 -0.28923689920E+02  0.45045681926E+02  0.00000000000E+00 0.  1.
         11    1    3    3    0    0  0.11085793065E+01  0.54825073400E+01  0.35226145446E+01  0.66102683987E+01  0.51100000000E-03 0. -1.
        -11    1    3    3    0    0  0.11994135266E+01  0.35949503424E+01  0.65663165865E+01  0.75814757499E+01  0.51100000000E-03 0.  1.
         12    1    3    3    0    0 -0.47387631640E+01  0.25369965692E+02  0.18834758789E+02  0.31950573926E+02  0.00000000000E+00 0. -1.
</event>
<event>
 7    1  0.4623443E-009  0.4614232E+02  0.7816164E-02  0.1320468E+00
        -11   -1    0    0    0    0  0.00000000000E+00  0.00000000000E+00  0.45593999997E+02  0.45594000000E+02  0.51100000000E-03 0. -1.
         11   -1    0    0    0    0 -0.00000000000E+00 -0.00000000000E+00 -0.45593999997E+02  0.45594000000E+02  0.51100000000E-03 0.  1.
    9900012    2    1    2    0    0 -0.36845248642E+02  0.17398120379E+02 -0.19205379244E+02  0.46142317276E+02  0.99999955726E+01 0.  0.
         12    1    1    2    0    0  0.36845248642E+02 -0.17398120379E+02  0.19205379244E+02  0.45045682724E+02  0.00000000000E+00 0. -1.
         11    1    3    3    0    0 -0.11424444453E+02  0.75186831613E+01 -0.46322927070E+01  0.14439759816E+02  0.51100000000E-03 0. -1.
        -11    1    3    3    0    0 -0.15911089283E+02  0.69748842519E+01 -0.12855440558E+02  0.21611897758E+02  0.51100000000E-03 0.  1.
         12    1    3    3    0    0 -0.95097149055E+01  0.29045529657E+01 -0.17176459795E+01  0.10090659702E+02  0.00000000000E+00 0. -1.
</event>
<event>
 7    1  0.4623443E-009  0.4614232E+02  0.7816164E-02  0.1320468E+00
        -11   -1    0    0    0    0  0.00000000000E+00  0.00000000000E+00  0.45593999997E+02  0.45594000000E+02  0.51100000000E-03 0. -1.
         11   -1    0    0    0    0 -0.00000000000E+00 -0.00000000000E+00 -0.45593999997E+02  0.45594000000E+02  0.51100000000E-03 0.  1.
    9900012    2    1    2    0    0  0.29837535622E+02  0.43523765070E+01  0.33464782906E+02  0.46142318651E+02  0.10000008113E+02 0.  0.
        -12    1    1    2    0    0 -0.29837535622E+02 -0.43523765070E+01 -0.33464782906E+02  0.45045681349E+02  0.00000000000E+00 0.  1.
         11    1    3    3    0    0  0.11362834606E+02  0.44648316649E+01  0.16126761965E+02  0.20226744271E+02  0.51100000000E-03 0. -1.
        -11    1    3    3    0    0  0.31610793559E+00  0.13711074545E+00  0.23328432288E+01  0.23581521101E+01  0.51100000000E-03 0.  1.
        -12    1    3    3    0    0  0.18158593080E+02 -0.24956590334E+00  0.15005177713E+02  0.23557422270E+02  0.00000000000E+00 0.  1.
</event>
<event>
 7    1  0.4623443E-009  0.4614232E+02  0.7816164E-02  0.1320468E+00
        -11   -1    0    0    0    0  0.00000000000E+00  0.00000000000E+00  0.45593999997E+02  0.45594000000E+02  0.51100000000E-03 0. -1.
         11   -1    0    0    0    0 -0.00000000000E+00 -0.00000000000E+00 -0.45593999997E+02  0.45594000000E+02  0.51100000000E-03 0.  1.
    9900012    2    1    2    0    0  0.23057024955E+02  0.15954243069E+02  0.35255485420E+02  0.46142317367E+02  0.99999964084E+01 0.  0.
        -12    1    1    2    0    0 -0.23057024955E+02 -0.15954243069E+02 -0.35255485420E+02  0.45045682633E+02  0.00000000000E+00 0.  1.
         11    1    3    3    0    0  0.55321734244E+01  0.61189563423E+01  0.14618360277E+02  0.16785202619E+02  0.51100000000E-03 0. -1.
        -11    1    3    3    0    0  0.12264245203E+01  0.29228175763E+01  0.33906131932E+01  0.46414693552E+01  0.51100000000E-03 0.  1.
        -12    1    3    3    0    0  0.16298427010E+02  0.69124691498E+01  0.17246511950E+02  0.24715645393E+02  0.00000000000E+00 0.  1.
</event>
<event>
 7    1  0.4623443E-009  0.4614232E+02  0.7816164E-02  0.1320468E+00
        -11   -1    0    0    0    0  0.00000000000E+00  0.00000000000E+00  0.45593999997E+02  0.45594000000E+02  0.51100000000E-03 0. -1.
         11   -1    0    0    0    0 -0.00000000000E+00 -0.00000000000E+00 -0.45593999997E+02  0.45594000000E+02  0.51100000000E-03 0.  1.
    9900012    2    1    2    0    0  0.56144949318E+01  0.24415637465E+02  0.37436174650E+02  0.46142322310E+02  0.10000041479E+02 0.  0.
        -12    1    1    2    0    0 -0.56144949318E+01 -0.24415637465E+02 -0.37436174650E+02  0.45045677690E+02  0.00000000000E+00 0.  1.
         11    1    3    3    0    0  0.41162905233E-01 -0.75868944453E+00  0.96985560657E+00  0.12320406717E+01  0.51100000000E-03 0. -1.
        -11    1    3    3    0    0 -0.46381744054E+00  0.25947792447E+01  0.22084427424E+01  0.34387825687E+01  0.51100000000E-03 0.  1.
         12    1    3    3    0    0  0.60371494671E+01  0.22579547664E+02  0.34257876301E+02  0.41471499069E+02  0.00000000000E+00 0. -1.
</event>
<event>
 7    1  0.4623443E-009  0.4614232E+02  0.7816164E-02  0.1320468E+00
        -11   -1    0    0    0    0  0.00000000000E+00  0.00000000000E+00  0.45593999997E+02  0.45594000000E+02  0.51100000000E-03 0.  1.
         11   -1    0    0    0    0 -0.00000000000E+00 -0.00000000000E+00 -0.45593999997E+02  0.45594000000E+02  0.51100000000E-03 0. -1.
    9900012    2    1    2    0    0 -0.23400710484E+02  0.33336782089E+02  0.19240036443E+02  0.46142319924E+02  0.10000019719E+02 0.  0.
        -12    1    1    2    0    0  0.23400710484E+02 -0.33336782089E+02 -0.19240036443E+02  0.45045680076E+02  0.00000000000E+00 0.  1.
         11    1    3    3    0    0 -0.11136654581E+02  0.11906613121E+02  0.41760755338E+01  0.16829501430E+02  0.51100000000E-03 0. -1.
        -11    1    3    3    0    0 -0.49135013095E+01  0.45909063725E+01  0.32490028472E+01  0.74682619265E+01  0.51100000000E-03 0.  1.
         12    1    3    3    0    0 -0.73505545941E+01  0.16839262596E+02  0.11814958062E+02  0.21844556567E+02  0.00000000000E+00 0. -1.
</event>
<event>
 7    1  0.4623443E-009  0.4614232E+02  0.7816164E-02  0.1320468E+00
        -11   -1    0    0    0    0  0.00000000000E+00  0.00000000000E+00  0.45593999997E+02  0.45594000000E+02  0.51100000000E-03 0. -1.
         11   -1    0    0    0    0 -0.00000000000E+00 -0.00000000000E+00 -0.45593999997E+02  0.45594000000E+02  0.51100000000E-03 0.  1.
    9900012    2    1    2    0    0 -0.24881627699E+02  0.10516223047E+02  0.36047567946E+02  0.46142317644E+02  0.99999989279E+01 0.  0.
        -12    1    1    2    0    0  0.24881627699E+02 -0.10516223047E+02 -0.36047567946E+02  0.45045682356E+02  0.00000000000E+00 0.  1.
         11    1    3    3    0    0 -0.88660022483E+01  0.29801570167E+00  0.12906392585E+02  0.15661091247E+02  0.51100000000E-03 0. -1.
        -11    1    3    3    0    0 -0.11064500980E+00  0.18302378360E+01  0.26022942757E+01  0.31833863437E+01  0.51100000000E-03 0.  1.
         12    1    3    3    0    0 -0.15904980441E+02  0.83879695094E+01  0.20538881086E+02  0.27297840053E+02  0.00000000000E+00 0. -1.
</event>
<event>
 7    1  0.4623443E-009  0.4614232E+02  0.7816164E-02  0.1320468E+00
        -11   -1    0    0    0    0  0.00000000000E+00  0.00000000000E+00  0.45593999997E+02  0.45594000000E+02  0.51100000000E-03 0. -1.
         11   -1    0    0    0    0 -0.00000000000E+00 -0.00000000000E+00 -0.45593999997E+02  0.45594000000E+02  0.51100000000E-03 0.  1.
    9900012    2    1    2    0    0  0.51568990098E+01 -0.23997440326E+02 -0.37770925741E+02  0.46142316734E+02  0.99999906302E+01 0.  0.
         12    1    1    2    0    0 -0.51568990098E+01  0.23997440326E+02  0.37770925741E+02  0.45045683266E+02  0.00000000000E+00 0. -1.
         11    1    3    3    0    0  0.21222600109E+01 -0.63329033287E+01 -0.60140424391E+01  0.89876781676E+01  0.51100000000E-03 0. -1.
        -11    1    3    3    0    0  0.35686132619E+01 -0.34559550830E+01 -0.66432446253E+01  0.82952592221E+01  0.51100000000E-03 0.  1.
        -12    1    3    3    0    0 -0.53397426304E+00 -0.14208581914E+02 -0.25113638677E+02  0.28859379344E+02  0.00000000000E+00 0.  1.
</event>
<event>
 7    1  0.4623443E-009  0.4614232E+02  0.7816164E-02  0.1320468E+00
        -11   -1    0    0    0    0  0.00000000000E+00  0.00000000000E+00  0.45593999997E+02  0.45594000000E+02  0.51100000000E-03 0. -1.
         11   -1    0    0    0    0 -0.00000000000E+00 -0.00000000000E+00 -0.45593999997E+02  0.45594000000E+02  0.51100000000E-03 0.  1.
    9900012    2    1    2    0    0  0.16495326942E+02  0.54386980869E+01  0.41562461961E+02  0.46142317720E+02  0.99999996271E+01 0.  0.
        -12    1    1    2    0    0 -0.16495326942E+02 -0.54386980869E+01 -0.41562461961E+02  0.45045682280E+02  0.00000000000E+00 0.  1.
         11    1    3    3    0    0  0.31686752191E+01 -0.16273391830E+01  0.69127201929E+01  0.77765311153E+01  0.51100000000E-03 0. -1.
        -11    1    3    3    0    0  0.84412177593E+01  0.55143819444E+01  0.15112394577E+02  0.18167196691E+02  0.51100000000E-03 0.  1.
        -12    1    3    3    0    0  0.48854339636E+01  0.15516553254E+01  0.19537347191E+02  0.20198589914E+02  0.00000000000E+00 0.  1.
</event>
<event>
 7    1  0.4623443E-009  0.4614232E+02  0.7816164E-02  0.1320468E+00
        -11   -1    0    0    0    0  0.00000000000E+00  0.00000000000E+00  0.45593999997E+02  0.45594000000E+02  0.51100000000E-03 0.  1.
         11   -1    0    0    0    0 -0.00000000000E+00 -0.00000000000E+00 -0.45593999997E+02  0.45594000000E+02  0.51100000000E-03 0. -1.
    9900012    2    1    2    0    0  0.29358079224E+02  0.34126254072E+02  0.16172565104E+01  0.46142317062E+02  0.99999936278E+01 0.  0.
         12    1    1    2    0    0 -0.29358079224E+02 -0.34126254072E+02 -0.16172565104E+01  0.45045682938E+02  0.00000000000E+00 0. -1.
         11    1    3    3    0    0  0.12044745136E+02  0.20407221931E+02  0.34491263228E+01  0.23946337193E+02  0.51100000000E-03 0. -1.
        -11    1    3    3    0    0  0.10595309569E+02  0.80426712581E+01 -0.60558883281E+00  0.13315850852E+02  0.51100000000E-03 0.  1.
         12    1    3    3    0    0  0.67180245187E+01  0.56763608835E+01 -0.12262809795E+01  0.88801290168E+01  0.00000000000E+00 0. -1.
</event>
<event>
 7    1  0.4623443E-009  0.4614232E+02  0.7816164E-02  0.1320468E+00
        -11   -1    0    0    0    0  0.00000000000E+00  0.00000000000E+00  0.45593999997E+02  0.45594000000E+02  0.51100000000E-03 0. -1.
         11   -1    0    0    0    0 -0.00000000000E+00 -0.00000000000E+00 -0.45593999997E+02  0.45594000000E+02  0.51100000000E-03 0.  1.
    9900012    2    1    2    0    0 -0.25736798476E+02 -0.24923390086E+02 -0.27304859133E+02  0.46142317616E+02  0.99999986743E+01 0.  0.
         12    1    1    2    0    0  0.25736798476E+02  0.24923390086E+02  0.27304859133E+02  0.45045682384E+02  0.00000000000E+00 0. -1.
         11    1    3    3    0    0 -0.80404100112E+01 -0.69232756039E+01 -0.58938003683E+01  0.12137414110E+02  0.51100000000E-03 0. -1.
        -11    1    3    3    0    0 -0.14197754886E+02 -0.17851663690E+02 -0.19540674031E+02  0.30034914386E+02  0.51100000000E-03 0.  1.
         12    1    3    3    0    0 -0.34986335793E+01 -0.14845079168E+00 -0.18703847335E+01  0.39699891197E+01  0.00000000000E+00 0. -1.
</event>
<event>
 7    1  0.4623443E-009  0.4614232E+02  0.7816164E-02  0.1320468E+00
        -11   -1    0    0    0    0  0.00000000000E+00  0.00000000000E+00  0.45593999997E+02  0.45594000000E+02  0.51100000000E-03 0. -1.
         11   -1    0    0    0    0 -0.00000000000E+00 -0.00000000000E+00 -0.45593999997E+02  0.45594000000E+02  0.51100000000E-03 0.  1.
    9900012    2    1    2    0    0  0.21550681619E+02 -0.34522172856E+02  0.19310649724E+02  0.46142317746E+02  0.99999998657E+01 0.  0.
        -12    1    1    2    0    0 -0.21550681619E+02  0.34522172856E+02 -0.19310649724E+02  0.45045682254E+02  0.00000000000E+00 0.  1.
         11    1    3    3    0    0  0.16295921109E+02 -0.26784738170E+02  0.15762480192E+02  0.35091808527E+02  0.51100000000E-03 0. -1.
        -11    1    3    3    0    0  0.55212432886E+01 -0.79619828385E+01  0.25874895422E+01  0.10028579190E+02  0.51100000000E-03 0.  1.
         12    1    3    3    0    0 -0.26648277849E+00  0.22454815250E+00  0.96067998903E+00  0.10219300296E+01  0.00000000000E+00 0. -1.
</event>
<event>
 7    1  0.4623443E-009  0.4614231E+02  0.7816164E-02  0.1320468E+00
        -11   -1    0    0    0    0  0.00000000000E+00  0.00000000000E+00  0.45593999997E+02  0.45594000000E+02  0.51100000000E-03 0.  1.
         11   -1    0    0    0    0 -0.00000000000E+00 -0.00000000000E+00 -0.45593999997E+02  0.45594000000E+02  0.51100000000E-03 0. -1.
    9900012    2    1    2    0    0 -0.22759651772E+02  0.33466688138E+02  0.19776071409E+02  0.46142312480E+02  0.99999518462E+01 0.  0.
        -12    1    1    2    0    0  0.22759651772E+02 -0.33466688138E+02 -0.19776071409E+02  0.45045687520E+02  0.00000000000E+00 0.  1.
         11    1    3    3    0    0 -0.12122266117E+02  0.17245857216E+02  0.11409772580E+02  0.23969810962E+02  0.51100000000E-03 0. -1.
        -11    1    3    3    0    0 -0.42925159262E+01  0.12342385109E+02  0.59009796258E+01  0.14338121354E+02  0.51100000000E-03 0.  1.
         12    1    3    3    0    0 -0.63448697284E+01  0.38784458135E+01  0.24653192032E+01  0.78343801651E+01  0.00000000000E+00 0. -1.
</event>
<event>
 7    1  0.4623443E-009  0.4614232E+02  0.7816164E-02  0.1320468E+00
        -11   -1    0    0    0    0  0.00000000000E+00  0.00000000000E+00  0.45593999997E+02  0.45594000000E+02  0.51100000000E-03 0. -1.
         11   -1    0    0    0    0 -0.00000000000E+00 -0.00000000000E+00 -0.45593999997E+02  0.45594000000E+02  0.51100000000E-03 0.  1.
    9900012    2    1    2    0    0  0.31797706287E+01 -0.23449486789E+02 -0.38329154499E+02  0.46142318115E+02  0.10000003224E+02 0.  0.
         12    1    1    2    0    0 -0.31797706287E+01  0.23449486789E+02  0.38329154499E+02  0.45045681885E+02  0.00000000000E+00 0. -1.
         11    1    3    3    0    0 -0.23279567262E+01 -0.61225747519E+01 -0.13991866482E+02  0.15449195190E+02  0.51100000000E-03 0.  1.
        -11    1    3    3    0    0  0.46706412264E+01 -0.89777677883E+01 -0.15460171883E+02  0.18477881882E+02  0.51100000000E-03 0. -1.
        -12    1    3    3    0    0  0.83708612858E+00 -0.83491442493E+01 -0.88771161341E+01  0.12215241043E+02  0.00000000000E+00 0.  1.
</event>
<event>
 7    1  0.4623443E-009  0.4614232E+02  0.7816164E-02  0.1320468E+00
        -11   -1    0    0    0    0  0.00000000000E+00  0.00000000000E+00  0.45593999997E+02  0.45594000000E+02  0.51100000000E-03 0. -1.
         11   -1    0    0    0    0 -0.00000000000E+00 -0.00000000000E+00 -0.45593999997E+02  0.45594000000E+02  0.51100000000E-03 0.  1.
    9900012    2    1    2    0    0  0.27092264703E+02 -0.19334838705E+02 -0.30352708645E+02  0.46142315228E+02  0.99999769050E+01 0.  0.
         12    1    1    2    0    0 -0.27092264703E+02  0.19334838705E+02  0.30352708645E+02  0.45045684772E+02  0.00000000000E+00 0. -1.
         11    1    3    3    0    0  0.22289430842E+01 -0.25786043101E+01 -0.44006785520E+00  0.34367204481E+01  0.51100000000E-03 0. -1.
        -11    1    3    3    0    0  0.52815289697E+01 -0.60538326705E+01 -0.62378184949E+01  0.10171225005E+02  0.51100000000E-03 0.  1.
        -12    1    3    3    0    0  0.19581792649E+02 -0.10702401724E+02 -0.23674822295E+02  0.32534369776E+02  0.00000000000E+00 0.  1.
</event>
<event>
 7    1  0.4623443E-009  0.4614232E+02  0.7816164E-02  0.1320468E+00
        -11   -1    0    0    0    0  0.00000000000E+00  0.00000000000E+00  0.45593999997E+02  0.45594000000E+02  0.51100000000E-03 0. -1.
         11   -1    0    0    0    0 -0.00000000000E+00 -0.00000000000E+00 -0.45593999997E+02  0.45594000000E+02  0.51100000000E-03 0.  1.
    9900012    2    1    2    0    0 -0.18822973941E+02  0.19350170188E+02  0.36060781988E+02  0.46142318388E+02  0.10000005714E+02 0.  0.
        -12    1    1    2    0    0  0.18822973941E+02 -0.19350170188E+02 -0.36060781988E+02  0.45045681612E+02  0.00000000000E+00 0.  1.
         11    1    3    3    0    0 -0.25130393448E+01  0.43560902525E+01  0.42963186971E+01  0.66143211023E+01  0.51100000000E-03 0.  1.
        -11    1    3    3    0    0 -0.15589025514E+02  0.12172213113E+02  0.30503110932E+02  0.36354095579E+02  0.51100000000E-03 0. -1.
         12    1    3    3    0    0 -0.72090908237E+00  0.28218668226E+01  0.12613523589E+01  0.31739017065E+01  0.00000000000E+00 0. -1.
</event>
<event>
 7    1  0.4623443E-009  0.4614232E+02  0.7816164E-02  0.1320468E+00
        -11   -1    0    0    0    0  0.00000000000E+00  0.00000000000E+00  0.45593999997E+02  0.45594000000E+02  0.51100000000E-03 0. -1.
         11   -1    0    0    0    0 -0.00000000000E+00 -0.00000000000E+00 -0.45593999997E+02  0.45594000000E+02  0.51100000000E-03 0.  1.
    9900012    2    1    2    0    0  0.43157510351E+01  0.43285133126E+02 -0.11699786205E+02  0.46142318143E+02  0.10000003479E+02 0.  0.
         12    1    1    2    0    0 -0.43157510351E+01 -0.43285133126E+02  0.11699786205E+02  0.45045681857E+02  0.00000000000E+00 0. -1.
         11    1    3    3    0    0  0.35270574909E+01  0.91285083952E+01 -0.19150610660E+01  0.99718232643E+01  0.51100000000E-03 0. -1.
        -11    1    3    3    0    0  0.20761586239E+01  0.28941352516E+02 -0.60823536694E+01  0.29646371557E+02  0.51100000000E-03 0.  1.
         12    1    3    3    0    0 -0.12874650797E+01  0.52152722150E+01 -0.37023714701E+01  0.65241233213E+01  0.00000000000E+00 0. -1.
</event>
<event>
 7    1  0.4623443E-009  0.4614232E+02  0.7816164E-02  0.1320468E+00
        -11   -1    0    0    0    0  0.00000000000E+00  0.00000000000E+00  0.45593999997E+02  0.45594000000E+02  0.51100000000E-03 0.  1.
         11   -1    0    0    0    0 -0.00000000000E+00 -0.00000000000E+00 -0.45593999997E+02  0.45594000000E+02  0.51100000000E-03 0. -1.
    9900012    2    1    2    0    0 -0.39904974619E+02  0.20894538541E+02  0.35342025566E+00  0.46142316011E+02  0.99999840388E+01 0.  0.
         12    1    1    2    0    0  0.39904974619E+02 -0.20894538541E+02 -0.35342025566E+00  0.45045683989E+02  0.00000000000E+00 0. -1.
         11    1    3    3    0    0 -0.16684035543E+02  0.47403157375E+01 -0.47698199380E+00  0.17350940821E+02  0.51100000000E-03 0. -1.
        -11    1    3    3    0    0 -0.17266373183E+00 -0.37589585085E+00 -0.34126258339E-01  0.41506061919E+00  0.51100000000E-03 0.  1.
        -12    1    3    3    0    0 -0.23048275344E+02  0.16530118654E+02  0.86452850780E+00  0.28376314571E+02  0.00000000000E+00 0.  1.
</event>
<event>
 7    1  0.4623443E-009  0.4614232E+02  0.7816164E-02  0.1320468E+00
        -11   -1    0    0    0    0  0.00000000000E+00  0.00000000000E+00  0.45593999997E+02  0.45594000000E+02  0.51100000000E-03 0. -1.
         11   -1    0    0    0    0 -0.00000000000E+00 -0.00000000000E+00 -0.45593999997E+02  0.45594000000E+02  0.51100000000E-03 0.  1.
    9900012    2    1    2    0    0  0.18725387924E+02  0.12902865025E+02 -0.38884309682E+02  0.46142316319E+02  0.99999868538E+01 0.  0.
         12    1    1    2    0    0 -0.18725387924E+02 -0.12902865025E+02  0.38884309682E+02  0.45045683681E+02  0.00000000000E+00 0. -1.
         11    1    3    3    0    0  0.51335825368E+01  0.42917750989E+00 -0.39704011247E+01  0.65039947994E+01  0.51100000000E-03 0. -1.
        -11    1    3    3    0    0  0.91313387228E+01  0.61710938685E+01 -0.21529888990E+02  0.24186770487E+02  0.51100000000E-03 0.  1.
         12    1    3    3    0    0  0.44604666645E+01  0.63025936467E+01 -0.13384019568E+02  0.15451551033E+02  0.00000000000E+00 0. -1.
</event>
<event>
 7    1  0.4623443E-009  0.4614232E+02  0.7816164E-02  0.1320468E+00
        -11   -1    0    0    0    0  0.00000000000E+00  0.00000000000E+00  0.45593999997E+02  0.45594000000E+02  0.51100000000E-03 0. -1.
         11   -1    0    0    0    0 -0.00000000000E+00 -0.00000000000E+00 -0.45593999997E+02  0.45594000000E+02  0.51100000000E-03 0.  1.
    9900012    2    1    2    0    0  0.33180485688E+01  0.11359025720E+02  0.43463510586E+02  0.46142315811E+02  0.99999822195E+01 0.  0.
        -12    1    1    2    0    0 -0.33180485688E+01 -0.11359025720E+02 -0.43463510586E+02  0.45045684189E+02  0.00000000000E+00 0.  1.
         11    1    3    3    0    0  0.35481035579E+01  0.98225635655E+01  0.31063849380E+02  0.32772466072E+02  0.51100000000E-03 0. -1.
        -11    1    3    3    0    0  0.49806658133E+00 -0.42809716759E+00 -0.12721679660E+00  0.66897076079E+00  0.51100000000E-03 0.  1.
        -12    1    3    3    0    0 -0.72812157036E+00  0.19645593219E+01  0.12526878002E+02  0.12700878979E+02  0.00000000000E+00 0.  1.
</event>
<event>
 7    1  0.4623443E-009  0.4614232E+02  0.7816164E-02  0.1320468E+00
        -11   -1    0    0    0    0  0.00000000000E+00  0.00000000000E+00  0.45593999997E+02  0.45594000000E+02  0.51100000000E-03 0. -1.
         11   -1    0    0    0    0 -0.00000000000E+00 -0.00000000000E+00 -0.45593999997E+02  0.45594000000E+02  0.51100000000E-03 0.  1.
    9900012    2    1    2    0    0  0.23674728374E+02  0.53756507474E+01 -0.37943684178E+02  0.46142317037E+02  0.99999934006E+01 0.  0.
         12    1    1    2    0    0 -0.23674728374E+02 -0.53756507474E+01  0.37943684178E+02  0.45045682963E+02  0.00000000000E+00 0. -1.
         11    1    3    3    0    0  0.15754442348E+01  0.26378191200E-01  0.81056483432E-01  0.15777486366E+01  0.51100000000E-03 0. -1.
        -11    1    3    3    0    0  0.57414860536E+01  0.32621268386E+00 -0.13361517451E+02  0.14546519366E+02  0.51100000000E-03 0.  1.
        -12    1    3    3    0    0  0.16357798086E+02  0.50230598724E+01 -0.24663223211E+02  0.30018049035E+02  0.00000000000E+00 0.  1.
</event>
<event>
 7    1  0.4717673E-009  0.4614232E+02  0.7816164E-02  0.1320468E+00
        -11   -1    0    0    0    0  0.00000000000E+00  0.00000000000E+00  0.45593999997E+02  0.45594000000E+02  0.51100000000E-03 0. -1.
         11   -1    0    0    0    0 -0.00000000000E+00 -0.00000000000E+00 -0.45593999997E+02  0.45594000000E+02  0.51100000000E-03 0.  1.
    9900012    2    1    2    0    0  0.25826437093E+02 -0.59521853889E+01 -0.36423620751E+02  0.46142317494E+02  0.99999975641E+01 0.  0.
         12    1    1    2    0    0 -0.25826437093E+02  0.59521853889E+01  0.36423620751E+02  0.45045682506E+02  0.00000000000E+00 0. -1.
         11    1    3    3    0    0  0.13547635153E+02 -0.16905920139E+01 -0.21617944661E+02  0.25568184355E+02  0.51100000000E-03 0. -1.
        -11    1    3    3    0    0  0.76130955382E+01 -0.17725008760E-01 -0.10365313997E+02  0.12860764843E+02  0.51100000000E-03 0.  1.
         12    1    3    3    0    0  0.46657064021E+01 -0.42438683662E+01 -0.44403620933E+01  0.77133682953E+01  0.00000000000E+00 0. -1.
</event>
<event>
 7    1  0.4623443E-009  0.4614232E+02  0.7816164E-02  0.1320468E+00
        -11   -1    0    0    0    0  0.00000000000E+00  0.00000000000E+00  0.45593999997E+02  0.45594000000E+02  0.51100000000E-03 0.  1.
         11   -1    0    0    0    0 -0.00000000000E+00 -0.00000000000E+00 -0.45593999997E+02  0.45594000000E+02  0.51100000000E-03 0. -1.
    9900012    2    1    2    0    0  0.31230152816E+02  0.28239460455E+02  0.16010121157E+02  0.46142317064E+02  0.99999936447E+01 0.  0.
        -12    1    1    2    0    0 -0.31230152816E+02 -0.28239460455E+02 -0.16010121157E+02  0.45045682936E+02  0.00000000000E+00 0.  1.
         11    1    3    3    0    0  0.14547763898E+01  0.12566087139E+01  0.35382468464E+00  0.19546436946E+01  0.51100000000E-03 0. -1.
        -11    1    3    3    0    0  0.39703710105E+01  0.79633596971E+01  0.59096842622E+01  0.10681915183E+02  0.51100000000E-03 0.  1.
         12    1    3    3    0    0  0.25805005416E+02  0.19019492044E+02  0.97466122098E+01  0.33505758187E+02  0.00000000000E+00 0. -1.
</event>
<event>
 7    1  0.4623443E-009  0.4614232E+02  0.7816164E-02  0.1320468E+00
        -11   -1    0    0    0    0  0.00000000000E+00  0.00000000000E+00  0.45593999997E+02  0.45594000000E+02  0.51100000000E-03 0. -1.
         11   -1    0    0    0    0 -0.00000000000E+00 -0.00000000000E+00 -0.45593999997E+02  0.45594000000E+02  0.51100000000E-03 0.  1.
    9900012    2    1    2    0    0  0.12476623401E+02  0.63001558096E+01  0.42822370360E+02  0.46142317655E+02  0.99999990319E+01 0.  0.
        -12    1    1    2    0    0 -0.12476623401E+02 -0.63001558096E+01 -0.42822370360E+02  0.45045682345E+02  0.00000000000E+00 0.  1.
         11    1    3    3    0    0  0.94565044443E+01  0.59968556653E+00  0.16996513728E+02  0.19459357087E+02  0.51100000000E-03 0. -1.
        -11    1    3    3    0    0  0.10539543391E+01  0.36280504759E+01  0.12711004069E+02  0.13260588022E+02  0.51100000000E-03 0.  1.
         12    1    3    3    0    0  0.19661646173E+01  0.20724197671E+01  0.13114852563E+02  0.13422372545E+02  0.00000000000E+00 0. -1.
</event>
<event>
 7    1  0.4623443E-009  0.4614232E+02  0.7816164E-02  0.1320468E+00
        -11   -1    0    0    0    0  0.00000000000E+00  0.00000000000E+00  0.45593999997E+02  0.45594000000E+02  0.51100000000E-03 0.  1.
         11   -1    0    0    0    0 -0.00000000000E+00 -0.00000000000E+00 -0.45593999997E+02  0.45594000000E+02  0.51100000000E-03 0. -1.
    9900012    2    1    2    0    0 -0.25300768094E+02  0.37260952776E+02 -0.77836242058E+00  0.46142319675E+02  0.10000017448E+02 0.  0.
        -12    1    1    2    0    0  0.25300768094E+02 -0.37260952776E+02  0.77836242058E+00  0.45045680325E+02  0.00000000000E+00 0.  1.
         11    1    3    3    0    0 -0.32911643037E+01  0.35660525897E+01  0.14126751912E+01  0.50541215857E+01  0.51100000000E-03 0. -1.
        -11    1    3    3    0    0 -0.37454133645E+01  0.10402645007E+02 -0.30744660238E+01  0.11475865371E+02  0.51100000000E-03 0.  1.
         12    1    3    3    0    0 -0.18264190426E+02  0.23292255179E+02  0.88342841197E+00  0.29612332718E+02  0.00000000000E+00 0. -1.
</event>
<event>
 7    1  0.4623443E-009  0.4614232E+02  0.7816164E-02  0.1320468E+00
        -11   -1    0    0    0    0  0.00000000000E+00  0.00000000000E+00  0.45593999997E+02  0.45594000000E+02  0.51100000000E-03 0. -1.
         11   -1    0    0    0    0 -0.00000000000E+00 -0.00000000000E+00 -0.45593999997E+02  0.45594000000E+02  0.51100000000E-03 0.  1.
    9900012    2    1    2    0    0  0.22291668356E+02 -0.13751493635E+02  0.36648212939E+02  0.46142316889E+02  0.99999920506E+01 0.  0.
        -12    1    1    2    0    0 -0.22291668356E+02  0.13751493635E+02 -0.36648212939E+02  0.45045683111E+02  0.00000000000E+00 0.  1.
         11    1    3    3    0    0  0.12321161662E+02 -0.26925852138E+01  0.16591580078E+02  0.20840862976E+02  0.51100000000E-03 0. -1.
        -11    1    3    3    0    0  0.10527017737E+01 -0.28194001047E+01  0.22868814262E+01  0.37798181032E+01  0.51100000000E-03 0.  1.
         12    1    3    3    0    0  0.89178049202E+01 -0.82395083165E+01  0.17769751435E+02  0.21521635810E+02  0.00000000000E+00 0. -1.
</event>
<event>
 7    1  0.4623443E-009  0.4614232E+02  0.7816164E-02  0.1320468E+00
        -11   -1    0    0    0    0  0.00000000000E+00  0.00000000000E+00  0.45593999997E+02  0.45594000000E+02  0.51100000000E-03 0.  1.
         11   -1    0    0    0    0 -0.00000000000E+00 -0.00000000000E+00 -0.45593999997E+02  0.45594000000E+02  0.51100000000E-03 0. -1.
    9900012    2    1    2    0    0 -0.44887472554E+02 -0.18668707651E+01  0.32776638061E+01  0.46142317868E+02  0.10000000974E+02 0.  0.
        -12    1    1    2    0    0  0.44887472554E+02  0.18668707651E+01 -0.32776638061E+01  0.45045682132E+02  0.00000000000E+00 0.  1.
         11    1    3    3    0    0 -0.19666202657E+02 -0.72233805564E+00  0.18291368825E+01  0.19764287015E+02  0.51100000000E-03 0. -1.
        -11    1    3    3    0    0 -0.23851519101E+02  0.80680520650E+00  0.19397070712E+01  0.23943858542E+02  0.51100000000E-03 0.  1.
         12    1    3    3    0    0 -0.13697507956E+01 -0.19513379160E+01 -0.49118014765E+00  0.24341723114E+01  0.00000000000E+00 0. -1.
</event>
<event>
 7    1  0.4623443E-009  0.4614232E+02  0.7816164E-02  0.1320468E+00
        -11   -1    0    0    0    0  0.00000000000E+00  0.00000000000E+00  0.45593999997E+02  0.45594000000E+02  0.51100000000E-03 0. -1.
         11   -1    0    0    0    0 -0.00000000000E+00 -0.00000000000E+00 -0.45593999997E+02  0.45594000000E+02  0.51100000000E-03 0.  1.
    9900012    2    1    2    0    0  0.22886245154E+02  0.29746881172E+02  0.24908962036E+02  0.46142317117E+02  0.99999941227E+01 0.  0.
        -12    1    1    2    0    0 -0.22886245154E+02 -0.29746881172E+02 -0.24908962036E+02  0.45045682883E+02  0.00000000000E+00 0.  1.
         11    1    3    3    0    0  0.92642543194E+01  0.10374815967E+02  0.11747508476E+02  0.18206239867E+02  0.51100000000E-03 0. -1.
        -11    1    3    3    0    0  0.27824289965E+01  0.60407880725E+00  0.24692113170E+01  0.37687965075E+01  0.51100000000E-03 0.  1.
         12    1    3    3    0    0  0.10839561838E+02  0.18767986398E+02  0.10692242243E+02  0.24167280742E+02  0.00000000000E+00 0. -1.
</event>
<event>
 7    1  0.4623443E-009  0.4614232E+02  0.7816164E-02  0.1320468E+00
        -11   -1    0    0    0    0  0.00000000000E+00  0.00000000000E+00  0.45593999997E+02  0.45594000000E+02  0.51100000000E-03 0. -1.
         11   -1    0    0    0    0 -0.00000000000E+00 -0.00000000000E+00 -0.45593999997E+02  0.45594000000E+02  0.51100000000E-03 0.  1.
    9900012    2    1    2    0    0  0.36698839284E+01 -0.28344423417E+02 -0.34817223972E+02  0.46142317943E+02  0.10000001655E+02 0.  0.
         12    1    1    2    0    0 -0.36698839284E+01  0.28344423417E+02  0.34817223972E+02  0.45045682057E+02  0.00000000000E+00 0. -1.
         11    1    3    3    0    0  0.21835600708E+01 -0.10689653920E+02 -0.13007839396E+02  0.16977647703E+02  0.51100000000E-03 0. -1.
        -11    1    3    3    0    0 -0.16823648155E+01 -0.88485961700E+01 -0.15335029462E+02  0.17784575745E+02  0.51100000000E-03 0.  1.
         12    1    3    3    0    0  0.31686886731E+01 -0.88061733270E+01 -0.64743551137E+01  0.11380094495E+02  0.00000000000E+00 0. -1.
</event>
<event>
 7    1  0.4623443E-009  0.4614232E+02  0.7816164E-02  0.1320468E+00
        -11   -1    0    0    0    0  0.00000000000E+00  0.00000000000E+00  0.45593999997E+02  0.45594000000E+02  0.51100000000E-03 0. -1.
         11   -1    0    0    0    0 -0.00000000000E+00 -0.00000000000E+00 -0.45593999997E+02  0.45594000000E+02  0.51100000000E-03 0.  1.
    9900012    2    1    2    0    0 -0.17529909315E+02 -0.27100452199E+01  0.41406175777E+02  0.46142318097E+02  0.10000003061E+02 0.  0.
        -12    1    1    2    0    0  0.17529909315E+02  0.27100452199E+01 -0.41406175777E+02  0.45045681903E+02  0.00000000000E+00 0.  1.
         11    1    3    3    0    0 -0.59080631201E+00  0.15828150778E+01  0.56818652216E+01  0.59277270793E+01  0.51100000000E-03 0. -1.
        -11    1    3    3    0    0 -0.13414472045E+01 -0.13655373089E+01  0.84054941634E+01  0.86207021255E+01  0.51100000000E-03 0.  1.
         12    1    3    3    0    0 -0.15597655798E+02 -0.29273229887E+01  0.27318816392E+02  0.31593888892E+02  0.00000000000E+00 0. -1.
</event>
<event>
 7    1  0.4623443E-009  0.4614232E+02  0.7816164E-02  0.1320468E+00
        -11   -1    0    0    0    0  0.00000000000E+00  0.00000000000E+00  0.45593999997E+02  0.45594000000E+02  0.51100000000E-03 0. -1.
         11   -1    0    0    0    0 -0.00000000000E+00 -0.00000000000E+00 -0.45593999997E+02  0.45594000000E+02  0.51100000000E-03 0.  1.
    9900012    2    1    2    0    0  0.23794208633E+02  0.16087505266E+02 -0.34700739963E+02  0.46142317142E+02  0.99999943546E+01 0.  0.
         12    1    1    2    0    0 -0.23794208633E+02 -0.16087505266E+02  0.34700739963E+02  0.45045682858E+02  0.00000000000E+00 0. -1.
         11    1    3    3    0    0  0.66925280066E+01  0.12987785143E+01 -0.10520552161E+02  0.12536298289E+02  0.51100000000E-03 0. -1.
        -11    1    3    3    0    0  0.12880814678E+02  0.82668761373E+01 -0.13562984637E+02  0.20450212233E+02  0.51100000000E-03 0.  1.
         12    1    3    3    0    0  0.42208659485E+01  0.65218506149E+01 -0.10617203164E+02  0.13155806620E+02  0.00000000000E+00 0. -1.
</event>
<event>
 7    1  0.4623443E-009  0.4614232E+02  0.7816164E-02  0.1320468E+00
        -11   -1    0    0    0    0  0.00000000000E+00  0.00000000000E+00  0.45593999997E+02  0.45594000000E+02  0.51100000000E-03 0. -1.
         11   -1    0    0    0    0 -0.00000000000E+00 -0.00000000000E+00 -0.45593999997E+02  0.45594000000E+02  0.51100000000E-03 0.  1.
    9900012    2    1    2    0    0 -0.10886798215E+02 -0.25709920791E+02 -0.35349555602E+02  0.46142317813E+02  0.10000000471E+02 0.  0.
         12    1    1    2    0    0  0.10886798215E+02  0.25709920791E+02  0.35349555602E+02  0.45045682187E+02  0.00000000000E+00 0. -1.
         11    1    3    3    0    0 -0.83647831434E+00  0.46797692613E+00 -0.17929351012E+01  0.20330555605E+01  0.51100000000E-03 0. -1.
        -11    1    3    3    0    0 -0.98328829686E+01 -0.18635538744E+02 -0.25270196433E+02  0.32902153725E+02  0.51100000000E-03 0.  1.
         12    1    3    3    0    0 -0.21743693229E+00 -0.75423589732E+01 -0.82864240683E+01  0.11207108527E+02  0.00000000000E+00 0. -1.
</event>
<event>
 7    1  0.4623443E-009  0.4614231E+02  0.7816164E-02  0.1320468E+00
        -11   -1    0    0    0    0  0.00000000000E+00  0.00000000000E+00  0.45593999997E+02  0.45594000000E+02  0.51100000000E-03 0. -1.
         11   -1    0    0    0    0 -0.00000000000E+00 -0.00000000000E+00 -0.45593999997E+02  0.45594000000E+02  0.51100000000E-03 0.  1.
    9900012    2    1    2    0    0 -0.17029880394E+02  0.41585355408E+01  0.41494625159E+02  0.46142310294E+02  0.99999319045E+01 0.  0.
        -12    1    1    2    0    0  0.17029880394E+02 -0.41585355408E+01 -0.41494625159E+02  0.45045689706E+02  0.00000000000E+00 0.  1.
         11    1    3    3    0    0 -0.35484379048E+01  0.14055154050E+01  0.36773066154E+01  0.52999499358E+01  0.51100000000E-03 0. -1.
        -11    1    3    3    0    0 -0.31351353961E+00 -0.14554868046E+01  0.53775010902E+01  0.55798074172E+01  0.51100000000E-03 0.  1.
         12    1    3    3    0    0 -0.13167928949E+02  0.42085069404E+01  0.32439817453E+02  0.35262552940E+02  0.00000000000E+00 0. -1.
</event>
<event>
 7    1  0.4623443E-009  0.4614232E+02  0.7816164E-02  0.1320468E+00
        -11   -1    0    0    0    0  0.00000000000E+00  0.00000000000E+00  0.45593999997E+02  0.45594000000E+02  0.51100000000E-03 0. -1.
         11   -1    0    0    0    0 -0.00000000000E+00 -0.00000000000E+00 -0.45593999997E+02  0.45594000000E+02  0.51100000000E-03 0.  1.
    9900012    2    1    2    0    0  0.45648557682E+01 -0.18946424926E+02  0.40611680183E+02  0.46142317711E+02  0.99999995412E+01 0.  0.
        -12    1    1    2    0    0 -0.45648557682E+01  0.18946424926E+02 -0.40611680183E+02  0.45045682289E+02  0.00000000000E+00 0.  1.
         11    1    3    3    0    0 -0.14715398332E+01 -0.10524662084E+02  0.24525190105E+02  0.26728615591E+02  0.51100000000E-03 0. -1.
        -11    1    3    3    0    0  0.49704946791E+01 -0.83606474762E+01  0.13724862315E+02  0.16821952604E+02  0.51100000000E-03 0.  1.
        -12    1    3    3    0    0  0.10659009223E+01 -0.61115364974E-01  0.23616277624E+01  0.25917495157E+01  0.00000000000E+00 0.  1.
</event>
<event>
 7    1  0.4623443E-009  0.4614232E+02  0.7816164E-02  0.1320468E+00
        -11   -1    0    0    0    0  0.00000000000E+00  0.00000000000E+00  0.45593999997E+02  0.45594000000E+02  0.51100000000E-03 0. -1.
         11   -1    0    0    0    0 -0.00000000000E+00 -0.00000000000E+00 -0.45593999997E+02  0.45594000000E+02  0.51100000000E-03 0.  1.
    9900012    2    1    2    0    0  0.32562786880E+01 -0.32336371551E+02 -0.31190852042E+02  0.46142317332E+02  0.99999960869E+01 0.  0.
         12    1    1    2    0    0 -0.32562786880E+01  0.32336371551E+02  0.31190852042E+02  0.45045682668E+02  0.00000000000E+00 0. -1.
         11    1    3    3    0    0 -0.13662030839E+01 -0.24110168342E+02 -0.22212880896E+02  0.32811260359E+02  0.51100000000E-03 0. -1.
        -11    1    3    3    0    0  0.39027972144E+01 -0.64017343466E+01 -0.53627211000E+01  0.92180695701E+01  0.51100000000E-03 0.  1.
         12    1    3    3    0    0  0.71968455756E+00 -0.18244688620E+01 -0.36152500451E+01  0.41129874033E+01  0.00000000000E+00 0. -1.
</event>
<event>
 7    1  0.4623443E-009  0.4614232E+02  0.7816164E-02  0.1320468E+00
        -11   -1    0    0    0    0  0.00000000000E+00  0.00000000000E+00  0.45593999997E+02  0.45594000000E+02  0.51100000000E-03 0. -1.
         11   -1    0    0    0    0 -0.00000000000E+00 -0.00000000000E+00 -0.45593999997E+02  0.45594000000E+02  0.51100000000E-03 0.  1.
    9900012    2    1    2    0    0  0.20753946203E+01  0.94400377605E+01  0.43996498111E+02  0.46142318500E+02  0.10000006738E+02 0.  0.
        -12    1    1    2    0    0 -0.20753946203E+01 -0.94400377605E+01 -0.43996498111E+02  0.45045681500E+02  0.00000000000E+00 0.  1.
         11    1    3    3    0    0 -0.17692984231E+01  0.13162963980E+01  0.15979293082E+02  0.16130742723E+02  0.51100000000E-03 0. -1.
        -11    1    3    3    0    0  0.28549918405E+01  0.30140444300E+00  0.72080973172E+01  0.77587686035E+01  0.51100000000E-03 0.  1.
         12    1    3    3    0    0  0.98970120293E+00  0.78223369195E+01  0.20809107712E+02  0.22252807174E+02  0.00000000000E+00 0. -1.
</event>
<event>
 7    1  0.4623443E-009  0.4614232E+02  0.7816164E-02  0.1320468E+00
        -11   -1    0    0    0    0  0.00000000000E+00  0.00000000000E+00  0.45593999997E+02  0.45594000000E+02  0.51100000000E-03 0.  1.
         11   -1    0    0    0    0 -0.00000000000E+00 -0.00000000000E+00 -0.45593999997E+02  0.45594000000E+02  0.51100000000E-03 0. -1.
    9900012    2    1    2    0    0 -0.17894274012E+02  0.24563220770E+02 -0.33249912352E+02  0.46142317316E+02  0.99999959445E+01 0.  0.
         12    1    1    2    0    0  0.17894274012E+02 -0.24563220770E+02  0.33249912352E+02  0.45045682684E+02  0.00000000000E+00 0. -1.
         11    1    3    3    0    0 -0.91553509754E+01  0.16996899351E+02 -0.17890962617E+02  0.26321124267E+02  0.51100000000E-03 0. -1.
        -11    1    3    3    0    0 -0.26192068411E+01  0.33261075563E+01 -0.23753772261E+01  0.48544467429E+01  0.51100000000E-03 0.  1.
        -12    1    3    3    0    0 -0.61197161951E+01  0.42402138625E+01 -0.12983572509E+02  0.14966746307E+02  0.00000000000E+00 0.  1.
</event>
<event>
 7    1  0.4623443E-009  0.4614232E+02  0.7816164E-02  0.1320468E+00
        -11   -1    0    0    0    0  0.00000000000E+00  0.00000000000E+00  0.45593999997E+02  0.45594000000E+02  0.51100000000E-03 0. -1.
         11   -1    0    0    0    0 -0.00000000000E+00 -0.00000000000E+00 -0.45593999997E+02  0.45594000000E+02  0.51100000000E-03 0.  1.
    9900012    2    1    2    0    0 -0.11758302264E+02 -0.84045846322E+01  0.42664022624E+02  0.46142317172E+02  0.99999946311E+01 0.  0.
        -12    1    1    2    0    0  0.11758302264E+02  0.84045846322E+01 -0.42664022624E+02  0.45045682828E+02  0.00000000000E+00 0.  1.
         11    1    3    3    0    0 -0.30586466919E+01 -0.60274447050E+01  0.24066378698E+02  0.24997519740E+02  0.51100000000E-03 0. -1.
        -11    1    3    3    0    0 -0.21852866523E+01 -0.41174888514E-01  0.13711544599E+01  0.25801623860E+01  0.51100000000E-03 0.  1.
         12    1    3    3    0    0 -0.65143689193E+01 -0.23359650386E+01  0.17226489466E+02  0.18564635046E+02  0.00000000000E+00 0. -1.
</event>
<event>
 7    1  0.4623443E-009  0.4614232E+02  0.7816164E-02  0.1320468E+00
        -11   -1    0    0    0    0  0.00000000000E+00  0.00000000000E+00  0.45593999997E+02  0.45594000000E+02  0.51100000000E-03 0. -1.
         11   -1    0    0    0    0 -0.00000000000E+00 -0.00000000000E+00 -0.45593999997E+02  0.45594000000E+02  0.51100000000E-03 0.  1.
    9900012    2    1    2    0    0  0.27149679082E+02 -0.50561976526E+01  0.35587113767E+02  0.46142324567E+02  0.10000062063E+02 0.  0.
        -12    1    1    2    0    0 -0.27149679082E+02  0.50561976526E+01 -0.35587113767E+02  0.45045675433E+02  0.00000000000E+00 0.  1.
         11    1    3    3    0    0  0.10133005276E+02 -0.19743048908E+01  0.16564644913E+02  0.19518277000E+02  0.51100000000E-03 0.  1.
        -11    1    3    3    0    0  0.43223882895E+01 -0.45674712333E+00  0.97838905098E+01  0.10705894275E+02  0.51100000000E-03 0. -1.
         12    1    3    3    0    0  0.12694285516E+02 -0.26251456385E+01  0.92385783446E+01  0.15918153292E+02  0.00000000000E+00 0. -1.
</event>
<event>
 7    1  0.4623443E-009  0.4614232E+02  0.7816164E-02  0.1320468E+00
        -11   -1    0    0    0    0  0.00000000000E+00  0.00000000000E+00  0.45593999997E+02  0.45594000000E+02  0.51100000000E-03 0. -1.
         11   -1    0    0    0    0 -0.00000000000E+00 -0.00000000000E+00 -0.45593999997E+02  0.45594000000E+02  0.51100000000E-03 0.  1.
    9900012    2    1    2    0    0  0.12091853134E+01  0.41039229971E+02  0.18531942450E+02  0.46142318556E+02  0.10000007249E+02 0.  0.
        -12    1    1    2    0    0 -0.12091853134E+01 -0.41039229971E+02 -0.18531942450E+02  0.45045681444E+02  0.00000000000E+00 0.  1.
         11    1    3    3    0    0  0.67073314820E+00  0.25882174187E+02  0.14334749582E+02  0.29594287784E+02  0.51100000000E-03 0. -1.
        -11    1    3    3    0    0  0.20146667740E+01  0.32727196541E+01 -0.44452326314E-01  0.38433777351E+01  0.51100000000E-03 0.  1.
         12    1    3    3    0    0 -0.14762146088E+01  0.11884336131E+02  0.42416451944E+01  0.12704653037E+02  0.00000000000E+00 0. -1.
</event>
<event>
 7    1  0.4623443E-009  0.4614232E+02  0.7816164E-02  0.1320468E+00
        -11   -1    0    0    0    0  0.00000000000E+00  0.00000000000E+00  0.45593999997E+02  0.45594000000E+02  0.51100000000E-03 0. -1.
         11   -1    0    0    0    0 -0.00000000000E+00 -0.00000000000E+00 -0.45593999997E+02  0.45594000000E+02  0.51100000000E-03 0.  1.
    9900012    2    1    2    0    0  0.17624371737E+02 -0.45261741776E+01  0.41206903610E+02  0.46142316112E+02  0.99999849659E+01 0.  0.
        -12    1    1    2    0    0 -0.17624371737E+02  0.45261741776E+01 -0.41206903610E+02  0.45045683888E+02  0.00000000000E+00 0.  1.
         11    1    3    3    0    0  0.21675539019E+00 -0.78140032164E+00  0.11831344005E-01  0.81099297386E+00  0.51100000000E-03 0.  1.
        -11    1    3    3    0    0  0.65335224661E+01  0.15810361284E+01  0.12670192327E+02  0.14342955236E+02  0.51100000000E-03 0. -1.
         12    1    3    3    0    0  0.10874093880E+02 -0.53258099844E+01  0.28524879939E+02  0.30988367902E+02  0.00000000000E+00 0. -1.
</event>
<event>
 7    1  0.4623443E-009  0.4614232E+02  0.7816164E-02  0.1320468E+00
        -11   -1    0    0    0    0  0.00000000000E+00  0.00000000000E+00  0.45593999997E+02  0.45594000000E+02  0.51100000000E-03 0. -1.
         11   -1    0    0    0    0 -0.00000000000E+00 -0.00000000000E+00 -0.45593999997E+02  0.45594000000E+02  0.51100000000E-03 0.  1.
    9900012    2    1    2    0    0 -0.25669672028E+01  0.11547248348E+02  0.43464759261E+02  0.46142316936E+02  0.99999924798E+01 0.  0.
        -12    1    1    2    0    0  0.25669672028E+01 -0.11547248348E+02 -0.43464759261E+02  0.45045683064E+02  0.00000000000E+00 0.  1.
         11    1    3    3    0    0 -0.42269217854E+01  0.61008532493E+01  0.33199998672E+02  0.34019511904E+02  0.51100000000E-03 0. -1.
        -11    1    3    3    0    0  0.21039400720E+01  0.17952412812E+01  0.41533775534E+01  0.49899900247E+01  0.51100000000E-03 0.  1.
         12    1    3    3    0    0 -0.44398548937E+00  0.36511538178E+01  0.61113830359E+01  0.71328150073E+01  0.00000000000E+00 0. -1.
</event>
<event>
 7    1  0.4623443E-009  0.4614232E+02  0.7816164E-02  0.1320468E+00
        -11   -1    0    0    0    0  0.00000000000E+00  0.00000000000E+00  0.45593999997E+02  0.45594000000E+02  0.51100000000E-03 0. -1.
         11   -1    0    0    0    0 -0.00000000000E+00 -0.00000000000E+00 -0.45593999997E+02  0.45594000000E+02  0.51100000000E-03 0.  1.
    9900012    2    1    2    0    0 -0.16625569505E+02 -0.12747192645E+02  0.39877476779E+02  0.46142316123E+02  0.99999850621E+01 0.  0.
        -12    1    1    2    0    0  0.16625569505E+02  0.12747192645E+02 -0.39877476779E+02  0.45045683877E+02  0.00000000000E+00 0.  1.
         11    1    3    3    0    0 -0.10213478740E+02 -0.32006346322E+01  0.23702800991E+02  0.26007344830E+02  0.51100000000E-03 0. -1.
        -11    1    3    3    0    0 -0.25267669440E+01 -0.24314371043E+01  0.27665077202E+01  0.44665426013E+01  0.51100000000E-03 0.  1.
         12    1    3    3    0    0 -0.38853238209E+01 -0.71151209088E+01  0.13408168068E+02  0.15668428692E+02  0.00000000000E+00 0. -1.
</event>
<event>
 7    1  0.4623443E-009  0.4614232E+02  0.7816164E-02  0.1320468E+00
        -11   -1    0    0    0    0  0.00000000000E+00  0.00000000000E+00  0.45593999997E+02  0.45594000000E+02  0.51100000000E-03 0. -1.
         11   -1    0    0    0    0 -0.00000000000E+00 -0.00000000000E+00 -0.45593999997E+02  0.45594000000E+02  0.51100000000E-03 0.  1.
    9900012    2    1    2    0    0 -0.35715735076E+02  0.20383800494E+02 -0.18384787961E+02  0.46142317821E+02  0.10000000550E+02 0.  0.
         12    1    1    2    0    0  0.35715735076E+02 -0.20383800494E+02  0.18384787961E+02  0.45045682179E+02  0.00000000000E+00 0. -1.
         11    1    3    3    0    0 -0.69023830835E+01  0.41144098046E+00 -0.22656472380E+01  0.72763544154E+01  0.51100000000E-03 0. -1.
        -11    1    3    3    0    0 -0.16029261834E+02  0.12686070596E+02 -0.72749505157E+01  0.21697892234E+02  0.51100000000E-03 0.  1.
         12    1    3    3    0    0 -0.12784090158E+02  0.72862889173E+01 -0.88441902077E+01  0.17168071172E+02  0.00000000000E+00 0. -1.
</event>
<event>
 7    1  0.4623443E-009  0.4614232E+02  0.7816164E-02  0.1320468E+00
        -11   -1    0    0    0    0  0.00000000000E+00  0.00000000000E+00  0.45593999997E+02  0.45594000000E+02  0.51100000000E-03 0. -1.
         11   -1    0    0    0    0 -0.00000000000E+00 -0.00000000000E+00 -0.45593999997E+02  0.45594000000E+02  0.51100000000E-03 0.  1.
    9900012    2    1    2    0    0 -0.19566203647E+01  0.33189838386E+02 -0.30392755242E+02  0.46142319779E+02  0.10000018404E+02 0.  0.
         12    1    1    2    0    0  0.19566203647E+01 -0.33189838386E+02  0.30392755242E+02  0.45045680221E+02  0.00000000000E+00 0. -1.
         11    1    3    3    0    0  0.75742236738E+00  0.13652332143E+02 -0.93797457169E+01  0.16581299454E+02  0.51100000000E-03 0. -1.
        -11    1    3    3    0    0 -0.33931597712E+01  0.74093893323E+01 -0.53868389396E+01  0.97688595820E+01  0.51100000000E-03 0.  1.
        -12    1    3    3    0    0  0.67911703911E+00  0.12128116911E+02 -0.15626170585E+02  0.19792160744E+02  0.00000000000E+00 0.  1.
</event>
<event>
 7    1  0.4623443E-009  0.4614232E+02  0.7816164E-02  0.1320468E+00
        -11   -1    0    0    0    0  0.00000000000E+00  0.00000000000E+00  0.45593999997E+02  0.45594000000E+02  0.51100000000E-03 0.  1.
         11   -1    0    0    0    0 -0.00000000000E+00 -0.00000000000E+00 -0.45593999997E+02  0.45594000000E+02  0.51100000000E-03 0. -1.
    9900012    2    1    2    0    0 -0.44992542828E+02  0.16609819443E+01  0.14232322047E+01  0.46142319174E+02  0.10000012884E+02 0.  0.
        -12    1    1    2    0    0  0.44992542828E+02 -0.16609819443E+01 -0.14232322047E+01  0.45045680826E+02  0.00000000000E+00 0.  1.
         11    1    3    3    0    0 -0.13863818703E+02  0.21375190150E+01 -0.17862321277E+01  0.14140901033E+02  0.51100000000E-03 0. -1.
        -11    1    3    3    0    0 -0.20405975580E+02  0.15240582949E+01  0.46906139410E+01  0.20993533587E+02  0.51100000000E-03 0.  1.
        -12    1    3    3    0    0 -0.10722748545E+02 -0.20005953656E+01 -0.14811496087E+01  0.11007884553E+02  0.00000000000E+00 0.  1.
</event>
<event>
 7    1  0.4623443E-009  0.4614232E+02  0.7816164E-02  0.1320468E+00
        -11   -1    0    0    0    0  0.00000000000E+00  0.00000000000E+00  0.45593999997E+02  0.45594000000E+02  0.51100000000E-03 0. -1.
         11   -1    0    0    0    0 -0.00000000000E+00 -0.00000000000E+00 -0.45593999997E+02  0.45594000000E+02  0.51100000000E-03 0.  1.
    9900012    2    1    2    0    0 -0.35838666860E+02 -0.91538165089E+01  0.25708190760E+02  0.46142317952E+02  0.10000001743E+02 0.  0.
        -12    1    1    2    0    0  0.35838666860E+02  0.91538165089E+01 -0.25708190760E+02  0.45045682048E+02  0.00000000000E+00 0.  1.
         11    1    3    3    0    0 -0.12515946595E+01  0.37214202587E+00  0.17120611149E+01  0.21531679919E+01  0.51100000000E-03 0. -1.
        -11    1    3    3    0    0 -0.12502879504E+01 -0.24496071709E+00 -0.72078568690E+00  0.14638162383E+01  0.51100000000E-03 0.  1.
         12    1    3    3    0    0 -0.33336784250E+02 -0.92809978176E+01  0.24716915332E+02  0.42525333722E+02  0.00000000000E+00 0. -1.
</event>
<event>
 7    1  0.4623443E-009  0.4614232E+02  0.7816164E-02  0.1320468E+00
        -11   -1    0    0    0    0  0.00000000000E+00  0.00000000000E+00  0.45593999997E+02  0.45594000000E+02  0.51100000000E-03 0. -1.
         11   -1    0    0    0    0 -0.00000000000E+00 -0.00000000000E+00 -0.45593999997E+02  0.45594000000E+02  0.51100000000E-03 0.  1.
    9900012    2    1    2    0    0 -0.27718051300E+01  0.21209997812E+02  0.39642983903E+02  0.46142322254E+02  0.10000040968E+02 0.  0.
        -12    1    1    2    0    0  0.27718051300E+01 -0.21209997812E+02 -0.39642983903E+02  0.45045677746E+02  0.00000000000E+00 0.  1.
         11    1    3    3    0    0 -0.28233616071E+01  0.14826496741E+02  0.20644064561E+02  0.25572911024E+02  0.51100000000E-03 0. -1.
        -11    1    3    3    0    0  0.16971159719E+01  0.50457496572E+00  0.46579988498E+01  0.49831468034E+01  0.51100000000E-03 0.  1.
        -12    1    3    3    0    0 -0.16455594949E+01  0.58789261053E+01  0.14340920492E+02  0.15586264426E+02  0.00000000000E+00 0.  1.
</event>
<event>
 7    1  0.5674611E-009  0.4614232E+02  0.7816164E-02  0.1320468E+00
        -11   -1    0    0    0    0  0.00000000000E+00  0.00000000000E+00  0.45593999997E+02  0.45594000000E+02  0.51100000000E-03 0. -1.
         11   -1    0    0    0    0 -0.00000000000E+00 -0.00000000000E+00 -0.45593999997E+02  0.45594000000E+02  0.51100000000E-03 0.  1.
    9900012    2    1    2    0    0  0.49176002501E+01  0.26001409643E+02 -0.36453495427E+02  0.46142318470E+02  0.10000006469E+02 0.  0.
         12    1    1    2    0    0 -0.49176002501E+01 -0.26001409643E+02  0.36453495427E+02  0.45045681530E+02  0.00000000000E+00 0. -1.
         11    1    3    3    0    0  0.25513832418E+01  0.64435766041E+01 -0.12091354108E+02  0.13936645232E+02  0.51100000000E-03 0. -1.
        -11    1    3    3    0    0  0.49347843271E+01  0.15405969403E+02 -0.19001488600E+02  0.24955010697E+02  0.51100000000E-03 0.  1.
         12    1    3    3    0    0 -0.25685673188E+01  0.41518636357E+01 -0.53606527185E+01  0.72506625413E+01  0.00000000000E+00 0. -1.
</event>
<event>
 7    1  0.4623443E-009  0.4614232E+02  0.7816164E-02  0.1320468E+00
        -11   -1    0    0    0    0  0.00000000000E+00  0.00000000000E+00  0.45593999997E+02  0.45594000000E+02  0.51100000000E-03 0. -1.
         11   -1    0    0    0    0 -0.00000000000E+00 -0.00000000000E+00 -0.45593999997E+02  0.45594000000E+02  0.51100000000E-03 0.  1.
    9900012    2    1    2    0    0 -0.10575600759E+02  0.32283461458E+02  0.29581215193E+02  0.46142317550E+02  0.99999980710E+01 0.  0.
        -12    1    1    2    0    0  0.10575600759E+02 -0.32283461458E+02 -0.29581215193E+02  0.45045682450E+02  0.00000000000E+00 0.  1.
         11    1    3    3    0    0 -0.10220255049E+01  0.91430682409E+01  0.97995666242E+01  0.13441418797E+02  0.51100000000E-03 0. -1.
        -11    1    3    3    0    0 -0.15078744016E+01  0.69775111124E+01  0.96318194499E+01  0.11988798635E+02  0.51100000000E-03 0.  1.
         12    1    3    3    0    0 -0.80457008529E+01  0.16162882104E+02  0.10149829119E+02  0.20712100118E+02  0.00000000000E+00 0. -1.
</event>
<event>
 7    1  0.4623443E-009  0.4614232E+02  0.7816164E-02  0.1320468E+00
        -11   -1    0    0    0    0  0.00000000000E+00  0.00000000000E+00  0.45593999997E+02  0.45594000000E+02  0.51100000000E-03 0. -1.
         11   -1    0    0    0    0 -0.00000000000E+00 -0.00000000000E+00 -0.45593999997E+02  0.45594000000E+02  0.51100000000E-03 0.  1.
    9900012    2    1    2    0    0  0.40694734734E+02 -0.63261632877E+01 -0.18249155125E+02  0.46142318300E+02  0.10000004917E+02 0.  0.
         12    1    1    2    0    0 -0.40694734734E+02  0.63261632877E+01  0.18249155125E+02  0.45045681700E+02  0.00000000000E+00 0. -1.
         11    1    3    3    0    0  0.38567447901E+00  0.56224291826E+00  0.51230960299E+00  0.85283251188E+00  0.51100000000E-03 0.  1.
        -11    1    3    3    0    0  0.26761375613E+01  0.83456200890E+00 -0.12371793654E+01  0.30641179867E+01  0.51100000000E-03 0. -1.
        -12    1    3    3    0    0  0.37632922694E+02 -0.77229682149E+01 -0.17524285362E+02  0.42225367802E+02  0.00000000000E+00 0.  1.
</event>
<event>
 7    1  0.4623443E-009  0.4614232E+02  0.7816164E-02  0.1320468E+00
        -11   -1    0    0    0    0  0.00000000000E+00  0.00000000000E+00  0.45593999997E+02  0.45594000000E+02  0.51100000000E-03 0. -1.
         11   -1    0    0    0    0 -0.00000000000E+00 -0.00000000000E+00 -0.45593999997E+02  0.45594000000E+02  0.51100000000E-03 0.  1.
    9900012    2    1    2    0    0  0.37257549430E+02  0.13502311827E+02 -0.21416723896E+02  0.46142317892E+02  0.10000001191E+02 0.  0.
         12    1    1    2    0    0 -0.37257549430E+02 -0.13502311827E+02  0.21416723896E+02  0.45045682108E+02  0.00000000000E+00 0. -1.
         11    1    3    3    0    0  0.51891905389E+01  0.21392388394E+01 -0.46953409815E+00  0.56324509578E+01  0.51100000000E-03 0. -1.
        -11    1    3    3    0    0  0.14693753267E+02  0.17208490077E+01 -0.84919372260E+01  0.17058156538E+02  0.51100000000E-03 0.  1.
        -12    1    3    3    0    0  0.17374605624E+02  0.96422239797E+01 -0.12455252572E+02  0.23451710396E+02  0.00000000000E+00 0.  1.
</event>
<event>
 7    1  0.4623443E-009  0.4614232E+02  0.7816164E-02  0.1320468E+00
        -11   -1    0    0    0    0  0.00000000000E+00  0.00000000000E+00  0.45593999997E+02  0.45594000000E+02  0.51100000000E-03 0. -1.
         11   -1    0    0    0    0 -0.00000000000E+00 -0.00000000000E+00 -0.45593999997E+02  0.45594000000E+02  0.51100000000E-03 0.  1.
    9900012    2    1    2    0    0 -0.27375538965E+02 -0.17715428653E+01 -0.35728909151E+02  0.46142318222E+02  0.10000004200E+02 0.  0.
         12    1    1    2    0    0  0.27375538965E+02  0.17715428653E+01  0.35728909151E+02  0.45045681778E+02  0.00000000000E+00 0. -1.
         11    1    3    3    0    0 -0.66819326976E+01 -0.72226443510E+00 -0.98365992328E+01  0.11913377994E+02  0.51100000000E-03 0. -1.
        -11    1    3    3    0    0 -0.68359419814E+01 -0.39381506669E+01 -0.12242765619E+02  0.14564492567E+02  0.51100000000E-03 0.  1.
         12    1    3    3    0    0 -0.13857664286E+02  0.28888722368E+01 -0.13649544299E+02  0.19664447662E+02  0.00000000000E+00 0. -1.
</event>
<event>
 7    1  0.4623443E-009  0.4614232E+02  0.7816164E-02  0.1320468E+00
        -11   -1    0    0    0    0  0.00000000000E+00  0.00000000000E+00  0.45593999997E+02  0.45594000000E+02  0.51100000000E-03 0. -1.
         11   -1    0    0    0    0 -0.00000000000E+00 -0.00000000000E+00 -0.45593999997E+02  0.45594000000E+02  0.51100000000E-03 0.  1.
    9900012    2    1    2    0    0  0.50464215054E+01  0.18968527048E+02  0.40544321388E+02  0.46142318907E+02  0.10000010445E+02 0.  0.
        -12    1    1    2    0    0 -0.50464215054E+01 -0.18968527048E+02 -0.40544321388E+02  0.45045681093E+02  0.00000000000E+00 0.  1.
         11    1    3    3    0    0  0.18279828703E+01  0.35767426153E+01  0.24870907412E+01  0.47244290371E+01  0.51100000000E-03 0.  1.
        -11    1    3    3    0    0  0.24145428955E+00 -0.15682584086E+00  0.22346663854E+01  0.22531375087E+01  0.51100000000E-03 0. -1.
        -12    1    3    3    0    0  0.29769843455E+01  0.15548610274E+02  0.35822564261E+02  0.39164752361E+02  0.00000000000E+00 0.  1.
</event>
<event>
 7    1  0.4623443E-009  0.4614232E+02  0.7816164E-02  0.1320468E+00
        -11   -1    0    0    0    0  0.00000000000E+00  0.00000000000E+00  0.45593999997E+02  0.45594000000E+02  0.51100000000E-03 0. -1.
         11   -1    0    0    0    0 -0.00000000000E+00 -0.00000000000E+00 -0.45593999997E+02  0.45594000000E+02  0.51100000000E-03 0.  1.
    9900012    2    1    2    0    0 -0.70068656038E+01  0.31126870088E+02  0.31798353447E+02  0.46142317754E+02  0.99999999354E+01 0.  0.
        -12    1    1    2    0    0  0.70068656038E+01 -0.31126870088E+02 -0.31798353447E+02  0.45045682246E+02  0.00000000000E+00 0.  1.
         11    1    3    3    0    0  0.45891038432E+00  0.10202321367E+02  0.91322821650E+01  0.13700238605E+02  0.51100000000E-03 0. -1.
        -11    1    3    3    0    0 -0.43202536278E+01  0.17846709295E+02  0.15485521835E+02  0.24020220874E+02  0.51100000000E-03 0.  1.
        -12    1    3    3    0    0 -0.31455223604E+01  0.30778394257E+01  0.71805494470E+01  0.84218582754E+01  0.00000000000E+00 0.  1.
</event>
<event>
 7    1  0.4623443E-009  0.4614232E+02  0.7816164E-02  0.1320468E+00
        -11   -1    0    0    0    0  0.00000000000E+00  0.00000000000E+00  0.45593999997E+02  0.45594000000E+02  0.51100000000E-03 0. -1.
         11   -1    0    0    0    0 -0.00000000000E+00 -0.00000000000E+00 -0.45593999997E+02  0.45594000000E+02  0.51100000000E-03 0.  1.
    9900012    2    1    2    0    0 -0.11850809843E+02  0.79971574817E+01 -0.42716709782E+02  0.46142317450E+02  0.99999971659E+01 0.  0.
         12    1    1    2    0    0  0.11850809843E+02 -0.79971574817E+01  0.42716709782E+02  0.45045682550E+02  0.00000000000E+00 0. -1.
         11    1    3    3    0    0 -0.31264459718E+01  0.39079885726E+01 -0.59928538663E+01  0.78077741272E+01  0.51100000000E-03 0. -1.
        -11    1    3    3    0    0 -0.63828401591E+01  0.51249649774E+01 -0.31029288970E+02  0.32090850546E+02  0.51100000000E-03 0.  1.
        -12    1    3    3    0    0 -0.23415237125E+01 -0.10357960683E+01 -0.56945669456E+01  0.62436927767E+01  0.00000000000E+00 0.  1.
</event>
<event>
 7    1  0.4623443E-009  0.4614232E+02  0.7816164E-02  0.1320468E+00
        -11   -1    0    0    0    0  0.00000000000E+00  0.00000000000E+00  0.45593999997E+02  0.45594000000E+02  0.51100000000E-03 0. -1.
         11   -1    0    0    0    0 -0.00000000000E+00 -0.00000000000E+00 -0.45593999997E+02  0.45594000000E+02  0.51100000000E-03 0.  1.
    9900012    2    1    2    0    0  0.18705218545E+02  0.40713185486E+02  0.46545573878E+01  0.46142316769E+02  0.99999909553E+01 0.  0.
         12    1    1    2    0    0 -0.18705218545E+02 -0.40713185486E+02 -0.46545573878E+01  0.45045683231E+02  0.00000000000E+00 0. -1.
         11    1    3    3    0    0  0.99681754850E+01  0.20228410462E+02  0.42253893958E+01  0.22943561802E+02  0.51100000000E-03 0. -1.
        -11    1    3    3    0    0  0.14702780247E+01  0.75862399217E+01  0.27726261596E+01  0.82097630722E+01  0.51100000000E-03 0.  1.
        -12    1    3    3    0    0  0.72667650356E+01  0.12898535102E+02 -0.23434581676E+01  0.14988991896E+02  0.00000000000E+00 0.  1.
</event>
<event>
 7    1  0.4623443E-009  0.4614232E+02  0.7816164E-02  0.1320468E+00
        -11   -1    0    0    0    0  0.00000000000E+00  0.00000000000E+00  0.45593999997E+02  0.45594000000E+02  0.51100000000E-03 0. -1.
         11   -1    0    0    0    0 -0.00000000000E+00 -0.00000000000E+00 -0.45593999997E+02  0.45594000000E+02  0.51100000000E-03 0.  1.
    9900012    2    1    2    0    0 -0.44712946771E+02 -0.24016627327E+01 -0.49089620698E+01  0.46142317616E+02  0.99999986797E+01 0.  0.
         12    1    1    2    0    0  0.44712946771E+02  0.24016627327E+01  0.49089620698E+01  0.45045682384E+02  0.00000000000E+00 0. -1.
         11    1    3    3    0    0 -0.38649188856E+00 -0.94946470769E+00  0.35120043610E+00  0.10836056564E+01  0.51100000000E-03 0. -1.
        -11    1    3    3    0    0 -0.38185146557E+02 -0.93022809289E-01 -0.62437516757E+01  0.38692357205E+02  0.51100000000E-03 0.  1.
        -12    1    3    3    0    0 -0.61413083249E+01 -0.13591752157E+01  0.98358916972E+00  0.63663547548E+01  0.00000000000E+00 0.  1.
</event>
<event>
 7    1  0.4623443E-009  0.4614232E+02  0.7816164E-02  0.1320468E+00
        -11   -1    0    0    0    0  0.00000000000E+00  0.00000000000E+00  0.45593999997E+02  0.45594000000E+02  0.51100000000E-03 0. -1.
         11   -1    0    0    0    0 -0.00000000000E+00 -0.00000000000E+00 -0.45593999997E+02  0.45594000000E+02  0.51100000000E-03 0.  1.
    9900012    2    1    2    0    0  0.18329088656E+02 -0.18061816307E+02  0.36971999873E+02  0.46142317922E+02  0.10000001463E+02 0.  0.
        -12    1    1    2    0    0 -0.18329088656E+02  0.18061816307E+02 -0.36971999873E+02  0.45045682078E+02  0.00000000000E+00 0.  1.
         11    1    3    3    0    0  0.72965463025E+01 -0.62116957279E+01  0.18238959885E+02  0.20603019432E+02  0.51100000000E-03 0. -1.
        -11    1    3    3    0    0  0.10207309323E+02 -0.11219511464E+02  0.13826696923E+02  0.20524233217E+02  0.51100000000E-03 0.  1.
        -12    1    3    3    0    0  0.82523303048E+00 -0.63060911587E+00  0.49063430653E+01  0.50150652723E+01  0.00000000000E+00 0.  1.
</event>
<event>
 7    1  0.4623443E-009  0.4614232E+02  0.7816164E-02  0.1320468E+00
        -11   -1    0    0    0    0  0.00000000000E+00  0.00000000000E+00  0.45593999997E+02  0.45594000000E+02  0.51100000000E-03 0. -1.
         11   -1    0    0    0    0 -0.00000000000E+00 -0.00000000000E+00 -0.45593999997E+02  0.45594000000E+02  0.51100000000E-03 0.  1.
    9900012    2    1    2    0    0  0.35120397143E+02  0.27155312666E+02  0.76328359593E+01  0.46142317784E+02  0.10000000213E+02 0.  0.
        -12    1    1    2    0    0 -0.35120397143E+02 -0.27155312666E+02 -0.76328359593E+01  0.45045682216E+02  0.00000000000E+00 0.  1.
         11    1    3    3    0    0  0.11365208896E+02  0.72830774093E+01  0.14780675308E+01  0.13579244224E+02  0.51100000000E-03 0. -1.
        -11    1    3    3    0    0  0.17636422904E+02  0.18255994658E+02  0.32196112570E+01  0.25586923432E+02  0.51100000000E-03 0.  1.
        -12    1    3    3    0    0  0.61187653434E+01  0.16162405985E+01  0.29351571715E+01  0.69761501289E+01  0.00000000000E+00 0.  1.
</event>
<event>
 7    1  0.4623443E-009  0.4614232E+02  0.7816164E-02  0.1320468E+00
        -11   -1    0    0    0    0  0.00000000000E+00  0.00000000000E+00  0.45593999997E+02  0.45594000000E+02  0.51100000000E-03 0. -1.
         11   -1    0    0    0    0 -0.00000000000E+00 -0.00000000000E+00 -0.45593999997E+02  0.45594000000E+02  0.51100000000E-03 0.  1.
    9900012    2    1    2    0    0  0.21764747442E+02 -0.11615760341E+02 -0.37689301052E+02  0.46142317263E+02  0.99999954562E+01 0.  0.
         12    1    1    2    0    0 -0.21764747442E+02  0.11615760341E+02  0.37689301052E+02  0.45045682737E+02  0.00000000000E+00 0. -1.
         11    1    3    3    0    0  0.11859773891E+01 -0.15912039374E+01 -0.52282006069E+01  0.55921868875E+01  0.51100000000E-03 0. -1.
        -11    1    3    3    0    0  0.21558063177E+01 -0.17147744154E+01 -0.98284593499E+01  0.10207182061E+02  0.51100000000E-03 0.  1.
         12    1    3    3    0    0  0.18422963735E+02 -0.83097819880E+01 -0.22632641095E+02  0.30342948314E+02  0.00000000000E+00 0. -1.
</event>
<event>
 7    1  0.4623443E-009  0.4614232E+02  0.7816164E-02  0.1320468E+00
        -11   -1    0    0    0    0  0.00000000000E+00  0.00000000000E+00  0.45593999997E+02  0.45594000000E+02  0.51100000000E-03 0. -1.
         11   -1    0    0    0    0 -0.00000000000E+00 -0.00000000000E+00 -0.45593999997E+02  0.45594000000E+02  0.51100000000E-03 0.  1.
    9900012    2    1    2    0    0 -0.10131312948E+02 -0.16256802100E+02  0.40769919793E+02  0.46142317893E+02  0.10000001198E+02 0.  0.
        -12    1    1    2    0    0  0.10131312948E+02  0.16256802100E+02 -0.40769919793E+02  0.45045682107E+02  0.00000000000E+00 0.  1.
         11    1    3    3    0    0 -0.38128639920E+01 -0.77095673546E+01  0.21683239247E+02  0.23326770567E+02  0.51100000000E-03 0. -1.
        -11    1    3    3    0    0 -0.53711958362E+01 -0.62183343635E+01  0.18487018981E+02  0.20230850156E+02  0.51100000000E-03 0.  1.
        -12    1    3    3    0    0 -0.94725312003E+00 -0.23289003822E+01  0.59966156569E+00  0.25846971693E+01  0.00000000000E+00 0.  1.
</event>
<event>
 7    1  0.4623443E-009  0.4614232E+02  0.7816164E-02  0.1320468E+00
        -11   -1    0    0    0    0  0.00000000000E+00  0.00000000000E+00  0.45593999997E+02  0.45594000000E+02  0.51100000000E-03 0. -1.
         11   -1    0    0    0    0 -0.00000000000E+00 -0.00000000000E+00 -0.45593999997E+02  0.45594000000E+02  0.51100000000E-03 0.  1.
    9900012    2    1    2    0    0 -0.12126600543E+02 -0.53624613853E+01 -0.43050006707E+02  0.46142317518E+02  0.99999977825E+01 0.  0.
         12    1    1    2    0    0  0.12126600543E+02  0.53624613853E+01  0.43050006707E+02  0.45045682482E+02  0.00000000000E+00 0. -1.
         11    1    3    3    0    0  0.37546356671E+00  0.79990095135E+00 -0.21150250045E+01  0.22921922809E+01  0.51100000000E-03 0. -1.
        -11    1    3    3    0    0 -0.85315742655E+01 -0.34556783521E+01 -0.16021892834E+02  0.18477838688E+02  0.51100000000E-03 0.  1.
         12    1    3    3    0    0 -0.39704898439E+01 -0.27066839846E+01 -0.24913088868E+02  0.25372286549E+02  0.00000000000E+00 0. -1.
</event>
<event>
 7    1  0.4623443E-009  0.4614232E+02  0.7816164E-02  0.1320468E+00
        -11   -1    0    0    0    0  0.00000000000E+00  0.00000000000E+00  0.45593999997E+02  0.45594000000E+02  0.51100000000E-03 0. -1.
         11   -1    0    0    0    0 -0.00000000000E+00 -0.00000000000E+00 -0.45593999997E+02  0.45594000000E+02  0.51100000000E-03 0.  1.
    9900012    2    1    2    0    0 -0.21810270204E+01 -0.25205014040E+02  0.37270147264E+02  0.46142317758E+02  0.99999999689E+01 0.  0.
        -12    1    1    2    0    0  0.21810270204E+01  0.25205014040E+02 -0.37270147264E+02  0.45045682242E+02  0.00000000000E+00 0.  1.
         11    1    3    3    0    0 -0.53919975053E+00 -0.19353245580E+02  0.24423858017E+02  0.31166708064E+02  0.51100000000E-03 0. -1.
        -11    1    3    3    0    0 -0.13762166088E+01 -0.43679277476E+01  0.42489140667E+01  0.62470821965E+01  0.51100000000E-03 0.  1.
         12    1    3    3    0    0 -0.26561066107E+00 -0.14838407121E+01  0.85973751799E+01  0.87285274970E+01  0.00000000000E+00 0. -1.
</event>
<event>
 7    1  0.4623443E-009  0.4614231E+02  0.7816164E-02  0.1320468E+00
        -11   -1    0    0    0    0  0.00000000000E+00  0.00000000000E+00  0.45593999997E+02  0.45594000000E+02  0.51100000000E-03 0.  1.
         11   -1    0    0    0    0 -0.00000000000E+00 -0.00000000000E+00 -0.45593999997E+02  0.45594000000E+02  0.51100000000E-03 0. -1.
    9900012    2    1    2    0    0  0.36668930989E+02  0.14295336322E+02 -0.21912255869E+02  0.46142310998E+02  0.99999383284E+01 0.  0.
         12    1    1    2    0    0 -0.36668930989E+02 -0.14295336322E+02  0.21912255869E+02  0.45045689002E+02  0.00000000000E+00 0. -1.
         11    1    3    3    0    0  0.11459811749E+02  0.22337129113E+01 -0.54604233380E+01  0.12889258395E+02  0.51100000000E-03 0. -1.
        -11    1    3    3    0    0  0.16614499858E+02  0.39505526385E+01 -0.99494579342E+01  0.19764619529E+02  0.51100000000E-03 0.  1.
         12    1    3    3    0    0  0.85946193816E+01  0.81110707722E+01 -0.65023745963E+01  0.13488433073E+02  0.00000000000E+00 0. -1.
</event>
<event>
 7    1  0.4623443E-009  0.4614231E+02  0.7816164E-02  0.1320468E+00
        -11   -1    0    0    0    0  0.00000000000E+00  0.00000000000E+00  0.45593999997E+02  0.45594000000E+02  0.51100000000E-03 0. -1.
         11   -1    0    0    0    0 -0.00000000000E+00 -0.00000000000E+00 -0.45593999997E+02  0.45594000000E+02  0.51100000000E-03 0.  1.
    9900012    2    1    2    0    0  0.26646838232E+02 -0.20410207420E+02  0.30041358223E+02  0.46142314762E+02  0.99999726547E+01 0.  0.
        -12    1    1    2    0    0 -0.26646838232E+02  0.20410207420E+02 -0.30041358223E+02  0.45045685238E+02  0.00000000000E+00 0.  1.
         11    1    3    3    0    0  0.75915252678E+01 -0.68720320114E+01  0.99423935301E+01  0.14272605551E+02  0.51100000000E-03 0. -1.
        -11    1    3    3    0    0  0.75680897257E+01 -0.44406077139E+01  0.12747600378E+02  0.15475667825E+02  0.51100000000E-03 0.  1.
        -12    1    3    3    0    0  0.11487223238E+02 -0.90975676943E+01  0.73513643143E+01  0.16394041386E+02  0.00000000000E+00 0.  1.
</event>
<event>
 7    1  0.4623443E-009  0.4614232E+02  0.7816164E-02  0.1320468E+00
        -11   -1    0    0    0    0  0.00000000000E+00  0.00000000000E+00  0.45593999997E+02  0.45594000000E+02  0.51100000000E-03 0. -1.
         11   -1    0    0    0    0 -0.00000000000E+00 -0.00000000000E+00 -0.45593999997E+02  0.45594000000E+02  0.51100000000E-03 0.  1.
    9900012    2    1    2    0    0  0.21441038737E+02 -0.28938046126E+02 -0.27055216595E+02  0.46142318734E+02  0.10000008873E+02 0.  0.
         12    1    1    2    0    0 -0.21441038737E+02  0.28938046126E+02  0.27055216595E+02  0.45045681266E+02  0.00000000000E+00 0. -1.
         11    1    3    3    0    0  0.33602414577E+01 -0.10112711556E+01 -0.20317416990E+01  0.40548571611E+01  0.51100000000E-03 0. -1.
        -11    1    3    3    0    0  0.13975408484E+02 -0.18084679807E+02 -0.14278410857E+02  0.26948853461E+02  0.51100000000E-03 0.  1.
         12    1    3    3    0    0  0.41053887954E+01 -0.98420951640E+01 -0.10745064039E+02  0.15138608112E+02  0.00000000000E+00 0. -1.
</event>
<event>
 7    1  0.4623443E-009  0.4614232E+02  0.7816164E-02  0.1320468E+00
        -11   -1    0    0    0    0  0.00000000000E+00  0.00000000000E+00  0.45593999997E+02  0.45594000000E+02  0.51100000000E-03 0. -1.
         11   -1    0    0    0    0 -0.00000000000E+00 -0.00000000000E+00 -0.45593999997E+02  0.45594000000E+02  0.51100000000E-03 0.  1.
    9900012    2    1    2    0    0 -0.25287232422E+02  0.22587228381E+02 -0.29656135235E+02  0.46142319113E+02  0.10000012323E+02 0.  0.
         12    1    1    2    0    0  0.25287232422E+02 -0.22587228381E+02  0.29656135235E+02  0.45045680887E+02  0.00000000000E+00 0. -1.
         11    1    3    3    0    0 -0.23297768396E+01  0.48550356636E+01 -0.69288847665E+01  0.87754587222E+01  0.51100000000E-03 0. -1.
        -11    1    3    3    0    0 -0.51951718205E+01  0.45251599688E+01 -0.89516324862E+01  0.11295955357E+02  0.51100000000E-03 0.  1.
        -12    1    3    3    0    0 -0.17762283762E+02  0.13207032749E+02 -0.13775617983E+02  0.26070905034E+02  0.00000000000E+00 0.  1.
</event>
<event>
 7    1  0.4623443E-009  0.4614232E+02  0.7816164E-02  0.1320468E+00
        -11   -1    0    0    0    0  0.00000000000E+00  0.00000000000E+00  0.45593999997E+02  0.45594000000E+02  0.51100000000E-03 0.  1.
         11   -1    0    0    0    0 -0.00000000000E+00 -0.00000000000E+00 -0.45593999997E+02  0.45594000000E+02  0.51100000000E-03 0. -1.
    9900012    2    1    2    0    0 -0.58901517273E+01  0.32536800802E+02  0.30590459415E+02  0.46142317621E+02  0.99999987208E+01 0.  0.
        -12    1    1    2    0    0  0.58901517273E+01 -0.32536800802E+02 -0.30590459415E+02  0.45045682379E+02  0.00000000000E+00 0.  1.
         11    1    3    3    0    0 -0.66627570080E+01  0.15140176902E+02  0.13326217485E+02  0.21241595051E+02  0.51100000000E-03 0. -1.
        -11    1    3    3    0    0  0.83369052138E+00  0.88925998036E+00  0.35444885285E+00  0.12694319393E+01  0.51100000000E-03 0.  1.
         12    1    3    3    0    0 -0.61085240674E-01  0.16507363919E+02  0.16909793077E+02  0.23631290631E+02  0.00000000000E+00 0. -1.
</event>
<event>
 7    1  0.4623443E-009  0.4614232E+02  0.7816164E-02  0.1320468E+00
        -11   -1    0    0    0    0  0.00000000000E+00  0.00000000000E+00  0.45593999997E+02  0.45594000000E+02  0.51100000000E-03 0. -1.
         11   -1    0    0    0    0 -0.00000000000E+00 -0.00000000000E+00 -0.45593999997E+02  0.45594000000E+02  0.51100000000E-03 0.  1.
    9900012    2    1    2    0    0  0.52173453257E+00  0.17840752943E+02 -0.41358781349E+02  0.46142317997E+02  0.10000002149E+02 0.  0.
         12    1    1    2    0    0 -0.52173453257E+00 -0.17840752943E+02  0.41358781349E+02  0.45045682003E+02  0.00000000000E+00 0. -1.
         11    1    3    3    0    0 -0.10912762393E+01 -0.10649886683E+00 -0.36587397390E+01  0.38195029229E+01  0.51100000000E-03 0. -1.
        -11    1    3    3    0    0  0.24877429030E+01  0.22908791453E+01 -0.90670958151E+01  0.96772526468E+01  0.51100000000E-03 0.  1.
        -12    1    3    3    0    0 -0.87473213116E+00  0.15656372664E+02 -0.28632945795E+02  0.32645562427E+02  0.00000000000E+00 0.  1.
</event>
<event>
 7    1  0.4623443E-009  0.4614232E+02  0.7816164E-02  0.1320468E+00
        -11   -1    0    0    0    0  0.00000000000E+00  0.00000000000E+00  0.45593999997E+02  0.45594000000E+02  0.51100000000E-03 0. -1.
         11   -1    0    0    0    0 -0.00000000000E+00 -0.00000000000E+00 -0.45593999997E+02  0.45594000000E+02  0.51100000000E-03 0.  1.
    9900012    2    1    2    0    0  0.22054157181E+02 -0.19091645804E+01  0.39231144572E+02  0.46142318045E+02  0.10000002591E+02 0.  0.
        -12    1    1    2    0    0 -0.22054157181E+02  0.19091645804E+01 -0.39231144572E+02  0.45045681955E+02  0.00000000000E+00 0.  1.
         11    1    3    3    0    0  0.45929000963E+01 -0.23213509449E+01  0.85511298797E+01  0.99802416797E+01  0.51100000000E-03 0. -1.
        -11    1    3    3    0    0  0.21826039324E+01 -0.15587635190E+01  0.12830402071E+01  0.29731626374E+01  0.51100000000E-03 0.  1.
         12    1    3    3    0    0  0.15278653153E+02  0.19709498836E+01  0.29396974485E+02  0.33188913728E+02  0.00000000000E+00 0. -1.
</event>
<event>
 7    1  0.4623443E-009  0.4614232E+02  0.7816164E-02  0.1320468E+00
        -11   -1    0    0    0    0  0.00000000000E+00  0.00000000000E+00  0.45593999997E+02  0.45594000000E+02  0.51100000000E-03 0.  1.
         11   -1    0    0    0    0 -0.00000000000E+00 -0.00000000000E+00 -0.45593999997E+02  0.45594000000E+02  0.51100000000E-03 0. -1.
    9900012    2    1    2    0    0  0.28028930691E+02  0.13479040746E+02 -0.32585395277E+02  0.46142317849E+02  0.10000000802E+02 0.  0.
         12    1    1    2    0    0 -0.28028930691E+02 -0.13479040746E+02  0.32585395277E+02  0.45045682151E+02  0.00000000000E+00 0. -1.
         11    1    3    3    0    0  0.12958095840E+02  0.48633157316E+01 -0.17648480461E+02  0.22428396076E+02  0.51100000000E-03 0. -1.
        -11    1    3    3    0    0  0.89219274243E+01  0.70882697759E+01 -0.12529603904E+02  0.16936213615E+02  0.51100000000E-03 0.  1.
         12    1    3    3    0    0  0.61489074261E+01  0.15274552390E+01 -0.24073109122E+01  0.67777081576E+01  0.00000000000E+00 0. -1.
</event>
<event>
 7    1  0.4623443E-009  0.4614232E+02  0.7816164E-02  0.1320468E+00
        -11   -1    0    0    0    0  0.00000000000E+00  0.00000000000E+00  0.45593999997E+02  0.45594000000E+02  0.51100000000E-03 0.  1.
         11   -1    0    0    0    0 -0.00000000000E+00 -0.00000000000E+00 -0.45593999997E+02  0.45594000000E+02  0.51100000000E-03 0. -1.
    9900012    2    1    2    0    0  0.11018347203E+02  0.43346855964E+02  0.53627964631E+01  0.46142317821E+02  0.10000000547E+02 0.  0.
         12    1    1    2    0    0 -0.11018347203E+02 -0.43346855964E+02 -0.53627964631E+01  0.45045682179E+02  0.00000000000E+00 0. -1.
         11    1    3    3    0    0  0.23425700518E+01  0.14614561304E+02  0.98965307074E+00  0.14834164959E+02  0.51100000000E-03 0.  1.
        -11    1    3    3    0    0  0.95741617278E+01  0.27452784914E+02  0.52059168280E+01  0.29536782875E+02  0.51100000000E-03 0. -1.
         12    1    3    3    0    0 -0.89838457645E+00  0.12795097455E+01 -0.83277343568E+00  0.17713699871E+01  0.00000000000E+00 0. -1.
</event>
<event>
 7    1  0.4623443E-009  0.4614232E+02  0.7816164E-02  0.1320468E+00
        -11   -1    0    0    0    0  0.00000000000E+00  0.00000000000E+00  0.45593999997E+02  0.45594000000E+02  0.51100000000E-03 0.  1.
         11   -1    0    0    0    0 -0.00000000000E+00 -0.00000000000E+00 -0.45593999997E+02  0.45594000000E+02  0.51100000000E-03 0. -1.
    9900012    2    1    2    0    0  0.20469897029E+02  0.96074421016E+01  0.38958874597E+02  0.46142317210E+02  0.99999949771E+01 0.  0.
        -12    1    1    2    0    0 -0.20469897029E+02 -0.96074421016E+01 -0.38958874597E+02  0.45045682790E+02  0.00000000000E+00 0.  1.
         11    1    3    3    0    0 -0.36776220322E+00  0.18860475270E+01  0.46677146632E+01  0.50477702751E+01  0.51100000000E-03 0. -1.
        -11    1    3    3    0    0  0.69104036959E+01  0.68261773470E+00  0.12380115956E+02  0.14194608750E+02  0.51100000000E-03 0.  1.
         12    1    3    3    0    0  0.13927255536E+02  0.70387768399E+01  0.21911043978E+02  0.26899938185E+02  0.00000000000E+00 0. -1.
</event>
<event>
 7    1  0.5337491E-009  0.4614232E+02  0.7816164E-02  0.1320468E+00
        -11   -1    0    0    0    0  0.00000000000E+00  0.00000000000E+00  0.45593999997E+02  0.45594000000E+02  0.51100000000E-03 0. -1.
         11   -1    0    0    0    0 -0.00000000000E+00 -0.00000000000E+00 -0.45593999997E+02  0.45594000000E+02  0.51100000000E-03 0.  1.
    9900012    2    1    2    0    0 -0.60278782494E+01 -0.22692457889E+02 -0.38442560773E+02  0.46142318297E+02  0.10000004891E+02 0.  0.
         12    1    1    2    0    0  0.60278782494E+01  0.22692457889E+02  0.38442560773E+02  0.45045681703E+02  0.00000000000E+00 0. -1.
         11    1    3    3    0    0 -0.37841703216E+00 -0.10117574607E+02 -0.13953610907E+02  0.17239831003E+02  0.51100000000E-03 0. -1.
        -11    1    3    3    0    0 -0.36096807500E+01 -0.12221720087E+02 -0.17737314757E+02  0.21840617484E+02  0.51100000000E-03 0.  1.
         12    1    3    3    0    0 -0.20397804672E+01 -0.35316319556E+00 -0.67516351083E+01  0.70618698114E+01  0.00000000000E+00 0. -1.
</event>
<event>
 7    1  0.4623443E-009  0.4614232E+02  0.7816164E-02  0.1320468E+00
        -11   -1    0    0    0    0  0.00000000000E+00  0.00000000000E+00  0.45593999997E+02  0.45594000000E+02  0.51100000000E-03 0.  1.
         11   -1    0    0    0    0 -0.00000000000E+00 -0.00000000000E+00 -0.45593999997E+02  0.45594000000E+02  0.51100000000E-03 0. -1.
    9900012    2    1    2    0    0 -0.83034641711E+01 -0.44222588293E+02 -0.21280645150E+01  0.46142317730E+02  0.99999997193E+01 0.  0.
        -12    1    1    2    0    0  0.83034641711E+01  0.44222588293E+02  0.21280645150E+01  0.45045682270E+02  0.00000000000E+00 0.  1.
         11    1    3    3    0    0 -0.40150419859E+00 -0.96343217104E+01  0.11067870923E+01  0.97059949706E+01  0.51100000000E-03 0. -1.
        -11    1    3    3    0    0 -0.99344156569E-01 -0.14342711052E+02 -0.33919388985E+01  0.14738672917E+02  0.51100000000E-03 0.  1.
         12    1    3    3    0    0 -0.78026158160E+01 -0.20245555530E+02  0.15708729117E+00  0.21697649843E+02  0.00000000000E+00 0. -1.
</event>
<event>
 7    1  0.4623443E-009  0.4614232E+02  0.7816164E-02  0.1320468E+00
        -11   -1    0    0    0    0  0.00000000000E+00  0.00000000000E+00  0.45593999997E+02  0.45594000000E+02  0.51100000000E-03 0.  1.
         11   -1    0    0    0    0 -0.00000000000E+00 -0.00000000000E+00 -0.45593999997E+02  0.45594000000E+02  0.51100000000E-03 0. -1.
    9900012    2    1    2    0    0 -0.13799388312E+02  0.42667333581E+02 -0.42648711276E+01  0.46142316539E+02  0.99999888561E+01 0.  0.
        -12    1    1    2    0    0  0.13799388312E+02 -0.42667333581E+02  0.42648711276E+01  0.45045683461E+02  0.00000000000E+00 0.  1.
         11    1    3    3    0    0 -0.68685979470E+01  0.11518215494E+02 -0.24822130367E+01  0.13638486270E+02  0.51100000000E-03 0. -1.
        -11    1    3    3    0    0 -0.73531819120E+00  0.84295105628E+01 -0.28551140734E+01  0.89302305572E+01  0.51100000000E-03 0.  1.
        -12    1    3    3    0    0 -0.61954721738E+01  0.22719607525E+02  0.10724559825E+01  0.23573599712E+02  0.00000000000E+00 0.  1.
</event>
<event>
 7    1  0.4623443E-009  0.4614232E+02  0.7816164E-02  0.1320468E+00
        -11   -1    0    0    0    0  0.00000000000E+00  0.00000000000E+00  0.45593999997E+02  0.45594000000E+02  0.51100000000E-03 0. -1.
         11   -1    0    0    0    0 -0.00000000000E+00 -0.00000000000E+00 -0.45593999997E+02  0.45594000000E+02  0.51100000000E-03 0.  1.
    9900012    2    1    2    0    0 -0.22689985783E+01 -0.44170184835E+02 -0.85416613924E+01  0.46142316941E+02  0.99999925213E+01 0.  0.
         12    1    1    2    0    0  0.22689985783E+01  0.44170184835E+02  0.85416613924E+01  0.45045683059E+02  0.00000000000E+00 0. -1.
         11    1    3    3    0    0 -0.30823755666E+00 -0.25472061881E+01 -0.20316581817E+01  0.32727518978E+01  0.51100000000E-03 0. -1.
        -11    1    3    3    0    0  0.13399226083E+01 -0.32920578684E+02 -0.63883297670E+01  0.33561445901E+02  0.51100000000E-03 0.  1.
        -12    1    3    3    0    0 -0.33006836299E+01 -0.87023999632E+01 -0.12167344368E+00  0.93081191425E+01  0.00000000000E+00 0.  1.
</event>
<event>
 7    1  0.6848712E-009  0.4614232E+02  0.7816164E-02  0.1320468E+00
        -11   -1    0    0    0    0  0.00000000000E+00  0.00000000000E+00  0.45593999997E+02  0.45594000000E+02  0.51100000000E-03 0. -1.
         11   -1    0    0    0    0 -0.00000000000E+00 -0.00000000000E+00 -0.45593999997E+02  0.45594000000E+02  0.51100000000E-03 0.  1.
    9900012    2    1    2    0    0  0.77066172476E+01 -0.37296051302E+02 -0.24056728398E+02  0.46142316818E+02  0.99999914005E+01 0.  0.
         12    1    1    2    0    0 -0.77066172476E+01  0.37296051302E+02  0.24056728398E+02  0.45045683182E+02  0.00000000000E+00 0. -1.
         11    1    3    3    0    0  0.24327670054E+01 -0.16427225645E+02 -0.10390914959E+02  0.19589364758E+02  0.51100000000E-03 0. -1.
        -11    1    3    3    0    0  0.48224284162E+01 -0.21469824332E+02 -0.13068509296E+02  0.25592872214E+02  0.51100000000E-03 0.  1.
         12    1    3    3    0    0  0.45142182601E+00  0.60099867455E+00 -0.59730414287E+00  0.96007984611E+00  0.00000000000E+00 0. -1.
</event>
<event>
 7    1  0.4623443E-009  0.4614232E+02  0.7816164E-02  0.1320468E+00
        -11   -1    0    0    0    0  0.00000000000E+00  0.00000000000E+00  0.45593999997E+02  0.45594000000E+02  0.51100000000E-03 0. -1.
         11   -1    0    0    0    0 -0.00000000000E+00 -0.00000000000E+00 -0.45593999997E+02  0.45594000000E+02  0.51100000000E-03 0.  1.
    9900012    2    1    2    0    0  0.36501496666E+02 -0.23983544598E+02  0.11024693973E+02  0.46142317104E+02  0.99999940080E+01 0.  0.
        -12    1    1    2    0    0 -0.36501496666E+02  0.23983544598E+02 -0.11024693973E+02  0.45045682896E+02  0.00000000000E+00 0.  1.
         11    1    3    3    0    0  0.29119639389E+02 -0.14310025781E+02  0.67011382429E+01  0.33130582398E+02  0.51100000000E-03 0.  1.
        -11    1    3    3    0    0  0.55167829455E+01 -0.60903136455E+01  0.32032036335E+01  0.88197124753E+01  0.51100000000E-03 0. -1.
        -12    1    3    3    0    0  0.18650743316E+01 -0.35832051715E+01  0.11203520966E+01  0.41920222309E+01  0.00000000000E+00 0.  1.
</event>
<event>
 7    1  0.4623443E-009  0.4614232E+02  0.7816164E-02  0.1320468E+00
        -11   -1    0    0    0    0  0.00000000000E+00  0.00000000000E+00  0.45593999997E+02  0.45594000000E+02  0.51100000000E-03 0.  1.
         11   -1    0    0    0    0 -0.00000000000E+00 -0.00000000000E+00 -0.45593999997E+02  0.45594000000E+02  0.51100000000E-03 0. -1.
    9900012    2    1    2    0    0  0.44603173887E+02  0.43538298115E+01  0.45513168714E+01  0.46142318297E+02  0.10000004883E+02 0.  0.
        -12    1    1    2    0    0 -0.44603173887E+02 -0.43538298115E+01 -0.45513168714E+01  0.45045681703E+02  0.00000000000E+00 0.  1.
         11    1    3    3    0    0  0.47873890270E+01 -0.51975339813E+00 -0.10407857120E+00  0.48166450877E+01  0.51100000000E-03 0. -1.
        -11    1    3    3    0    0  0.18901185262E+02 -0.66193248228E+00 -0.10800545211E+01  0.18943586697E+02  0.51100000000E-03 0.  1.
         12    1    3    3    0    0  0.20914599599E+02  0.55355156919E+01  0.57354499637E+01  0.22382086512E+02  0.00000000000E+00 0. -1.
</event>
<event>
 7    1  0.4623443E-009  0.4614232E+02  0.7816164E-02  0.1320468E+00
        -11   -1    0    0    0    0  0.00000000000E+00  0.00000000000E+00  0.45593999997E+02  0.45594000000E+02  0.51100000000E-03 0. -1.
         11   -1    0    0    0    0 -0.00000000000E+00 -0.00000000000E+00 -0.45593999997E+02  0.45594000000E+02  0.51100000000E-03 0.  1.
    9900012    2    1    2    0    0  0.22862762991E+02  0.35558119019E+02 -0.15557227350E+02  0.46142322265E+02  0.10000041071E+02 0.  0.
        -12    1    1    2    0    0 -0.22862762991E+02 -0.35558119019E+02  0.15557227350E+02  0.45045677735E+02  0.00000000000E+00 0.  1.
         11    1    3    3    0    0  0.15810868292E+02  0.16430306437E+02 -0.64490570008E+01  0.23696600225E+02  0.51100000000E-03 0. -1.
        -11    1    3    3    0    0  0.36356198537E+01  0.67472040664E+01 -0.36885099806E+01  0.85057392726E+01  0.51100000000E-03 0.  1.
        -12    1    3    3    0    0  0.34162748449E+01  0.12380608516E+02 -0.54196603687E+01  0.13939982767E+02  0.00000000000E+00 0.  1.
</event>
<event>
 7    1  0.4623443E-009  0.4614231E+02  0.7816164E-02  0.1320468E+00
        -11   -1    0    0    0    0  0.00000000000E+00  0.00000000000E+00  0.45593999997E+02  0.45594000000E+02  0.51100000000E-03 0. -1.
         11   -1    0    0    0    0 -0.00000000000E+00 -0.00000000000E+00 -0.45593999997E+02  0.45594000000E+02  0.51100000000E-03 0.  1.
    9900012    2    1    2    0    0 -0.29463033146E+02  0.18179077723E+02  0.28819525091E+02  0.46142309691E+02  0.99999264059E+01 0.  0.
        -12    1    1    2    0    0  0.29463033146E+02 -0.18179077723E+02 -0.28819525091E+02  0.45045690309E+02  0.00000000000E+00 0.  1.
         11    1    3    3    0    0 -0.42306129867E+01  0.19525863531E+01  0.30879520903E+01  0.55898236182E+01  0.51100000000E-03 0. -1.
        -11    1    3    3    0    0 -0.25226026966E+02  0.13530999877E+02  0.23078226136E+02  0.36770163394E+02  0.51100000000E-03 0.  1.
        -12    1    3    3    0    0 -0.63931929876E-02  0.26954914932E+01  0.26533468645E+01  0.37823226787E+01  0.00000000000E+00 0.  1.
</event>
<event>
 7    1  0.4623443E-009  0.4614232E+02  0.7816164E-02  0.1320468E+00
        -11   -1    0    0    0    0  0.00000000000E+00  0.00000000000E+00  0.45593999997E+02  0.45594000000E+02  0.51100000000E-03 0. -1.
         11   -1    0    0    0    0 -0.00000000000E+00 -0.00000000000E+00 -0.45593999997E+02  0.45594000000E+02  0.51100000000E-03 0.  1.
    9900012    2    1    2    0    0  0.30634323081E+02 -0.18311150913E+02  0.27483695748E+02  0.46142317296E+02  0.99999957548E+01 0.  0.
        -12    1    1    2    0    0 -0.30634323081E+02  0.18311150913E+02 -0.27483695748E+02  0.45045682704E+02  0.00000000000E+00 0.  1.
         11    1    3    3    0    0  0.22146617812E+02 -0.94254017508E+01  0.16629136708E+02  0.29254727252E+02  0.51100000000E-03 0. -1.
        -11    1    3    3    0    0  0.59055826792E+01 -0.66971088307E+01  0.99804376141E+01  0.13391650709E+02  0.51100000000E-03 0.  1.
         12    1    3    3    0    0  0.25821225898E+01 -0.21886403311E+01  0.87412142517E+00  0.34959393349E+01  0.00000000000E+00 0. -1.
</event>
<event>
 7    1  0.4623443E-009  0.4614232E+02  0.7816164E-02  0.1320468E+00
        -11   -1    0    0    0    0  0.00000000000E+00  0.00000000000E+00  0.45593999997E+02  0.45594000000E+02  0.51100000000E-03 0.  1.
         11   -1    0    0    0    0 -0.00000000000E+00 -0.00000000000E+00 -0.45593999997E+02  0.45594000000E+02  0.51100000000E-03 0. -1.
    9900012    2    1    2    0    0 -0.27691147580E+02  0.35445933644E+02  0.24288449121E+01  0.46142321475E+02  0.10000033866E+02 0.  0.
        -12    1    1    2    0    0  0.27691147580E+02 -0.35445933644E+02 -0.24288449121E+01  0.45045678525E+02  0.00000000000E+00 0.  1.
         11    1    3    3    0    0 -0.13745650668E+01  0.12650026845E+01 -0.14204897243E+00  0.18734564543E+01  0.51100000000E-03 0. -1.
        -11    1    3    3    0    0 -0.28952304770E+01  0.17652298734E+00  0.30888059602E+00  0.29170065758E+01  0.51100000000E-03 0.  1.
         12    1    3    3    0    0 -0.23421352036E+02  0.34004407972E+02  0.22620132885E+01  0.41351858445E+02  0.00000000000E+00 0. -1.
</event>
<event>
 7    1  0.4623443E-009  0.4614232E+02  0.7816164E-02  0.1320468E+00
        -11   -1    0    0    0    0  0.00000000000E+00  0.00000000000E+00  0.45593999997E+02  0.45594000000E+02  0.51100000000E-03 0. -1.
         11   -1    0    0    0    0 -0.00000000000E+00 -0.00000000000E+00 -0.45593999997E+02  0.45594000000E+02  0.51100000000E-03 0.  1.
    9900012    2    1    2    0    0  0.22012441925E+02 -0.38273389630E+02  0.89282471414E+01  0.46142317073E+02  0.99999937295E+01 0.  0.
        -12    1    1    2    0    0 -0.22012441925E+02  0.38273389630E+02 -0.89282471414E+01  0.45045682927E+02  0.00000000000E+00 0.  1.
         11    1    3    3    0    0  0.57543504802E+01 -0.80273400184E+01  0.24139437620E+01  0.10167490446E+02  0.51100000000E-03 0. -1.
        -11    1    3    3    0    0  0.30826553252E+01 -0.13484210462E+02  0.45639792713E+01  0.14565596545E+02  0.51100000000E-03 0.  1.
         12    1    3    3    0    0  0.13175436120E+02 -0.16761839149E+02  0.19503241081E+01  0.21409230083E+02  0.00000000000E+00 0. -1.
</event>
<event>
 7    1  0.4623443E-009  0.4614232E+02  0.7816164E-02  0.1320468E+00
        -11   -1    0    0    0    0  0.00000000000E+00  0.00000000000E+00  0.45593999997E+02  0.45594000000E+02  0.51100000000E-03 0. -1.
         11   -1    0    0    0    0 -0.00000000000E+00 -0.00000000000E+00 -0.45593999997E+02  0.45594000000E+02  0.51100000000E-03 0.  1.
    9900012    2    1    2    0    0  0.17553143834E+02  0.12205506263E+02  0.39648786189E+02  0.46142317766E+02  0.10000000049E+02 0.  0.
        -12    1    1    2    0    0 -0.17553143834E+02 -0.12205506263E+02 -0.39648786189E+02  0.45045682234E+02  0.00000000000E+00 0.  1.
         11    1    3    3    0    0  0.60822519439E+01  0.31799442038E+01  0.17652442555E+02  0.18939761410E+02  0.51100000000E-03 0. -1.
        -11    1    3    3    0    0  0.16785454501E+01  0.37700293083E+01  0.10161792742E+02  0.10967801412E+02  0.51100000000E-03 0.  1.
         12    1    3    3    0    0  0.97923464398E+01  0.52555327510E+01  0.11834550892E+02  0.16234754945E+02  0.00000000000E+00 0. -1.
</event>
<event>
 7    1  0.4623443E-009  0.4614232E+02  0.7816164E-02  0.1320468E+00
        -11   -1    0    0    0    0  0.00000000000E+00  0.00000000000E+00  0.45593999997E+02  0.45594000000E+02  0.51100000000E-03 0. -1.
         11   -1    0    0    0    0 -0.00000000000E+00 -0.00000000000E+00 -0.45593999997E+02  0.45594000000E+02  0.51100000000E-03 0.  1.
    9900012    2    1    2    0    0 -0.68695217439E+01  0.15931083054E+02 -0.41570705537E+02  0.46142319906E+02  0.10000019561E+02 0.  0.
         12    1    1    2    0    0  0.68695217439E+01 -0.15931083054E+02  0.41570705537E+02  0.45045680094E+02  0.00000000000E+00 0. -1.
         11    1    3    3    0    0 -0.31215402916E+01  0.37533146480E+01 -0.15386744722E+02  0.16142592668E+02  0.51100000000E-03 0. -1.
        -11    1    3    3    0    0 -0.27218309167E+01  0.12879710364E+02 -0.22028142501E+02  0.25661924420E+02  0.51100000000E-03 0.  1.
         12    1    3    3    0    0 -0.10261505355E+01 -0.70194195871E+00 -0.41558183141E+01  0.43378028188E+01  0.00000000000E+00 0. -1.
</event>
<event>
 7    1  0.4623443E-009  0.4614232E+02  0.7816164E-02  0.1320468E+00
        -11   -1    0    0    0    0  0.00000000000E+00  0.00000000000E+00  0.45593999997E+02  0.45594000000E+02  0.51100000000E-03 0.  1.
         11   -1    0    0    0    0 -0.00000000000E+00 -0.00000000000E+00 -0.45593999997E+02  0.45594000000E+02  0.51100000000E-03 0. -1.
    9900012    2    1    2    0    0  0.22022183626E+02  0.37332520911E+02 -0.12264578036E+02  0.46142316926E+02  0.99999923829E+01 0.  0.
         12    1    1    2    0    0 -0.22022183626E+02 -0.37332520911E+02  0.12264578036E+02  0.45045683074E+02  0.00000000000E+00 0. -1.
         11    1    3    3    0    0  0.36135392379E+01  0.32869339331E+01 -0.42522336536E+01  0.64763486480E+01  0.51100000000E-03 0. -1.
        -11    1    3    3    0    0  0.14278325926E+02  0.26372085084E+02 -0.76221164967E+01  0.30942755584E+02  0.51100000000E-03 0.  1.
         12    1    3    3    0    0  0.41303184622E+01  0.76735018934E+01 -0.39022788532E+00  0.87232126943E+01  0.00000000000E+00 0. -1.
</event>
<event>
 7    1  0.4623443E-009  0.4614232E+02  0.7816164E-02  0.1320468E+00
        -11   -1    0    0    0    0  0.00000000000E+00  0.00000000000E+00  0.45593999997E+02  0.45594000000E+02  0.51100000000E-03 0. -1.
         11   -1    0    0    0    0 -0.00000000000E+00 -0.00000000000E+00 -0.45593999997E+02  0.45594000000E+02  0.51100000000E-03 0.  1.
    9900012    2    1    2    0    0 -0.40875299771E+02 -0.72100461786E+01 -0.17502531023E+02  0.46142317748E+02  0.99999998846E+01 0.  0.
         12    1    1    2    0    0  0.40875299771E+02  0.72100461786E+01  0.17502531023E+02  0.45045682252E+02  0.00000000000E+00 0. -1.
         11    1    3    3    0    0 -0.65615292315E+00 -0.10377126905E+01 -0.15921086198E+01  0.20105209287E+01  0.51100000000E-03 0. -1.
        -11    1    3    3    0    0 -0.21339522794E+02 -0.52441513437E+01 -0.59503770206E+01  0.22765837198E+02  0.51100000000E-03 0.  1.
        -12    1    3    3    0    0 -0.18879624055E+02 -0.92818214444E+00 -0.99600453824E+01  0.21365959622E+02  0.00000000000E+00 0.  1.
</event>
<event>
 7    1  0.4623443E-009  0.4614232E+02  0.7816164E-02  0.1320468E+00
        -11   -1    0    0    0    0  0.00000000000E+00  0.00000000000E+00  0.45593999997E+02  0.45594000000E+02  0.51100000000E-03 0. -1.
         11   -1    0    0    0    0 -0.00000000000E+00 -0.00000000000E+00 -0.45593999997E+02  0.45594000000E+02  0.51100000000E-03 0.  1.
    9900012    2    1    2    0    0 -0.10059593732E+02  0.26968046151E+02  0.34650288837E+02  0.46142318123E+02  0.10000003300E+02 0.  0.
        -12    1    1    2    0    0  0.10059593732E+02 -0.26968046151E+02 -0.34650288837E+02  0.45045681877E+02  0.00000000000E+00 0.  1.
         11    1    3    3    0    0 -0.48634235259E+01  0.74422383962E+01  0.13871694558E+02  0.16476155829E+02  0.51100000000E-03 0.  1.
        -11    1    3    3    0    0 -0.26404928684E+01  0.56824452854E+01  0.10530426476E+02  0.12253663495E+02  0.51100000000E-03 0. -1.
        -12    1    3    3    0    0 -0.25556773377E+01  0.13843362469E+02  0.10248167804E+02  0.17412498800E+02  0.00000000000E+00 0.  1.
</event>
<event>
 7    1  0.4623443E-009  0.4614232E+02  0.7816164E-02  0.1320468E+00
        -11   -1    0    0    0    0  0.00000000000E+00  0.00000000000E+00  0.45593999997E+02  0.45594000000E+02  0.51100000000E-03 0. -1.
         11   -1    0    0    0    0 -0.00000000000E+00 -0.00000000000E+00 -0.45593999997E+02  0.45594000000E+02  0.51100000000E-03 0.  1.
    9900012    2    1    2    0    0 -0.16969835517E+02 -0.50548096606E+01 -0.41419645932E+02  0.46142317773E+02  0.10000000107E+02 0.  0.
         12    1    1    2    0    0  0.16969835517E+02  0.50548096606E+01  0.41419645932E+02  0.45045682227E+02  0.00000000000E+00 0. -1.
         11    1    3    3    0    0 -0.44119585902E+01  0.15952965623E+01 -0.55006800091E+01  0.72296494069E+01  0.51100000000E-03 0. -1.
        -11    1    3    3    0    0 -0.14350240478E+01  0.65410753180E+00 -0.26879858406E+01  0.31164753844E+01  0.51100000000E-03 0.  1.
        -12    1    3    3    0    0 -0.11122852879E+02 -0.73042137547E+01 -0.33230980082E+02  0.35796192982E+02  0.00000000000E+00 0.  1.
</event>
<event>
 7    1  0.4623443E-009  0.4614232E+02  0.7816164E-02  0.1320468E+00
        -11   -1    0    0    0    0  0.00000000000E+00  0.00000000000E+00  0.45593999997E+02  0.45594000000E+02  0.51100000000E-03 0.  1.
         11   -1    0    0    0    0 -0.00000000000E+00 -0.00000000000E+00 -0.45593999997E+02  0.45594000000E+02  0.51100000000E-03 0. -1.
    9900012    2    1    2    0    0 -0.16183234182E+02  0.39651972730E+02  0.13962005115E+02  0.46142316557E+02  0.99999890221E+01 0.  0.
        -12    1    1    2    0    0  0.16183234182E+02 -0.39651972730E+02 -0.13962005115E+02  0.45045683443E+02  0.00000000000E+00 0.  1.
         11    1    3    3    0    0 -0.50835323409E+00  0.14116907731E+01 -0.45165411847E+00  0.15669350827E+01  0.51100000000E-03 0. -1.
        -11    1    3    3    0    0 -0.90349240309E+01  0.25972924881E+02  0.13397114198E+02  0.30589301205E+02  0.51100000000E-03 0.  1.
        -12    1    3    3    0    0 -0.66399569168E+01  0.12267357076E+02  0.10165450353E+01  0.13986080269E+02  0.00000000000E+00 0.  1.
</event>
<event>
 7    1  0.4623443E-009  0.4614232E+02  0.7816164E-02  0.1320468E+00
        -11   -1    0    0    0    0  0.00000000000E+00  0.00000000000E+00  0.45593999997E+02  0.45594000000E+02  0.51100000000E-03 0. -1.
         11   -1    0    0    0    0 -0.00000000000E+00 -0.00000000000E+00 -0.45593999997E+02  0.45594000000E+02  0.51100000000E-03 0.  1.
    9900012    2    1    2    0    0 -0.15830487299E+02 -0.57960980912E+01  0.41772173347E+02  0.46142317107E+02  0.99999940359E+01 0.  0.
        -12    1    1    2    0    0  0.15830487299E+02  0.57960980912E+01 -0.41772173347E+02  0.45045682893E+02  0.00000000000E+00 0.  1.
         11    1    3    3    0    0 -0.64899792129E+01  0.53201509531E+00  0.11441494952E+02  0.13164751318E+02  0.51100000000E-03 0. -1.
        -11    1    3    3    0    0 -0.71651099303E+01 -0.62767638167E+01  0.28753029964E+02  0.30289821668E+02  0.51100000000E-03 0.  1.
         12    1    3    3    0    0 -0.21753981554E+01 -0.51349369779E-01  0.15776484303E+01  0.26877441213E+01  0.00000000000E+00 0. -1.
</event>
<event>
 7    1  0.4623443E-009  0.4614232E+02  0.7816164E-02  0.1320468E+00
        -11   -1    0    0    0    0  0.00000000000E+00  0.00000000000E+00  0.45593999997E+02  0.45594000000E+02  0.51100000000E-03 0. -1.
         11   -1    0    0    0    0 -0.00000000000E+00 -0.00000000000E+00 -0.45593999997E+02  0.45594000000E+02  0.51100000000E-03 0.  1.
    9900012    2    1    2    0    0  0.28220380001E+01 -0.10819292459E+02  0.43635909069E+02  0.46142317098E+02  0.99999939557E+01 0.  0.
        -12    1    1    2    0    0 -0.28220380001E+01  0.10819292459E+02 -0.43635909069E+02  0.45045682902E+02  0.00000000000E+00 0.  1.
         11    1    3    3    0    0  0.21504734566E+01 -0.72050587597E+01  0.25282168254E+02  0.26376607812E+02  0.51100000000E-03 0. -1.
        -11    1    3    3    0    0  0.31744951964E+01 -0.22994248029E+01  0.14271521990E+02  0.14800037647E+02  0.51100000000E-03 0.  1.
         12    1    3    3    0    0 -0.25029306529E+01 -0.13148088968E+01  0.40822188254E+01  0.49656716390E+01  0.00000000000E+00 0. -1.
</event>
<event>
 7    1  0.4623443E-009  0.4614231E+02  0.7816164E-02  0.1320468E+00
        -11   -1    0    0    0    0  0.00000000000E+00  0.00000000000E+00  0.45593999997E+02  0.45594000000E+02  0.51100000000E-03 0. -1.
         11   -1    0    0    0    0 -0.00000000000E+00 -0.00000000000E+00 -0.45593999997E+02  0.45594000000E+02  0.51100000000E-03 0.  1.
    9900012    2    1    2    0    0  0.20174518465E+02 -0.38765343575E+02 -0.10924775507E+02  0.46142314549E+02  0.99999707135E+01 0.  0.
         12    1    1    2    0    0 -0.20174518465E+02  0.38765343575E+02  0.10924775507E+02  0.45045685451E+02  0.00000000000E+00 0. -1.
         11    1    3    3    0    0  0.53036391249E+01 -0.15819239015E+02 -0.12875775732E+01  0.16734239369E+02  0.51100000000E-03 0. -1.
        -11    1    3    3    0    0  0.10720979440E+02 -0.19923625906E+02 -0.73623389086E+01  0.23792736367E+02  0.51100000000E-03 0.  1.
        -12    1    3    3    0    0  0.41498999005E+01 -0.30224786545E+01 -0.22748590254E+01  0.56153388131E+01  0.00000000000E+00 0.  1.
</event>
<event>
 7    1  0.4623443E-009  0.4614232E+02  0.7816164E-02  0.1320468E+00
        -11   -1    0    0    0    0  0.00000000000E+00  0.00000000000E+00  0.45593999997E+02  0.45594000000E+02  0.51100000000E-03 0. -1.
         11   -1    0    0    0    0 -0.00000000000E+00 -0.00000000000E+00 -0.45593999997E+02  0.45594000000E+02  0.51100000000E-03 0.  1.
    9900012    2    1    2    0    0 -0.20440452990E+02 -0.27902828571E+02 -0.28857114887E+02  0.46142322735E+02  0.10000045351E+02 0.  0.
         12    1    1    2    0    0  0.20440452990E+02  0.27902828571E+02  0.28857114887E+02  0.45045677265E+02  0.00000000000E+00 0. -1.
         11    1    3    3    0    0 -0.30250779428E+01 -0.27235021401E+01 -0.48527787988E+00  0.40992749784E+01  0.51100000000E-03 0. -1.
        -11    1    3    3    0    0 -0.41517564511E+00 -0.76105120571E+00 -0.23894780217E+01  0.25418841892E+01  0.51100000000E-03 0.  1.
        -12    1    3    3    0    0 -0.17000199403E+02 -0.24418275225E+02 -0.25982358985E+02  0.39501163567E+02  0.00000000000E+00 0.  1.
</event>
<event>
 7    1  0.4623443E-009  0.4614232E+02  0.7816164E-02  0.1320468E+00
        -11   -1    0    0    0    0  0.00000000000E+00  0.00000000000E+00  0.45593999997E+02  0.45594000000E+02  0.51100000000E-03 0.  1.
         11   -1    0    0    0    0 -0.00000000000E+00 -0.00000000000E+00 -0.45593999997E+02  0.45594000000E+02  0.51100000000E-03 0. -1.
    9900012    2    1    2    0    0 -0.26035535979E+02  0.33096680839E+02  0.15996065740E+02  0.46142317238E+02  0.99999952318E+01 0.  0.
        -12    1    1    2    0    0  0.26035535979E+02 -0.33096680839E+02 -0.15996065740E+02  0.45045682762E+02  0.00000000000E+00 0.  1.
         11    1    3    3    0    0 -0.10172719322E+02  0.11069436883E+02  0.86458483516E+01  0.17342645280E+02  0.51100000000E-03 0. -1.
        -11    1    3    3    0    0 -0.11272823664E+02  0.11539690493E+02  0.62444563379E+01  0.17298388516E+02  0.51100000000E-03 0.  1.
        -12    1    3    3    0    0 -0.45899929928E+01  0.10487553463E+02  0.11057610508E+01  0.11501283442E+02  0.00000000000E+00 0.  1.
</event>
<event>
 7    1  0.5062253E-009  0.4614232E+02  0.7816164E-02  0.1320468E+00
        -11   -1    0    0    0    0  0.00000000000E+00  0.00000000000E+00  0.45593999997E+02  0.45594000000E+02  0.51100000000E-03 0. -1.
         11   -1    0    0    0    0 -0.00000000000E+00 -0.00000000000E+00 -0.45593999997E+02  0.45594000000E+02  0.51100000000E-03 0.  1.
    9900012    2    1    2    0    0  0.17263234015E+02 -0.18273427728E+02 -0.37378819677E+02  0.46142316855E+02  0.99999917358E+01 0.  0.
         12    1    1    2    0    0 -0.17263234015E+02  0.18273427728E+02  0.37378819677E+02  0.45045683145E+02  0.00000000000E+00 0. -1.
         11    1    3    3    0    0  0.77984754397E+01 -0.65435722731E+01 -0.19910726598E+02  0.22362280546E+02  0.51100000000E-03 0. -1.
        -11    1    3    3    0    0  0.38650755170E+01 -0.42143123236E+01 -0.10984142294E+02  0.12383481712E+02  0.51100000000E-03 0.  1.
         12    1    3    3    0    0  0.55996830582E+01 -0.75155431317E+01 -0.64839507850E+01  0.11396554598E+02  0.00000000000E+00 0. -1.
</event>
<event>
 7    1  0.4623443E-009  0.4614232E+02  0.7816164E-02  0.1320468E+00
        -11   -1    0    0    0    0  0.00000000000E+00  0.00000000000E+00  0.45593999997E+02  0.45594000000E+02  0.51100000000E-03 0. -1.
         11   -1    0    0    0    0 -0.00000000000E+00 -0.00000000000E+00 -0.45593999997E+02  0.45594000000E+02  0.51100000000E-03 0.  1.
    9900012    2    1    2    0    0 -0.11158370165E+02 -0.56554929395E+01  0.43273774875E+02  0.46142318552E+02  0.10000007216E+02 0.  0.
        -12    1    1    2    0    0  0.11158370165E+02  0.56554929395E+01 -0.43273774875E+02  0.45045681448E+02  0.00000000000E+00 0.  1.
         11    1    3    3    0    0  0.68959942081E+00  0.76883488120E+00  0.16418272076E+01  0.19396523597E+01  0.51100000000E-03 0. -1.
        -11    1    3    3    0    0 -0.83867732263E+01 -0.32469410154E+01  0.18157864225E+02  0.20262986566E+02  0.51100000000E-03 0.  1.
         12    1    3    3    0    0 -0.34611963598E+01 -0.31773868053E+01  0.23474083443E+02  0.23939679627E+02  0.00000000000E+00 0. -1.
</event>
<event>
 7    1  0.4623443E-009  0.4614232E+02  0.7816164E-02  0.1320468E+00
        -11   -1    0    0    0    0  0.00000000000E+00  0.00000000000E+00  0.45593999997E+02  0.45594000000E+02  0.51100000000E-03 0. -1.
         11   -1    0    0    0    0 -0.00000000000E+00 -0.00000000000E+00 -0.45593999997E+02  0.45594000000E+02  0.51100000000E-03 0.  1.
    9900012    2    1    2    0    0 -0.29978799327E+02  0.19296389864E+02  0.27532424783E+02  0.46142317795E+02  0.10000000307E+02 0.  0.
        -12    1    1    2    0    0  0.29978799327E+02 -0.19296389864E+02 -0.27532424783E+02  0.45045682205E+02  0.00000000000E+00 0.  1.
         11    1    3    3    0    0 -0.12609377035E+02  0.10845294505E+02  0.13529341940E+02  0.21439680401E+02  0.51100000000E-03 0. -1.
        -11    1    3    3    0    0 -0.15994764782E+02  0.80312517270E+01  0.14647417749E+02  0.23127480445E+02  0.51100000000E-03 0.  1.
        -12    1    3    3    0    0 -0.13746575095E+01  0.41984363175E+00 -0.64433490525E+00  0.15751569489E+01  0.00000000000E+00 0.  1.
</event>
<event>
 7    1  0.4623443E-009  0.4614232E+02  0.7816164E-02  0.1320468E+00
        -11   -1    0    0    0    0  0.00000000000E+00  0.00000000000E+00  0.45593999997E+02  0.45594000000E+02  0.51100000000E-03 0. -1.
         11   -1    0    0    0    0 -0.00000000000E+00 -0.00000000000E+00 -0.45593999997E+02  0.45594000000E+02  0.51100000000E-03 0.  1.
    9900012    2    1    2    0    0  0.38047663938E+02  0.10153818027E+02 -0.21872099701E+02  0.46142317665E+02  0.99999991264E+01 0.  0.
         12    1    1    2    0    0 -0.38047663938E+02 -0.10153818027E+02  0.21872099701E+02  0.45045682335E+02  0.00000000000E+00 0. -1.
         11    1    3    3    0    0  0.14092597275E+02  0.16685586824E+01 -0.10893344242E+02  0.17889950673E+02  0.51100000000E-03 0.  1.
        -11    1    3    3    0    0 -0.21800997014E+00 -0.23526282584E+00 -0.24126625293E+00  0.40135596448E+00  0.51100000000E-03 0. -1.
        -12    1    3    3    0    0  0.24173076633E+02  0.87205221707E+01 -0.10737489206E+02  0.27851011028E+02  0.00000000000E+00 0.  1.
</event>
<event>
 7    1  0.4623443E-009  0.4614231E+02  0.7816164E-02  0.1320468E+00
        -11   -1    0    0    0    0  0.00000000000E+00  0.00000000000E+00  0.45593999997E+02  0.45594000000E+02  0.51100000000E-03 0. -1.
         11   -1    0    0    0    0 -0.00000000000E+00 -0.00000000000E+00 -0.45593999997E+02  0.45594000000E+02  0.51100000000E-03 0.  1.
    9900012    2    1    2    0    0 -0.52743140295E+01  0.15163751834E+02  0.42087488226E+02  0.46142307383E+02  0.99999053649E+01 0.  0.
        -12    1    1    2    0    0  0.52743140295E+01 -0.15163751834E+02 -0.42087488226E+02  0.45045692617E+02  0.00000000000E+00 0.  1.
         11    1    3    3    0    0 -0.19897870427E+01  0.68790719044E+01  0.13060100568E+02  0.14894532884E+02  0.51100000000E-03 0. -1.
        -11    1    3    3    0    0 -0.43883301703E-01  0.47287066911E+01  0.55911541410E+01  0.73228135033E+01  0.51100000000E-03 0.  1.
        -12    1    3    3    0    0 -0.32406436851E+01  0.35559732386E+01  0.23436233517E+02  0.23924960996E+02  0.00000000000E+00 0.  1.
</event>
<event>
 7    1  0.4623443E-009  0.4614232E+02  0.7816164E-02  0.1320468E+00
        -11   -1    0    0    0    0  0.00000000000E+00  0.00000000000E+00  0.45593999997E+02  0.45594000000E+02  0.51100000000E-03 0. -1.
         11   -1    0    0    0    0 -0.00000000000E+00 -0.00000000000E+00 -0.45593999997E+02  0.45594000000E+02  0.51100000000E-03 0.  1.
    9900012    2    1    2    0    0  0.12937604135E+02 -0.38724296397E+01 -0.42973668638E+02  0.46142317540E+02  0.99999979826E+01 0.  0.
         12    1    1    2    0    0 -0.12937604135E+02  0.38724296397E+01  0.42973668638E+02  0.45045682460E+02  0.00000000000E+00 0. -1.
         11    1    3    3    0    0 -0.45813307372E+00  0.22673689890E+00 -0.91585540884E+01  0.91728081189E+01  0.51100000000E-03 0. -1.
        -11    1    3    3    0    0  0.11598248741E+02 -0.29269593293E+01 -0.31986965043E+02  0.34150437738E+02  0.51100000000E-03 0.  1.
        -12    1    3    3    0    0  0.17974884680E+01 -0.11722072093E+01 -0.18281495064E+01  0.28190716827E+01  0.00000000000E+00 0.  1.
</event>
<event>
 7    1  0.4623443E-009  0.4614232E+02  0.7816164E-02  0.1320468E+00
        -11   -1    0    0    0    0  0.00000000000E+00  0.00000000000E+00  0.45593999997E+02  0.45594000000E+02  0.51100000000E-03 0. -1.
         11   -1    0    0    0    0 -0.00000000000E+00 -0.00000000000E+00 -0.45593999997E+02  0.45594000000E+02  0.51100000000E-03 0.  1.
    9900012    2    1    2    0    0  0.17117973793E+02  0.11025860841E+02 -0.40181076500E+02  0.46142317158E+02  0.99999944982E+01 0.  0.
         12    1    1    2    0    0 -0.17117973793E+02 -0.11025860841E+02  0.40181076500E+02  0.45045682842E+02  0.00000000000E+00 0. -1.
         11    1    3    3    0    0  0.25666663477E+01  0.21086604040E+01 -0.15902600247E+02  0.16245827764E+02  0.51100000000E-03 0. -1.
        -11    1    3    3    0    0  0.95656988650E+01  0.65519328002E+01 -0.19011801401E+02  0.22268341002E+02  0.51100000000E-03 0.  1.
         12    1    3    3    0    0  0.49856085801E+01  0.23652676364E+01 -0.52666748513E+01  0.76281483923E+01  0.00000000000E+00 0. -1.
</event>
<event>
 7    1  0.4623443E-009  0.4614232E+02  0.7816164E-02  0.1320468E+00
        -11   -1    0    0    0    0  0.00000000000E+00  0.00000000000E+00  0.45593999997E+02  0.45594000000E+02  0.51100000000E-03 0. -1.
         11   -1    0    0    0    0 -0.00000000000E+00 -0.00000000000E+00 -0.45593999997E+02  0.45594000000E+02  0.51100000000E-03 0.  1.
    9900012    2    1    2    0    0 -0.32711096348E+02  0.28254795914E+02  0.12679280036E+02  0.46142318091E+02  0.10000003004E+02 0.  0.
        -12    1    1    2    0    0  0.32711096348E+02 -0.28254795914E+02 -0.12679280036E+02  0.45045681909E+02  0.00000000000E+00 0.  1.
         11    1    3    3    0    0 -0.22099100648E+02  0.18043421792E+02  0.10110825179E+02  0.30268202879E+02  0.51100000000E-03 0. -1.
        -11    1    3    3    0    0 -0.46583591860E+01  0.39399120831E+01 -0.15517550837E+01  0.62953285561E+01  0.51100000000E-03 0.  1.
        -12    1    3    3    0    0 -0.59536365139E+01  0.62714620386E+01  0.41202099402E+01  0.95787866555E+01  0.00000000000E+00 0.  1.
</event>
<event>
 7    1  0.6197734E-009  0.4614232E+02  0.7816164E-02  0.1320468E+00
        -11   -1    0    0    0    0  0.00000000000E+00  0.00000000000E+00  0.45593999997E+02  0.45594000000E+02  0.51100000000E-03 0. -1.
         11   -1    0    0    0    0 -0.00000000000E+00 -0.00000000000E+00 -0.45593999997E+02  0.45594000000E+02  0.51100000000E-03 0.  1.
    9900012    2    1    2    0    0 -0.75487846154E+01 -0.13973466665E+02 -0.42152949275E+02  0.46142322600E+02  0.10000044128E+02 0.  0.
         12    1    1    2    0    0  0.75487846154E+01  0.13973466665E+02  0.42152949275E+02  0.45045677400E+02  0.00000000000E+00 0. -1.
         11    1    3    3    0    0 -0.25270166792E+01 -0.79727621682E+01 -0.20968875754E+02  0.22575307319E+02  0.51100000000E-03 0. -1.
        -11    1    3    3    0    0 -0.50867641005E+01 -0.73530847899E+01 -0.17725497051E+02  0.19852865559E+02  0.51100000000E-03 0.  1.
         12    1    3    3    0    0  0.64996164353E-01  0.13523802937E+01 -0.34585764700E+01  0.37141497222E+01  0.00000000000E+00 0. -1.
</event>
<event>
 7    1  0.4623443E-009  0.4614232E+02  0.7816164E-02  0.1320468E+00
        -11   -1    0    0    0    0  0.00000000000E+00  0.00000000000E+00  0.45593999997E+02  0.45594000000E+02  0.51100000000E-03 0. -1.
         11   -1    0    0    0    0 -0.00000000000E+00 -0.00000000000E+00 -0.45593999997E+02  0.45594000000E+02  0.51100000000E-03 0.  1.
    9900012    2    1    2    0    0 -0.35223261693E+02 -0.27329207770E+02 -0.64459088379E+01  0.46142317605E+02  0.99999985798E+01 0.  0.
         12    1    1    2    0    0  0.35223261693E+02  0.27329207770E+02  0.64459088379E+01  0.45045682395E+02  0.00000000000E+00 0. -1.
         11    1    3    3    0    0 -0.85165244321E+01 -0.19368636361E+01 -0.19263290309E+01  0.89439014386E+01  0.51100000000E-03 0. -1.
        -11    1    3    3    0    0 -0.86704161909E+01 -0.86524578211E+01 -0.25532697214E+01  0.12512407035E+02  0.51100000000E-03 0.  1.
         12    1    3    3    0    0 -0.18036321070E+02 -0.16739886313E+02 -0.19663100856E+01  0.24686009132E+02  0.00000000000E+00 0. -1.
</event>
<event>
 7    1  0.4623443E-009  0.4614232E+02  0.7816164E-02  0.1320468E+00
        -11   -1    0    0    0    0  0.00000000000E+00  0.00000000000E+00  0.45593999997E+02  0.45594000000E+02  0.51100000000E-03 0. -1.
         11   -1    0    0    0    0 -0.00000000000E+00 -0.00000000000E+00 -0.45593999997E+02  0.45594000000E+02  0.51100000000E-03 0.  1.
    9900012    2    1    2    0    0  0.28036761580E+02  0.33825912489E+02 -0.99428939451E+01  0.46142317680E+02  0.99999992648E+01 0.  0.
         12    1    1    2    0    0 -0.28036761580E+02 -0.33825912489E+02  0.99428939451E+01  0.45045682320E+02  0.00000000000E+00 0. -1.
         11    1    3    3    0    0  0.48475295471E+01  0.89622373733E+01 -0.50344843173E+01  0.11365134141E+02  0.51100000000E-03 0. -1.
        -11    1    3    3    0    0  0.90554600753E+01  0.64531080755E+01 -0.28307780988E+01  0.11474200012E+02  0.51100000000E-03 0.  1.
        -12    1    3    3    0    0  0.14133771957E+02  0.18410567041E+02 -0.20776315290E+01  0.23302983527E+02  0.00000000000E+00 0.  1.
</event>
<event>
 7    1  0.4788507E-009  0.4614232E+02  0.7816164E-02  0.1320468E+00
        -11   -1    0    0    0    0  0.00000000000E+00  0.00000000000E+00  0.45593999997E+02  0.45594000000E+02  0.51100000000E-03 0. -1.
         11   -1    0    0    0    0 -0.00000000000E+00 -0.00000000000E+00 -0.45593999997E+02  0.45594000000E+02  0.51100000000E-03 0.  1.
    9900012    2    1    2    0    0 -0.21124003252E+02 -0.27836740557E+02 -0.28425443453E+02  0.46142317924E+02  0.10000001482E+02 0.  0.
         12    1    1    2    0    0  0.21124003252E+02  0.27836740557E+02  0.28425443453E+02  0.45045682076E+02  0.00000000000E+00 0. -1.
         11    1    3    3    0    0 -0.28028942150E+01 -0.26137929642E+01 -0.24601820997E+00  0.38403977478E+01  0.51100000000E-03 0. -1.
        -11    1    3    3    0    0 -0.10939715467E+02 -0.13740024601E+02 -0.12765320274E+02  0.21712186728E+02  0.51100000000E-03 0.  1.
         12    1    3    3    0    0 -0.73813935697E+01 -0.11482922992E+02 -0.15414104969E+02  0.20589733448E+02  0.00000000000E+00 0. -1.
</event>
<event>
 7    1  0.4623443E-009  0.4614232E+02  0.7816164E-02  0.1320468E+00
        -11   -1    0    0    0    0  0.00000000000E+00  0.00000000000E+00  0.45593999997E+02  0.45594000000E+02  0.51100000000E-03 0.  1.
         11   -1    0    0    0    0 -0.00000000000E+00 -0.00000000000E+00 -0.45593999997E+02  0.45594000000E+02  0.51100000000E-03 0. -1.
    9900012    2    1    2    0    0 -0.41457725889E+02  0.16456251115E+02  0.62898540186E+01  0.46142317629E+02  0.99999987959E+01 0.  0.
        -12    1    1    2    0    0  0.41457725889E+02 -0.16456251115E+02 -0.62898540186E+01  0.45045682371E+02  0.00000000000E+00 0.  1.
         11    1    3    3    0    0 -0.12745990446E+02  0.69439771240E+01  0.11159240296E+01  0.14557622658E+02  0.51100000000E-03 0. -1.
        -11    1    3    3    0    0 -0.23372963007E+02  0.10617184896E+02  0.36965839464E+01  0.25936166795E+02  0.51100000000E-03 0.  1.
        -12    1    3    3    0    0 -0.53387724364E+01 -0.11049109050E+01  0.14773460426E+01  0.56485281769E+01  0.00000000000E+00 0.  1.
</event>
<event>
 7    1  0.4623443E-009  0.4614232E+02  0.7816164E-02  0.1320468E+00
        -11   -1    0    0    0    0  0.00000000000E+00  0.00000000000E+00  0.45593999997E+02  0.45594000000E+02  0.51100000000E-03 0. -1.
         11   -1    0    0    0    0 -0.00000000000E+00 -0.00000000000E+00 -0.45593999997E+02  0.45594000000E+02  0.51100000000E-03 0.  1.
    9900012    2    1    2    0    0  0.19125864604E+02 -0.13052649435E+02  0.38638622816E+02  0.46142317330E+02  0.99999960662E+01 0.  0.
        -12    1    1    2    0    0 -0.19125864604E+02  0.13052649435E+02 -0.38638622816E+02  0.45045682670E+02  0.00000000000E+00 0.  1.
         11    1    3    3    0    0  0.10665804346E+02 -0.58361843942E+01  0.26282875958E+02  0.28958763777E+02  0.51100000000E-03 0. -1.
        -11    1    3    3    0    0  0.85993637648E+01 -0.61799840361E+01  0.12150923081E+02  0.16117884223E+02  0.51100000000E-03 0.  1.
         12    1    3    3    0    0 -0.13930350639E+00 -0.10364810046E+01  0.20482377676E+00  0.10656693293E+01  0.00000000000E+00 0. -1.
</event>
<event>
 7    1  0.4623443E-009  0.4614232E+02  0.7816164E-02  0.1320468E+00
        -11   -1    0    0    0    0  0.00000000000E+00  0.00000000000E+00  0.45593999997E+02  0.45594000000E+02  0.51100000000E-03 0. -1.
         11   -1    0    0    0    0 -0.00000000000E+00 -0.00000000000E+00 -0.45593999997E+02  0.45594000000E+02  0.51100000000E-03 0.  1.
    9900012    2    1    2    0    0  0.14878759466E+02  0.22511894601E+02  0.36068695129E+02  0.46142315966E+02  0.99999836294E+01 0.  0.
        -12    1    1    2    0    0 -0.14878759466E+02 -0.22511894601E+02 -0.36068695129E+02  0.45045684034E+02  0.00000000000E+00 0.  1.
         11    1    3    3    0    0  0.51770108918E+01  0.17979450193E+01  0.84650688579E+01  0.10084217327E+02  0.51100000000E-03 0. -1.
        -11    1    3    3    0    0  0.15196837486E+01  0.55190336411E+01  0.48678938380E+01  0.75143570387E+01  0.51100000000E-03 0.  1.
         12    1    3    3    0    0  0.81820648252E+01  0.15194915941E+02  0.22735732434E+02  0.28543741600E+02  0.00000000000E+00 0. -1.
</event>
<event>
 7    1  0.4623443E-009  0.4614232E+02  0.7816164E-02  0.1320468E+00
        -11   -1    0    0    0    0  0.00000000000E+00  0.00000000000E+00  0.45593999997E+02  0.45594000000E+02  0.51100000000E-03 0. -1.
         11   -1    0    0    0    0 -0.00000000000E+00 -0.00000000000E+00 -0.45593999997E+02  0.45594000000E+02  0.51100000000E-03 0.  1.
    9900012    2    1    2    0    0  0.14130692801E+02 -0.28182232432E+02  0.32174506827E+02  0.46142316595E+02  0.99999893680E+01 0.  0.
        -12    1    1    2    0    0 -0.14130692801E+02  0.28182232432E+02 -0.32174506827E+02  0.45045683405E+02  0.00000000000E+00 0.  1.
         11    1    3    3    0    0  0.57515189161E+01 -0.10743607786E+02  0.14661338605E+02  0.19064625044E+02  0.51100000000E-03 0. -1.
        -11    1    3    3    0    0  0.86767855454E+01 -0.15376903015E+02  0.17681993941E+02  0.24987770283E+02  0.51100000000E-03 0.  1.
        -12    1    3    3    0    0 -0.29761166060E+00 -0.20617216311E+01 -0.16882571957E+00  0.20899212685E+01  0.00000000000E+00 0.  1.
</event>
<event>
 7    1  0.4623443E-009  0.4614232E+02  0.7816164E-02  0.1320468E+00
        -11   -1    0    0    0    0  0.00000000000E+00  0.00000000000E+00  0.45593999997E+02  0.45594000000E+02  0.51100000000E-03 0. -1.
         11   -1    0    0    0    0 -0.00000000000E+00 -0.00000000000E+00 -0.45593999997E+02  0.45594000000E+02  0.51100000000E-03 0.  1.
    9900012    2    1    2    0    0  0.11203138904E+02  0.24363792793E+02 -0.36194043264E+02  0.46142317761E+02  0.10000000003E+02 0.  0.
         12    1    1    2    0    0 -0.11203138904E+02 -0.24363792793E+02  0.36194043264E+02  0.45045682239E+02  0.00000000000E+00 0. -1.
         11    1    3    3    0    0  0.48344235113E+01  0.10291155633E+02 -0.10508756498E+02  0.15482683822E+02  0.51100000000E-03 0. -1.
        -11    1    3    3    0    0  0.48955540931E+01  0.14402035890E+02 -0.22903081918E+02  0.27494294849E+02  0.51100000000E-03 0.  1.
        -12    1    3    3    0    0  0.14731612994E+01 -0.32939873017E+00 -0.27822048482E+01  0.31653390900E+01  0.00000000000E+00 0.  1.
</event>
<event>
 7    1  0.4623443E-009  0.4614232E+02  0.7816164E-02  0.1320468E+00
        -11   -1    0    0    0    0  0.00000000000E+00  0.00000000000E+00  0.45593999997E+02  0.45594000000E+02  0.51100000000E-03 0. -1.
         11   -1    0    0    0    0 -0.00000000000E+00 -0.00000000000E+00 -0.45593999997E+02  0.45594000000E+02  0.51100000000E-03 0.  1.
    9900012    2    1    2    0    0  0.38777493428E+01  0.29578122027E+02  0.33752203435E+02  0.46142317861E+02  0.10000000915E+02 0.  0.
        -12    1    1    2    0    0 -0.38777493428E+01 -0.29578122027E+02 -0.33752203435E+02  0.45045682139E+02  0.00000000000E+00 0.  1.
         11    1    3    3    0    0  0.51793020007E+01  0.20205975609E+02  0.22771657688E+02  0.30881305245E+02  0.51100000000E-03 0. -1.
        -11    1    3    3    0    0 -0.22332040407E+01  0.93626640753E+01  0.95908969636E+01  0.13587935226E+02  0.51100000000E-03 0.  1.
         12    1    3    3    0    0  0.93165138280E+00  0.94823428895E-02  0.13896487831E+01  0.16730773904E+01  0.00000000000E+00 0. -1.
</event>
<event>
 7    1  0.4623443E-009  0.4614232E+02  0.7816164E-02  0.1320468E+00
        -11   -1    0    0    0    0  0.00000000000E+00  0.00000000000E+00  0.45593999997E+02  0.45594000000E+02  0.51100000000E-03 0. -1.
         11   -1    0    0    0    0 -0.00000000000E+00 -0.00000000000E+00 -0.45593999997E+02  0.45594000000E+02  0.51100000000E-03 0.  1.
    9900012    2    1    2    0    0  0.28880922210E+02  0.74920003441E+01  0.33747233755E+02  0.46142317377E+02  0.99999964983E+01 0.  0.
        -12    1    1    2    0    0 -0.28880922210E+02 -0.74920003441E+01 -0.33747233755E+02  0.45045682623E+02  0.00000000000E+00 0.  1.
         11    1    3    3    0    0  0.53039877000E+01  0.40012697221E+01  0.66802824279E+01  0.94217099557E+01  0.51100000000E-03 0.  1.
        -11    1    3    3    0    0  0.88612849647E+01  0.14393658558E+01  0.15415325083E+02  0.17838901114E+02  0.51100000000E-03 0. -1.
        -12    1    3    3    0    0  0.14715649545E+02  0.20513647662E+01  0.11651626245E+02  0.18881706307E+02  0.00000000000E+00 0.  1.
</event>
<event>
 7    1  0.4623443E-009  0.4614232E+02  0.7816164E-02  0.1320468E+00
        -11   -1    0    0    0    0  0.00000000000E+00  0.00000000000E+00  0.45593999997E+02  0.45594000000E+02  0.51100000000E-03 0. -1.
         11   -1    0    0    0    0 -0.00000000000E+00 -0.00000000000E+00 -0.45593999997E+02  0.45594000000E+02  0.51100000000E-03 0.  1.
    9900012    2    1    2    0    0  0.37028373181E+02  0.68831703630E+00 -0.25642531450E+02  0.46142316300E+02  0.99999866784E+01 0.  0.
         12    1    1    2    0    0 -0.37028373181E+02 -0.68831703630E+00  0.25642531450E+02  0.45045683700E+02  0.00000000000E+00 0. -1.
         11    1    3    3    0    0  0.60130230368E+01 -0.25704425493E+01 -0.64303191615E+01  0.91712935685E+01  0.51100000000E-03 0. -1.
        -11    1    3    3    0    0  0.99934627745E-01  0.45864527741E+00 -0.91418136218E-02  0.46949574460E+00  0.51100000000E-03 0.  1.
        -12    1    3    3    0    0  0.30915415517E+02  0.28001143082E+01 -0.19203070475E+02  0.36501526987E+02  0.00000000000E+00 0.  1.
</event>
<event>
 7    1  0.4623443E-009  0.4614232E+02  0.7816164E-02  0.1320468E+00
        -11   -1    0    0    0    0  0.00000000000E+00  0.00000000000E+00  0.45593999997E+02  0.45594000000E+02  0.51100000000E-03 0. -1.
         11   -1    0    0    0    0 -0.00000000000E+00 -0.00000000000E+00 -0.45593999997E+02  0.45594000000E+02  0.51100000000E-03 0.  1.
    9900012    2    1    2    0    0  0.21136387309E+02  0.12309919208E+02 -0.37826348410E+02  0.46142316373E+02  0.99999873400E+01 0.  0.
         12    1    1    2    0    0 -0.21136387309E+02 -0.12309919208E+02  0.37826348410E+02  0.45045683627E+02  0.00000000000E+00 0. -1.
         11    1    3    3    0    0  0.16814517974E+01  0.89164228120E+00 -0.70181106630E+00  0.20285081066E+01  0.51100000000E-03 0. -1.
        -11    1    3    3    0    0  0.18165770250E+02  0.82606104388E+01 -0.28090276856E+02  0.34457169758E+02  0.51100000000E-03 0.  1.
        -12    1    3    3    0    0  0.12891652618E+01  0.31576664882E+01 -0.90342604875E+01  0.96566385082E+01  0.00000000000E+00 0.  1.
</event>
<event>
 7    1  0.4623443E-009  0.4614232E+02  0.7816164E-02  0.1320468E+00
        -11   -1    0    0    0    0  0.00000000000E+00  0.00000000000E+00  0.45593999997E+02  0.45594000000E+02  0.51100000000E-03 0. -1.
         11   -1    0    0    0    0 -0.00000000000E+00 -0.00000000000E+00 -0.45593999997E+02  0.45594000000E+02  0.51100000000E-03 0.  1.
    9900012    2    1    2    0    0 -0.23436477984E+02 -0.12588331181E+02  0.36350775246E+02  0.46142318262E+02  0.10000004572E+02 0.  0.
        -12    1    1    2    0    0  0.23436477984E+02  0.12588331181E+02 -0.36350775246E+02  0.45045681738E+02  0.00000000000E+00 0.  1.
         11    1    3    3    0    0 -0.74151398329E+01 -0.16916358604E+01  0.10491313516E+02  0.12958147637E+02  0.51100000000E-03 0. -1.
        -11    1    3    3    0    0 -0.57014831928E+01 -0.65335483949E+00  0.42628297922E+01  0.71488111769E+01  0.51100000000E-03 0.  1.
         12    1    3    3    0    0 -0.10319854958E+02 -0.10243340481E+02  0.21596631938E+02  0.26035359449E+02  0.00000000000E+00 0. -1.
</event>
<event>
 7    1  0.4623443E-009  0.4614232E+02  0.7816164E-02  0.1320468E+00
        -11   -1    0    0    0    0  0.00000000000E+00  0.00000000000E+00  0.45593999997E+02  0.45594000000E+02  0.51100000000E-03 0. -1.
         11   -1    0    0    0    0 -0.00000000000E+00 -0.00000000000E+00 -0.45593999997E+02  0.45594000000E+02  0.51100000000E-03 0.  1.
    9900012    2    1    2    0    0 -0.35050310154E+02 -0.71912318441E+01 -0.27365586875E+02  0.46142318716E+02  0.10000008711E+02 0.  0.
         12    1    1    2    0    0  0.35050310154E+02  0.71912318441E+01  0.27365586875E+02  0.45045681284E+02  0.00000000000E+00 0. -1.
         11    1    3    3    0    0 -0.40864660055E+01 -0.17278284956E+01 -0.53583921033E+01  0.69567925022E+01  0.51100000000E-03 0. -1.
        -11    1    3    3    0    0 -0.27389454500E+01 -0.12996055670E+01 -0.53479796771E+01  0.61474940988E+01  0.51100000000E-03 0.  1.
        -12    1    3    3    0    0 -0.28224898698E+02 -0.41637977815E+01 -0.16659215094E+02  0.33038032115E+02  0.00000000000E+00 0.  1.
</event>
<event>
 7    1  0.4623443E-009  0.4614232E+02  0.7816164E-02  0.1320468E+00
        -11   -1    0    0    0    0  0.00000000000E+00  0.00000000000E+00  0.45593999997E+02  0.45594000000E+02  0.51100000000E-03 0. -1.
         11   -1    0    0    0    0 -0.00000000000E+00 -0.00000000000E+00 -0.45593999997E+02  0.45594000000E+02  0.51100000000E-03 0.  1.
    9900012    2    1    2    0    0 -0.10765185695E+02 -0.19904354262E+02  0.38949209945E+02  0.46142317666E+02  0.99999991293E+01 0.  0.
        -12    1    1    2    0    0  0.10765185695E+02  0.19904354262E+02 -0.38949209945E+02  0.45045682334E+02  0.00000000000E+00 0.  1.
         11    1    3    3    0    0 -0.41102349768E+01 -0.13660681120E+02  0.28011051723E+02  0.31434491552E+02  0.51100000000E-03 0. -1.
        -11    1    3    3    0    0 -0.49483465245E+01 -0.27607615620E+01  0.81703352563E+01  0.99429530920E+01  0.51100000000E-03 0.  1.
         12    1    3    3    0    0 -0.17066041936E+01 -0.34829115794E+01  0.27678229659E+01  0.47648730218E+01  0.00000000000E+00 0. -1.
</event>
<event>
 7    1  0.4623443E-009  0.4614232E+02  0.7816164E-02  0.1320468E+00
        -11   -1    0    0    0    0  0.00000000000E+00  0.00000000000E+00  0.45593999997E+02  0.45594000000E+02  0.51100000000E-03 0. -1.
         11   -1    0    0    0    0 -0.00000000000E+00 -0.00000000000E+00 -0.45593999997E+02  0.45594000000E+02  0.51100000000E-03 0.  1.
    9900012    2    1    2    0    0 -0.87004761043E+01  0.15432111179E+02  0.41415759092E+02  0.46142318287E+02  0.10000004794E+02 0.  0.
        -12    1    1    2    0    0  0.87004761043E+01 -0.15432111179E+02 -0.41415759092E+02  0.45045681713E+02  0.00000000000E+00 0.  1.
         11    1    3    3    0    0 -0.42121970820E+01  0.28496574638E+01  0.13320883331E+02  0.14258649476E+02  0.51100000000E-03 0. -1.
        -11    1    3    3    0    0 -0.57859510861E+01  0.10374842121E+02  0.25963283898E+02  0.28551824636E+02  0.51100000000E-03 0.  1.
        -12    1    3    3    0    0  0.12976720638E+01  0.22076115936E+01  0.21315918628E+01  0.33318441745E+01  0.00000000000E+00 0.  1.
</event>
<event>
 7    1  0.4623443E-009  0.4614232E+02  0.7816164E-02  0.1320468E+00
        -11   -1    0    0    0    0  0.00000000000E+00  0.00000000000E+00  0.45593999997E+02  0.45594000000E+02  0.51100000000E-03 0.  1.
         11   -1    0    0    0    0 -0.00000000000E+00 -0.00000000000E+00 -0.45593999997E+02  0.45594000000E+02  0.51100000000E-03 0. -1.
    9900012    2    1    2    0    0 -0.32285972893E+02 -0.30770255551E+02 -0.63182873367E+01  0.46142318440E+02  0.10000006195E+02 0.  0.
         12    1    1    2    0    0  0.32285972893E+02  0.30770255551E+02  0.63182873367E+01  0.45045681560E+02  0.00000000000E+00 0. -1.
         11    1    3    3    0    0 -0.74979026314E+01 -0.11319937350E+02 -0.37011859579E+01  0.14073318842E+02  0.51100000000E-03 0. -1.
        -11    1    3    3    0    0 -0.14701461609E+02 -0.14415654090E+02 -0.48359818144E+00  0.20595580199E+02  0.51100000000E-03 0.  1.
        -12    1    3    3    0    0 -0.10086608652E+02 -0.50346641113E+01 -0.21335031973E+01  0.11473419399E+02  0.00000000000E+00 0.  1.
</event>
<event>
 7    1  0.4623443E-009  0.4614232E+02  0.7816164E-02  0.1320468E+00
        -11   -1    0    0    0    0  0.00000000000E+00  0.00000000000E+00  0.45593999997E+02  0.45594000000E+02  0.51100000000E-03 0. -1.
         11   -1    0    0    0    0 -0.00000000000E+00 -0.00000000000E+00 -0.45593999997E+02  0.45594000000E+02  0.51100000000E-03 0.  1.
    9900012    2    1    2    0    0 -0.14088770098E+02 -0.33562546173E+02 -0.26536306775E+02  0.46142317346E+02  0.99999962130E+01 0.  0.
         12    1    1    2    0    0  0.14088770098E+02  0.33562546173E+02  0.26536306775E+02  0.45045682654E+02  0.00000000000E+00 0. -1.
         11    1    3    3    0    0 -0.10357344636E+01 -0.18687239268E+01  0.54216519766E+00  0.22042727500E+01  0.51100000000E-03 0. -1.
        -11    1    3    3    0    0 -0.12301802680E+02 -0.25008240879E+02 -0.21536328699E+02  0.35221583087E+02  0.51100000000E-03 0.  1.
         12    1    3    3    0    0 -0.75123295491E+00 -0.66855813679E+01 -0.55421432734E+01  0.87164615093E+01  0.00000000000E+00 0. -1.
</event>
<event>
 7    1  0.4623443E-009  0.4614232E+02  0.7816164E-02  0.1320468E+00
        -11   -1    0    0    0    0  0.00000000000E+00  0.00000000000E+00  0.45593999997E+02  0.45594000000E+02  0.51100000000E-03 0. -1.
         11   -1    0    0    0    0 -0.00000000000E+00 -0.00000000000E+00 -0.45593999997E+02  0.45594000000E+02  0.51100000000E-03 0.  1.
    9900012    2    1    2    0    0 -0.69966326754E+01  0.16572345844E+02 -0.41297916627E+02  0.46142318373E+02  0.10000005577E+02 0.  0.
         12    1    1    2    0    0  0.69966326754E+01 -0.16572345844E+02  0.41297916627E+02  0.45045681627E+02  0.00000000000E+00 0. -1.
         11    1    3    3    0    0  0.83989325170E+00  0.82907616912E+00 -0.20885766704E+01  0.23989457554E+01  0.51100000000E-03 0. -1.
        -11    1    3    3    0    0 -0.27206280940E+01  0.27407807197E+01 -0.28736078468E+01  0.48136595743E+01  0.51100000000E-03 0.  1.
        -12    1    3    3    0    0 -0.51158978332E+01  0.13002488955E+02 -0.36335732110E+02  0.38929713043E+02  0.00000000000E+00 0.  1.
</event>
<event>
 7    1  0.4623443E-009  0.4614232E+02  0.7816164E-02  0.1320468E+00
        -11   -1    0    0    0    0  0.00000000000E+00  0.00000000000E+00  0.45593999997E+02  0.45594000000E+02  0.51100000000E-03 0. -1.
         11   -1    0    0    0    0 -0.00000000000E+00 -0.00000000000E+00 -0.45593999997E+02  0.45594000000E+02  0.51100000000E-03 0.  1.
    9900012    2    1    2    0    0 -0.17984182868E+01  0.44495718419E+00 -0.45007561442E+02  0.46142324489E+02  0.10000061353E+02 0.  0.
         12    1    1    2    0    0  0.17984182868E+01 -0.44495718419E+00  0.45007561442E+02  0.45045675511E+02  0.00000000000E+00 0. -1.
         11    1    3    3    0    0 -0.16077694079E+01  0.12851467446E+01 -0.50960108776E+01  0.54959850573E+01  0.51100000000E-03 0. -1.
        -11    1    3    3    0    0  0.17204303434E+01 -0.32899563451E+01 -0.30727154898E+02  0.30950633947E+02  0.51100000000E-03 0.  1.
        -12    1    3    3    0    0 -0.19110792222E+01  0.24497667847E+01 -0.91843956666E+01  0.96957054850E+01  0.00000000000E+00 0.  1.
</event>
<event>
 7    1  0.4623443E-009  0.4614232E+02  0.7816164E-02  0.1320468E+00
        -11   -1    0    0    0    0  0.00000000000E+00  0.00000000000E+00  0.45593999997E+02  0.45594000000E+02  0.51100000000E-03 0. -1.
         11   -1    0    0    0    0 -0.00000000000E+00 -0.00000000000E+00 -0.45593999997E+02  0.45594000000E+02  0.51100000000E-03 0.  1.
    9900012    2    1    2    0    0 -0.32538141961E+02 -0.15424692976E+02 -0.27064028035E+02  0.46142318197E+02  0.10000003972E+02 0.  0.
         12    1    1    2    0    0  0.32538141961E+02  0.15424692976E+02  0.27064028035E+02  0.45045681803E+02  0.00000000000E+00 0. -1.
         11    1    3    3    0    0 -0.12903977588E+01 -0.66549462233E+00  0.12695998269E+00  0.14574390439E+01  0.51100000000E-03 0. -1.
        -11    1    3    3    0    0 -0.87015695047E+01 -0.37797084611E+00 -0.70819358164E+01  0.11225595261E+02  0.51100000000E-03 0.  1.
        -12    1    3    3    0    0 -0.22546174697E+02 -0.14381227507E+02 -0.20109052201E+02  0.33459283891E+02  0.00000000000E+00 0.  1.
</event>
<event>
 7    1  0.4623443E-009  0.4614232E+02  0.7816164E-02  0.1320468E+00
        -11   -1    0    0    0    0  0.00000000000E+00  0.00000000000E+00  0.45593999997E+02  0.45594000000E+02  0.51100000000E-03 0. -1.
         11   -1    0    0    0    0 -0.00000000000E+00 -0.00000000000E+00 -0.45593999997E+02  0.45594000000E+02  0.51100000000E-03 0.  1.
    9900012    2    1    2    0    0 -0.26099085927E+01 -0.21787699291E+02 -0.39339521393E+02  0.46142318668E+02  0.10000008267E+02 0.  0.
         12    1    1    2    0    0  0.26099085927E+01  0.21787699291E+02  0.39339521393E+02  0.45045681332E+02  0.00000000000E+00 0. -1.
         11    1    3    3    0    0  0.21990760897E+00 -0.16295744026E+01 -0.50119247851E+00  0.17190306140E+01  0.51100000000E-03 0. -1.
        -11    1    3    3    0    0 -0.36430092196E+00 -0.53841083159E+01 -0.17783490133E+02  0.18584236845E+02  0.51100000000E-03 0.  1.
        -12    1    3    3    0    0 -0.24655152797E+01 -0.14774016572E+02 -0.21054838781E+02  0.25839051209E+02  0.00000000000E+00 0.  1.
</event>
<event>
 7    1  0.4623443E-009  0.4614232E+02  0.7816164E-02  0.1320468E+00
        -11   -1    0    0    0    0  0.00000000000E+00  0.00000000000E+00  0.45593999997E+02  0.45594000000E+02  0.51100000000E-03 0. -1.
         11   -1    0    0    0    0 -0.00000000000E+00 -0.00000000000E+00 -0.45593999997E+02  0.45594000000E+02  0.51100000000E-03 0.  1.
    9900012    2    1    2    0    0 -0.22016983862E+02  0.12189076455E+02  0.37360304349E+02  0.46142317585E+02  0.99999983904E+01 0.  0.
        -12    1    1    2    0    0  0.22016983862E+02 -0.12189076455E+02 -0.37360304349E+02  0.45045682415E+02  0.00000000000E+00 0.  1.
         11    1    3    3    0    0 -0.11722090489E+02  0.45126491687E+01  0.18959444015E+02  0.22742733468E+02  0.51100000000E-03 0. -1.
        -11    1    3    3    0    0 -0.22172701707E+01 -0.84886812827E+00  0.52865745190E+01  0.57952337757E+01  0.51100000000E-03 0.  1.
         12    1    3    3    0    0 -0.80776232025E+01  0.85252954141E+01  0.13114285815E+02  0.17604350341E+02  0.00000000000E+00 0. -1.
</event>
<event>
 7    1  0.4623443E-009  0.4614232E+02  0.7816164E-02  0.1320468E+00
        -11   -1    0    0    0    0  0.00000000000E+00  0.00000000000E+00  0.45593999997E+02  0.45594000000E+02  0.51100000000E-03 0. -1.
         11   -1    0    0    0    0 -0.00000000000E+00 -0.00000000000E+00 -0.45593999997E+02  0.45594000000E+02  0.51100000000E-03 0.  1.
    9900012    2    1    2    0    0  0.10684585426E+02 -0.13360153902E+02 -0.41670847623E+02  0.46142316304E+02  0.99999867173E+01 0.  0.
         12    1    1    2    0    0 -0.10684585426E+02  0.13360153902E+02  0.41670847623E+02  0.45045683696E+02  0.00000000000E+00 0. -1.
         11    1    3    3    0    0 -0.37800180690E+00  0.11078970720E+01 -0.14544616823E+01  0.18670244601E+01  0.51100000000E-03 0. -1.
        -11    1    3    3    0    0  0.17940468730E+01 -0.14933076829E+01 -0.31145054364E+01  0.38921351971E+01  0.51100000000E-03 0.  1.
         12    1    3    3    0    0  0.92685403596E+01 -0.12974743291E+02 -0.37101880504E+02  0.40383156647E+02  0.00000000000E+00 0. -1.
</event>
<event>
 7    1  0.4623443E-009  0.4614232E+02  0.7816164E-02  0.1320468E+00
        -11   -1    0    0    0    0  0.00000000000E+00  0.00000000000E+00  0.45593999997E+02  0.45594000000E+02  0.51100000000E-03 0. -1.
         11   -1    0    0    0    0 -0.00000000000E+00 -0.00000000000E+00 -0.45593999997E+02  0.45594000000E+02  0.51100000000E-03 0.  1.
    9900012    2    1    2    0    0  0.41375191777E+01  0.19886552097E+02 -0.40205963418E+02  0.46142317481E+02  0.99999974442E+01 0.  0.
         12    1    1    2    0    0 -0.41375191777E+01 -0.19886552097E+02  0.40205963418E+02  0.45045682519E+02  0.00000000000E+00 0. -1.
         11    1    3    3    0    0 -0.86918492019E+00  0.86004768606E+01 -0.12732782979E+02  0.15389848840E+02  0.51100000000E-03 0. -1.
        -11    1    3    3    0    0  0.10305150113E+01  0.93007582074E+01 -0.19309074356E+02  0.21457083147E+02  0.51100000000E-03 0.  1.
        -12    1    3    3    0    0  0.39761890865E+01  0.19853170292E+01 -0.81641060822E+01  0.92953854938E+01  0.00000000000E+00 0.  1.
</event>
<event>
 7    1  0.4623443E-009  0.4614232E+02  0.7816164E-02  0.1320468E+00
        -11   -1    0    0    0    0  0.00000000000E+00  0.00000000000E+00  0.45593999997E+02  0.45594000000E+02  0.51100000000E-03 0. -1.
         11   -1    0    0    0    0 -0.00000000000E+00 -0.00000000000E+00 -0.45593999997E+02  0.45594000000E+02  0.51100000000E-03 0.  1.
    9900012    2    1    2    0    0  0.23158551091E+02 -0.50171838264E+00  0.38633446320E+02  0.46142318914E+02  0.10000010512E+02 0.  0.
        -12    1    1    2    0    0 -0.23158551091E+02  0.50171838264E+00 -0.38633446320E+02  0.45045681086E+02  0.00000000000E+00 0.  1.
         11    1    3    3    0    0  0.10748646663E+02  0.15119737151E+01  0.18093798966E+02  0.21099882248E+02  0.51100000000E-03 0. -1.
        -11    1    3    3    0    0  0.95445953079E+01  0.62156882955E+00  0.10146151150E+02  0.13943816938E+02  0.51100000000E-03 0.  1.
        -12    1    3    3    0    0  0.28653091202E+01 -0.26352609273E+01  0.10393496204E+02  0.11098619727E+02  0.00000000000E+00 0.  1.
</event>
<event>
 7    1  0.4623443E-009  0.4614231E+02  0.7816164E-02  0.1320468E+00
        -11   -1    0    0    0    0  0.00000000000E+00  0.00000000000E+00  0.45593999997E+02  0.45594000000E+02  0.51100000000E-03 0. -1.
         11   -1    0    0    0    0 -0.00000000000E+00 -0.00000000000E+00 -0.45593999997E+02  0.45594000000E+02  0.51100000000E-03 0.  1.
    9900012    2    1    2    0    0 -0.13410551175E+01  0.33873728047E+02 -0.29662870685E+02  0.46142314548E+02  0.99999706978E+01 0.  0.
         12    1    1    2    0    0  0.13410551175E+01 -0.33873728047E+02  0.29662870685E+02  0.45045685452E+02  0.00000000000E+00 0. -1.
         11    1    3    3    0    0 -0.47832276210E+01  0.15419587456E+02 -0.15490894660E+02  0.22374332648E+02  0.51100000000E-03 0. -1.
        -11    1    3    3    0    0  0.26364939267E+01  0.17517691303E+02 -0.13863196187E+02  0.22494639752E+02  0.51100000000E-03 0.  1.
         12    1    3    3    0    0  0.80567857681E+00  0.93644928699E+00 -0.30877983782E+00  0.12733421474E+01  0.00000000000E+00 0. -1.
</event>
<event>
 7    1  0.4623443E-009  0.4614232E+02  0.7816164E-02  0.1320468E+00
        -11   -1    0    0    0    0  0.00000000000E+00  0.00000000000E+00  0.45593999997E+02  0.45594000000E+02  0.51100000000E-03 0. -1.
         11   -1    0    0    0    0 -0.00000000000E+00 -0.00000000000E+00 -0.45593999997E+02  0.45594000000E+02  0.51100000000E-03 0.  1.
    9900012    2    1    2    0    0  0.29369977825E+02  0.19359114914E+01 -0.34099415165E+02  0.46142318017E+02  0.10000002332E+02 0.  0.
         12    1    1    2    0    0 -0.29369977825E+02 -0.19359114914E+01  0.34099415165E+02  0.45045681983E+02  0.00000000000E+00 0. -1.
         11    1    3    3    0    0  0.11363358136E+02  0.36287345369E+01 -0.18155859524E+02  0.21723923628E+02  0.51100000000E-03 0. -1.
        -11    1    3    3    0    0  0.35198156921E+01  0.81347518778E+00 -0.45995389672E+01  0.58486411550E+01  0.51100000000E-03 0.  1.
         12    1    3    3    0    0  0.14486803997E+02 -0.25062982332E+01 -0.11344016673E+02  0.18569753234E+02  0.00000000000E+00 0. -1.
</event>
<event>
 7    1  0.4623443E-009  0.4614232E+02  0.7816164E-02  0.1320468E+00
        -11   -1    0    0    0    0  0.00000000000E+00  0.00000000000E+00  0.45593999997E+02  0.45594000000E+02  0.51100000000E-03 0.  1.
         11   -1    0    0    0    0 -0.00000000000E+00 -0.00000000000E+00 -0.45593999997E+02  0.45594000000E+02  0.51100000000E-03 0. -1.
    9900012    2    1    2    0    0  0.20803556679E+02 -0.39354925434E+02 -0.68931518307E+01  0.46142315761E+02  0.99999817619E+01 0.  0.
         12    1    1    2    0    0 -0.20803556679E+02  0.39354925434E+02  0.68931518307E+01  0.45045684239E+02  0.00000000000E+00 0. -1.
         11    1    3    3    0    0  0.13424950049E+01 -0.24815434209E+01 -0.22295913870E+01  0.35960295608E+01  0.51100000000E-03 0. -1.
        -11    1    3    3    0    0  0.11161239404E+02 -0.26611611731E+02 -0.52679054697E+01  0.29334313904E+02  0.51100000000E-03 0.  1.
         12    1    3    3    0    0  0.82998222698E+01 -0.10261770282E+02  0.60434502611E+00  0.13211972296E+02  0.00000000000E+00 0. -1.
</event>
<event>
 7    1  0.4623443E-009  0.4614232E+02  0.7816164E-02  0.1320468E+00
        -11   -1    0    0    0    0  0.00000000000E+00  0.00000000000E+00  0.45593999997E+02  0.45594000000E+02  0.51100000000E-03 0. -1.
         11   -1    0    0    0    0 -0.00000000000E+00 -0.00000000000E+00 -0.45593999997E+02  0.45594000000E+02  0.51100000000E-03 0.  1.
    9900012    2    1    2    0    0 -0.19580629350E+02 -0.23575018081E+02  0.33014099488E+02  0.46142319982E+02  0.10000020256E+02 0.  0.
        -12    1    1    2    0    0  0.19580629350E+02  0.23575018081E+02 -0.33014099488E+02  0.45045680018E+02  0.00000000000E+00 0.  1.
         11    1    3    3    0    0 -0.93713647238E+01 -0.10341737430E+02  0.18686877881E+02  0.23323237662E+02  0.51100000000E-03 0. -1.
        -11    1    3    3    0    0 -0.10106471732E+02 -0.12125419657E+02  0.14773814520E+02  0.21620179658E+02  0.51100000000E-03 0.  1.
         12    1    3    3    0    0 -0.10279289361E+00 -0.11078609945E+01 -0.44659291330E+00  0.11989026617E+01  0.00000000000E+00 0. -1.
</event>
<event>
 7    1  0.4623443E-009  0.4614231E+02  0.7816164E-02  0.1320468E+00
        -11   -1    0    0    0    0  0.00000000000E+00  0.00000000000E+00  0.45593999997E+02  0.45594000000E+02  0.51100000000E-03 0. -1.
         11   -1    0    0    0    0 -0.00000000000E+00 -0.00000000000E+00 -0.45593999997E+02  0.45594000000E+02  0.51100000000E-03 0.  1.
    9900012    2    1    2    0    0  0.15999159426E+02  0.29404072275E+02  0.30142017884E+02  0.46142314182E+02  0.99999673617E+01 0.  0.
        -12    1    1    2    0    0 -0.15999159426E+02 -0.29404072275E+02 -0.30142017884E+02  0.45045685818E+02  0.00000000000E+00 0.  1.
         11    1    3    3    0    0 -0.10142818030E+01  0.12433087414E+01  0.72446564589E+00  0.17605212114E+01  0.51100000000E-03 0. -1.
        -11    1    3    3    0    0  0.60157958449E+01  0.11490976902E+02  0.87748623089E+01  0.15659839035E+02  0.51100000000E-03 0.  1.
         12    1    3    3    0    0  0.10997645384E+02  0.16669786632E+02  0.20642689929E+02  0.28721953935E+02  0.00000000000E+00 0. -1.
</event>
<event>
 7    1  0.4623443E-009  0.4614232E+02  0.7816164E-02  0.1320468E+00
        -11   -1    0    0    0    0  0.00000000000E+00  0.00000000000E+00  0.45593999997E+02  0.45594000000E+02  0.51100000000E-03 0. -1.
         11   -1    0    0    0    0 -0.00000000000E+00 -0.00000000000E+00 -0.45593999997E+02  0.45594000000E+02  0.51100000000E-03 0.  1.
    9900012    2    1    2    0    0  0.93702253447E+01 -0.23002352013E+02 -0.37579305341E+02  0.46142317509E+02  0.99999977043E+01 0.  0.
         12    1    1    2    0    0 -0.93702253447E+01  0.23002352013E+02  0.37579305341E+02  0.45045682491E+02  0.00000000000E+00 0. -1.
         11    1    3    3    0    0  0.69666668311E+00 -0.42124960474E+01 -0.30818622309E+01  0.52657708352E+01  0.51100000000E-03 0. -1.
        -11    1    3    3    0    0  0.53142407567E+01 -0.12348097337E+02 -0.15389778231E+02  0.20434332309E+02  0.51100000000E-03 0.  1.
        -12    1    3    3    0    0  0.33593179049E+01 -0.64417586289E+01 -0.19107664879E+02  0.20442214365E+02  0.00000000000E+00 0.  1.
</event>
<event>
 7    1  0.4623443E-009  0.4614232E+02  0.7816164E-02  0.1320468E+00
        -11   -1    0    0    0    0  0.00000000000E+00  0.00000000000E+00  0.45593999997E+02  0.45594000000E+02  0.51100000000E-03 0. -1.
         11   -1    0    0    0    0 -0.00000000000E+00 -0.00000000000E+00 -0.45593999997E+02  0.45594000000E+02  0.51100000000E-03 0.  1.
    9900012    2    1    2    0    0  0.28252850794E+02  0.20222002207E+02 -0.28669850960E+02  0.46142319793E+02  0.10000018528E+02 0.  0.
         12    1    1    2    0    0 -0.28252850794E+02 -0.20222002207E+02  0.28669850960E+02  0.45045680207E+02  0.00000000000E+00 0. -1.
         11    1    3    3    0    0  0.16228475452E+01  0.15918811040E+01 -0.40976001148E+01  0.46859413746E+01  0.51100000000E-03 0. -1.
        -11    1    3    3    0    0  0.24239531102E+02  0.14337950530E+02 -0.22795151642E+02  0.36231900752E+02  0.51100000000E-03 0.  1.
         12    1    3    3    0    0  0.23904721470E+01  0.42921705726E+01 -0.17770992029E+01  0.52244776664E+01  0.00000000000E+00 0. -1.
</event>
<event>
 7    1  0.4623443E-009  0.4614232E+02  0.7816164E-02  0.1320468E+00
        -11   -1    0    0    0    0  0.00000000000E+00  0.00000000000E+00  0.45593999997E+02  0.45594000000E+02  0.51100000000E-03 0. -1.
         11   -1    0    0    0    0 -0.00000000000E+00 -0.00000000000E+00 -0.45593999997E+02  0.45594000000E+02  0.51100000000E-03 0.  1.
    9900012    2    1    2    0    0  0.32868312165E+02 -0.26630515578E+02  0.15479118745E+02  0.46142318502E+02  0.10000006755E+02 0.  0.
        -12    1    1    2    0    0 -0.32868312165E+02  0.26630515578E+02 -0.15479118745E+02  0.45045681498E+02  0.00000000000E+00 0.  1.
         11    1    3    3    0    0  0.25420280090E+02 -0.20891811489E+02  0.11047190532E+02  0.34708771890E+02  0.51100000000E-03 0. -1.
        -11    1    3    3    0    0  0.76169365712E+01 -0.52064737708E+01  0.51165542348E+01  0.10550081486E+02  0.51100000000E-03 0.  1.
         12    1    3    3    0    0 -0.16890449698E+00 -0.53223031782E+00 -0.68462602162E+00  0.88346512652E+00  0.00000000000E+00 0. -1.
</event>
<event>
 7    1  0.4623443E-009  0.4614232E+02  0.7816164E-02  0.1320468E+00
        -11   -1    0    0    0    0  0.00000000000E+00  0.00000000000E+00  0.45593999997E+02  0.45594000000E+02  0.51100000000E-03 0. -1.
         11   -1    0    0    0    0 -0.00000000000E+00 -0.00000000000E+00 -0.45593999997E+02  0.45594000000E+02  0.51100000000E-03 0.  1.
    9900012    2    1    2    0    0 -0.14334972252E+02 -0.82846060092E+01  0.41892570038E+02  0.46142317071E+02  0.99999937036E+01 0.  0.
        -12    1    1    2    0    0  0.14334972252E+02  0.82846060092E+01 -0.41892570038E+02  0.45045682929E+02  0.00000000000E+00 0.  1.
         11    1    3    3    0    0 -0.13071826060E+02 -0.56166062909E+01  0.30120556793E+02  0.33311662291E+02  0.51100000000E-03 0. -1.
        -11    1    3    3    0    0 -0.21666403786E+01 -0.25278903803E+01  0.11341496872E+02  0.11820072414E+02  0.51100000000E-03 0.  1.
        -12    1    3    3    0    0  0.90349418665E+00 -0.14010933804E+00  0.43051637256E+00  0.10105823662E+01  0.00000000000E+00 0.  1.
</event>
<event>
 7    1  0.4623443E-009  0.4614232E+02  0.7816164E-02  0.1320468E+00
        -11   -1    0    0    0    0  0.00000000000E+00  0.00000000000E+00  0.45593999997E+02  0.45594000000E+02  0.51100000000E-03 0. -1.
         11   -1    0    0    0    0 -0.00000000000E+00 -0.00000000000E+00 -0.45593999997E+02  0.45594000000E+02  0.51100000000E-03 0.  1.
    9900012    2    1    2    0    0 -0.27330441850E+02  0.92945383410E+01 -0.34579935704E+02  0.46142318209E+02  0.10000004086E+02 0.  0.
         12    1    1    2    0    0  0.27330441850E+02 -0.92945383410E+01  0.34579935704E+02  0.45045681791E+02  0.00000000000E+00 0. -1.
         11    1    3    3    0    0 -0.43949795378E+01  0.31066828780E+01 -0.87547628855E+01  0.10276828163E+02  0.51100000000E-03 0. -1.
        -11    1    3    3    0    0  0.35174754716E+00  0.93532493881E+00 -0.13073047793E+01  0.16454802111E+01  0.51100000000E-03 0.  1.
        -12    1    3    3    0    0 -0.23287209859E+02  0.52525305242E+01 -0.24517868039E+02  0.34220009836E+02  0.00000000000E+00 0.  1.
</event>
<event>
 7    1  0.4623443E-009  0.4614232E+02  0.7816164E-02  0.1320468E+00
        -11   -1    0    0    0    0  0.00000000000E+00  0.00000000000E+00  0.45593999997E+02  0.45594000000E+02  0.51100000000E-03 0. -1.
         11   -1    0    0    0    0 -0.00000000000E+00 -0.00000000000E+00 -0.45593999997E+02  0.45594000000E+02  0.51100000000E-03 0.  1.
    9900012    2    1    2    0    0  0.22082882132E+02 -0.14179115392E+02 -0.36611644185E+02  0.46142317782E+02  0.10000000190E+02 0.  0.
         12    1    1    2    0    0 -0.22082882132E+02  0.14179115392E+02  0.36611644185E+02  0.45045682218E+02  0.00000000000E+00 0. -1.
         11    1    3    3    0    0  0.67413098742E+00 -0.38329729346E+01 -0.41093385096E+01  0.56597524110E+01  0.51100000000E-03 0. -1.
        -11    1    3    3    0    0  0.40881700249E+01 -0.56966956758E+00 -0.41825149758E+01  0.58763159678E+01  0.51100000000E-03 0.  1.
         12    1    3    3    0    0  0.17320581119E+02 -0.97764728899E+01 -0.28319790700E+02  0.34606249403E+02  0.00000000000E+00 0. -1.
</event>
<event>
 7    1  0.4623443E-009  0.4614232E+02  0.7816164E-02  0.1320468E+00
        -11   -1    0    0    0    0  0.00000000000E+00  0.00000000000E+00  0.45593999997E+02  0.45594000000E+02  0.51100000000E-03 0. -1.
         11   -1    0    0    0    0 -0.00000000000E+00 -0.00000000000E+00 -0.45593999997E+02  0.45594000000E+02  0.51100000000E-03 0.  1.
    9900012    2    1    2    0    0 -0.29350943609E+02 -0.54723001218E+01  0.33729654608E+02  0.46142316973E+02  0.99999928165E+01 0.  0.
        -12    1    1    2    0    0  0.29350943609E+02  0.54723001218E+01 -0.33729654608E+02  0.45045683027E+02  0.00000000000E+00 0.  1.
         11    1    3    3    0    0 -0.72303963193E+01  0.66948997075E+00  0.48922980980E+01  0.87556512433E+01  0.51100000000E-03 0. -1.
        -11    1    3    3    0    0 -0.41174830749E+01  0.12932375432E+01  0.53320484278E+01  0.68598010840E+01  0.51100000000E-03 0.  1.
         12    1    3    3    0    0 -0.18003064214E+02 -0.74350276357E+01  0.23505308083E+02  0.30526864646E+02  0.00000000000E+00 0. -1.
</event>
<event>
 7    1  0.4623443E-009  0.4614232E+02  0.7816164E-02  0.1320468E+00
        -11   -1    0    0    0    0  0.00000000000E+00  0.00000000000E+00  0.45593999997E+02  0.45594000000E+02  0.51100000000E-03 0. -1.
         11   -1    0    0    0    0 -0.00000000000E+00 -0.00000000000E+00 -0.45593999997E+02  0.45594000000E+02  0.51100000000E-03 0.  1.
    9900012    2    1    2    0    0  0.17891478682E+02  0.27704529375E+02  0.30683342647E+02  0.46142317928E+02  0.10000001520E+02 0.  0.
        -12    1    1    2    0    0 -0.17891478682E+02 -0.27704529375E+02 -0.30683342647E+02  0.45045682072E+02  0.00000000000E+00 0.  1.
         11    1    3    3    0    0  0.10100365223E+02  0.11455659621E+02  0.17299737471E+02  0.23076620893E+02  0.51100000000E-03 0.  1.
        -11    1    3    3    0    0  0.78137882298E+01  0.15643049756E+02  0.13845314799E+02  0.22303655178E+02  0.51100000000E-03 0. -1.
         12    1    3    3    0    0 -0.22674770760E-01  0.60581999830E+00 -0.46170962294E+00  0.76204185678E+00  0.00000000000E+00 0. -1.
</event>
<event>
 7    1  0.4623443E-009  0.4614232E+02  0.7816164E-02  0.1320468E+00
        -11   -1    0    0    0    0  0.00000000000E+00  0.00000000000E+00  0.45593999997E+02  0.45594000000E+02  0.51100000000E-03 0. -1.
         11   -1    0    0    0    0 -0.00000000000E+00 -0.00000000000E+00 -0.45593999997E+02  0.45594000000E+02  0.51100000000E-03 0.  1.
    9900012    2    1    2    0    0  0.32893660450E+01  0.62463758781E+01 -0.44489058855E+02  0.46142317650E+02  0.99999989866E+01 0.  0.
         12    1    1    2    0    0 -0.32893660450E+01 -0.62463758781E+01  0.44489058855E+02  0.45045682350E+02  0.00000000000E+00 0. -1.
         11    1    3    3    0    0  0.28373348319E+01 -0.15070202784E+00 -0.28747354733E+02  0.28887429523E+02  0.51100000000E-03 0. -1.
        -11    1    3    3    0    0 -0.46115528974E+00  0.29360570871E+00 -0.29549627148E+00  0.62143931403E+00  0.51100000000E-03 0.  1.
        -12    1    3    3    0    0  0.91318650286E+00  0.61034721972E+01 -0.15446207851E+02  0.16633448813E+02  0.00000000000E+00 0.  1.
</event>
<event>
 7    1  0.4623443E-009  0.4614232E+02  0.7816164E-02  0.1320468E+00
        -11   -1    0    0    0    0  0.00000000000E+00  0.00000000000E+00  0.45593999997E+02  0.45594000000E+02  0.51100000000E-03 0. -1.
         11   -1    0    0    0    0 -0.00000000000E+00 -0.00000000000E+00 -0.45593999997E+02  0.45594000000E+02  0.51100000000E-03 0.  1.
    9900012    2    1    2    0    0 -0.13909716837E+02  0.41775606226E+02 -0.95095760966E+01  0.46142317237E+02  0.99999952222E+01 0.  0.
         12    1    1    2    0    0  0.13909716837E+02 -0.41775606226E+02  0.95095760966E+01  0.45045682763E+02  0.00000000000E+00 0. -1.
         11    1    3    3    0    0 -0.88101990422E+01  0.29199066019E+02 -0.74361513991E+01  0.31392696785E+02  0.51100000000E-03 0. -1.
        -11    1    3    3    0    0 -0.42446213282E+01  0.11853392313E+02 -0.22975186670E+00  0.12592557553E+02  0.51100000000E-03 0.  1.
         12    1    3    3    0    0 -0.85489646670E+00  0.72314789459E+00 -0.18436728308E+01  0.21570628997E+01  0.00000000000E+00 0. -1.
</event>
<event>
 7    1  0.4623443E-009  0.4614232E+02  0.7816164E-02  0.1320468E+00
        -11   -1    0    0    0    0  0.00000000000E+00  0.00000000000E+00  0.45593999997E+02  0.45594000000E+02  0.51100000000E-03 0.  1.
         11   -1    0    0    0    0 -0.00000000000E+00 -0.00000000000E+00 -0.45593999997E+02  0.45594000000E+02  0.51100000000E-03 0. -1.
    9900012    2    1    2    0    0  0.33860157954E+02 -0.27982039403E+02  0.99804110894E+01  0.46142318394E+02  0.10000005773E+02 0.  0.
         12    1    1    2    0    0 -0.33860157954E+02  0.27982039403E+02 -0.99804110894E+01  0.45045681606E+02  0.00000000000E+00 0. -1.
         11    1    3    3    0    0  0.80877205634E+01 -0.27587208296E+01  0.37760884545E+01  0.93424091542E+01  0.51100000000E-03 0. -1.
        -11    1    3    3    0    0  0.10422460983E+01 -0.19454554382E+01  0.10661798538E+01  0.24510841546E+01  0.51100000000E-03 0.  1.
        -12    1    3    3    0    0  0.24730191292E+02 -0.23277863136E+02  0.51381427811E+01  0.34348825085E+02  0.00000000000E+00 0.  1.
</event>
<event>
 7    1  0.4982093E-009  0.4614232E+02  0.7816164E-02  0.1320468E+00
        -11   -1    0    0    0    0  0.00000000000E+00  0.00000000000E+00  0.45593999997E+02  0.45594000000E+02  0.51100000000E-03 0. -1.
         11   -1    0    0    0    0 -0.00000000000E+00 -0.00000000000E+00 -0.45593999997E+02  0.45594000000E+02  0.51100000000E-03 0.  1.
    9900012    2    1    2    0    0 -0.22406748064E+02 -0.17712632634E+02 -0.34832656020E+02  0.46142316089E+02  0.99999847513E+01 0.  0.
         12    1    1    2    0    0  0.22406748064E+02  0.17712632634E+02  0.34832656020E+02  0.45045683911E+02  0.00000000000E+00 0. -1.
         11    1    3    3    0    0 -0.28821881408E+01 -0.32789280130E+01 -0.93716470668E+01  0.10338575646E+02  0.51100000000E-03 0. -1.
        -11    1    3    3    0    0 -0.53159421051E+01 -0.37825438604E+01 -0.11473614044E+02  0.13198890029E+02  0.51100000000E-03 0.  1.
         12    1    3    3    0    0 -0.14208617818E+02 -0.10651160760E+02 -0.13987394909E+02  0.22604850413E+02  0.00000000000E+00 0. -1.
</event>
<event>
 7    1  0.4623443E-009  0.4614232E+02  0.7816164E-02  0.1320468E+00
        -11   -1    0    0    0    0  0.00000000000E+00  0.00000000000E+00  0.45593999997E+02  0.45594000000E+02  0.51100000000E-03 0. -1.
         11   -1    0    0    0    0 -0.00000000000E+00 -0.00000000000E+00 -0.45593999997E+02  0.45594000000E+02  0.51100000000E-03 0.  1.
    9900012    2    1    2    0    0 -0.13201289234E+02  0.11630421044E+02 -0.41467731856E+02  0.46142317450E+02  0.99999971651E+01 0.  0.
         12    1    1    2    0    0  0.13201289234E+02 -0.11630421044E+02  0.41467731856E+02  0.45045682550E+02  0.00000000000E+00 0. -1.
         11    1    3    3    0    0 -0.95527760692E+00  0.16185814112E+01 -0.52026631321E+00  0.19501380435E+01  0.51100000000E-03 0. -1.
        -11    1    3    3    0    0 -0.27739326193E+01  0.21413059892E+01 -0.43961218664E+01  0.56219019238E+01  0.51100000000E-03 0.  1.
         12    1    3    3    0    0 -0.94720790076E+01  0.78705336435E+01 -0.36551343676E+02  0.38570277483E+02  0.00000000000E+00 0. -1.
</event>
<event>
 7    1  0.4623443E-009  0.4614232E+02  0.7816164E-02  0.1320468E+00
        -11   -1    0    0    0    0  0.00000000000E+00  0.00000000000E+00  0.45593999997E+02  0.45594000000E+02  0.51100000000E-03 0. -1.
         11   -1    0    0    0    0 -0.00000000000E+00 -0.00000000000E+00 -0.45593999997E+02  0.45594000000E+02  0.51100000000E-03 0.  1.
    9900012    2    1    2    0    0  0.17730055600E+02 -0.34703671512E+02  0.22592340234E+02  0.46142317352E+02  0.99999962669E+01 0.  0.
        -12    1    1    2    0    0 -0.17730055600E+02  0.34703671512E+02 -0.22592340234E+02  0.45045682648E+02  0.00000000000E+00 0.  1.
         11    1    3    3    0    0  0.60586639296E+01 -0.66530755205E+01  0.44985925965E+01  0.10060226543E+02  0.51100000000E-03 0. -1.
        -11    1    3    3    0    0  0.10603662998E+02 -0.20224167816E+02  0.16085037088E+02  0.27931757037E+02  0.51100000000E-03 0.  1.
        -12    1    3    3    0    0  0.10677286725E+01 -0.78264281755E+01  0.20087105500E+01  0.81503337709E+01  0.00000000000E+00 0.  1.
</event>
<event>
 7    1  0.4623443E-009  0.4614232E+02  0.7816164E-02  0.1320468E+00
        -11   -1    0    0    0    0  0.00000000000E+00  0.00000000000E+00  0.45593999997E+02  0.45594000000E+02  0.51100000000E-03 0. -1.
         11   -1    0    0    0    0 -0.00000000000E+00 -0.00000000000E+00 -0.45593999997E+02  0.45594000000E+02  0.51100000000E-03 0.  1.
    9900012    2    1    2    0    0  0.62102664343E+01  0.33385777237E+02  0.29596213077E+02  0.46142319193E+02  0.10000013055E+02 0.  0.
        -12    1    1    2    0    0 -0.62102664343E+01 -0.33385777237E+02 -0.29596213077E+02  0.45045680807E+02  0.00000000000E+00 0.  1.
         11    1    3    3    0    0 -0.19587519557E+01  0.27045277193E+01  0.36130929048E+01  0.49199207319E+01  0.51100000000E-03 0. -1.
        -11    1    3    3    0    0  0.15384446473E+01  0.27695480364E+01  0.14923691936E+01  0.35020528737E+01  0.51100000000E-03 0.  1.
         12    1    3    3    0    0  0.66305737427E+01  0.27911701481E+02  0.24490750978E+02  0.37720345587E+02  0.00000000000E+00 0. -1.
</event>
<event>
 7    1  0.4623443E-009  0.4614232E+02  0.7816164E-02  0.1320468E+00
        -11   -1    0    0    0    0  0.00000000000E+00  0.00000000000E+00  0.45593999997E+02  0.45594000000E+02  0.51100000000E-03 0. -1.
         11   -1    0    0    0    0 -0.00000000000E+00 -0.00000000000E+00 -0.45593999997E+02  0.45594000000E+02  0.51100000000E-03 0.  1.
    9900012    2    1    2    0    0 -0.63327831410E+01 -0.24111325365E+02  0.37518706361E+02  0.46142317852E+02  0.10000000829E+02 0.  0.
        -12    1    1    2    0    0  0.63327831410E+01  0.24111325365E+02 -0.37518706361E+02  0.45045682148E+02  0.00000000000E+00 0.  1.
         11    1    3    3    0    0  0.59865629636E+00 -0.17753209184E-01  0.17190307536E+00  0.62310148936E+00  0.51100000000E-03 0. -1.
        -11    1    3    3    0    0  0.10857564382E+01 -0.46013178319E+01  0.93335623345E+01  0.10462618169E+02  0.51100000000E-03 0.  1.
         12    1    3    3    0    0 -0.80171958756E+01 -0.19492254324E+02  0.28013240951E+02  0.35056598194E+02  0.00000000000E+00 0. -1.
</event>
<event>
 7    1  0.4623443E-009  0.4614232E+02  0.7816164E-02  0.1320468E+00
        -11   -1    0    0    0    0  0.00000000000E+00  0.00000000000E+00  0.45593999997E+02  0.45594000000E+02  0.51100000000E-03 0. -1.
         11   -1    0    0    0    0 -0.00000000000E+00 -0.00000000000E+00 -0.45593999997E+02  0.45594000000E+02  0.51100000000E-03 0.  1.
    9900012    2    1    2    0    0  0.80438330580E+00 -0.31431657785E+02 -0.32257052231E+02  0.46142316941E+02  0.99999925223E+01 0.  0.
         12    1    1    2    0    0 -0.80438330580E+00  0.31431657785E+02  0.32257052231E+02  0.45045683059E+02  0.00000000000E+00 0. -1.
         11    1    3    3    0    0 -0.75048168668E+00 -0.39468130473E+00 -0.16315592215E+01  0.18387446393E+01  0.51100000000E-03 0. -1.
        -11    1    3    3    0    0 -0.13368772523E+01 -0.26681180999E+02 -0.26659430500E+02  0.37741196260E+02  0.51100000000E-03 0.  1.
        -12    1    3    3    0    0  0.28917422448E+01 -0.43557954811E+01 -0.39660625099E+01  0.65623760419E+01  0.00000000000E+00 0.  1.
</event>
<event>
 7    1  0.4676724E-009  0.4614232E+02  0.7816164E-02  0.1320468E+00
        -11   -1    0    0    0    0  0.00000000000E+00  0.00000000000E+00  0.45593999997E+02  0.45594000000E+02  0.51100000000E-03 0. -1.
         11   -1    0    0    0    0 -0.00000000000E+00 -0.00000000000E+00 -0.45593999997E+02  0.45594000000E+02  0.51100000000E-03 0.  1.
    9900012    2    1    2    0    0  0.18607850333E+02 -0.24012766043E+02 -0.33260309365E+02  0.46142320894E+02  0.10000028572E+02 0.  0.
         12    1    1    2    0    0 -0.18607850333E+02  0.24012766043E+02  0.33260309365E+02  0.45045679106E+02  0.00000000000E+00 0. -1.
         11    1    3    3    0    0 -0.17332988078E+00 -0.14454671429E+01 -0.60683800335E+00  0.15772352812E+01  0.51100000000E-03 0. -1.
        -11    1    3    3    0    0  0.84610957085E+01 -0.15472358911E+02 -0.21383430795E+02  0.27717055105E+02  0.51100000000E-03 0.  1.
         12    1    3    3    0    0  0.10320084505E+02 -0.70949399894E+01 -0.11270040566E+02  0.16848030508E+02  0.00000000000E+00 0. -1.
</event>
<event>
 7    1  0.4623443E-009  0.4614232E+02  0.7816164E-02  0.1320468E+00
        -11   -1    0    0    0    0  0.00000000000E+00  0.00000000000E+00  0.45593999997E+02  0.45594000000E+02  0.51100000000E-03 0. -1.
         11   -1    0    0    0    0 -0.00000000000E+00 -0.00000000000E+00 -0.45593999997E+02  0.45594000000E+02  0.51100000000E-03 0.  1.
    9900012    2    1    2    0    0  0.87791999533E+01 -0.16839774732E+02  0.40846802108E+02  0.46142316441E+02  0.99999879652E+01 0.  0.
        -12    1    1    2    0    0 -0.87791999533E+01  0.16839774732E+02 -0.40846802108E+02  0.45045683559E+02  0.00000000000E+00 0.  1.
         11    1    3    3    0    0  0.61285422091E+00 -0.28904673762E+01  0.17295890670E+02  0.17546459080E+02  0.51100000000E-03 0. -1.
        -11    1    3    3    0    0  0.50561771656E+01 -0.98274769413E+01  0.15746357934E+02  0.19237775833E+02  0.51100000000E-03 0.  1.
         12    1    3    3    0    0  0.31101685667E+01 -0.41218304144E+01  0.78045535039E+01  0.93580815274E+01  0.00000000000E+00 0. -1.
</event>
<event>
 7    1  0.4623443E-009  0.4614232E+02  0.7816164E-02  0.1320468E+00
        -11   -1    0    0    0    0  0.00000000000E+00  0.00000000000E+00  0.45593999997E+02  0.45594000000E+02  0.51100000000E-03 0. -1.
         11   -1    0    0    0    0 -0.00000000000E+00 -0.00000000000E+00 -0.45593999997E+02  0.45594000000E+02  0.51100000000E-03 0.  1.
    9900012    2    1    2    0    0 -0.44146242574E+02  0.40891227934E+01  0.79687971591E+01  0.46142318889E+02  0.10000010286E+02 0.  0.
        -12    1    1    2    0    0  0.44146242574E+02 -0.40891227934E+01 -0.79687971591E+01  0.45045681111E+02  0.00000000000E+00 0.  1.
         11    1    3    3    0    0 -0.30929760726E+02  0.16819444625E+01  0.54742110009E+01  0.31455460927E+02  0.51100000000E-03 0. -1.
        -11    1    3    3    0    0 -0.11753064600E+02  0.22207417088E+00  0.13998318529E+01  0.11838216669E+02  0.51100000000E-03 0.  1.
        -12    1    3    3    0    0 -0.14634172474E+01  0.21851041600E+01  0.10947543052E+01  0.28486412935E+01  0.00000000000E+00 0.  1.
</event>
<event>
 7    1  0.4623443E-009  0.4614232E+02  0.7816164E-02  0.1320468E+00
        -11   -1    0    0    0    0  0.00000000000E+00  0.00000000000E+00  0.45593999997E+02  0.45594000000E+02  0.51100000000E-03 0. -1.
         11   -1    0    0    0    0 -0.00000000000E+00 -0.00000000000E+00 -0.45593999997E+02  0.45594000000E+02  0.51100000000E-03 0.  1.
    9900012    2    1    2    0    0 -0.26972246620E+02 -0.18184699977E+02 -0.31159719508E+02  0.46142317402E+02  0.99999967217E+01 0.  0.
         12    1    1    2    0    0  0.26972246620E+02  0.18184699977E+02  0.31159719508E+02  0.45045682598E+02  0.00000000000E+00 0. -1.
         11    1    3    3    0    0 -0.34306023201E+01 -0.56543212911E+01 -0.78842361686E+01  0.10290848447E+02  0.51100000000E-03 0. -1.
        -11    1    3    3    0    0 -0.14665044261E+02 -0.55903960357E+01 -0.16151063034E+02  0.22520499293E+02  0.51100000000E-03 0.  1.
         12    1    3    3    0    0 -0.88766000381E+01 -0.69399826503E+01 -0.71244203047E+01  0.13330969661E+02  0.00000000000E+00 0. -1.
</event>
<event>
 7    1  0.4623443E-009  0.4614232E+02  0.7816164E-02  0.1320468E+00
        -11   -1    0    0    0    0  0.00000000000E+00  0.00000000000E+00  0.45593999997E+02  0.45594000000E+02  0.51100000000E-03 0. -1.
         11   -1    0    0    0    0 -0.00000000000E+00 -0.00000000000E+00 -0.45593999997E+02  0.45594000000E+02  0.51100000000E-03 0.  1.
    9900012    2    1    2    0    0  0.21581817912E+02 -0.98641783634E+01 -0.38288858044E+02  0.46142317304E+02  0.99999958349E+01 0.  0.
         12    1    1    2    0    0 -0.21581817912E+02  0.98641783634E+01  0.38288858044E+02  0.45045682696E+02  0.00000000000E+00 0. -1.
         11    1    3    3    0    0  0.10187031077E+02 -0.19705080404E+01 -0.14658713380E+02  0.17959297935E+02  0.51100000000E-03 0. -1.
        -11    1    3    3    0    0  0.77541659816E+00  0.63694300979E+00 -0.50268220789E+01  0.51260030992E+01  0.51100000000E-03 0.  1.
        -12    1    3    3    0    0  0.10619370237E+02 -0.85306133327E+01 -0.18603322585E+02  0.23057016270E+02  0.00000000000E+00 0.  1.
</event>
<event>
 7    1  0.4623443E-009  0.4614232E+02  0.7816164E-02  0.1320468E+00
        -11   -1    0    0    0    0  0.00000000000E+00  0.00000000000E+00  0.45593999997E+02  0.45594000000E+02  0.51100000000E-03 0. -1.
         11   -1    0    0    0    0 -0.00000000000E+00 -0.00000000000E+00 -0.45593999997E+02  0.45594000000E+02  0.51100000000E-03 0.  1.
    9900012    2    1    2    0    0  0.17367089778E+02  0.29850120862E+01 -0.41455848568E+02  0.46142317798E+02  0.10000000337E+02 0.  0.
         12    1    1    2    0    0 -0.17367089778E+02 -0.29850120862E+01  0.41455848568E+02  0.45045682202E+02  0.00000000000E+00 0. -1.
         11    1    3    3    0    0  0.13596200971E+01  0.11458354552E+01 -0.60549961398E+00  0.18783332352E+01  0.51100000000E-03 0. -1.
        -11    1    3    3    0    0  0.31927846163E+01 -0.15430108230E+01 -0.58818032881E+01  0.68680685921E+01  0.51100000000E-03 0.  1.
        -12    1    3    3    0    0  0.12814685065E+02  0.33821874540E+01 -0.34968545666E+02  0.37395915971E+02  0.00000000000E+00 0.  1.
</event>
<event>
 7    1  0.4623443E-009  0.4614232E+02  0.7816164E-02  0.1320468E+00
        -11   -1    0    0    0    0  0.00000000000E+00  0.00000000000E+00  0.45593999997E+02  0.45594000000E+02  0.51100000000E-03 0. -1.
         11   -1    0    0    0    0 -0.00000000000E+00 -0.00000000000E+00 -0.45593999997E+02  0.45594000000E+02  0.51100000000E-03 0.  1.
    9900012    2    1    2    0    0  0.18363189674E+02  0.23625168864E+02  0.33671326604E+02  0.46142316809E+02  0.99999913183E+01 0.  0.
        -12    1    1    2    0    0 -0.18363189674E+02 -0.23625168864E+02 -0.33671326604E+02  0.45045683191E+02  0.00000000000E+00 0.  1.
         11    1    3    3    0    0  0.35561967248E+01  0.44170186792E+01  0.10820296813E+02  0.12216194683E+02  0.51100000000E-03 0. -1.
        -11    1    3    3    0    0 -0.34004765869E+00  0.21683736958E+01  0.12852606896E+01  0.25434960578E+01  0.51100000000E-03 0.  1.
        -12    1    3    3    0    0  0.15147040608E+02  0.17039776489E+02  0.21565769101E+02  0.31382626068E+02  0.00000000000E+00 0.  1.
</event>
<event>
 7    1  0.4623443E-009  0.4614232E+02  0.7816164E-02  0.1320468E+00
        -11   -1    0    0    0    0  0.00000000000E+00  0.00000000000E+00  0.45593999997E+02  0.45594000000E+02  0.51100000000E-03 0.  1.
         11   -1    0    0    0    0 -0.00000000000E+00 -0.00000000000E+00 -0.45593999997E+02  0.45594000000E+02  0.51100000000E-03 0. -1.
    9900012    2    1    2    0    0  0.10992091233E+02  0.43203370999E+02  0.64619024060E+01  0.46142317432E+02  0.99999969951E+01 0.  0.
         12    1    1    2    0    0 -0.10992091233E+02 -0.43203370999E+02 -0.64619024060E+01  0.45045682568E+02  0.00000000000E+00 0. -1.
         11    1    3    3    0    0  0.48565191085E+00  0.32823843360E+01  0.16833594877E+00  0.33223849808E+01  0.51100000000E-03 0. -1.
        -11    1    3    3    0    0  0.10882401937E+02  0.34184313382E+02  0.81307249544E+01  0.36784543519E+02  0.51100000000E-03 0.  1.
         12    1    3    3    0    0 -0.37596261492E+00  0.57366732808E+01 -0.18371584971E+01  0.60353889321E+01  0.00000000000E+00 0. -1.
</event>
<event>
 7    1  0.4623443E-009  0.4614232E+02  0.7816164E-02  0.1320468E+00
        -11   -1    0    0    0    0  0.00000000000E+00  0.00000000000E+00  0.45593999997E+02  0.45594000000E+02  0.51100000000E-03 0. -1.
         11   -1    0    0    0    0 -0.00000000000E+00 -0.00000000000E+00 -0.45593999997E+02  0.45594000000E+02  0.51100000000E-03 0.  1.
    9900012    2    1    2    0    0 -0.12782879192E+02 -0.35263797944E+02  0.24943457930E+02  0.46142317195E+02  0.99999948354E+01 0.  0.
        -12    1    1    2    0    0  0.12782879192E+02  0.35263797944E+02 -0.24943457930E+02  0.45045682805E+02  0.00000000000E+00 0.  1.
         11    1    3    3    0    0 -0.58033681008E+01 -0.27404996201E+02  0.20512228952E+02  0.34719798890E+02  0.51100000000E-03 0.  1.
        -11    1    3    3    0    0 -0.34153837413E+01 -0.41883646674E+01  0.24907427190E+01  0.59507179601E+01  0.51100000000E-03 0. -1.
        -12    1    3    3    0    0 -0.35641273501E+01 -0.36704370758E+01  0.19404862587E+01  0.54718003450E+01  0.00000000000E+00 0.  1.
</event>
<event>
 7    1  0.4623443E-009  0.4614231E+02  0.7816164E-02  0.1320468E+00
        -11   -1    0    0    0    0  0.00000000000E+00  0.00000000000E+00  0.45593999997E+02  0.45594000000E+02  0.51100000000E-03 0. -1.
         11   -1    0    0    0    0 -0.00000000000E+00 -0.00000000000E+00 -0.45593999997E+02  0.45594000000E+02  0.51100000000E-03 0.  1.
    9900012    2    1    2    0    0 -0.24940155532E+01 -0.41884630518E+02  0.16388150952E+02  0.46142313428E+02  0.99999604832E+01 0.  0.
        -12    1    1    2    0    0  0.24940155532E+01  0.41884630518E+02 -0.16388150952E+02  0.45045686572E+02  0.00000000000E+00 0.  1.
         11    1    3    3    0    0 -0.24672573227E+01 -0.17887606956E+02  0.90781892587E+01  0.20210575494E+02  0.51100000000E-03 0. -1.
        -11    1    3    3    0    0  0.28357849807E+01 -0.15294743723E+02  0.60231693672E+01  0.16680810277E+02  0.51100000000E-03 0.  1.
        -12    1    3    3    0    0 -0.28625432111E+01 -0.87022798376E+01  0.12867923256E+01  0.92509276560E+01  0.00000000000E+00 0.  1.
</event>
<event>
 7    1  0.4623443E-009  0.4614233E+02  0.7816164E-02  0.1320468E+00
        -11   -1    0    0    0    0  0.00000000000E+00  0.00000000000E+00  0.45593999997E+02  0.45594000000E+02  0.51100000000E-03 0. -1.
         11   -1    0    0    0    0 -0.00000000000E+00 -0.00000000000E+00 -0.45593999997E+02  0.45594000000E+02  0.51100000000E-03 0.  1.
    9900012    2    1    2    0    0 -0.17550499478E+02 -0.10493831898E+02  0.40136911044E+02  0.46142332417E+02  0.10000133643E+02 0.  0.
        -12    1    1    2    0    0  0.17550499478E+02  0.10493831898E+02 -0.40136911044E+02  0.45045667583E+02  0.00000000000E+00 0.  1.
         11    1    3    3    0    0 -0.29780031574E+00 -0.17324949925E+01  0.37286073384E+01  0.41222247479E+01  0.51100000000E-03 0. -1.
        -11    1    3    3    0    0 -0.89858650550E+01 -0.31507525303E+01  0.10111878142E+02  0.13889675739E+02  0.51100000000E-03 0.  1.
         12    1    3    3    0    0 -0.82668341072E+01 -0.56105843756E+01  0.26296425563E+02  0.28130431931E+02  0.00000000000E+00 0. -1.
</event>
<event>
 7    1  0.4623443E-009  0.4614232E+02  0.7816164E-02  0.1320468E+00
        -11   -1    0    0    0    0  0.00000000000E+00  0.00000000000E+00  0.45593999997E+02  0.45594000000E+02  0.51100000000E-03 0. -1.
         11   -1    0    0    0    0 -0.00000000000E+00 -0.00000000000E+00 -0.45593999997E+02  0.45594000000E+02  0.51100000000E-03 0.  1.
    9900012    2    1    2    0    0  0.17785305922E+02  0.14205055111E+02  0.38871747709E+02  0.46142317994E+02  0.10000002123E+02 0.  0.
        -12    1    1    2    0    0 -0.17785305922E+02 -0.14205055111E+02 -0.38871747709E+02  0.45045682006E+02  0.00000000000E+00 0.  1.
         11    1    3    3    0    0  0.71629748564E+01  0.35167436322E+01  0.15776934859E+02  0.17680140508E+02  0.51100000000E-03 0. -1.
        -11    1    3    3    0    0  0.30447463386E+01 -0.44287208653E-01  0.21126467594E+01  0.37061729877E+01  0.51100000000E-03 0.  1.
         12    1    3    3    0    0  0.75775847268E+01  0.10732598687E+02  0.20982166091E+02  0.24756004499E+02  0.00000000000E+00 0. -1.
</event>
<event>
 7    1  0.4623443E-009  0.4614232E+02  0.7816164E-02  0.1320468E+00
        -11   -1    0    0    0    0  0.00000000000E+00  0.00000000000E+00  0.45593999997E+02  0.45594000000E+02  0.51100000000E-03 0.  1.
         11   -1    0    0    0    0 -0.00000000000E+00 -0.00000000000E+00 -0.45593999997E+02  0.45594000000E+02  0.51100000000E-03 0. -1.
    9900012    2    1    2    0    0  0.22317754328E+02  0.23613790056E+02  0.31199681742E+02  0.46142318965E+02  0.10000010981E+02 0.  0.
        -12    1    1    2    0    0 -0.22317754328E+02 -0.23613790056E+02 -0.31199681742E+02  0.45045681035E+02  0.00000000000E+00 0.  1.
         11    1    3    3    0    0  0.51531312219E+01  0.71265447725E+01  0.71703844738E+01  0.11347106043E+02  0.51100000000E-03 0. -1.
        -11    1    3    3    0    0  0.17088971805E+02  0.17073715096E+02  0.24186038354E+02  0.34183463196E+02  0.51100000000E-03 0.  1.
        -12    1    3    3    0    0  0.75651300902E-01 -0.58646981199E+00 -0.15674108611E+00  0.61174972642E+00  0.00000000000E+00 0.  1.
</event>
<event>
 7    1  0.4623443E-009  0.4614232E+02  0.7816164E-02  0.1320468E+00
        -11   -1    0    0    0    0  0.00000000000E+00  0.00000000000E+00  0.45593999997E+02  0.45594000000E+02  0.51100000000E-03 0. -1.
         11   -1    0    0    0    0 -0.00000000000E+00 -0.00000000000E+00 -0.45593999997E+02  0.45594000000E+02  0.51100000000E-03 0.  1.
    9900012    2    1    2    0    0 -0.26193132091E+02  0.32393292356E+02 -0.17137908800E+02  0.46142317894E+02  0.10000001208E+02 0.  0.
         12    1    1    2    0    0  0.26193132091E+02 -0.32393292356E+02  0.17137908800E+02  0.45045682106E+02  0.00000000000E+00 0. -1.
         11    1    3    3    0    0 -0.80384332381E+00 -0.22556372398E+00  0.37803910867E+00  0.91649163205E+00  0.51100000000E-03 0. -1.
        -11    1    3    3    0    0 -0.89494201696E+01  0.10919164259E+02 -0.32370157284E+01  0.14484424068E+02  0.51100000000E-03 0.  1.
         12    1    3    3    0    0 -0.16439868597E+02  0.21699691821E+02 -0.14278932180E+02  0.30741402194E+02  0.00000000000E+00 0. -1.
</event>
<event>
 7    1  0.4623443E-009  0.4614232E+02  0.7816164E-02  0.1320468E+00
        -11   -1    0    0    0    0  0.00000000000E+00  0.00000000000E+00  0.45593999997E+02  0.45594000000E+02  0.51100000000E-03 0. -1.
         11   -1    0    0    0    0 -0.00000000000E+00 -0.00000000000E+00 -0.45593999997E+02  0.45594000000E+02  0.51100000000E-03 0.  1.
    9900012    2    1    2    0    0  0.16207367782E+02 -0.20785867670E+02 -0.36529198720E+02  0.46142318472E+02  0.10000006483E+02 0.  0.
         12    1    1    2    0    0 -0.16207367782E+02  0.20785867670E+02  0.36529198720E+02  0.45045681528E+02  0.00000000000E+00 0. -1.
         11    1    3    3    0    0  0.50433062908E+01 -0.10733823664E+02 -0.10608931081E+02  0.15912238301E+02  0.51100000000E-03 0. -1.
        -11    1    3    3    0    0  0.23261714257E+01 -0.52428572194E+00 -0.58783911023E+01  0.63436134208E+01  0.51100000000E-03 0.  1.
         12    1    3    3    0    0  0.88378900657E+01 -0.95277582837E+01 -0.20041876536E+02  0.23886466750E+02  0.00000000000E+00 0. -1.
</event>
<event>
 7    1  0.4623443E-009  0.4614232E+02  0.7816164E-02  0.1320468E+00
        -11   -1    0    0    0    0  0.00000000000E+00  0.00000000000E+00  0.45593999997E+02  0.45594000000E+02  0.51100000000E-03 0. -1.
         11   -1    0    0    0    0 -0.00000000000E+00 -0.00000000000E+00 -0.45593999997E+02  0.45594000000E+02  0.51100000000E-03 0.  1.
    9900012    2    1    2    0    0  0.14536666016E+02  0.14796557762E+02  0.39985756242E+02  0.46142317824E+02  0.10000000572E+02 0.  0.
        -12    1    1    2    0    0 -0.14536666016E+02 -0.14796557762E+02 -0.39985756242E+02  0.45045682176E+02  0.00000000000E+00 0.  1.
         11    1    3    3    0    0  0.62295768033E+01  0.15891850938E+01  0.10231870936E+02  0.12084052281E+02  0.51100000000E-03 0. -1.
        -11    1    3    3    0    0  0.79189764931E+01  0.11520971394E+02  0.21648044041E+02  0.25769764873E+02  0.51100000000E-03 0.  1.
        -12    1    3    3    0    0  0.38811271965E+00  0.16864012745E+01  0.81058412651E+01  0.82885006700E+01  0.00000000000E+00 0.  1.
</event>
<event>
 7    1  0.4623443E-009  0.4614232E+02  0.7816164E-02  0.1320468E+00
        -11   -1    0    0    0    0  0.00000000000E+00  0.00000000000E+00  0.45593999997E+02  0.45594000000E+02  0.51100000000E-03 0.  1.
         11   -1    0    0    0    0 -0.00000000000E+00 -0.00000000000E+00 -0.45593999997E+02  0.45594000000E+02  0.51100000000E-03 0. -1.
    9900012    2    1    2    0    0  0.11593500890E+02  0.33122581773E+02 -0.28241792062E+02  0.46142317575E+02  0.99999983067E+01 0.  0.
         12    1    1    2    0    0 -0.11593500890E+02 -0.33122581773E+02  0.28241792062E+02  0.45045682425E+02  0.00000000000E+00 0. -1.
         11    1    3    3    0    0 -0.27938878581E+00  0.77204893466E+00  0.63954909839E+00  0.10407405832E+01  0.51100000000E-03 0. -1.
        -11    1    3    3    0    0  0.57328599914E+01  0.18180916570E+02 -0.13964382437E+02  0.23630814377E+02  0.51100000000E-03 0.  1.
        -12    1    3    3    0    0  0.61400296844E+01  0.14169616269E+02 -0.14916958724E+02  0.21470762616E+02  0.00000000000E+00 0.  1.
</event>
<event>
 7    1  0.6799385E-009  0.4614232E+02  0.7816164E-02  0.1320468E+00
        -11   -1    0    0    0    0  0.00000000000E+00  0.00000000000E+00  0.45593999997E+02  0.45594000000E+02  0.51100000000E-03 0. -1.
         11   -1    0    0    0    0 -0.00000000000E+00 -0.00000000000E+00 -0.45593999997E+02  0.45594000000E+02  0.51100000000E-03 0.  1.
    9900012    2    1    2    0    0  0.12805536221E+02 -0.29548140570E+02 -0.31496651965E+02  0.46142318142E+02  0.10000003472E+02 0.  0.
         12    1    1    2    0    0 -0.12805536221E+02  0.29548140570E+02  0.31496651965E+02  0.45045681858E+02  0.00000000000E+00 0. -1.
         11    1    3    3    0    0  0.18191046797E+01 -0.48303006279E+01 -0.50896860674E+01  0.72488516689E+01  0.51100000000E-03 0. -1.
        -11    1    3    3    0    0  0.94146275753E+01 -0.19441310028E+02 -0.25318889608E+02  0.33281314866E+02  0.51100000000E-03 0.  1.
         12    1    3    3    0    0  0.15718039665E+01 -0.52765299141E+01 -0.10880762893E+01  0.56121516065E+01  0.00000000000E+00 0. -1.
</event>
<event>
 7    1  0.4623443E-009  0.4614232E+02  0.7816164E-02  0.1320468E+00
        -11   -1    0    0    0    0  0.00000000000E+00  0.00000000000E+00  0.45593999997E+02  0.45594000000E+02  0.51100000000E-03 0.  1.
         11   -1    0    0    0    0 -0.00000000000E+00 -0.00000000000E+00 -0.45593999997E+02  0.45594000000E+02  0.51100000000E-03 0. -1.
    9900012    2    1    2    0    0  0.14499416765E+02  0.40915255358E+02  0.12034216253E+02  0.46142316873E+02  0.99999919059E+01 0.  0.
        -12    1    1    2    0    0 -0.14499416765E+02 -0.40915255358E+02 -0.12034216253E+02  0.45045683127E+02  0.00000000000E+00 0.  1.
         11    1    3    3    0    0  0.49754370974E+01  0.13905595139E+02  0.96890352594E+00  0.14800652850E+02  0.51100000000E-03 0. -1.
        -11    1    3    3    0    0  0.50043603404E+01  0.63349215592E+01  0.41513214830E+01  0.90779030560E+01  0.51100000000E-03 0.  1.
        -12    1    3    3    0    0  0.45196193276E+01  0.20674738660E+02  0.69139912436E+01  0.22263760968E+02  0.00000000000E+00 0.  1.
</event>
<event>
 7    1  0.4623443E-009  0.4614232E+02  0.7816164E-02  0.1320468E+00
        -11   -1    0    0    0    0  0.00000000000E+00  0.00000000000E+00  0.45593999997E+02  0.45594000000E+02  0.51100000000E-03 0. -1.
         11   -1    0    0    0    0 -0.00000000000E+00 -0.00000000000E+00 -0.45593999997E+02  0.45594000000E+02  0.51100000000E-03 0.  1.
    9900012    2    1    2    0    0 -0.28984055099E+01  0.15946595525E+02 -0.42028781854E+02  0.46142321323E+02  0.10000032483E+02 0.  0.
         12    1    1    2    0    0  0.28984055099E+01 -0.15946595525E+02  0.42028781854E+02  0.45045678677E+02  0.00000000000E+00 0. -1.
         11    1    3    3    0    0 -0.14045814164E+01  0.33015127631E+01 -0.32294807772E+01  0.48272540674E+01  0.51100000000E-03 0. -1.
        -11    1    3    3    0    0  0.20597493483E+01  0.21737551805E+01 -0.60754075897E+01  0.67733563766E+01  0.51100000000E-03 0.  1.
         12    1    3    3    0    0 -0.35535734417E+01  0.10471327581E+02 -0.32723893487E+02  0.34541710879E+02  0.00000000000E+00 0. -1.
</event>
<event>
 7    1  0.4623443E-009  0.4614232E+02  0.7816164E-02  0.1320468E+00
        -11   -1    0    0    0    0  0.00000000000E+00  0.00000000000E+00  0.45593999997E+02  0.45594000000E+02  0.51100000000E-03 0. -1.
         11   -1    0    0    0    0 -0.00000000000E+00 -0.00000000000E+00 -0.45593999997E+02  0.45594000000E+02  0.51100000000E-03 0.  1.
    9900012    2    1    2    0    0 -0.15450613410E+02  0.14514489710E+02  0.39745711764E+02  0.46142317966E+02  0.10000001873E+02 0.  0.
        -12    1    1    2    0    0  0.15450613410E+02 -0.14514489710E+02 -0.39745711764E+02  0.45045682034E+02  0.00000000000E+00 0.  1.
         11    1    3    3    0    0 -0.72258375724E+01  0.30509445822E+01  0.13836620990E+02  0.15905127229E+02  0.51100000000E-03 0. -1.
        -11    1    3    3    0    0 -0.50762105721E+01  0.34468923557E+01  0.61733940667E+01  0.87040091480E+01  0.51100000000E-03 0.  1.
        -12    1    3    3    0    0 -0.31485652656E+01  0.80166527716E+01  0.19735696707E+02  0.21533181590E+02  0.00000000000E+00 0.  1.
</event>
<event>
 7    1  0.4623443E-009  0.4614232E+02  0.7816164E-02  0.1320468E+00
        -11   -1    0    0    0    0  0.00000000000E+00  0.00000000000E+00  0.45593999997E+02  0.45594000000E+02  0.51100000000E-03 0. -1.
         11   -1    0    0    0    0 -0.00000000000E+00 -0.00000000000E+00 -0.45593999997E+02  0.45594000000E+02  0.51100000000E-03 0.  1.
    9900012    2    1    2    0    0  0.31785513657E+02 -0.16116564940E+02 -0.27550876723E+02  0.46142319274E+02  0.10000013792E+02 0.  0.
         12    1    1    2    0    0 -0.31785513657E+02  0.16116564940E+02  0.27550876723E+02  0.45045680726E+02  0.00000000000E+00 0. -1.
         11    1    3    3    0    0  0.54962663084E+01 -0.28367983561E+01 -0.77872903320E+01  0.99447603904E+01  0.51100000000E-03 0. -1.
        -11    1    3    3    0    0  0.38200141270E+01 -0.64278548691E+00 -0.55248867297E+01  0.67475962201E+01  0.51100000000E-03 0.  1.
         12    1    3    3    0    0  0.22469233222E+02 -0.12636981097E+02 -0.14238699661E+02  0.29449962663E+02  0.00000000000E+00 0. -1.
</event>
<event>
 7    1  0.4623443E-009  0.4614232E+02  0.7816164E-02  0.1320468E+00
        -11   -1    0    0    0    0  0.00000000000E+00  0.00000000000E+00  0.45593999997E+02  0.45594000000E+02  0.51100000000E-03 0. -1.
         11   -1    0    0    0    0 -0.00000000000E+00 -0.00000000000E+00 -0.45593999997E+02  0.45594000000E+02  0.51100000000E-03 0.  1.
    9900012    2    1    2    0    0 -0.97221115773E+01 -0.13272155788E+02  0.41933804966E+02  0.46142316836E+02  0.99999915678E+01 0.  0.
        -12    1    1    2    0    0  0.97221115773E+01  0.13272155788E+02 -0.41933804966E+02  0.45045683164E+02  0.00000000000E+00 0.  1.
         11    1    3    3    0    0 -0.52670132531E+01 -0.42108642942E+01  0.11077148675E+02  0.12968270114E+02  0.51100000000E-03 0. -1.
        -11    1    3    3    0    0  0.55189434137E+00 -0.44425442434E+01  0.65702984099E+01  0.79504470424E+01  0.51100000000E-03 0.  1.
         12    1    3    3    0    0 -0.50069926656E+01 -0.46187472500E+01  0.24286357881E+02  0.25223599680E+02  0.00000000000E+00 0. -1.
</event>
<event>
 7    1  0.4623443E-009  0.4614232E+02  0.7816164E-02  0.1320468E+00
        -11   -1    0    0    0    0  0.00000000000E+00  0.00000000000E+00  0.45593999997E+02  0.45594000000E+02  0.51100000000E-03 0. -1.
         11   -1    0    0    0    0 -0.00000000000E+00 -0.00000000000E+00 -0.45593999997E+02  0.45594000000E+02  0.51100000000E-03 0.  1.
    9900012    2    1    2    0    0 -0.11855986768E+01 -0.42513054676E+02  0.14844124088E+02  0.46142317832E+02  0.10000000642E+02 0.  0.
        -12    1    1    2    0    0  0.11855986768E+01  0.42513054676E+02 -0.14844124088E+02  0.45045682168E+02  0.00000000000E+00 0.  1.
         11    1    3    3    0    0  0.27632021075E+00 -0.89748440850E+01  0.11302465779E+01  0.90499523091E+01  0.51100000000E-03 0. -1.
        -11    1    3    3    0    0  0.20930604296E+01 -0.30224008081E+01  0.77770816900E+00  0.37577438529E+01  0.51100000000E-03 0.  1.
         12    1    3    3    0    0 -0.35549793172E+01 -0.30515809783E+02  0.12936169341E+02  0.33334621670E+02  0.00000000000E+00 0. -1.
</event>
<event>
 7    1  0.4623443E-009  0.4614232E+02  0.7816164E-02  0.1320468E+00
        -11   -1    0    0    0    0  0.00000000000E+00  0.00000000000E+00  0.45593999997E+02  0.45594000000E+02  0.51100000000E-03 0. -1.
         11   -1    0    0    0    0 -0.00000000000E+00 -0.00000000000E+00 -0.45593999997E+02  0.45594000000E+02  0.51100000000E-03 0.  1.
    9900012    2    1    2    0    0  0.24207207860E+02 -0.34469523270E+02  0.15967985135E+02  0.46142317675E+02  0.99999992167E+01 0.  0.
        -12    1    1    2    0    0 -0.24207207860E+02  0.34469523270E+02 -0.15967985135E+02  0.45045682325E+02  0.00000000000E+00 0.  1.
         11    1    3    3    0    0  0.10545212177E+02 -0.14915514695E+02  0.71543424755E+01  0.19617815755E+02  0.51100000000E-03 0. -1.
        -11    1    3    3    0    0  0.70086932795E+01 -0.10902989572E+02  0.86997053658E+01  0.15610311874E+02  0.51100000000E-03 0.  1.
        -12    1    3    3    0    0  0.66533024031E+01 -0.86510190029E+01  0.11393729402E+00  0.10914190046E+02  0.00000000000E+00 0.  1.
</event>
<event>
 7    1  0.4623443E-009  0.4614232E+02  0.7816164E-02  0.1320468E+00
        -11   -1    0    0    0    0  0.00000000000E+00  0.00000000000E+00  0.45593999997E+02  0.45594000000E+02  0.51100000000E-03 0.  1.
         11   -1    0    0    0    0 -0.00000000000E+00 -0.00000000000E+00 -0.45593999997E+02  0.45594000000E+02  0.51100000000E-03 0. -1.
    9900012    2    1    2    0    0 -0.14466565126E+02 -0.42404729988E+02 -0.46552123653E+01  0.46142316144E+02  0.99999852513E+01 0.  0.
         12    1    1    2    0    0  0.14466565126E+02  0.42404729988E+02  0.46552123653E+01  0.45045683856E+02  0.00000000000E+00 0. -1.
         11    1    3    3    0    0 -0.12120025866E+01 -0.94432652719E+01 -0.15583541517E+01  0.96474181619E+01  0.51100000000E-03 0. -1.
        -11    1    3    3    0    0 -0.44061350917E+01 -0.41058877064E+01 -0.17975281149E+01  0.62851768383E+01  0.51100000000E-03 0.  1.
        -12    1    3    3    0    0 -0.88484274479E+01 -0.28855577010E+02 -0.12993300986E+01  0.30209721144E+02  0.00000000000E+00 0.  1.
</event>
<event>
 7    1  0.4623443E-009  0.4614232E+02  0.7816164E-02  0.1320468E+00
        -11   -1    0    0    0    0  0.00000000000E+00  0.00000000000E+00  0.45593999997E+02  0.45594000000E+02  0.51100000000E-03 0. -1.
         11   -1    0    0    0    0 -0.00000000000E+00 -0.00000000000E+00 -0.45593999997E+02  0.45594000000E+02  0.51100000000E-03 0.  1.
    9900012    2    1    2    0    0 -0.40778022520E+02  0.17693823864E+01 -0.19056117020E+02  0.46142318403E+02  0.10000005854E+02 0.  0.
         12    1    1    2    0    0  0.40778022520E+02 -0.17693823864E+01  0.19056117020E+02  0.45045681597E+02  0.00000000000E+00 0. -1.
         11    1    3    3    0    0 -0.57907358925E+01  0.75384187941E+00 -0.61934819883E+01  0.85123509770E+01  0.51100000000E-03 0. -1.
        -11    1    3    3    0    0 -0.24109442578E+02 -0.73788122253E+00 -0.10764550428E+02  0.26413731965E+02  0.51100000000E-03 0.  1.
         12    1    3    3    0    0 -0.10877844049E+02  0.17534217295E+01 -0.20980846034E+01  0.11216235461E+02  0.00000000000E+00 0. -1.
</event>
<event>
 7    1  0.4623443E-009  0.4614231E+02  0.7816164E-02  0.1320468E+00
        -11   -1    0    0    0    0  0.00000000000E+00  0.00000000000E+00  0.45593999997E+02  0.45594000000E+02  0.51100000000E-03 0. -1.
         11   -1    0    0    0    0 -0.00000000000E+00 -0.00000000000E+00 -0.45593999997E+02  0.45594000000E+02  0.51100000000E-03 0.  1.
    9900012    2    1    2    0    0  0.11701548034E+02  0.19285255484E+02  0.38990603944E+02  0.46142306516E+02  0.99998974606E+01 0.  0.
        -12    1    1    2    0    0 -0.11701548034E+02 -0.19285255484E+02 -0.38990603944E+02  0.45045693484E+02  0.00000000000E+00 0.  1.
         11    1    3    3    0    0  0.72045500652E+01  0.63319123758E+01  0.11522710782E+02  0.14992382066E+02  0.51100000000E-03 0. -1.
        -11    1    3    3    0    0  0.54013464060E+00  0.33084961974E+01  0.12273359449E+02  0.12722941678E+02  0.51100000000E-03 0.  1.
         12    1    3    3    0    0  0.39568633287E+01  0.96448469113E+01  0.15194533713E+02  0.18426982772E+02  0.00000000000E+00 0. -1.
</event>
<event>
 7    1  0.4623443E-009  0.4614232E+02  0.7816164E-02  0.1320468E+00
        -11   -1    0    0    0    0  0.00000000000E+00  0.00000000000E+00  0.45593999997E+02  0.45594000000E+02  0.51100000000E-03 0. -1.
         11   -1    0    0    0    0 -0.00000000000E+00 -0.00000000000E+00 -0.45593999997E+02  0.45594000000E+02  0.51100000000E-03 0.  1.
    9900012    2    1    2    0    0 -0.17796862671E+02  0.40489861963E+02  0.85414435657E+01  0.46142317622E+02  0.99999987294E+01 0.  0.
        -12    1    1    2    0    0  0.17796862671E+02 -0.40489861963E+02 -0.85414435657E+01  0.45045682378E+02  0.00000000000E+00 0.  1.
         11    1    3    3    0    0 -0.97851719208E+01  0.19795512051E+02  0.67596731524E+01  0.23093398803E+02  0.51100000000E-03 0. -1.
        -11    1    3    3    0    0 -0.95269859310E+00 -0.21654875436E-01  0.61092432963E+00  0.11319595137E+01  0.51100000000E-03 0.  1.
         12    1    3    3    0    0 -0.70589921573E+01  0.20716004787E+02  0.11708460837E+01  0.21916959305E+02  0.00000000000E+00 0. -1.
</event>
<event>
 7    1  0.4623443E-009  0.4614232E+02  0.7816164E-02  0.1320468E+00
        -11   -1    0    0    0    0  0.00000000000E+00  0.00000000000E+00  0.45593999997E+02  0.45594000000E+02  0.51100000000E-03 0. -1.
         11   -1    0    0    0    0 -0.00000000000E+00 -0.00000000000E+00 -0.45593999997E+02  0.45594000000E+02  0.51100000000E-03 0.  1.
    9900012    2    1    2    0    0  0.24901565083E+02 -0.18255770655E+02  0.32798663898E+02  0.46142318084E+02  0.10000002944E+02 0.  0.
        -12    1    1    2    0    0 -0.24901565083E+02  0.18255770655E+02 -0.32798663898E+02  0.45045681916E+02  0.00000000000E+00 0.  1.
         11    1    3    3    0    0  0.13130998895E+02 -0.12042661844E+02  0.18537942471E+02  0.25711945620E+02  0.51100000000E-03 0. -1.
        -11    1    3    3    0    0  0.11305572163E+02 -0.38744137899E+01  0.10156686030E+02  0.15683919010E+02  0.51100000000E-03 0.  1.
        -12    1    3    3    0    0  0.46499402528E+00 -0.23386950215E+01  0.41040353972E+01  0.47464534538E+01  0.00000000000E+00 0.  1.
</event>
<event>
 7    1  0.4623443E-009  0.4614232E+02  0.7816164E-02  0.1320468E+00
        -11   -1    0    0    0    0  0.00000000000E+00  0.00000000000E+00  0.45593999997E+02  0.45594000000E+02  0.51100000000E-03 0. -1.
         11   -1    0    0    0    0 -0.00000000000E+00 -0.00000000000E+00 -0.45593999997E+02  0.45594000000E+02  0.51100000000E-03 0.  1.
    9900012    2    1    2    0    0  0.92567400692E+01 -0.25719093114E+02  0.35804393192E+02  0.46142316976E+02  0.99999928364E+01 0.  0.
        -12    1    1    2    0    0 -0.92567400692E+01  0.25719093114E+02 -0.35804393192E+02  0.45045683024E+02  0.00000000000E+00 0.  1.
         11    1    3    3    0    0  0.76891172639E+00 -0.11733031317E+02  0.12542681409E+02  0.17192268795E+02  0.51100000000E-03 0. -1.
        -11    1    3    3    0    0  0.29404037065E+00 -0.29126074905E+01  0.17649664268E+01  0.34183108230E+01  0.51100000000E-03 0.  1.
        -12    1    3    3    0    0  0.81937879721E+01 -0.11073454307E+02  0.21496745356E+02  0.25531737358E+02  0.00000000000E+00 0.  1.
</event>
<event>
 7    1  0.4623443E-009  0.4614232E+02  0.7816164E-02  0.1320468E+00
        -11   -1    0    0    0    0  0.00000000000E+00  0.00000000000E+00  0.45593999997E+02  0.45594000000E+02  0.51100000000E-03 0. -1.
         11   -1    0    0    0    0 -0.00000000000E+00 -0.00000000000E+00 -0.45593999997E+02  0.45594000000E+02  0.51100000000E-03 0.  1.
    9900012    2    1    2    0    0  0.16568353158E+02  0.18205444446E+02  0.37724850475E+02  0.46142324545E+02  0.10000061862E+02 0.  0.
        -12    1    1    2    0    0 -0.16568353158E+02 -0.18205444446E+02 -0.37724850475E+02  0.45045675455E+02  0.00000000000E+00 0.  1.
         11    1    3    3    0    0 -0.37697189505E+00  0.29834565806E+01  0.25119647623E+01  0.39183016992E+01  0.51100000000E-03 0. -1.
        -11    1    3    3    0    0  0.23080687483E+01  0.10326046402E+01  0.18778202679E+01  0.31495496359E+01  0.51100000000E-03 0.  1.
         12    1    3    3    0    0  0.14637256304E+02  0.14189383225E+02  0.33335065445E+02  0.39074473210E+02  0.00000000000E+00 0. -1.
</event>
<event>
 7    1  0.4623443E-009  0.4614231E+02  0.7816164E-02  0.1320468E+00
        -11   -1    0    0    0    0  0.00000000000E+00  0.00000000000E+00  0.45593999997E+02  0.45594000000E+02  0.51100000000E-03 0. -1.
         11   -1    0    0    0    0 -0.00000000000E+00 -0.00000000000E+00 -0.45593999997E+02  0.45594000000E+02  0.51100000000E-03 0.  1.
    9900012    2    1    2    0    0 -0.39248804602E+02 -0.18228238985E+02  0.12505058135E+02  0.46142313879E+02  0.99999645992E+01 0.  0.
        -12    1    1    2    0    0  0.39248804602E+02  0.18228238985E+02 -0.12505058135E+02  0.45045686121E+02  0.00000000000E+00 0.  1.
         11    1    3    3    0    0 -0.53807255263E+01 -0.17541212716E+01  0.33232108084E+00  0.56691786165E+01  0.51100000000E-03 0.  1.
        -11    1    3    3    0    0 -0.20484948834E+02 -0.11453113654E+02  0.11570476379E+02  0.26166445403E+02  0.51100000000E-03 0. -1.
         12    1    3    3    0    0 -0.13383130241E+02 -0.50210040597E+01  0.60226067474E+00  0.14306689860E+02  0.00000000000E+00 0. -1.
</event>
<event>
 7    1  0.4623443E-009  0.4614232E+02  0.7816164E-02  0.1320468E+00
        -11   -1    0    0    0    0  0.00000000000E+00  0.00000000000E+00  0.45593999997E+02  0.45594000000E+02  0.51100000000E-03 0. -1.
         11   -1    0    0    0    0 -0.00000000000E+00 -0.00000000000E+00 -0.45593999997E+02  0.45594000000E+02  0.51100000000E-03 0.  1.
    9900012    2    1    2    0    0 -0.31238467953E+02 -0.26731308571E+02  0.18404029588E+02  0.46142322704E+02  0.10000045076E+02 0.  0.
        -12    1    1    2    0    0  0.31238467953E+02  0.26731308571E+02 -0.18404029588E+02  0.45045677296E+02  0.00000000000E+00 0.  1.
         11    1    3    3    0    0 -0.39280165631E+01 -0.42499244749E+01  0.16516008711E+01  0.60182188279E+01  0.51100000000E-03 0. -1.
        -11    1    3    3    0    0 -0.10667001656E+02 -0.47489357840E+01  0.25173070274E+01  0.11944628514E+02  0.51100000000E-03 0.  1.
         12    1    3    3    0    0 -0.16643449733E+02 -0.17732448312E+02  0.14235121689E+02  0.28179475362E+02  0.00000000000E+00 0. -1.
</event>
<event>
 7    1  0.4623443E-009  0.4614232E+02  0.7816164E-02  0.1320468E+00
        -11   -1    0    0    0    0  0.00000000000E+00  0.00000000000E+00  0.45593999997E+02  0.45594000000E+02  0.51100000000E-03 0.  1.
         11   -1    0    0    0    0 -0.00000000000E+00 -0.00000000000E+00 -0.45593999997E+02  0.45594000000E+02  0.51100000000E-03 0. -1.
    9900012    2    1    2    0    0 -0.90561035533E+01 -0.43589604782E+02  0.68590728388E+01  0.46142317223E+02  0.99999950906E+01 0.  0.
         12    1    1    2    0    0  0.90561035533E+01  0.43589604782E+02 -0.68590728388E+01  0.45045682777E+02  0.00000000000E+00 0. -1.
         11    1    3    3    0    0 -0.33745285121E+00 -0.73534932227E+01  0.38980463443E+01  0.83296159916E+01  0.51100000000E-03 0. -1.
        -11    1    3    3    0    0 -0.12705675685E+01 -0.47754785568E+01 -0.15276018639E+01  0.51723403899E+01  0.51100000000E-03 0.  1.
        -12    1    3    3    0    0 -0.74480831336E+01 -0.31460633003E+02  0.44886283584E+01  0.32640360841E+02  0.00000000000E+00 0.  1.
</event>
<event>
 7    1  0.4623443E-009  0.4614232E+02  0.7816164E-02  0.1320468E+00
        -11   -1    0    0    0    0  0.00000000000E+00  0.00000000000E+00  0.45593999997E+02  0.45594000000E+02  0.51100000000E-03 0. -1.
         11   -1    0    0    0    0 -0.00000000000E+00 -0.00000000000E+00 -0.45593999997E+02  0.45594000000E+02  0.51100000000E-03 0.  1.
    9900012    2    1    2    0    0  0.31738922394E+01  0.33667221421E+02  0.29758328035E+02  0.46142317881E+02  0.10000001090E+02 0.  0.
        -12    1    1    2    0    0 -0.31738922394E+01 -0.33667221421E+02 -0.29758328035E+02  0.45045682119E+02  0.00000000000E+00 0.  1.
         11    1    3    3    0    0 -0.10758590409E-01  0.15926929946E+02  0.11246541115E+02  0.19497484468E+02  0.51100000000E-03 0. -1.
        -11    1    3    3    0    0  0.21009969979E+01  0.75983288110E+01  0.38216236544E+01  0.87609130073E+01  0.51100000000E-03 0.  1.
        -12    1    3    3    0    0  0.10836538319E+01  0.10141962664E+02  0.14690163265E+02  0.17883920405E+02  0.00000000000E+00 0.  1.
</event>
<event>
 7    1  0.4623443E-009  0.4614232E+02  0.7816164E-02  0.1320468E+00
        -11   -1    0    0    0    0  0.00000000000E+00  0.00000000000E+00  0.45593999997E+02  0.45594000000E+02  0.51100000000E-03 0. -1.
         11   -1    0    0    0    0 -0.00000000000E+00 -0.00000000000E+00 -0.45593999997E+02  0.45594000000E+02  0.51100000000E-03 0.  1.
    9900012    2    1    2    0    0 -0.27516667676E+02  0.72886372263E+01  0.34911634445E+02  0.46142318162E+02  0.10000003658E+02 0.  0.
        -12    1    1    2    0    0  0.27516667676E+02 -0.72886372263E+01 -0.34911634445E+02  0.45045681838E+02  0.00000000000E+00 0.  1.
         11    1    3    3    0    0 -0.48288875267E+01  0.84455699876E+00  0.98170647878E+01  0.10972975557E+02  0.51100000000E-03 0. -1.
        -11    1    3    3    0    0 -0.19556247243E+01  0.77768600088E+00  0.62168616722E+01  0.65634314875E+01  0.51100000000E-03 0.  1.
         12    1    3    3    0    0 -0.20732155425E+02  0.56663942267E+01  0.18877707985E+02  0.28605911118E+02  0.00000000000E+00 0. -1.
</event>
<event>
 7    1  0.4623443E-009  0.4614231E+02  0.7816164E-02  0.1320468E+00
        -11   -1    0    0    0    0  0.00000000000E+00  0.00000000000E+00  0.45593999997E+02  0.45594000000E+02  0.51100000000E-03 0.  1.
         11   -1    0    0    0    0 -0.00000000000E+00 -0.00000000000E+00 -0.45593999997E+02  0.45594000000E+02  0.51100000000E-03 0. -1.
    9900012    2    1    2    0    0 -0.25897400677E+02  0.30662653285E+02 -0.20450927583E+02  0.46142310891E+02  0.99999373563E+01 0.  0.
         12    1    1    2    0    0  0.25897400677E+02 -0.30662653285E+02  0.20450927583E+02  0.45045689109E+02  0.00000000000E+00 0. -1.
         11    1    3    3    0    0 -0.20061663930E+01  0.66527527222E+01 -0.17196586947E+01  0.71582853160E+01  0.51100000000E-03 0. -1.
        -11    1    3    3    0    0 -0.57395584352E+01  0.52504344111E+01 -0.65898156250E+01  0.10194864529E+02  0.51100000000E-03 0.  1.
        -12    1    3    3    0    0 -0.18151675849E+02  0.18759466151E+02 -0.12141453263E+02  0.28789161046E+02  0.00000000000E+00 0.  1.
</event>
<event>
 7    1  0.4623443E-009  0.4614232E+02  0.7816164E-02  0.1320468E+00
        -11   -1    0    0    0    0  0.00000000000E+00  0.00000000000E+00  0.45593999997E+02  0.45594000000E+02  0.51100000000E-03 0. -1.
         11   -1    0    0    0    0 -0.00000000000E+00 -0.00000000000E+00 -0.45593999997E+02  0.45594000000E+02  0.51100000000E-03 0.  1.
    9900012    2    1    2    0    0  0.39754100522E+01 -0.66896037702E+01 -0.44368443966E+02  0.46142317591E+02  0.99999984507E+01 0.  0.
         12    1    1    2    0    0 -0.39754100522E+01  0.66896037702E+01  0.44368443966E+02  0.45045682409E+02  0.00000000000E+00 0. -1.
         11    1    3    3    0    0  0.50284870662E-01  0.73428686881E+00 -0.15529617180E+01  0.17185447717E+01  0.51100000000E-03 0. -1.
        -11    1    3    3    0    0  0.33103026099E+01 -0.87746453540E+01 -0.27887259686E+02  0.29421960464E+02  0.51100000000E-03 0.  1.
        -12    1    3    3    0    0  0.61482257158E+00  0.13507547150E+01 -0.14928222562E+02  0.15001812356E+02  0.00000000000E+00 0.  1.
</event>
<event>
 7    1  0.4623443E-009  0.4614232E+02  0.7816164E-02  0.1320468E+00
        -11   -1    0    0    0    0  0.00000000000E+00  0.00000000000E+00  0.45593999997E+02  0.45594000000E+02  0.51100000000E-03 0.  1.
         11   -1    0    0    0    0 -0.00000000000E+00 -0.00000000000E+00 -0.45593999997E+02  0.45594000000E+02  0.51100000000E-03 0. -1.
    9900012    2    1    2    0    0  0.33123809657E+02 -0.20960159744E+02  0.22194558444E+02  0.46142317773E+02  0.10000000112E+02 0.  0.
        -12    1    1    2    0    0 -0.33123809657E+02  0.20960159744E+02 -0.22194558444E+02  0.45045682227E+02  0.00000000000E+00 0.  1.
         11    1    3    3    0    0  0.45623121503E+01 -0.25070148098E+01  0.37930417191E+01  0.64410388260E+01  0.51100000000E-03 0. -1.
        -11    1    3    3    0    0  0.17900575399E+01 -0.36452262082E+01  0.46067504787E+01  0.61411831384E+01  0.51100000000E-03 0.  1.
        -12    1    3    3    0    0  0.26771439967E+02 -0.14807918726E+02  0.13794766246E+02  0.33560095809E+02  0.00000000000E+00 0.  1.
</event>
<event>
 7    1  0.4623443E-009  0.4614232E+02  0.7816164E-02  0.1320468E+00
        -11   -1    0    0    0    0  0.00000000000E+00  0.00000000000E+00  0.45593999997E+02  0.45594000000E+02  0.51100000000E-03 0. -1.
         11   -1    0    0    0    0 -0.00000000000E+00 -0.00000000000E+00 -0.45593999997E+02  0.45594000000E+02  0.51100000000E-03 0.  1.
    9900012    2    1    2    0    0  0.13919579120E+02  0.21349830468E+02 -0.37142207229E+02  0.46142317613E+02  0.99999986494E+01 0.  0.
         12    1    1    2    0    0 -0.13919579120E+02 -0.21349830468E+02  0.37142207229E+02  0.45045682387E+02  0.00000000000E+00 0. -1.
         11    1    3    3    0    0  0.48444345776E+00 -0.72796695590E+00 -0.20663723178E+01  0.22437727535E+01  0.51100000000E-03 0. -1.
        -11    1    3    3    0    0  0.30521352976E+00  0.27943988521E+00  0.15207857342E+00  0.44087424716E+00  0.51100000000E-03 0.  1.
        -12    1    3    3    0    0  0.13129922132E+02  0.21798357538E+02 -0.35227913485E+02  0.43457670612E+02  0.00000000000E+00 0.  1.
</event>
<event>
 7    1  0.4623443E-009  0.4614232E+02  0.7816164E-02  0.1320468E+00
        -11   -1    0    0    0    0  0.00000000000E+00  0.00000000000E+00  0.45593999997E+02  0.45594000000E+02  0.51100000000E-03 0. -1.
         11   -1    0    0    0    0 -0.00000000000E+00 -0.00000000000E+00 -0.45593999997E+02  0.45594000000E+02  0.51100000000E-03 0.  1.
    9900012    2    1    2    0    0  0.20551519491E+02  0.39922847084E+02  0.35937139226E+01  0.46142318160E+02  0.10000003637E+02 0.  0.
        -12    1    1    2    0    0 -0.20551519491E+02 -0.39922847084E+02 -0.35937139226E+01  0.45045681840E+02  0.00000000000E+00 0.  1.
         11    1    3    3    0    0  0.52231875828E+01  0.14259245739E+02  0.15339443182E+01  0.15263052218E+02  0.51100000000E-03 0. -1.
        -11    1    3    3    0    0  0.70497146566E+01  0.55574207968E+01 -0.46791533839E+00  0.89890126086E+01  0.51100000000E-03 0.  1.
        -12    1    3    3    0    0  0.82786172514E+01  0.20106180548E+02  0.25276849428E+01  0.21890253333E+02  0.00000000000E+00 0.  1.
</event>
<event>
 7    1  0.6320512E-009  0.4614232E+02  0.7816164E-02  0.1320468E+00
        -11   -1    0    0    0    0  0.00000000000E+00  0.00000000000E+00  0.45593999997E+02  0.45594000000E+02  0.51100000000E-03 0. -1.
         11   -1    0    0    0    0 -0.00000000000E+00 -0.00000000000E+00 -0.45593999997E+02  0.45594000000E+02  0.51100000000E-03 0.  1.
    9900012    2    1    2    0    0 -0.33960886100E+02  0.14971095021E+02 -0.25527201812E+02  0.46142317597E+02  0.99999985016E+01 0.  0.
         12    1    1    2    0    0  0.33960886100E+02 -0.14971095021E+02  0.25527201812E+02  0.45045682403E+02  0.00000000000E+00 0. -1.
         11    1    3    3    0    0 -0.10447403156E+02  0.37739867357E+01 -0.91045585944E+01  0.14362597121E+02  0.51100000000E-03 0. -1.
        -11    1    3    3    0    0 -0.20244385099E+02  0.69504331986E+01 -0.15283575665E+02  0.26300785826E+02  0.51100000000E-03 0.  1.
         12    1    3    3    0    0 -0.32690978446E+01  0.42466750870E+01 -0.11390675523E+01  0.54789346502E+01  0.00000000000E+00 0. -1.
</event>
<event>
 7    1  0.4623443E-009  0.4614232E+02  0.7816164E-02  0.1320468E+00
        -11   -1    0    0    0    0  0.00000000000E+00  0.00000000000E+00  0.45593999997E+02  0.45594000000E+02  0.51100000000E-03 0. -1.
         11   -1    0    0    0    0 -0.00000000000E+00 -0.00000000000E+00 -0.45593999997E+02  0.45594000000E+02  0.51100000000E-03 0.  1.
    9900012    2    1    2    0    0  0.12009051997E+02 -0.32478933936E+02  0.28809979327E+02  0.46142318871E+02  0.10000010122E+02 0.  0.
        -12    1    1    2    0    0 -0.12009051997E+02  0.32478933936E+02 -0.28809979327E+02  0.45045681129E+02  0.00000000000E+00 0.  1.
         11    1    3    3    0    0  0.43026818387E+01 -0.11360451412E+02  0.11261840184E+02  0.16565082912E+02  0.51100000000E-03 0. -1.
        -11    1    3    3    0    0  0.54677773613E+01 -0.15290977782E+02  0.78337603729E+01  0.18029930467E+02  0.51100000000E-03 0.  1.
        -12    1    3    3    0    0  0.22385927972E+01 -0.58275047426E+01  0.97143787704E+01  0.11547305492E+02  0.00000000000E+00 0.  1.
</event>
<event>
 7    1  0.4623443E-009  0.4614232E+02  0.7816164E-02  0.1320468E+00
        -11   -1    0    0    0    0  0.00000000000E+00  0.00000000000E+00  0.45593999997E+02  0.45594000000E+02  0.51100000000E-03 0. -1.
         11   -1    0    0    0    0 -0.00000000000E+00 -0.00000000000E+00 -0.45593999997E+02  0.45594000000E+02  0.51100000000E-03 0.  1.
    9900012    2    1    2    0    0 -0.14103574390E+02  0.29320629846E+02  0.31152899853E+02  0.46142319692E+02  0.10000017611E+02 0.  0.
        -12    1    1    2    0    0  0.14103574390E+02 -0.29320629846E+02 -0.31152899853E+02  0.45045680308E+02  0.00000000000E+00 0.  1.
         11    1    3    3    0    0 -0.44828805920E+01  0.60486187024E+01  0.88048083925E+01  0.11584759717E+02  0.51100000000E-03 0. -1.
        -11    1    3    3    0    0  0.10432715660E+01  0.23702299899E+01  0.40248367219E+01  0.47859917117E+01  0.51100000000E-03 0.  1.
         12    1    3    3    0    0 -0.10663965364E+02  0.20901781154E+02  0.18323254738E+02  0.29771568264E+02  0.00000000000E+00 0. -1.
</event>
<event>
 7    1  0.4623443E-009  0.4614232E+02  0.7816164E-02  0.1320468E+00
        -11   -1    0    0    0    0  0.00000000000E+00  0.00000000000E+00  0.45593999997E+02  0.45594000000E+02  0.51100000000E-03 0. -1.
         11   -1    0    0    0    0 -0.00000000000E+00 -0.00000000000E+00 -0.45593999997E+02  0.45594000000E+02  0.51100000000E-03 0.  1.
    9900012    2    1    2    0    0  0.16304325870E+02  0.25054552489E+02  0.33697950351E+02  0.46142317628E+02  0.99999987836E+01 0.  0.
        -12    1    1    2    0    0 -0.16304325870E+02 -0.25054552489E+02 -0.33697950351E+02  0.45045682372E+02  0.00000000000E+00 0.  1.
         11    1    3    3    0    0  0.52838082207E+01  0.48267994802E+01  0.62977950602E+01  0.95330396735E+01  0.51100000000E-03 0. -1.
        -11    1    3    3    0    0  0.33096232108E+01  0.32178796923E+01  0.18774141078E+01  0.49832759812E+01  0.51100000000E-03 0.  1.
         12    1    3    3    0    0  0.77108944388E+01  0.17009873316E+02  0.25522741183E+02  0.31626001973E+02  0.00000000000E+00 0. -1.
</event>
<event>
 7    1  0.4623443E-009  0.4614232E+02  0.7816164E-02  0.1320468E+00
        -11   -1    0    0    0    0  0.00000000000E+00  0.00000000000E+00  0.45593999997E+02  0.45594000000E+02  0.51100000000E-03 0. -1.
         11   -1    0    0    0    0 -0.00000000000E+00 -0.00000000000E+00 -0.45593999997E+02  0.45594000000E+02  0.51100000000E-03 0.  1.
    9900012    2    1    2    0    0 -0.20177119040E+02  0.11522206879E+02  0.38590623010E+02  0.46142316872E+02  0.99999918946E+01 0.  0.
        -12    1    1    2    0    0  0.20177119040E+02 -0.11522206879E+02 -0.38590623010E+02  0.45045683128E+02  0.00000000000E+00 0.  1.
         11    1    3    3    0    0 -0.14374594396E+02  0.54506137264E+01  0.25922642923E+02  0.30138373719E+02  0.51100000000E-03 0. -1.
        -11    1    3    3    0    0 -0.59293954807E+01  0.37749193363E+01  0.11357450114E+02  0.13356624578E+02  0.51100000000E-03 0.  1.
        -12    1    3    3    0    0  0.12687083684E+00  0.22966738162E+01  0.13105299728E+01  0.26473185749E+01  0.00000000000E+00 0.  1.
</event>
<event>
 7    1  0.4623443E-009  0.4614232E+02  0.7816164E-02  0.1320468E+00
        -11   -1    0    0    0    0  0.00000000000E+00  0.00000000000E+00  0.45593999997E+02  0.45594000000E+02  0.51100000000E-03 0.  1.
         11   -1    0    0    0    0 -0.00000000000E+00 -0.00000000000E+00 -0.45593999997E+02  0.45594000000E+02  0.51100000000E-03 0. -1.
    9900012    2    1    2    0    0  0.36035400029E+02 -0.25631019458E+02 -0.85798793030E+01  0.46142317160E+02  0.99999945194E+01 0.  0.
         12    1    1    2    0    0 -0.36035400029E+02  0.25631019458E+02  0.85798793030E+01  0.45045682840E+02  0.00000000000E+00 0. -1.
         11    1    3    3    0    0  0.16980910424E+02 -0.15888813884E+02 -0.39148620585E+01  0.23582448360E+02  0.51100000000E-03 0. -1.
        -11    1    3    3    0    0  0.66250678710E+01 -0.38811662042E+01  0.90617233416E+00  0.77315020507E+01  0.51100000000E-03 0.  1.
        -12    1    3    3    0    0  0.12429421734E+02 -0.58610393695E+01 -0.55711895787E+01  0.14828366749E+02  0.00000000000E+00 0.  1.
</event>
<event>
 7    1  0.4623443E-009  0.4614232E+02  0.7816164E-02  0.1320468E+00
        -11   -1    0    0    0    0  0.00000000000E+00  0.00000000000E+00  0.45593999997E+02  0.45594000000E+02  0.51100000000E-03 0. -1.
         11   -1    0    0    0    0 -0.00000000000E+00 -0.00000000000E+00 -0.45593999997E+02  0.45594000000E+02  0.51100000000E-03 0.  1.
    9900012    2    1    2    0    0 -0.13094916104E+02 -0.14803641139E+02 -0.40478252050E+02  0.46142317546E+02  0.99999980369E+01 0.  0.
         12    1    1    2    0    0  0.13094916104E+02  0.14803641139E+02  0.40478252050E+02  0.45045682454E+02  0.00000000000E+00 0. -1.
         11    1    3    3    0    0 -0.20423524921E+01 -0.11337315632E+01 -0.34041361673E+01  0.41285220437E+01  0.51100000000E-03 0. -1.
        -11    1    3    3    0    0 -0.70664666035E+01 -0.10786839251E+02 -0.33604757797E+02  0.35994035591E+02  0.51100000000E-03 0.  1.
         12    1    3    3    0    0 -0.39860970087E+01 -0.28830703242E+01 -0.34693580858E+01  0.60197599109E+01  0.00000000000E+00 0. -1.
</event>
<event>
 7    1  0.4623443E-009  0.4614232E+02  0.7816164E-02  0.1320468E+00
        -11   -1    0    0    0    0  0.00000000000E+00  0.00000000000E+00  0.45593999997E+02  0.45594000000E+02  0.51100000000E-03 0. -1.
         11   -1    0    0    0    0 -0.00000000000E+00 -0.00000000000E+00 -0.45593999997E+02  0.45594000000E+02  0.51100000000E-03 0.  1.
    9900012    2    1    2    0    0  0.15414745760E+02 -0.17494956834E+02  0.38541219406E+02  0.46142317690E+02  0.99999993537E+01 0.  0.
        -12    1    1    2    0    0 -0.15414745760E+02  0.17494956834E+02 -0.38541219406E+02  0.45045682310E+02  0.00000000000E+00 0.  1.
         11    1    3    3    0    0  0.39572318481E+01 -0.21084600053E+01  0.29646022678E+01  0.53753283026E+01  0.51100000000E-03 0.  1.
        -11    1    3    3    0    0  0.43621572590E+01 -0.83362745177E+01  0.12755528563E+02  0.15850091418E+02  0.51100000000E-03 0. -1.
         12    1    3    3    0    0  0.70953566533E+01 -0.70502223112E+01  0.22821088575E+02  0.24916897970E+02  0.00000000000E+00 0. -1.
</event>
<event>
 7    1  0.4623443E-009  0.4614232E+02  0.7816164E-02  0.1320468E+00
        -11   -1    0    0    0    0  0.00000000000E+00  0.00000000000E+00  0.45593999997E+02  0.45594000000E+02  0.51100000000E-03 0. -1.
         11   -1    0    0    0    0 -0.00000000000E+00 -0.00000000000E+00 -0.45593999997E+02  0.45594000000E+02  0.51100000000E-03 0.  1.
    9900012    2    1    2    0    0 -0.23008479413E+02 -0.85539210021E+01 -0.37769747693E+02  0.46142317297E+02  0.99999957647E+01 0.  0.
         12    1    1    2    0    0  0.23008479413E+02  0.85539210021E+01  0.37769747693E+02  0.45045682703E+02  0.00000000000E+00 0. -1.
         11    1    3    3    0    0 -0.11383006900E+02 -0.18136461936E+01 -0.11312396325E+02  0.16150308649E+02  0.51100000000E-03 0. -1.
        -11    1    3    3    0    0 -0.85863715231E+01 -0.26146939131E+01 -0.15959069690E+02  0.18309951006E+02  0.51100000000E-03 0.  1.
        -12    1    3    3    0    0 -0.30391009903E+01 -0.41255808954E+01 -0.10498281678E+02  0.11682057641E+02  0.00000000000E+00 0.  1.
</event>
<event>
 7    1  0.4623443E-009  0.4614232E+02  0.7816164E-02  0.1320468E+00
        -11   -1    0    0    0    0  0.00000000000E+00  0.00000000000E+00  0.45593999997E+02  0.45594000000E+02  0.51100000000E-03 0. -1.
         11   -1    0    0    0    0 -0.00000000000E+00 -0.00000000000E+00 -0.45593999997E+02  0.45594000000E+02  0.51100000000E-03 0.  1.
    9900012    2    1    2    0    0  0.15780073417E+02  0.18065834771E+02 -0.38127789886E+02  0.46142318025E+02  0.10000002405E+02 0.  0.
         12    1    1    2    0    0 -0.15780073417E+02 -0.18065834771E+02  0.38127789886E+02  0.45045681975E+02  0.00000000000E+00 0. -1.
         11    1    3    3    0    0 -0.47616935458E+00  0.17986054181E+01 -0.18104067506E+01  0.25960145547E+01  0.51100000000E-03 0. -1.
        -11    1    3    3    0    0  0.57288005031E+01  0.10494375178E+02 -0.19722231690E+02  0.23063336460E+02  0.51100000000E-03 0.  1.
        -12    1    3    3    0    0  0.10527442268E+02  0.57728541743E+01 -0.16595151446E+02  0.20482967010E+02  0.00000000000E+00 0.  1.
</event>
<event>
 7    1  0.4623443E-009  0.4614232E+02  0.7816164E-02  0.1320468E+00
        -11   -1    0    0    0    0  0.00000000000E+00  0.00000000000E+00  0.45593999997E+02  0.45594000000E+02  0.51100000000E-03 0. -1.
         11   -1    0    0    0    0 -0.00000000000E+00 -0.00000000000E+00 -0.45593999997E+02  0.45594000000E+02  0.51100000000E-03 0.  1.
    9900012    2    1    2    0    0  0.34029787816E+02  0.18324132341E+02  0.23136837673E+02  0.46142317162E+02  0.99999945368E+01 0.  0.
        -12    1    1    2    0    0 -0.34029787816E+02 -0.18324132341E+02 -0.23136837673E+02  0.45045682838E+02  0.00000000000E+00 0.  1.
         11    1    3    3    0    0  0.13567058868E+01 -0.10652384354E+01  0.83720054637E+00  0.19173650678E+01  0.51100000000E-03 0. -1.
        -11    1    3    3    0    0  0.57412421718E+01  0.52014146987E+01  0.47747046018E+01  0.91002407022E+01  0.51100000000E-03 0.  1.
         12    1    3    3    0    0  0.26931839757E+02  0.14187956078E+02  0.17524932525E+02  0.35124711392E+02  0.00000000000E+00 0. -1.
</event>
<event>
 7    1  0.4623443E-009  0.4614232E+02  0.7816164E-02  0.1320468E+00
        -11   -1    0    0    0    0  0.00000000000E+00  0.00000000000E+00  0.45593999997E+02  0.45594000000E+02  0.51100000000E-03 0. -1.
         11   -1    0    0    0    0 -0.00000000000E+00 -0.00000000000E+00 -0.45593999997E+02  0.45594000000E+02  0.51100000000E-03 0.  1.
    9900012    2    1    2    0    0  0.14494283642E+02 -0.15979998936E+02  0.39543252991E+02  0.46142317838E+02  0.10000000705E+02 0.  0.
        -12    1    1    2    0    0 -0.14494283642E+02  0.15979998936E+02 -0.39543252991E+02  0.45045682162E+02  0.00000000000E+00 0.  1.
         11    1    3    3    0    0  0.26527714160E+01 -0.15415853617E+01  0.12763119232E+02  0.13126724436E+02  0.51100000000E-03 0. -1.
        -11    1    3    3    0    0  0.34860999883E+01 -0.69239129626E+01  0.13956656387E+02  0.15965015553E+02  0.51100000000E-03 0.  1.
         12    1    3    3    0    0  0.83554122379E+01 -0.75145006117E+01  0.12823477372E+02  0.17050577850E+02  0.00000000000E+00 0. -1.
</event>
<event>
 7    1  0.4623443E-009  0.4614232E+02  0.7816164E-02  0.1320468E+00
        -11   -1    0    0    0    0  0.00000000000E+00  0.00000000000E+00  0.45593999997E+02  0.45594000000E+02  0.51100000000E-03 0. -1.
         11   -1    0    0    0    0 -0.00000000000E+00 -0.00000000000E+00 -0.45593999997E+02  0.45594000000E+02  0.51100000000E-03 0.  1.
    9900012    2    1    2    0    0 -0.11898091828E+02 -0.23711347033E+02 -0.36404957373E+02  0.46142317759E+02  0.99999999797E+01 0.  0.
         12    1    1    2    0    0  0.11898091828E+02  0.23711347033E+02  0.36404957373E+02  0.45045682241E+02  0.00000000000E+00 0. -1.
         11    1    3    3    0    0 -0.13687480909E+01 -0.32112014246E+00 -0.17837609539E+01  0.22712095640E+01  0.51100000000E-03 0. -1.
        -11    1    3    3    0    0 -0.11285750180E+02 -0.18395157569E+02 -0.30435208478E+02  0.37310211665E+02  0.51100000000E-03 0.  1.
        -12    1    3    3    0    0  0.75640644353E+00 -0.49950693217E+01 -0.41859879409E+01  0.65608965300E+01  0.00000000000E+00 0.  1.
</event>
<event>
 7    1  0.4623443E-009  0.4614232E+02  0.7816164E-02  0.1320468E+00
        -11   -1    0    0    0    0  0.00000000000E+00  0.00000000000E+00  0.45593999997E+02  0.45594000000E+02  0.51100000000E-03 0.  1.
         11   -1    0    0    0    0 -0.00000000000E+00 -0.00000000000E+00 -0.45593999997E+02  0.45594000000E+02  0.51100000000E-03 0. -1.
    9900012    2    1    2    0    0  0.36390538466E+02  0.20351149233E+02 -0.17049129677E+02  0.46142318879E+02  0.10000010192E+02 0.  0.
         12    1    1    2    0    0 -0.36390538466E+02 -0.20351149233E+02  0.17049129677E+02  0.45045681121E+02  0.00000000000E+00 0. -1.
         11    1    3    3    0    0  0.23971442738E+02  0.10350828669E+02 -0.14381589983E+02  0.29809392006E+02  0.51100000000E-03 0. -1.
        -11    1    3    3    0    0  0.71181650335E+01  0.48971293340E+01 -0.24117750640E+01  0.89703293351E+01  0.51100000000E-03 0.  1.
         12    1    3    3    0    0  0.53009306941E+01  0.51031912298E+01 -0.25576463016E+00  0.73625975374E+01  0.00000000000E+00 0. -1.
</event>
<event>
 7    1  0.4623443E-009  0.4614232E+02  0.7816164E-02  0.1320468E+00
        -11   -1    0    0    0    0  0.00000000000E+00  0.00000000000E+00  0.45593999997E+02  0.45594000000E+02  0.51100000000E-03 0.  1.
         11   -1    0    0    0    0 -0.00000000000E+00 -0.00000000000E+00 -0.45593999997E+02  0.45594000000E+02  0.51100000000E-03 0. -1.
    9900012    2    1    2    0    0  0.18130792283E+02 -0.20605719884E+01 -0.41184246225E+02  0.46142315158E+02  0.99999762628E+01 0.  0.
         12    1    1    2    0    0 -0.18130792283E+02  0.20605719884E+01  0.41184246225E+02  0.45045684842E+02  0.00000000000E+00 0. -1.
         11    1    3    3    0    0  0.14713293285E+00  0.26171875500E+00 -0.14139958741E+01  0.14455204598E+01  0.51100000000E-03 0. -1.
        -11    1    3    3    0    0  0.13990987340E+02  0.98211290839E+00 -0.21220422604E+02  0.25436560464E+02  0.51100000000E-03 0.  1.
        -12    1    3    3    0    0  0.39926720099E+01 -0.33044036518E+01 -0.18549827748E+02  0.19260234234E+02  0.00000000000E+00 0.  1.
</event>
<event>
 7    1  0.4623443E-009  0.4614232E+02  0.7816164E-02  0.1320468E+00
        -11   -1    0    0    0    0  0.00000000000E+00  0.00000000000E+00  0.45593999997E+02  0.45594000000E+02  0.51100000000E-03 0. -1.
         11   -1    0    0    0    0 -0.00000000000E+00 -0.00000000000E+00 -0.45593999997E+02  0.45594000000E+02  0.51100000000E-03 0.  1.
    9900012    2    1    2    0    0  0.30955342577E+02  0.27669239119E+01 -0.32607121572E+02  0.46142317863E+02  0.10000000929E+02 0.  0.
         12    1    1    2    0    0 -0.30955342577E+02 -0.27669239119E+01  0.32607121572E+02  0.45045682137E+02  0.00000000000E+00 0. -1.
         11    1    3    3    0    0  0.62381910994E+01 -0.11861762608E+01 -0.82250495385E+01  0.10391028943E+02  0.51100000000E-03 0. -1.
        -11    1    3    3    0    0  0.12607405608E+02  0.57812526768E+01 -0.13806446238E+02  0.19570066854E+02  0.51100000000E-03 0.  1.
         12    1    3    3    0    0  0.12109745870E+02 -0.18281525040E+01 -0.10575625795E+02  0.16181222066E+02  0.00000000000E+00 0. -1.
</event>
<event>
 7    1  0.4623443E-009  0.4614231E+02  0.7816164E-02  0.1320468E+00
        -11   -1    0    0    0    0  0.00000000000E+00  0.00000000000E+00  0.45593999997E+02  0.45594000000E+02  0.51100000000E-03 0. -1.
         11   -1    0    0    0    0 -0.00000000000E+00 -0.00000000000E+00 -0.45593999997E+02  0.45594000000E+02  0.51100000000E-03 0.  1.
    9900012    2    1    2    0    0 -0.30415615640E+02  0.14091957254E+02  0.30090212137E+02  0.46142314297E+02  0.99999684123E+01 0.  0.
        -12    1    1    2    0    0  0.30415615640E+02 -0.14091957254E+02 -0.30090212137E+02  0.45045685703E+02  0.00000000000E+00 0.  1.
         11    1    3    3    0    0  0.26099425803E+00  0.23456347335E+00  0.40191770294E+00  0.53355049134E+00  0.51100000000E-03 0. -1.
        -11    1    3    3    0    0 -0.11277572766E+02  0.81772772869E+01  0.84685707752E+01  0.16302398675E+02  0.51100000000E-03 0.  1.
         12    1    3    3    0    0 -0.19399037132E+02  0.56801164935E+01  0.21219723659E+02  0.29306365131E+02  0.00000000000E+00 0. -1.
</event>
<event>
 7    1  0.4623443E-009  0.4614232E+02  0.7816164E-02  0.1320468E+00
        -11   -1    0    0    0    0  0.00000000000E+00  0.00000000000E+00  0.45593999997E+02  0.45594000000E+02  0.51100000000E-03 0. -1.
         11   -1    0    0    0    0 -0.00000000000E+00 -0.00000000000E+00 -0.45593999997E+02  0.45594000000E+02  0.51100000000E-03 0.  1.
    9900012    2    1    2    0    0 -0.27841081442E+02 -0.72751729683E+01 -0.34656305037E+02  0.46142318338E+02  0.10000005262E+02 0.  0.
         12    1    1    2    0    0  0.27841081442E+02  0.72751729683E+01  0.34656305037E+02  0.45045681662E+02  0.00000000000E+00 0. -1.
         11    1    3    3    0    0 -0.10099804159E+02 -0.35615532758E+01 -0.19853588470E+02  0.22557829709E+02  0.51100000000E-03 0. -1.
        -11    1    3    3    0    0 -0.53887773136E+01 -0.23335926695E+01 -0.38859028580E+01  0.70416487391E+01  0.51100000000E-03 0.  1.
        -12    1    3    3    0    0 -0.12352499969E+02 -0.13800270230E+01 -0.10916813709E+02  0.16542839890E+02  0.00000000000E+00 0.  1.
</event>
<event>
 7    1  0.4623443E-009  0.4614232E+02  0.7816164E-02  0.1320468E+00
        -11   -1    0    0    0    0  0.00000000000E+00  0.00000000000E+00  0.45593999997E+02  0.45594000000E+02  0.51100000000E-03 0. -1.
         11   -1    0    0    0    0 -0.00000000000E+00 -0.00000000000E+00 -0.45593999997E+02  0.45594000000E+02  0.51100000000E-03 0.  1.
    9900012    2    1    2    0    0 -0.31009301632E+02 -0.23925290385E+02 -0.22251224252E+02  0.46142319980E+02  0.10000020234E+02 0.  0.
         12    1    1    2    0    0  0.31009301632E+02  0.23925290385E+02  0.22251224252E+02  0.45045680020E+02  0.00000000000E+00 0. -1.
         11    1    3    3    0    0 -0.52221797780E+01 -0.10275469034E+01 -0.40809465054E+01  0.67067979628E+01  0.51100000000E-03 0. -1.
        -11    1    3    3    0    0 -0.13163800791E+02 -0.78226216932E+01 -0.86958408534E+01  0.17609563022E+02  0.51100000000E-03 0.  1.
        -12    1    3    3    0    0 -0.12623321063E+02 -0.15075121789E+02 -0.94744368930E+01  0.21825958995E+02  0.00000000000E+00 0.  1.
</event>
<event>
 7    1  0.4623443E-009  0.4614232E+02  0.7816164E-02  0.1320468E+00
        -11   -1    0    0    0    0  0.00000000000E+00  0.00000000000E+00  0.45593999997E+02  0.45594000000E+02  0.51100000000E-03 0. -1.
         11   -1    0    0    0    0 -0.00000000000E+00 -0.00000000000E+00 -0.45593999997E+02  0.45594000000E+02  0.51100000000E-03 0.  1.
    9900012    2    1    2    0    0  0.36849231990E+02 -0.13520313733E+02  0.22100871163E+02  0.46142319987E+02  0.10000020297E+02 0.  0.
        -12    1    1    2    0    0 -0.36849231990E+02  0.13520313733E+02 -0.22100871163E+02  0.45045680013E+02  0.00000000000E+00 0.  1.
         11    1    3    3    0    0  0.17657576729E+02 -0.62075019816E+01  0.10294477601E+02  0.21361164906E+02  0.51100000000E-03 0. -1.
        -11    1    3    3    0    0  0.11155012666E+02 -0.20182190214E+01  0.97221314833E+01  0.14934100456E+02  0.51100000000E-03 0.  1.
        -12    1    3    3    0    0  0.80366425948E+01 -0.52945927295E+01  0.20842620783E+01  0.98470546245E+01  0.00000000000E+00 0.  1.
</event>
<event>
 7    1  0.4623443E-009  0.4614232E+02  0.7816164E-02  0.1320468E+00
        -11   -1    0    0    0    0  0.00000000000E+00  0.00000000000E+00  0.45593999997E+02  0.45594000000E+02  0.51100000000E-03 0. -1.
         11   -1    0    0    0    0 -0.00000000000E+00 -0.00000000000E+00 -0.45593999997E+02  0.45594000000E+02  0.51100000000E-03 0.  1.
    9900012    2    1    2    0    0 -0.31589774742E+02 -0.28186903564E+01 -0.31988345205E+02  0.46142321933E+02  0.10000038045E+02 0.  0.
         12    1    1    2    0    0  0.31589774742E+02  0.28186903564E+01  0.31988345205E+02  0.45045678067E+02  0.00000000000E+00 0. -1.
         11    1    3    3    0    0 -0.51300240005E+01  0.21665945381E+01 -0.34073708104E+01  0.65285108745E+01  0.51100000000E-03 0. -1.
        -11    1    3    3    0    0 -0.20008715225E+02 -0.22927074814E+01 -0.18504430868E+02  0.27349938840E+02  0.51100000000E-03 0.  1.
        -12    1    3    3    0    0 -0.64510355163E+01 -0.26925774130E+01 -0.10076543527E+02  0.12263872219E+02  0.00000000000E+00 0.  1.
</event>
<event>
 7    1  0.4623443E-009  0.4614232E+02  0.7816164E-02  0.1320468E+00
        -11   -1    0    0    0    0  0.00000000000E+00  0.00000000000E+00  0.45593999997E+02  0.45594000000E+02  0.51100000000E-03 0. -1.
         11   -1    0    0    0    0 -0.00000000000E+00 -0.00000000000E+00 -0.45593999997E+02  0.45594000000E+02  0.51100000000E-03 0.  1.
    9900012    2    1    2    0    0  0.24818145443E+01 -0.24629067697E+02  0.37634600127E+02  0.46142317568E+02  0.99999982428E+01 0.  0.
        -12    1    1    2    0    0 -0.24818145443E+01  0.24629067697E+02 -0.37634600127E+02  0.45045682432E+02  0.00000000000E+00 0.  1.
         11    1    3    3    0    0  0.28496827714E+01 -0.13078047802E+02  0.18735665152E+02  0.23025663403E+02  0.51100000000E-03 0. -1.
        -11    1    3    3    0    0  0.16953478996E+01 -0.41825276114E+01  0.11974759899E+02  0.12796976855E+02  0.51100000000E-03 0.  1.
         12    1    3    3    0    0 -0.20632161267E+01 -0.73684922829E+01  0.69241750755E+01  0.10319677310E+02  0.00000000000E+00 0. -1.
</event>
<event>
 7    1  0.4623443E-009  0.4614231E+02  0.7816164E-02  0.1320468E+00
        -11   -1    0    0    0    0  0.00000000000E+00  0.00000000000E+00  0.45593999997E+02  0.45594000000E+02  0.51100000000E-03 0. -1.
         11   -1    0    0    0    0 -0.00000000000E+00 -0.00000000000E+00 -0.45593999997E+02  0.45594000000E+02  0.51100000000E-03 0.  1.
    9900012    2    1    2    0    0 -0.44510281416E+02 -0.46593511302E+01 -0.51224378667E+01  0.46142311257E+02  0.99999406887E+01 0.  0.
         12    1    1    2    0    0  0.44510281416E+02  0.46593511302E+01  0.51224378667E+01  0.45045688743E+02  0.00000000000E+00 0. -1.
         11    1    3    3    0    0 -0.73293457724E+00 -0.63552825042E+00 -0.65297184766E-01  0.97229277230E+00  0.51100000000E-03 0. -1.
        -11    1    3    3    0    0 -0.10374111557E+02 -0.28445252959E+01  0.21695981648E+01  0.10973635278E+02  0.51100000000E-03 0.  1.
         12    1    3    3    0    0 -0.33403235282E+02 -0.11792975838E+01 -0.72267388467E+01  0.34196383207E+02  0.00000000000E+00 0. -1.
</event>
<event>
 7    1  0.4623443E-009  0.4614232E+02  0.7816164E-02  0.1320468E+00
        -11   -1    0    0    0    0  0.00000000000E+00  0.00000000000E+00  0.45593999997E+02  0.45594000000E+02  0.51100000000E-03 0. -1.
         11   -1    0    0    0    0 -0.00000000000E+00 -0.00000000000E+00 -0.45593999997E+02  0.45594000000E+02  0.51100000000E-03 0.  1.
    9900012    2    1    2    0    0 -0.37139248768E+02 -0.10098079461E+01 -0.25470963450E+02  0.46142317741E+02  0.99999998141E+01 0.  0.
         12    1    1    2    0    0  0.37139248768E+02  0.10098079461E+01  0.25470963450E+02  0.45045682259E+02  0.00000000000E+00 0. -1.
         11    1    3    3    0    0 -0.21370673867E+02 -0.26562749222E+01 -0.11721959323E+02  0.24518683256E+02  0.51100000000E-03 0. -1.
        -11    1    3    3    0    0 -0.15723718652E+02  0.71824761925E+00 -0.12721968820E+02  0.20238569584E+02  0.51100000000E-03 0.  1.
         12    1    3    3    0    0 -0.44856249144E-01  0.92821935683E+00 -0.10270353061E+01  0.13850649001E+01  0.00000000000E+00 0. -1.
</event>
<event>
 7    1  0.4623443E-009  0.4614232E+02  0.7816164E-02  0.1320468E+00
        -11   -1    0    0    0    0  0.00000000000E+00  0.00000000000E+00  0.45593999997E+02  0.45594000000E+02  0.51100000000E-03 0. -1.
         11   -1    0    0    0    0 -0.00000000000E+00 -0.00000000000E+00 -0.45593999997E+02  0.45594000000E+02  0.51100000000E-03 0.  1.
    9900012    2    1    2    0    0 -0.19083150118E+02 -0.95537598932E+01 -0.39669541976E+02  0.46142317553E+02  0.99999981065E+01 0.  0.
         12    1    1    2    0    0  0.19083150118E+02  0.95537598932E+01  0.39669541976E+02  0.45045682447E+02  0.00000000000E+00 0. -1.
         11    1    3    3    0    0 -0.37431811982E+00 -0.17936218953E+01 -0.20917185248E+01  0.27807337532E+01  0.51100000000E-03 0. -1.
        -11    1    3    3    0    0 -0.12301932800E+02 -0.78076942602E+01 -0.30579352250E+02  0.33873211016E+02  0.51100000000E-03 0.  1.
        -12    1    3    3    0    0 -0.64068991986E+01  0.47556262329E-01 -0.69984712010E+01  0.94883727841E+01  0.00000000000E+00 0.  1.
</event>
<event>
 7    1  0.4623443E-009  0.4614232E+02  0.7816164E-02  0.1320468E+00
        -11   -1    0    0    0    0  0.00000000000E+00  0.00000000000E+00  0.45593999997E+02  0.45594000000E+02  0.51100000000E-03 0. -1.
         11   -1    0    0    0    0 -0.00000000000E+00 -0.00000000000E+00 -0.45593999997E+02  0.45594000000E+02  0.51100000000E-03 0.  1.
    9900012    2    1    2    0    0 -0.14959488940E+02  0.17735550318E+02 -0.38610587797E+02  0.46142317139E+02  0.99999943261E+01 0.  0.
         12    1    1    2    0    0  0.14959488940E+02 -0.17735550318E+02  0.38610587797E+02  0.45045682861E+02  0.00000000000E+00 0. -1.
         11    1    3    3    0    0 -0.28888902067E+01  0.48856672077E+00 -0.26698157139E+01  0.39638744019E+01  0.51100000000E-03 0. -1.
        -11    1    3    3    0    0 -0.12575483675E+02  0.17101370844E+02 -0.33332621941E+02  0.39517886585E+02  0.51100000000E-03 0.  1.
         12    1    3    3    0    0  0.50488494162E+00  0.14561275341E+00 -0.26081501413E+01  0.26605561520E+01  0.00000000000E+00 0. -1.
</event>
<event>
 7    1  0.4623443E-009  0.4614231E+02  0.7816164E-02  0.1320468E+00
        -11   -1    0    0    0    0  0.00000000000E+00  0.00000000000E+00  0.45593999997E+02  0.45594000000E+02  0.51100000000E-03 0. -1.
         11   -1    0    0    0    0 -0.00000000000E+00 -0.00000000000E+00 -0.45593999997E+02  0.45594000000E+02  0.51100000000E-03 0.  1.
    9900012    2    1    2    0    0 -0.28154429125E+02  0.13758532596E+02  0.32359614816E+02  0.46142314640E+02  0.99999715357E+01 0.  0.
        -12    1    1    2    0    0  0.28154429125E+02 -0.13758532596E+02 -0.32359614816E+02  0.45045685360E+02  0.00000000000E+00 0.  1.
         11    1    3    3    0    0 -0.20743081804E+02  0.91043447978E+01  0.27815965745E+02  0.35873283757E+02  0.51100000000E-03 0. -1.
        -11    1    3    3    0    0 -0.37494508507E+01  0.39450345485E+01  0.31421502716E+01  0.62844878758E+01  0.51100000000E-03 0.  1.
        -12    1    3    3    0    0 -0.36618964701E+01  0.70915324936E+00  0.14014988001E+01  0.39845430071E+01  0.00000000000E+00 0.  1.
</event>
<event>
 7    1  0.4623443E-009  0.4614232E+02  0.7816164E-02  0.1320468E+00
        -11   -1    0    0    0    0  0.00000000000E+00  0.00000000000E+00  0.45593999997E+02  0.45594000000E+02  0.51100000000E-03 0.  1.
         11   -1    0    0    0    0 -0.00000000000E+00 -0.00000000000E+00 -0.45593999997E+02  0.45594000000E+02  0.51100000000E-03 0. -1.
    9900012    2    1    2    0    0 -0.32731988490E+02 -0.22594646658E+02 -0.21147397271E+02  0.46142317194E+02  0.99999948290E+01 0.  0.
         12    1    1    2    0    0  0.32731988490E+02  0.22594646658E+02  0.21147397271E+02  0.45045682806E+02  0.00000000000E+00 0. -1.
         11    1    3    3    0    0 -0.71754444136E+01 -0.20676214007E+01 -0.57224159349E+01  0.94078746368E+01  0.51100000000E-03 0.  1.
        -11    1    3    3    0    0 -0.98126971277E+01 -0.43528690395E+01 -0.42167317618E+01  0.11533313522E+02  0.51100000000E-03 0. -1.
        -12    1    3    3    0    0 -0.15743846949E+02 -0.16174156218E+02 -0.11208249575E+02  0.25201129035E+02  0.00000000000E+00 0.  1.
</event>
<event>
 7    1  0.4623443E-009  0.4614232E+02  0.7816164E-02  0.1320468E+00
        -11   -1    0    0    0    0  0.00000000000E+00  0.00000000000E+00  0.45593999997E+02  0.45594000000E+02  0.51100000000E-03 0.  1.
         11   -1    0    0    0    0 -0.00000000000E+00 -0.00000000000E+00 -0.45593999997E+02  0.45594000000E+02  0.51100000000E-03 0. -1.
    9900012    2    1    2    0    0 -0.11236049704E+02 -0.31599449720E+02 -0.30072235964E+02  0.46142318615E+02  0.10000007787E+02 0.  0.
         12    1    1    2    0    0  0.11236049704E+02  0.31599449720E+02  0.30072235964E+02  0.45045681385E+02  0.00000000000E+00 0. -1.
         11    1    3    3    0    0 -0.50055259818E+01 -0.40627582364E+01 -0.44824578529E+01  0.78519885064E+01  0.51100000000E-03 0. -1.
        -11    1    3    3    0    0  0.23567000069E-01 -0.97587499880E+00 -0.19774055001E+01  0.22052256550E+01  0.51100000000E-03 0.  1.
        -12    1    3    3    0    0 -0.62540907223E+01 -0.26560816485E+02 -0.23612372611E+02  0.36085104454E+02  0.00000000000E+00 0.  1.
</event>
<event>
 7    1  0.4623443E-009  0.4614232E+02  0.7816164E-02  0.1320468E+00
        -11   -1    0    0    0    0  0.00000000000E+00  0.00000000000E+00  0.45593999997E+02  0.45594000000E+02  0.51100000000E-03 0. -1.
         11   -1    0    0    0    0 -0.00000000000E+00 -0.00000000000E+00 -0.45593999997E+02  0.45594000000E+02  0.51100000000E-03 0.  1.
    9900012    2    1    2    0    0  0.26297123625E+02  0.15124281413E+02 -0.33299106777E+02  0.46142321946E+02  0.10000038158E+02 0.  0.
         12    1    1    2    0    0 -0.26297123625E+02 -0.15124281413E+02  0.33299106777E+02  0.45045678054E+02  0.00000000000E+00 0. -1.
         11    1    3    3    0    0  0.53278420636E+01  0.57251986374E+01 -0.13757033177E+02  0.15824656792E+02  0.51100000000E-03 0. -1.
        -11    1    3    3    0    0  0.14617366481E+02  0.50827427193E+01 -0.13697026120E+02  0.20666644653E+02  0.51100000000E-03 0.  1.
         12    1    3    3    0    0  0.63519150801E+01  0.43163400566E+01 -0.58450474805E+01  0.96510205014E+01  0.00000000000E+00 0. -1.
</event>
<event>
 7    1  0.4623443E-009  0.4614232E+02  0.7816164E-02  0.1320468E+00
        -11   -1    0    0    0    0  0.00000000000E+00  0.00000000000E+00  0.45593999997E+02  0.45594000000E+02  0.51100000000E-03 0. -1.
         11   -1    0    0    0    0 -0.00000000000E+00 -0.00000000000E+00 -0.45593999997E+02  0.45594000000E+02  0.51100000000E-03 0.  1.
    9900012    2    1    2    0    0  0.36824712279E+02 -0.73847850842E+01  0.24870039752E+02  0.46142319159E+02  0.10000012747E+02 0.  0.
        -12    1    1    2    0    0 -0.36824712279E+02  0.73847850842E+01 -0.24870039752E+02  0.45045680841E+02  0.00000000000E+00 0.  1.
         11    1    3    3    0    0  0.23953591025E+02 -0.79834793644E+01  0.14132594083E+02  0.28935111569E+02  0.51100000000E-03 0. -1.
        -11    1    3    3    0    0  0.18599350003E+01  0.13244254949E+01  0.10096520996E+01  0.24965693902E+01  0.51100000000E-03 0.  1.
        -12    1    3    3    0    0  0.11011186254E+02 -0.72573121473E+00  0.97277935694E+01  0.14710638200E+02  0.00000000000E+00 0.  1.
</event>
<event>
 7    1  0.4623443E-009  0.4614232E+02  0.7816164E-02  0.1320468E+00
        -11   -1    0    0    0    0  0.00000000000E+00  0.00000000000E+00  0.45593999997E+02  0.45594000000E+02  0.51100000000E-03 0. -1.
         11   -1    0    0    0    0 -0.00000000000E+00 -0.00000000000E+00 -0.45593999997E+02  0.45594000000E+02  0.51100000000E-03 0.  1.
    9900012    2    1    2    0    0  0.12459178776E+02 -0.38285321008E+02  0.20201895287E+02  0.46142317480E+02  0.99999974399E+01 0.  0.
        -12    1    1    2    0    0 -0.12459178776E+02  0.38285321008E+02 -0.20201895287E+02  0.45045682520E+02  0.00000000000E+00 0.  1.
         11    1    3    3    0    0  0.98247222476E+00 -0.98643281004E+01  0.67282518952E+01  0.11980801074E+02  0.51100000000E-03 0. -1.
        -11    1    3    3    0    0  0.47811012111E+01 -0.19403551073E+02  0.68658632802E+01  0.21130470933E+02  0.51100000000E-03 0.  1.
         12    1    3    3    0    0  0.66956053401E+01 -0.90174418351E+01  0.66077801117E+01  0.13031045473E+02  0.00000000000E+00 0. -1.
</event>
<event>
 7    1  0.4623443E-009  0.4614232E+02  0.7816164E-02  0.1320468E+00
        -11   -1    0    0    0    0  0.00000000000E+00  0.00000000000E+00  0.45593999997E+02  0.45594000000E+02  0.51100000000E-03 0. -1.
         11   -1    0    0    0    0 -0.00000000000E+00 -0.00000000000E+00 -0.45593999997E+02  0.45594000000E+02  0.51100000000E-03 0.  1.
    9900012    2    1    2    0    0  0.28185054545E+02 -0.18685010460E+02 -0.29758805312E+02  0.46142318640E+02  0.10000008012E+02 0.  0.
         12    1    1    2    0    0 -0.28185054545E+02  0.18685010460E+02  0.29758805312E+02  0.45045681360E+02  0.00000000000E+00 0. -1.
         11    1    3    3    0    0  0.19354308516E+01 -0.15391575383E+01 -0.36561675430E+01  0.44138939580E+01  0.51100000000E-03 0. -1.
        -11    1    3    3    0    0  0.12864557317E+02 -0.62474911605E+01 -0.68055400253E+01  0.15838035107E+02  0.51100000000E-03 0.  1.
        -12    1    3    3    0    0  0.13385066377E+02 -0.10898361762E+02 -0.19297097743E+02  0.25890389574E+02  0.00000000000E+00 0.  1.
</event>
<event>
 7    1  0.4623443E-009  0.4614232E+02  0.7816164E-02  0.1320468E+00
        -11   -1    0    0    0    0  0.00000000000E+00  0.00000000000E+00  0.45593999997E+02  0.45594000000E+02  0.51100000000E-03 0. -1.
         11   -1    0    0    0    0 -0.00000000000E+00 -0.00000000000E+00 -0.45593999997E+02  0.45594000000E+02  0.51100000000E-03 0.  1.
    9900012    2    1    2    0    0  0.99159808238E+01 -0.36808844210E+02 -0.23997829237E+02  0.46142317678E+02  0.99999992396E+01 0.  0.
         12    1    1    2    0    0 -0.99159808238E+01  0.36808844210E+02  0.23997829237E+02  0.45045682322E+02  0.00000000000E+00 0. -1.
         11    1    3    3    0    0  0.31260472816E+01 -0.19110704115E+02 -0.73783320319E+01  0.20722716212E+02  0.51100000000E-03 0. -1.
        -11    1    3    3    0    0  0.39235683449E+00 -0.48969757115E+01 -0.46194781606E+01  0.67434333794E+01  0.51100000000E-03 0.  1.
         12    1    3    3    0    0  0.63975767077E+01 -0.12801164384E+02 -0.12000019045E+02  0.18676168086E+02  0.00000000000E+00 0. -1.
</event>
<event>
 7    1  0.4623443E-009  0.4614232E+02  0.7816164E-02  0.1320468E+00
        -11   -1    0    0    0    0  0.00000000000E+00  0.00000000000E+00  0.45593999997E+02  0.45594000000E+02  0.51100000000E-03 0. -1.
         11   -1    0    0    0    0 -0.00000000000E+00 -0.00000000000E+00 -0.45593999997E+02  0.45594000000E+02  0.51100000000E-03 0.  1.
    9900012    2    1    2    0    0 -0.34253354387E+02 -0.19823800100E+02 -0.21513675863E+02  0.46142316674E+02  0.99999900859E+01 0.  0.
         12    1    1    2    0    0  0.34253354387E+02  0.19823800100E+02  0.21513675863E+02  0.45045683326E+02  0.00000000000E+00 0. -1.
         11    1    3    3    0    0 -0.11246305765E+02 -0.89939182105E+01 -0.85792993077E+01  0.16762289074E+02  0.51100000000E-03 0. -1.
        -11    1    3    3    0    0 -0.12505480184E+01 -0.21028408472E+01  0.29295493929E+00  0.24640683498E+01  0.51100000000E-03 0.  1.
        -12    1    3    3    0    0 -0.21756500603E+02 -0.87270410426E+01 -0.13227331495E+02  0.26915959250E+02  0.00000000000E+00 0.  1.
</event>
<event>
 7    1  0.4623443E-009  0.4614232E+02  0.7816164E-02  0.1320468E+00
        -11   -1    0    0    0    0  0.00000000000E+00  0.00000000000E+00  0.45593999997E+02  0.45594000000E+02  0.51100000000E-03 0. -1.
         11   -1    0    0    0    0 -0.00000000000E+00 -0.00000000000E+00 -0.45593999997E+02  0.45594000000E+02  0.51100000000E-03 0.  1.
    9900012    2    1    2    0    0 -0.20500616449E+02  0.65126878928E+01  0.39578063457E+02  0.46142317794E+02  0.10000000302E+02 0.  0.
        -12    1    1    2    0    0  0.20500616449E+02 -0.65126878928E+01 -0.39578063457E+02  0.45045682206E+02  0.00000000000E+00 0.  1.
         11    1    3    3    0    0 -0.10099193030E+02  0.41121900364E+01  0.20224278039E+02  0.22976623538E+02  0.51100000000E-03 0. -1.
        -11    1    3    3    0    0 -0.77819148483E+01  0.98788524518E+00  0.71827436038E+01  0.10636067032E+02  0.51100000000E-03 0.  1.
         12    1    3    3    0    0 -0.26195085712E+01  0.14126126113E+01  0.12171041814E+02  0.12529627225E+02  0.00000000000E+00 0. -1.
</event>
<event>
 7    1  0.4623443E-009  0.4614232E+02  0.7816164E-02  0.1320468E+00
        -11   -1    0    0    0    0  0.00000000000E+00  0.00000000000E+00  0.45593999997E+02  0.45594000000E+02  0.51100000000E-03 0. -1.
         11   -1    0    0    0    0 -0.00000000000E+00 -0.00000000000E+00 -0.45593999997E+02  0.45594000000E+02  0.51100000000E-03 0.  1.
    9900012    2    1    2    0    0  0.36161910551E+01 -0.35565115306E+02 -0.27407283990E+02  0.46142317852E+02  0.10000000828E+02 0.  0.
         12    1    1    2    0    0 -0.36161910551E+01  0.35565115306E+02  0.27407283990E+02  0.45045682148E+02  0.00000000000E+00 0. -1.
         11    1    3    3    0    0  0.17186303286E+01 -0.47240243109E+00 -0.16074189978E+01  0.24001354876E+01  0.51100000000E-03 0. -1.
        -11    1    3    3    0    0 -0.66281204024E+00 -0.14477635924E+02 -0.11834038732E+02  0.18710578150E+02  0.51100000000E-03 0.  1.
        -12    1    3    3    0    0  0.25603727667E+01 -0.20615076951E+02 -0.13965826261E+02  0.25031604214E+02  0.00000000000E+00 0.  1.
</event>
<event>
 7    1  0.4623443E-009  0.4614232E+02  0.7816164E-02  0.1320468E+00
        -11   -1    0    0    0    0  0.00000000000E+00  0.00000000000E+00  0.45593999997E+02  0.45594000000E+02  0.51100000000E-03 0. -1.
         11   -1    0    0    0    0 -0.00000000000E+00 -0.00000000000E+00 -0.45593999997E+02  0.45594000000E+02  0.51100000000E-03 0.  1.
    9900012    2    1    2    0    0 -0.11947576625E+02  0.33688555428E+02  0.27412590820E+02  0.46142317748E+02  0.99999998803E+01 0.  0.
        -12    1    1    2    0    0  0.11947576625E+02 -0.33688555428E+02 -0.27412590820E+02  0.45045682252E+02  0.00000000000E+00 0.  1.
         11    1    3    3    0    0 -0.63351195271E+01  0.99377066533E+01  0.69931392957E+01  0.13703858961E+02  0.51100000000E-03 0. -1.
        -11    1    3    3    0    0 -0.62388811917E+01  0.12850395147E+02  0.11769791807E+02  0.18509032751E+02  0.51100000000E-03 0.  1.
         12    1    3    3    0    0  0.62642409397E+00  0.10900453629E+02  0.86496597177E+01  0.13929426036E+02  0.00000000000E+00 0. -1.
</event>
<event>
 7    1  0.4623443E-009  0.4614232E+02  0.7816164E-02  0.1320468E+00
        -11   -1    0    0    0    0  0.00000000000E+00  0.00000000000E+00  0.45593999997E+02  0.45594000000E+02  0.51100000000E-03 0.  1.
         11   -1    0    0    0    0 -0.00000000000E+00 -0.00000000000E+00 -0.45593999997E+02  0.45594000000E+02  0.51100000000E-03 0. -1.
    9900012    2    1    2    0    0 -0.11261277955E+02 -0.40145952006E+02 -0.17046983511E+02  0.46142317738E+02  0.99999997876E+01 0.  0.
         12    1    1    2    0    0  0.11261277955E+02  0.40145952006E+02  0.17046983511E+02  0.45045682262E+02  0.00000000000E+00 0. -1.
         11    1    3    3    0    0 -0.34537131740E+00 -0.78785071865E+01 -0.36955020152E+01  0.87090121277E+01  0.51100000000E-03 0. -1.
        -11    1    3    3    0    0 -0.10917891963E+02 -0.27427355643E+02 -0.13772039212E+02  0.32574979152E+02  0.51100000000E-03 0.  1.
         12    1    3    3    0    0  0.19853247251E-02 -0.48400891764E+01  0.42055771584E+00  0.48583264577E+01  0.00000000000E+00 0. -1.
</event>
<event>
 7    1  0.4623443E-009  0.4614232E+02  0.7816164E-02  0.1320468E+00
        -11   -1    0    0    0    0  0.00000000000E+00  0.00000000000E+00  0.45593999997E+02  0.45594000000E+02  0.51100000000E-03 0. -1.
         11   -1    0    0    0    0 -0.00000000000E+00 -0.00000000000E+00 -0.45593999997E+02  0.45594000000E+02  0.51100000000E-03 0.  1.
    9900012    2    1    2    0    0  0.23980485685E+02  0.18700490341E+02  0.33231632758E+02  0.46142318204E+02  0.10000004037E+02 0.  0.
        -12    1    1    2    0    0 -0.23980485685E+02 -0.18700490341E+02 -0.33231632758E+02  0.45045681796E+02  0.00000000000E+00 0.  1.
         11    1    3    3    0    0  0.72872194546E+01  0.57752063699E+01  0.90009121879E+01  0.12941135826E+02  0.51100000000E-03 0. -1.
        -11    1    3    3    0    0  0.46217723648E+01 -0.30611743992E+00  0.66481994743E+01  0.81026566131E+01  0.51100000000E-03 0.  1.
        -12    1    3    3    0    0  0.12071493866E+02  0.13231401411E+02  0.17582521096E+02  0.25098525765E+02  0.00000000000E+00 0.  1.
</event>
<event>
 7    1  0.4623443E-009  0.4614232E+02  0.7816164E-02  0.1320468E+00
        -11   -1    0    0    0    0  0.00000000000E+00  0.00000000000E+00  0.45593999997E+02  0.45594000000E+02  0.51100000000E-03 0. -1.
         11   -1    0    0    0    0 -0.00000000000E+00 -0.00000000000E+00 -0.45593999997E+02  0.45594000000E+02  0.51100000000E-03 0.  1.
    9900012    2    1    2    0    0  0.37428043382E+00 -0.22406732007E+02 -0.39075718097E+02  0.46142317967E+02  0.10000001875E+02 0.  0.
         12    1    1    2    0    0 -0.37428043382E+00  0.22406732007E+02  0.39075718097E+02  0.45045682033E+02  0.00000000000E+00 0. -1.
         11    1    3    3    0    0 -0.17426126162E+00 -0.74578180812E-01  0.36970412342E+00  0.41546394832E+00  0.51100000000E-03 0. -1.
        -11    1    3    3    0    0  0.46371043829E-02 -0.12108755050E+02 -0.27145104435E+02  0.29723369012E+02  0.51100000000E-03 0.  1.
         12    1    3    3    0    0  0.54390459106E+00 -0.10223398776E+02 -0.12300317785E+02  0.16003485006E+02  0.00000000000E+00 0. -1.
</event>
<event>
 7    1  0.4623443E-009  0.4614232E+02  0.7816164E-02  0.1320468E+00
        -11   -1    0    0    0    0  0.00000000000E+00  0.00000000000E+00  0.45593999997E+02  0.45594000000E+02  0.51100000000E-03 0. -1.
         11   -1    0    0    0    0 -0.00000000000E+00 -0.00000000000E+00 -0.45593999997E+02  0.45594000000E+02  0.51100000000E-03 0.  1.
    9900012    2    1    2    0    0 -0.27383557346E+02  0.11653486275E+02 -0.33814943120E+02  0.46142319480E+02  0.10000015674E+02 0.  0.
         12    1    1    2    0    0  0.27383557346E+02 -0.11653486275E+02  0.33814943120E+02  0.45045680520E+02  0.00000000000E+00 0. -1.
         11    1    3    3    0    0 -0.84144414593E+01  0.12987033788E+01 -0.80924762603E+01  0.11746387863E+02  0.51100000000E-03 0. -1.
        -11    1    3    3    0    0 -0.66838728428E+01  0.25927861782E+01 -0.13986496992E+02  0.15716831573E+02  0.51100000000E-03 0.  1.
         12    1    3    3    0    0 -0.12285243044E+02  0.77619967180E+01 -0.11735969868E+02  0.18679100044E+02  0.00000000000E+00 0. -1.
</event>
<event>
 7    1  0.4623443E-009  0.4614232E+02  0.7816164E-02  0.1320468E+00
        -11   -1    0    0    0    0  0.00000000000E+00  0.00000000000E+00  0.45593999997E+02  0.45594000000E+02  0.51100000000E-03 0.  1.
         11   -1    0    0    0    0 -0.00000000000E+00 -0.00000000000E+00 -0.45593999997E+02  0.45594000000E+02  0.51100000000E-03 0. -1.
    9900012    2    1    2    0    0  0.36301404756E+02  0.18060708881E+02 -0.19624787589E+02  0.46142317849E+02  0.10000000800E+02 0.  0.
         12    1    1    2    0    0 -0.36301404756E+02 -0.18060708881E+02  0.19624787589E+02  0.45045682151E+02  0.00000000000E+00 0. -1.
         11    1    3    3    0    0  0.41503302037E+01  0.29588522037E+01 -0.60523773212E+01  0.79127314287E+01  0.51100000000E-03 0. -1.
        -11    1    3    3    0    0  0.17302281179E+02  0.93659798377E+01 -0.57774233410E+01  0.20505344012E+02  0.51100000000E-03 0.  1.
         12    1    3    3    0    0  0.14848793373E+02  0.57358768395E+01 -0.77949869272E+01  0.17724242409E+02  0.00000000000E+00 0. -1.
</event>
<event>
 7    1  0.4623443E-009  0.4614232E+02  0.7816164E-02  0.1320468E+00
        -11   -1    0    0    0    0  0.00000000000E+00  0.00000000000E+00  0.45593999997E+02  0.45594000000E+02  0.51100000000E-03 0.  1.
         11   -1    0    0    0    0 -0.00000000000E+00 -0.00000000000E+00 -0.45593999997E+02  0.45594000000E+02  0.51100000000E-03 0. -1.
    9900012    2    1    2    0    0 -0.97296535302E+01 -0.42276404518E+02  0.12130652274E+02  0.46142320280E+02  0.10000022974E+02 0.  0.
        -12    1    1    2    0    0  0.97296535302E+01  0.42276404518E+02 -0.12130652274E+02  0.45045679720E+02  0.00000000000E+00 0.  1.
         11    1    3    3    0    0 -0.53869563410E+01 -0.88333239796E+01  0.88447024637E+00  0.10384083928E+02  0.51100000000E-03 0. -1.
        -11    1    3    3    0    0 -0.14928958909E+01 -0.15990159558E+02  0.72911170630E+01  0.17637299372E+02  0.51100000000E-03 0.  1.
         12    1    3    3    0    0 -0.28498012983E+01 -0.17452920980E+02  0.39550649650E+01  0.18120936981E+02  0.00000000000E+00 0. -1.
</event>
<event>
 7    1  0.4623443E-009  0.4614232E+02  0.7816164E-02  0.1320468E+00
        -11   -1    0    0    0    0  0.00000000000E+00  0.00000000000E+00  0.45593999997E+02  0.45594000000E+02  0.51100000000E-03 0. -1.
         11   -1    0    0    0    0 -0.00000000000E+00 -0.00000000000E+00 -0.45593999997E+02  0.45594000000E+02  0.51100000000E-03 0.  1.
    9900012    2    1    2    0    0  0.70636422896E+01  0.40602991099E+02 -0.18182823666E+02  0.46142323126E+02  0.10000048925E+02 0.  0.
         12    1    1    2    0    0 -0.70636422896E+01 -0.40602991099E+02  0.18182823666E+02  0.45045676874E+02  0.00000000000E+00 0. -1.
         11    1    3    3    0    0  0.48625948442E+00  0.42081647812E+01 -0.48148445044E+01  0.64130980793E+01  0.51100000000E-03 0. -1.
        -11    1    3    3    0    0  0.27728736278E+01  0.27084568822E+02 -0.11204757621E+02  0.29441625126E+02  0.51100000000E-03 0.  1.
        -12    1    3    3    0    0  0.38045091775E+01  0.93102574955E+01 -0.21632215400E+01  0.10287599921E+02  0.00000000000E+00 0.  1.
</event>
<event>
 7    1  0.4623443E-009  0.4614232E+02  0.7816164E-02  0.1320468E+00
        -11   -1    0    0    0    0  0.00000000000E+00  0.00000000000E+00  0.45593999997E+02  0.45594000000E+02  0.51100000000E-03 0. -1.
         11   -1    0    0    0    0 -0.00000000000E+00 -0.00000000000E+00 -0.45593999997E+02  0.45594000000E+02  0.51100000000E-03 0.  1.
    9900012    2    1    2    0    0  0.22024046413E+02 -0.92041584636E+00 -0.39283678866E+02  0.46142320840E+02  0.10000028077E+02 0.  0.
         12    1    1    2    0    0 -0.22024046413E+02  0.92041584636E+00  0.39283678866E+02  0.45045679160E+02  0.00000000000E+00 0. -1.
         11    1    3    3    0    0  0.87050312991E+00 -0.11232278310E+01 -0.68013687284E+00  0.15754373636E+01  0.51100000000E-03 0. -1.
        -11    1    3    3    0    0  0.13100542298E+01  0.14752607422E+01 -0.15269404563E+01  0.24948314093E+01  0.51100000000E-03 0.  1.
        -12    1    3    3    0    0  0.19843489053E+02 -0.12724487575E+01 -0.37076601537E+02  0.42072052067E+02  0.00000000000E+00 0.  1.
</event>
<event>
 7    1  0.4623443E-009  0.4614232E+02  0.7816164E-02  0.1320468E+00
        -11   -1    0    0    0    0  0.00000000000E+00  0.00000000000E+00  0.45593999997E+02  0.45594000000E+02  0.51100000000E-03 0. -1.
         11   -1    0    0    0    0 -0.00000000000E+00 -0.00000000000E+00 -0.45593999997E+02  0.45594000000E+02  0.51100000000E-03 0.  1.
    9900012    2    1    2    0    0 -0.15102692451E+02  0.31677282253E+02 -0.28241315920E+02  0.46142318130E+02  0.10000003366E+02 0.  0.
         12    1    1    2    0    0  0.15102692451E+02 -0.31677282253E+02  0.28241315920E+02  0.45045681870E+02  0.00000000000E+00 0. -1.
         11    1    3    3    0    0 -0.46596989767E+01  0.12963012106E+02 -0.88483508877E+01  0.16372104053E+02  0.51100000000E-03 0. -1.
        -11    1    3    3    0    0 -0.11288173618E+02  0.15702706133E+02 -0.17686628044E+02  0.26207148936E+02  0.51100000000E-03 0.  1.
        -12    1    3    3    0    0  0.84518014337E+00  0.30115640139E+01 -0.17063369881E+01  0.35630651413E+01  0.00000000000E+00 0.  1.
</event>
<event>
 7    1  0.4623443E-009  0.4614232E+02  0.7816164E-02  0.1320468E+00
        -11   -1    0    0    0    0  0.00000000000E+00  0.00000000000E+00  0.45593999997E+02  0.45594000000E+02  0.51100000000E-03 0. -1.
         11   -1    0    0    0    0 -0.00000000000E+00 -0.00000000000E+00 -0.45593999997E+02  0.45594000000E+02  0.51100000000E-03 0.  1.
    9900012    2    1    2    0    0 -0.16414711796E+01  0.26151244107E+02  0.36640572653E+02  0.46142316963E+02  0.99999927193E+01 0.  0.
        -12    1    1    2    0    0  0.16414711796E+01 -0.26151244107E+02 -0.36640572653E+02  0.45045683037E+02  0.00000000000E+00 0.  1.
         11    1    3    3    0    0 -0.52408745412E+00  0.12545955705E+02  0.23141326828E+02  0.26328628522E+02  0.51100000000E-03 0. -1.
        -11    1    3    3    0    0 -0.12428048900E+01  0.47447473381E+01  0.20017074262E+01  0.52975488840E+01  0.51100000000E-03 0.  1.
        -12    1    3    3    0    0  0.12542116446E+00  0.88605410637E+01  0.11497538398E+02  0.14516139556E+02  0.00000000000E+00 0.  1.
</event>
<event>
 7    1  0.4623443E-009  0.4614232E+02  0.7816164E-02  0.1320468E+00
        -11   -1    0    0    0    0  0.00000000000E+00  0.00000000000E+00  0.45593999997E+02  0.45594000000E+02  0.51100000000E-03 0.  1.
         11   -1    0    0    0    0 -0.00000000000E+00 -0.00000000000E+00 -0.45593999997E+02  0.45594000000E+02  0.51100000000E-03 0. -1.
    9900012    2    1    2    0    0  0.32317232876E+02 -0.58206485171E+01  0.30835531984E+02  0.46142317380E+02  0.99999965262E+01 0.  0.
        -12    1    1    2    0    0 -0.32317232876E+02  0.58206485171E+01 -0.30835531984E+02  0.45045682620E+02  0.00000000000E+00 0.  1.
         11    1    3    3    0    0  0.12991809957E+02  0.23175846440E+00  0.11791929225E+02  0.17546806919E+02  0.51100000000E-03 0. -1.
        -11    1    3    3    0    0  0.50852739645E+00  0.49137441387E+00 -0.35303047814E+00  0.79036681811E+00  0.51100000000E-03 0.  1.
         12    1    3    3    0    0  0.18816895523E+02 -0.65437813954E+01  0.19396633237E+02  0.27805143643E+02  0.00000000000E+00 0. -1.
</event>
<event>
 7    1  0.4623443E-009  0.4614232E+02  0.7816164E-02  0.1320468E+00
        -11   -1    0    0    0    0  0.00000000000E+00  0.00000000000E+00  0.45593999997E+02  0.45594000000E+02  0.51100000000E-03 0. -1.
         11   -1    0    0    0    0 -0.00000000000E+00 -0.00000000000E+00 -0.45593999997E+02  0.45594000000E+02  0.51100000000E-03 0.  1.
    9900012    2    1    2    0    0  0.33471462662E+02 -0.18461159381E+02 -0.23831917972E+02  0.46142317270E+02  0.99999955184E+01 0.  0.
         12    1    1    2    0    0 -0.33471462662E+02  0.18461159381E+02  0.23831917972E+02  0.45045682730E+02  0.00000000000E+00 0. -1.
         11    1    3    3    0    0  0.12665054623E+02 -0.88389257703E+01 -0.61463628409E+01  0.16622514665E+02  0.51100000000E-03 0.  1.
        -11    1    3    3    0    0  0.10475384324E+02 -0.78527711361E+01 -0.87539123531E+01  0.15748989586E+02  0.51100000000E-03 0. -1.
        -12    1    3    3    0    0  0.10331023716E+02 -0.17694624748E+01 -0.89316427779E+01  0.13770813018E+02  0.00000000000E+00 0.  1.
</event>
<event>
 7    1  0.4623443E-009  0.4614232E+02  0.7816164E-02  0.1320468E+00
        -11   -1    0    0    0    0  0.00000000000E+00  0.00000000000E+00  0.45593999997E+02  0.45594000000E+02  0.51100000000E-03 0. -1.
         11   -1    0    0    0    0 -0.00000000000E+00 -0.00000000000E+00 -0.45593999997E+02  0.45594000000E+02  0.51100000000E-03 0.  1.
    9900012    2    1    2    0    0 -0.35845744007E+02  0.65588325798E+00 -0.27272069226E+02  0.46142319784E+02  0.10000018446E+02 0.  0.
         12    1    1    2    0    0  0.35845744007E+02 -0.65588325798E+00  0.27272069226E+02  0.45045680216E+02  0.00000000000E+00 0. -1.
         11    1    3    3    0    0 -0.54117025957E+01  0.22419514631E+01 -0.39286230035E+01  0.70531517998E+01  0.51100000000E-03 0.  1.
        -11    1    3    3    0    0 -0.86403174532E+01  0.18794324102E+01 -0.38475552540E+01  0.96431858621E+01  0.51100000000E-03 0. -1.
        -12    1    3    3    0    0 -0.21793723958E+02 -0.34655006154E+01 -0.19495890968E+02  0.29445982122E+02  0.00000000000E+00 0.  1.
</event>
<event>
 7    1  0.4623443E-009  0.4614231E+02  0.7816164E-02  0.1320468E+00
        -11   -1    0    0    0    0  0.00000000000E+00  0.00000000000E+00  0.45593999997E+02  0.45594000000E+02  0.51100000000E-03 0. -1.
         11   -1    0    0    0    0 -0.00000000000E+00 -0.00000000000E+00 -0.45593999997E+02  0.45594000000E+02  0.51100000000E-03 0.  1.
    9900012    2    1    2    0    0 -0.27624692455E+02 -0.33656430832E+02 -0.11542737492E+02  0.46142314763E+02  0.99999726638E+01 0.  0.
         12    1    1    2    0    0  0.27624692455E+02  0.33656430832E+02  0.11542737492E+02  0.45045685237E+02  0.00000000000E+00 0. -1.
         11    1    3    3    0    0 -0.13304678369E+02 -0.19065546730E+02 -0.66003967177E+01  0.24167639018E+02  0.51100000000E-03 0. -1.
        -11    1    3    3    0    0 -0.84409982501E+01 -0.12002093358E+02 -0.51414413305E+01  0.15547833149E+02  0.51100000000E-03 0.  1.
         12    1    3    3    0    0 -0.58790158358E+01 -0.25887907446E+01  0.19910055580E+00  0.64268425956E+01  0.00000000000E+00 0. -1.
</event>
<event>
 7    1  0.4993916E-009  0.4614232E+02  0.7816164E-02  0.1320468E+00
        -11   -1    0    0    0    0  0.00000000000E+00  0.00000000000E+00  0.45593999997E+02  0.45594000000E+02  0.51100000000E-03 0. -1.
         11   -1    0    0    0    0 -0.00000000000E+00 -0.00000000000E+00 -0.45593999997E+02  0.45594000000E+02  0.51100000000E-03 0.  1.
    9900012    2    1    2    0    0  0.21399323903E+01 -0.18180224245E+02 -0.41158396264E+02  0.46142318217E+02  0.10000004159E+02 0.  0.
         12    1    1    2    0    0 -0.21399323903E+01  0.18180224245E+02  0.41158396264E+02  0.45045681783E+02  0.00000000000E+00 0. -1.
         11    1    3    3    0    0 -0.29316282764E+01 -0.69298081789E+01 -0.15889217670E+02  0.17580782809E+02  0.51100000000E-03 0.  1.
        -11    1    3    3    0    0  0.40911608570E+01 -0.10865470915E+02 -0.24849061100E+02  0.27427575416E+02  0.51100000000E-03 0. -1.
         12    1    3    3    0    0  0.98039980969E+00 -0.38494515164E+00 -0.42011749405E+00  0.11339599929E+01  0.00000000000E+00 0. -1.
</event>
<event>
 7    1  0.4623443E-009  0.4614232E+02  0.7816164E-02  0.1320468E+00
        -11   -1    0    0    0    0  0.00000000000E+00  0.00000000000E+00  0.45593999997E+02  0.45594000000E+02  0.51100000000E-03 0. -1.
         11   -1    0    0    0    0 -0.00000000000E+00 -0.00000000000E+00 -0.45593999997E+02  0.45594000000E+02  0.51100000000E-03 0.  1.
    9900012    2    1    2    0    0  0.28312290243E+01  0.21245678900E+02 -0.39619670376E+02  0.46142323067E+02  0.10000048382E+02 0.  0.
         12    1    1    2    0    0 -0.28312290243E+01 -0.21245678900E+02  0.39619670376E+02  0.45045676933E+02  0.00000000000E+00 0. -1.
         11    1    3    3    0    0  0.63465869885E+00  0.25449647827E+01 -0.82815429641E+01  0.86869782742E+01  0.51100000000E-03 0.  1.
        -11    1    3    3    0    0  0.20247713680E+01  0.14893026083E+02 -0.17338607429E+02  0.22946224806E+02  0.51100000000E-03 0. -1.
         12    1    3    3    0    0  0.17179895744E+00  0.38076880336E+01 -0.13999519983E+02  0.14509119987E+02  0.00000000000E+00 0. -1.
</event>
<event>
 7    1  0.4623443E-009  0.4614232E+02  0.7816164E-02  0.1320468E+00
        -11   -1    0    0    0    0  0.00000000000E+00  0.00000000000E+00  0.45593999997E+02  0.45594000000E+02  0.51100000000E-03 0. -1.
         11   -1    0    0    0    0 -0.00000000000E+00 -0.00000000000E+00 -0.45593999997E+02  0.45594000000E+02  0.51100000000E-03 0.  1.
    9900012    2    1    2    0    0 -0.61049958077E+01 -0.38592906615E+01 -0.44462887536E+02  0.46142318007E+02  0.10000002239E+02 0.  0.
         12    1    1    2    0    0  0.61049958077E+01  0.38592906615E+01  0.44462887536E+02  0.45045681993E+02  0.00000000000E+00 0. -1.
         11    1    3    3    0    0 -0.55495200138E+01  0.91241796084E+00 -0.19870836075E+02  0.20651387496E+02  0.51100000000E-03 0. -1.
        -11    1    3    3    0    0 -0.19051401101E+01 -0.16830201732E+01 -0.49795848368E+01  0.55909195264E+01  0.51100000000E-03 0.  1.
         12    1    3    3    0    0  0.13496643162E+01 -0.30886884492E+01 -0.19612466624E+02  0.19900010984E+02  0.00000000000E+00 0. -1.
</event>
<event>
 7    1  0.4623443E-009  0.4614231E+02  0.7816164E-02  0.1320468E+00
        -11   -1    0    0    0    0  0.00000000000E+00  0.00000000000E+00  0.45593999997E+02  0.45594000000E+02  0.51100000000E-03 0. -1.
         11   -1    0    0    0    0 -0.00000000000E+00 -0.00000000000E+00 -0.45593999997E+02  0.45594000000E+02  0.51100000000E-03 0.  1.
    9900012    2    1    2    0    0  0.10363452330E+02 -0.25066308184E+02 -0.35963777398E+02  0.46142309475E+02  0.99999244389E+01 0.  0.
         12    1    1    2    0    0 -0.10363452330E+02  0.25066308184E+02  0.35963777398E+02  0.45045690525E+02  0.00000000000E+00 0. -1.
         11    1    3    3    0    0 -0.19342009158E+00 -0.72156167043E+00 -0.39220794441E+00  0.84373568660E+00  0.51100000000E-03 0. -1.
        -11    1    3    3    0    0  0.69559433752E+01 -0.63543568729E+01 -0.15198297911E+02  0.17881589950E+02  0.51100000000E-03 0.  1.
        -12    1    3    3    0    0  0.36009290464E+01 -0.17990389640E+02 -0.20373271543E+02  0.27416983838E+02  0.00000000000E+00 0.  1.
</event>
<event>
 7    1  0.4623443E-009  0.4614232E+02  0.7816164E-02  0.1320468E+00
        -11   -1    0    0    0    0  0.00000000000E+00  0.00000000000E+00  0.45593999997E+02  0.45594000000E+02  0.51100000000E-03 0. -1.
         11   -1    0    0    0    0 -0.00000000000E+00 -0.00000000000E+00 -0.45593999997E+02  0.45594000000E+02  0.51100000000E-03 0.  1.
    9900012    2    1    2    0    0 -0.31382912438E+02  0.16724462170E+02  0.27649930879E+02  0.46142317570E+02  0.99999982566E+01 0.  0.
        -12    1    1    2    0    0  0.31382912438E+02 -0.16724462170E+02 -0.27649930879E+02  0.45045682430E+02  0.00000000000E+00 0.  1.
         11    1    3    3    0    0 -0.62404693032E+01  0.11681266278E+01  0.44506629926E+01  0.77534752388E+01  0.51100000000E-03 0. -1.
        -11    1    3    3    0    0 -0.76853905799E+01  0.43337200987E+01  0.27209212473E+01  0.92330802529E+01  0.51100000000E-03 0.  1.
         12    1    3    3    0    0 -0.17457052555E+02  0.11222615443E+02  0.20478346639E+02  0.29155762078E+02  0.00000000000E+00 0. -1.
</event>
<event>
 7    1  0.4623443E-009  0.4614232E+02  0.7816164E-02  0.1320468E+00
        -11   -1    0    0    0    0  0.00000000000E+00  0.00000000000E+00  0.45593999997E+02  0.45594000000E+02  0.51100000000E-03 0. -1.
         11   -1    0    0    0    0 -0.00000000000E+00 -0.00000000000E+00 -0.45593999997E+02  0.45594000000E+02  0.51100000000E-03 0.  1.
    9900012    2    1    2    0    0  0.15398015749E+02  0.15776097270E+02  0.39282685442E+02  0.46142317526E+02  0.99999978521E+01 0.  0.
        -12    1    1    2    0    0 -0.15398015749E+02 -0.15776097270E+02 -0.39282685442E+02  0.45045682474E+02  0.00000000000E+00 0.  1.
         11    1    3    3    0    0  0.11476907383E+02  0.90131706947E+01  0.20586653901E+02  0.25234241977E+02  0.51100000000E-03 0.  1.
        -11    1    3    3    0    0  0.10056187481E+01  0.27189780347E+01  0.21006672501E+01  0.35800717558E+01  0.51100000000E-03 0. -1.
         12    1    3    3    0    0  0.29154896181E+01  0.40439485404E+01  0.16595364291E+02  0.17328003793E+02  0.00000000000E+00 0. -1.
</event>
<event>
 7    1  0.4623443E-009  0.4614232E+02  0.7816164E-02  0.1320468E+00
        -11   -1    0    0    0    0  0.00000000000E+00  0.00000000000E+00  0.45593999997E+02  0.45594000000E+02  0.51100000000E-03 0. -1.
         11   -1    0    0    0    0 -0.00000000000E+00 -0.00000000000E+00 -0.45593999997E+02  0.45594000000E+02  0.51100000000E-03 0.  1.
    9900012    2    1    2    0    0 -0.42458981485E+00  0.99069003831E+01  0.43940715987E+02  0.46142317930E+02  0.10000001542E+02 0.  0.
        -12    1    1    2    0    0  0.42458981485E+00 -0.99069003831E+01 -0.43940715987E+02  0.45045682070E+02  0.00000000000E+00 0.  1.
         11    1    3    3    0    0 -0.83948790036E+00  0.18770352589E+01  0.24300192665E+02  0.24387032725E+02  0.51100000000E-03 0. -1.
        -11    1    3    3    0    0  0.25150943200E+01  0.30670715355E+01  0.84903983777E+01  0.93712054783E+01  0.51100000000E-03 0.  1.
         12    1    3    3    0    0 -0.21001962345E+01  0.49627935887E+01  0.11150124944E+02  0.12384079727E+02  0.00000000000E+00 0. -1.
</event>
<event>
 7    1  0.4623443E-009  0.4614232E+02  0.7816164E-02  0.1320468E+00
        -11   -1    0    0    0    0  0.00000000000E+00  0.00000000000E+00  0.45593999997E+02  0.45594000000E+02  0.51100000000E-03 0. -1.
         11   -1    0    0    0    0 -0.00000000000E+00 -0.00000000000E+00 -0.45593999997E+02  0.45594000000E+02  0.51100000000E-03 0.  1.
    9900012    2    1    2    0    0 -0.82081855042E+01  0.72042218846E+01  0.43701697691E+02  0.46142317595E+02  0.99999984848E+01 0.  0.
        -12    1    1    2    0    0  0.82081855042E+01 -0.72042218846E+01 -0.43701697691E+02  0.45045682405E+02  0.00000000000E+00 0.  1.
         11    1    3    3    0    0 -0.67461018979E+01  0.38185892896E+00  0.14744718293E+02  0.16219199267E+02  0.51100000000E-03 0.  1.
        -11    1    3    3    0    0 -0.14043288064E+01  0.11800569166E+01  0.89282880054E+01  0.91147682741E+01  0.51100000000E-03 0. -1.
        -12    1    3    3    0    0 -0.57754800017E-01  0.56423060390E+01  0.20028691393E+02  0.20808350054E+02  0.00000000000E+00 0.  1.
</event>
<event>
 7    1  0.4623443E-009  0.4614232E+02  0.7816164E-02  0.1320468E+00
        -11   -1    0    0    0    0  0.00000000000E+00  0.00000000000E+00  0.45593999997E+02  0.45594000000E+02  0.51100000000E-03 0. -1.
         11   -1    0    0    0    0 -0.00000000000E+00 -0.00000000000E+00 -0.45593999997E+02  0.45594000000E+02  0.51100000000E-03 0.  1.
    9900012    2    1    2    0    0 -0.39041840529E+02 -0.34912684236E+01 -0.22195927747E+02  0.46142317902E+02  0.10000001286E+02 0.  0.
         12    1    1    2    0    0  0.39041840529E+02  0.34912684236E+01  0.22195927747E+02  0.45045682098E+02  0.00000000000E+00 0. -1.
         11    1    3    3    0    0 -0.90265035987E+01 -0.22819953353E+01 -0.43792203778E+01  0.10288966970E+02  0.51100000000E-03 0. -1.
        -11    1    3    3    0    0 -0.49131456410E+01 -0.32969403612E+01 -0.30834145076E+01  0.66720507433E+01  0.51100000000E-03 0.  1.
         12    1    3    3    0    0 -0.25102191289E+02  0.20876672729E+01 -0.14733292862E+02  0.29181300189E+02  0.00000000000E+00 0. -1.
</event>
<event>
 7    1  0.4623443E-009  0.4614232E+02  0.7816164E-02  0.1320468E+00
        -11   -1    0    0    0    0  0.00000000000E+00  0.00000000000E+00  0.45593999997E+02  0.45594000000E+02  0.51100000000E-03 0. -1.
         11   -1    0    0    0    0 -0.00000000000E+00 -0.00000000000E+00 -0.45593999997E+02  0.45594000000E+02  0.51100000000E-03 0.  1.
    9900012    2    1    2    0    0 -0.14233121053E+02  0.56288179536E+01  0.42365650795E+02  0.46142315481E+02  0.99999792125E+01 0.  0.
        -12    1    1    2    0    0  0.14233121053E+02 -0.56288179536E+01 -0.42365650795E+02  0.45045684519E+02  0.00000000000E+00 0.  1.
         11    1    3    3    0    0 -0.14315144920E+02  0.35501217741E+01  0.31802047233E+02  0.35055626469E+02  0.51100000000E-03 0. -1.
        -11    1    3    3    0    0  0.69659914757E+00 -0.32517474225E+00  0.14477457648E+01  0.16391940233E+01  0.51100000000E-03 0.  1.
         12    1    3    3    0    0 -0.61457528039E+00  0.24038709218E+01  0.91158577973E+01  0.94474949888E+01  0.00000000000E+00 0. -1.
</event>
<event>
 7    1  0.4623443E-009  0.4614232E+02  0.7816164E-02  0.1320468E+00
        -11   -1    0    0    0    0  0.00000000000E+00  0.00000000000E+00  0.45593999997E+02  0.45594000000E+02  0.51100000000E-03 0. -1.
         11   -1    0    0    0    0 -0.00000000000E+00 -0.00000000000E+00 -0.45593999997E+02  0.45594000000E+02  0.51100000000E-03 0.  1.
    9900012    2    1    2    0    0  0.23239923282E+02  0.22653227877E+02  0.31238609150E+02  0.46142317976E+02  0.10000001961E+02 0.  0.
        -12    1    1    2    0    0 -0.23239923282E+02 -0.22653227877E+02 -0.31238609150E+02  0.45045682024E+02  0.00000000000E+00 0.  1.
         11    1    3    3    0    0  0.68806710592E+01  0.99224607044E+01  0.13414544141E+02  0.18048513939E+02  0.51100000000E-03 0. -1.
        -11    1    3    3    0    0  0.86065860531E+01  0.34527856333E+01  0.10270370347E+02  0.13837469402E+02  0.51100000000E-03 0.  1.
         12    1    3    3    0    0  0.77526661696E+01  0.92779815390E+01  0.75536946616E+01  0.14256334635E+02  0.00000000000E+00 0. -1.
</event>
<event>
 7    1  0.4623443E-009  0.4614232E+02  0.7816164E-02  0.1320468E+00
        -11   -1    0    0    0    0  0.00000000000E+00  0.00000000000E+00  0.45593999997E+02  0.45594000000E+02  0.51100000000E-03 0.  1.
         11   -1    0    0    0    0 -0.00000000000E+00 -0.00000000000E+00 -0.45593999997E+02  0.45594000000E+02  0.51100000000E-03 0. -1.
    9900012    2    1    2    0    0 -0.35948292893E+02 -0.25651307710E+02  0.88794230722E+01  0.46142317596E+02  0.99999984973E+01 0.  0.
        -12    1    1    2    0    0  0.35948292893E+02  0.25651307710E+02 -0.88794230722E+01  0.45045682404E+02  0.00000000000E+00 0.  1.
         11    1    3    3    0    0 -0.22294672843E+02 -0.15550456385E+02  0.90324987380E+01  0.28643588544E+02  0.51100000000E-03 0. -1.
        -11    1    3    3    0    0 -0.79700282565E+00 -0.51442426564E-01  0.82885436434E+00  0.11510254757E+01  0.51100000000E-03 0.  1.
         12    1    3    3    0    0 -0.12856617224E+02 -0.10049408898E+02 -0.98193003011E+00  0.16347703577E+02  0.00000000000E+00 0. -1.
</event>
<event>
 7    1  0.4623443E-009  0.4614232E+02  0.7816164E-02  0.1320468E+00
        -11   -1    0    0    0    0  0.00000000000E+00  0.00000000000E+00  0.45593999997E+02  0.45594000000E+02  0.51100000000E-03 0. -1.
         11   -1    0    0    0    0 -0.00000000000E+00 -0.00000000000E+00 -0.45593999997E+02  0.45594000000E+02  0.51100000000E-03 0.  1.
    9900012    2    1    2    0    0 -0.17333624035E+01  0.23876633988E+02  0.38157768351E+02  0.46142317839E+02  0.10000000709E+02 0.  0.
        -12    1    1    2    0    0  0.17333624035E+01 -0.23876633988E+02 -0.38157768351E+02  0.45045682161E+02  0.00000000000E+00 0.  1.
         11    1    3    3    0    0 -0.26043764566E+01  0.23382306174E+01  0.40180658118E+01  0.53286914225E+01  0.51100000000E-03 0. -1.
        -11    1    3    3    0    0  0.24428621257E+01  0.35716301802E+01  0.68881255548E+01  0.81345185124E+01  0.51100000000E-03 0.  1.
         12    1    3    3    0    0 -0.15718480726E+01  0.17966773191E+02  0.27251576984E+02  0.32679107904E+02  0.00000000000E+00 0. -1.
</event>
<event>
 7    1  0.4623443E-009  0.4614232E+02  0.7816164E-02  0.1320468E+00
        -11   -1    0    0    0    0  0.00000000000E+00  0.00000000000E+00  0.45593999997E+02  0.45594000000E+02  0.51100000000E-03 0. -1.
         11   -1    0    0    0    0 -0.00000000000E+00 -0.00000000000E+00 -0.45593999997E+02  0.45594000000E+02  0.51100000000E-03 0.  1.
    9900012    2    1    2    0    0 -0.24730206800E+01 -0.37031257646E+02  0.25528097087E+02  0.46142316355E+02  0.99999871801E+01 0.  0.
        -12    1    1    2    0    0  0.24730206800E+01  0.37031257646E+02 -0.25528097087E+02  0.45045683645E+02  0.00000000000E+00 0.  1.
         11    1    3    3    0    0  0.50041743785E+00 -0.52875969744E+01  0.54963712806E+01  0.76432451806E+01  0.51100000000E-03 0. -1.
        -11    1    3    3    0    0  0.19074836251E+01 -0.19907910896E+02  0.13474667266E+02  0.24114934547E+02  0.51100000000E-03 0.  1.
        -12    1    3    3    0    0 -0.48809217430E+01 -0.11835749775E+02  0.65570585408E+01  0.14384136627E+02  0.00000000000E+00 0.  1.
</event>
<event>
 7    1  0.4623443E-009  0.4614232E+02  0.7816164E-02  0.1320468E+00
        -11   -1    0    0    0    0  0.00000000000E+00  0.00000000000E+00  0.45593999997E+02  0.45594000000E+02  0.51100000000E-03 0. -1.
         11   -1    0    0    0    0 -0.00000000000E+00 -0.00000000000E+00 -0.45593999997E+02  0.45594000000E+02  0.51100000000E-03 0.  1.
    9900012    2    1    2    0    0  0.19100271358E+02 -0.36741788365E+02 -0.17729465139E+02  0.46142319715E+02  0.10000017818E+02 0.  0.
         12    1    1    2    0    0 -0.19100271358E+02  0.36741788365E+02  0.17729465139E+02  0.45045680285E+02  0.00000000000E+00 0. -1.
         11    1    3    3    0    0  0.13673426681E+01 -0.39208713717E+01 -0.24827151716E+01  0.48380505547E+01  0.51100000000E-03 0. -1.
        -11    1    3    3    0    0  0.82577208058E+01 -0.22958234126E+02 -0.72106225394E+01  0.25441374663E+02  0.51100000000E-03 0.  1.
         12    1    3    3    0    0  0.94752078842E+01 -0.98626828674E+01 -0.80361274277E+01  0.15862894497E+02  0.00000000000E+00 0. -1.
</event>
<event>
 7    1  0.4623443E-009  0.4614232E+02  0.7816164E-02  0.1320468E+00
        -11   -1    0    0    0    0  0.00000000000E+00  0.00000000000E+00  0.45593999997E+02  0.45594000000E+02  0.51100000000E-03 0. -1.
         11   -1    0    0    0    0 -0.00000000000E+00 -0.00000000000E+00 -0.45593999997E+02  0.45594000000E+02  0.51100000000E-03 0.  1.
    9900012    2    1    2    0    0  0.76211501773E+01 -0.11802068317E+02  0.42798863631E+02  0.46142317913E+02  0.10000001386E+02 0.  0.
        -12    1    1    2    0    0 -0.76211501773E+01  0.11802068317E+02 -0.42798863631E+02  0.45045682087E+02  0.00000000000E+00 0.  1.
         11    1    3    3    0    0  0.86541842149E+01 -0.10068417933E+02  0.37253412329E+02  0.39548510396E+02  0.51100000000E-03 0. -1.
        -11    1    3    3    0    0 -0.12436225708E+01 -0.75282617976E+00  0.53851307755E+01  0.55779008673E+01  0.51100000000E-03 0.  1.
         12    1    3    3    0    0  0.21058853317E+00 -0.98082420441E+00  0.16032052599E+00  0.10159066499E+01  0.00000000000E+00 0. -1.
</event>
<event>
 7    1  0.4623443E-009  0.4614232E+02  0.7816164E-02  0.1320468E+00
        -11   -1    0    0    0    0  0.00000000000E+00  0.00000000000E+00  0.45593999997E+02  0.45594000000E+02  0.51100000000E-03 0.  1.
         11   -1    0    0    0    0 -0.00000000000E+00 -0.00000000000E+00 -0.45593999997E+02  0.45594000000E+02  0.51100000000E-03 0. -1.
    9900012    2    1    2    0    0 -0.34900702305E+02  0.23710613536E+02  0.15775340934E+02  0.46142316553E+02  0.99999889852E+01 0.  0.
        -12    1    1    2    0    0  0.34900702305E+02 -0.23710613536E+02 -0.15775340934E+02  0.45045683447E+02  0.00000000000E+00 0.  1.
         11    1    3    3    0    0 -0.13131628020E+02  0.90719272155E+01  0.41736374201E+01  0.16497235145E+02  0.51100000000E-03 0. -1.
        -11    1    3    3    0    0 -0.10510104380E+02  0.53596731144E+01  0.14850879674E+01  0.11890915714E+02  0.51100000000E-03 0.  1.
        -12    1    3    3    0    0 -0.11258969904E+02  0.92790132059E+01  0.10116615547E+02  0.17754165694E+02  0.00000000000E+00 0.  1.
</event>
<event>
 7    1  0.4623443E-009  0.4614232E+02  0.7816164E-02  0.1320468E+00
        -11   -1    0    0    0    0  0.00000000000E+00  0.00000000000E+00  0.45593999997E+02  0.45594000000E+02  0.51100000000E-03 0. -1.
         11   -1    0    0    0    0 -0.00000000000E+00 -0.00000000000E+00 -0.45593999997E+02  0.45594000000E+02  0.51100000000E-03 0.  1.
    9900012    2    1    2    0    0 -0.52552892639E+01 -0.30548971529E+02 -0.32684180996E+02  0.46142318585E+02  0.10000007515E+02 0.  0.
         12    1    1    2    0    0  0.52552892639E+01  0.30548971529E+02  0.32684180996E+02  0.45045681415E+02  0.00000000000E+00 0. -1.
         11    1    3    3    0    0 -0.56248901893E+00 -0.26095154748E+01 -0.69583628454E+01  0.74528369538E+01  0.51100000000E-03 0. -1.
        -11    1    3    3    0    0 -0.10998953738E+01 -0.23664507997E+01 -0.47506537599E+01  0.54202002388E+01  0.51100000000E-03 0.  1.
        -12    1    3    3    0    0 -0.35929048712E+01 -0.25573005255E+02 -0.20975164391E+02  0.33269281393E+02  0.00000000000E+00 0.  1.
</event>
<event>
 7    1  0.4623443E-009  0.4614232E+02  0.7816164E-02  0.1320468E+00
        -11   -1    0    0    0    0  0.00000000000E+00  0.00000000000E+00  0.45593999997E+02  0.45594000000E+02  0.51100000000E-03 0. -1.
         11   -1    0    0    0    0 -0.00000000000E+00 -0.00000000000E+00 -0.45593999997E+02  0.45594000000E+02  0.51100000000E-03 0.  1.
    9900012    2    1    2    0    0 -0.15203625069E+01 -0.22575099797E+02  0.38950826852E+02  0.46142317127E+02  0.99999942204E+01 0.  0.
        -12    1    1    2    0    0  0.15203625069E+01  0.22575099797E+02 -0.38950826852E+02  0.45045682873E+02  0.00000000000E+00 0.  1.
         11    1    3    3    0    0 -0.25969771393E+01 -0.88951305283E+01  0.92060001602E+01  0.13062085461E+02  0.51100000000E-03 0. -1.
        -11    1    3    3    0    0  0.74537678833E+00 -0.48257467203E-01  0.25679981702E+01  0.26744214707E+01  0.51100000000E-03 0.  1.
         12    1    3    3    0    0  0.33123784408E+00 -0.13631711801E+02  0.27176828522E+02  0.30405810196E+02  0.00000000000E+00 0. -1.
</event>
<event>
 7    1  0.4623443E-009  0.4614232E+02  0.7816164E-02  0.1320468E+00
        -11   -1    0    0    0    0  0.00000000000E+00  0.00000000000E+00  0.45593999997E+02  0.45594000000E+02  0.51100000000E-03 0. -1.
         11   -1    0    0    0    0 -0.00000000000E+00 -0.00000000000E+00 -0.45593999997E+02  0.45594000000E+02  0.51100000000E-03 0.  1.
    9900012    2    1    2    0    0  0.34223630895E+02  0.28351478791E+02  0.73518833404E+01  0.46142318188E+02  0.10000003889E+02 0.  0.
         12    1    1    2    0    0 -0.34223630895E+02 -0.28351478791E+02 -0.73518833404E+01  0.45045681812E+02  0.00000000000E+00 0. -1.
         11    1    3    3    0    0  0.13283056712E+01  0.41323973218E+01  0.18969925782E+01  0.47370544313E+01  0.51100000000E-03 0. -1.
        -11    1    3    3    0    0  0.15854571860E+02  0.95730869454E+01  0.35219227768E+01  0.18852463575E+02  0.51100000000E-03 0.  1.
        -12    1    3    3    0    0  0.17040753364E+02  0.14645994524E+02  0.19329679853E+01  0.22552800182E+02  0.00000000000E+00 0.  1.
</event>
<event>
 7    1  0.4623443E-009  0.4614232E+02  0.7816164E-02  0.1320468E+00
        -11   -1    0    0    0    0  0.00000000000E+00  0.00000000000E+00  0.45593999997E+02  0.45594000000E+02  0.51100000000E-03 0. -1.
         11   -1    0    0    0    0 -0.00000000000E+00 -0.00000000000E+00 -0.45593999997E+02  0.45594000000E+02  0.51100000000E-03 0.  1.
    9900012    2    1    2    0    0 -0.12898005252E+02  0.37072052569E+02  0.22100178258E+02  0.46142317631E+02  0.99999988092E+01 0.  0.
        -12    1    1    2    0    0  0.12898005252E+02 -0.37072052569E+02 -0.22100178258E+02  0.45045682369E+02  0.00000000000E+00 0.  1.
         11    1    3    3    0    0  0.60033139941E-01  0.29880811447E+01  0.33140873272E+01  0.44626682578E+01  0.51100000000E-03 0. -1.
        -11    1    3    3    0    0 -0.32383151139E+01  0.17899597784E+02  0.74337602145E+01  0.19650523575E+02  0.51100000000E-03 0.  1.
         12    1    3    3    0    0 -0.97197232776E+01  0.16184373640E+02  0.11352330716E+02  0.22029125797E+02  0.00000000000E+00 0. -1.
</event>
<event>
 7    1  0.4623443E-009  0.4614232E+02  0.7816164E-02  0.1320468E+00
        -11   -1    0    0    0    0  0.00000000000E+00  0.00000000000E+00  0.45593999997E+02  0.45594000000E+02  0.51100000000E-03 0. -1.
         11   -1    0    0    0    0 -0.00000000000E+00 -0.00000000000E+00 -0.45593999997E+02  0.45594000000E+02  0.51100000000E-03 0.  1.
    9900012    2    1    2    0    0  0.19704993348E+02  0.36583337793E+02  0.17392131004E+02  0.46142316658E+02  0.99999899377E+01 0.  0.
        -12    1    1    2    0    0 -0.19704993348E+02 -0.36583337793E+02 -0.17392131004E+02  0.45045683342E+02  0.00000000000E+00 0.  1.
         11    1    3    3    0    0  0.12255219386E+02  0.20444733520E+02  0.13614111497E+02  0.27450347229E+02  0.51100000000E-03 0. -1.
        -11    1    3    3    0    0  0.56308564243E+00  0.51476744186E+01  0.21991085737E+01  0.56259840154E+01  0.51100000000E-03 0.  1.
        -12    1    3    3    0    0  0.68866883194E+01  0.10990929854E+02  0.15789109335E+01  0.13065985413E+02  0.00000000000E+00 0.  1.
</event>
<event>
 7    1  0.4623443E-009  0.4614232E+02  0.7816164E-02  0.1320468E+00
        -11   -1    0    0    0    0  0.00000000000E+00  0.00000000000E+00  0.45593999997E+02  0.45594000000E+02  0.51100000000E-03 0. -1.
         11   -1    0    0    0    0 -0.00000000000E+00 -0.00000000000E+00 -0.45593999997E+02  0.45594000000E+02  0.51100000000E-03 0.  1.
    9900012    2    1    2    0    0  0.24374425448E+02 -0.13467461666E+02  0.35406613162E+02  0.46142318794E+02  0.10000009421E+02 0.  0.
        -12    1    1    2    0    0 -0.24374425448E+02  0.13467461666E+02 -0.35406613162E+02  0.45045681206E+02  0.00000000000E+00 0.  1.
         11    1    3    3    0    0  0.71223789956E+01 -0.53258745758E+01  0.13828711578E+02  0.16441608398E+02  0.51100000000E-03 0. -1.
        -11    1    3    3    0    0  0.35691043778E+01  0.53495874025E+00  0.71350122973E+01  0.79958168849E+01  0.51100000000E-03 0.  1.
        -12    1    3    3    0    0  0.13682942075E+02 -0.86765458307E+01  0.14442889287E+02  0.21704893511E+02  0.00000000000E+00 0.  1.
</event>
<event>
 7    1  0.4623443E-009  0.4614232E+02  0.7816164E-02  0.1320468E+00
        -11   -1    0    0    0    0  0.00000000000E+00  0.00000000000E+00  0.45593999997E+02  0.45594000000E+02  0.51100000000E-03 0. -1.
         11   -1    0    0    0    0 -0.00000000000E+00 -0.00000000000E+00 -0.45593999997E+02  0.45594000000E+02  0.51100000000E-03 0.  1.
    9900012    2    1    2    0    0  0.49641239037E+01  0.82278949450E+01 -0.44008779047E+02  0.46142318581E+02  0.10000007474E+02 0.  0.
         12    1    1    2    0    0 -0.49641239037E+01 -0.82278949450E+01  0.44008779047E+02  0.45045681419E+02  0.00000000000E+00 0. -1.
         11    1    3    3    0    0  0.39125388483E+00  0.49426669299E+01 -0.85784759239E+01  0.99082433064E+01  0.51100000000E-03 0. -1.
        -11    1    3    3    0    0  0.36998861908E+01  0.36026726043E+01 -0.16687957053E+02  0.17468724011E+02  0.51100000000E-03 0.  1.
        -12    1    3    3    0    0  0.87298382808E+00 -0.31744458915E+00 -0.18742346070E+02  0.18765351263E+02  0.00000000000E+00 0.  1.
</event>
<event>
 7    1  0.4623443E-009  0.4614233E+02  0.7816164E-02  0.1320468E+00
        -11   -1    0    0    0    0  0.00000000000E+00  0.00000000000E+00  0.45593999997E+02  0.45594000000E+02  0.51100000000E-03 0. -1.
         11   -1    0    0    0    0 -0.00000000000E+00 -0.00000000000E+00 -0.45593999997E+02  0.45594000000E+02  0.51100000000E-03 0.  1.
    9900012    2    1    2    0    0 -0.38676443160E+02  0.17900342908E+02  0.14588447097E+02  0.46142330725E+02  0.10000118211E+02 0.  0.
        -12    1    1    2    0    0  0.38676443160E+02 -0.17900342908E+02 -0.14588447097E+02  0.45045669275E+02  0.00000000000E+00 0.  1.
         11    1    3    3    0    0 -0.15119200142E+02  0.82898604374E+01  0.68521223042E+01  0.18554341253E+02  0.51100000000E-03 0. -1.
        -11    1    3    3    0    0 -0.13694893116E+02  0.47961010318E+01  0.80790298972E+01  0.16607932048E+02  0.51100000000E-03 0.  1.
        -12    1    3    3    0    0 -0.98623499017E+01  0.48143814390E+01 -0.34270510480E+00  0.10980057423E+02  0.00000000000E+00 0.  1.
</event>
<event>
 7    1  0.4623443E-009  0.4614232E+02  0.7816164E-02  0.1320468E+00
        -11   -1    0    0    0    0  0.00000000000E+00  0.00000000000E+00  0.45593999997E+02  0.45594000000E+02  0.51100000000E-03 0. -1.
         11   -1    0    0    0    0 -0.00000000000E+00 -0.00000000000E+00 -0.45593999997E+02  0.45594000000E+02  0.51100000000E-03 0.  1.
    9900012    2    1    2    0    0  0.57019666781E+01  0.40783917998E+02 -0.18255768391E+02  0.46142317956E+02  0.10000001778E+02 0.  0.
         12    1    1    2    0    0 -0.57019666781E+01 -0.40783917998E+02  0.18255768391E+02  0.45045682044E+02  0.00000000000E+00 0. -1.
         11    1    3    3    0    0  0.21251765621E+01  0.12502468304E+02 -0.21625536315E+01  0.12864864072E+02  0.51100000000E-03 0. -1.
        -11    1    3    3    0    0  0.36849477426E+01  0.27428434097E+02 -0.13999916603E+02  0.31014440218E+02  0.51100000000E-03 0.  1.
        -12    1    3    3    0    0 -0.10815762659E+00  0.85301559657E+00 -0.20932981570E+01  0.22630136664E+01  0.00000000000E+00 0.  1.
</event>
<event>
 7    1  0.4623443E-009  0.4614232E+02  0.7816164E-02  0.1320468E+00
        -11   -1    0    0    0    0  0.00000000000E+00  0.00000000000E+00  0.45593999997E+02  0.45594000000E+02  0.51100000000E-03 0. -1.
         11   -1    0    0    0    0 -0.00000000000E+00 -0.00000000000E+00 -0.45593999997E+02  0.45594000000E+02  0.51100000000E-03 0.  1.
    9900012    2    1    2    0    0 -0.16556103867E+02 -0.37050305000E+02 -0.19552075726E+02  0.46142319397E+02  0.10000014913E+02 0.  0.
         12    1    1    2    0    0  0.16556103867E+02  0.37050305000E+02  0.19552075726E+02  0.45045680603E+02  0.00000000000E+00 0. -1.
         11    1    3    3    0    0 -0.28831832722E+01 -0.43193855686E+01 -0.21165776779E+01  0.56080066689E+01  0.51100000000E-03 0. -1.
        -11    1    3    3    0    0 -0.17037111214E+01 -0.11851984283E+02 -0.91920930133E+01  0.15095255455E+02  0.51100000000E-03 0.  1.
        -12    1    3    3    0    0 -0.11969209473E+02 -0.20878935149E+02 -0.82434050352E+01  0.25439057273E+02  0.00000000000E+00 0.  1.
</event>
<event>
 7    1  0.4623443E-009  0.4614232E+02  0.7816164E-02  0.1320468E+00
        -11   -1    0    0    0    0  0.00000000000E+00  0.00000000000E+00  0.45593999997E+02  0.45594000000E+02  0.51100000000E-03 0. -1.
         11   -1    0    0    0    0 -0.00000000000E+00 -0.00000000000E+00 -0.45593999997E+02  0.45594000000E+02  0.51100000000E-03 0.  1.
    9900012    2    1    2    0    0 -0.19739508424E+02 -0.10665028614E+01  0.40476263438E+02  0.46142317376E+02  0.99999964840E+01 0.  0.
        -12    1    1    2    0    0  0.19739508424E+02  0.10665028614E+01 -0.40476263438E+02  0.45045682624E+02  0.00000000000E+00 0.  1.
         11    1    3    3    0    0 -0.62317694528E+01  0.18059329404E+01  0.14121950250E+02  0.15541101100E+02  0.51100000000E-03 0. -1.
        -11    1    3    3    0    0 -0.66345016339E+01  0.19118553665E+01  0.91083499629E+01  0.11429516271E+02  0.51100000000E-03 0.  1.
         12    1    3    3    0    0 -0.68732373374E+01 -0.47842911683E+01  0.17245963226E+02  0.19171700005E+02  0.00000000000E+00 0. -1.
</event>
<event>
 7    1  0.4623443E-009  0.4614232E+02  0.7816164E-02  0.1320468E+00
        -11   -1    0    0    0    0  0.00000000000E+00  0.00000000000E+00  0.45593999997E+02  0.45594000000E+02  0.51100000000E-03 0.  1.
         11   -1    0    0    0    0 -0.00000000000E+00 -0.00000000000E+00 -0.45593999997E+02  0.45594000000E+02  0.51100000000E-03 0. -1.
    9900012    2    1    2    0    0  0.30213640196E+02 -0.32935756273E+02  0.56111606427E+01  0.46142320752E+02  0.10000027275E+02 0.  0.
        -12    1    1    2    0    0 -0.30213640196E+02  0.32935756273E+02 -0.56111606427E+01  0.45045679248E+02  0.00000000000E+00 0.  1.
         11    1    3    3    0    0  0.30341625603E+02 -0.31031594376E+02  0.42311078665E+01  0.43605921247E+02  0.51100000000E-03 0. -1.
        -11    1    3    3    0    0  0.16394681384E+00 -0.13983593537E+01  0.52856999317E+00  0.15038862785E+01  0.51100000000E-03 0.  1.
        -12    1    3    3    0    0 -0.29193222085E+00 -0.50580254318E+00  0.85148278302E+00  0.10325132271E+01  0.00000000000E+00 0.  1.
</event>
<event>
 7    1  0.4623443E-009  0.4614232E+02  0.7816164E-02  0.1320468E+00
        -11   -1    0    0    0    0  0.00000000000E+00  0.00000000000E+00  0.45593999997E+02  0.45594000000E+02  0.51100000000E-03 0. -1.
         11   -1    0    0    0    0 -0.00000000000E+00 -0.00000000000E+00 -0.45593999997E+02  0.45594000000E+02  0.51100000000E-03 0.  1.
    9900012    2    1    2    0    0 -0.15069268230E+02 -0.24080433701E+02  0.34959452708E+02  0.46142318012E+02  0.10000002284E+02 0.  0.
        -12    1    1    2    0    0  0.15069268230E+02  0.24080433701E+02 -0.34959452708E+02  0.45045681988E+02  0.00000000000E+00 0.  1.
         11    1    3    3    0    0 -0.20429624688E+01 -0.94486375688E+01  0.13341841277E+02  0.16475896834E+02  0.51100000000E-03 0. -1.
        -11    1    3    3    0    0 -0.67231235840E+01 -0.38289093214E+01  0.94977945285E+01  0.12250266874E+02  0.51100000000E-03 0.  1.
        -12    1    3    3    0    0 -0.63031821771E+01 -0.10802886810E+02  0.12119816902E+02  0.17416154304E+02  0.00000000000E+00 0.  1.
</event>
<event>
 7    1  0.4623443E-009  0.4614232E+02  0.7816164E-02  0.1320468E+00
        -11   -1    0    0    0    0  0.00000000000E+00  0.00000000000E+00  0.45593999997E+02  0.45594000000E+02  0.51100000000E-03 0. -1.
         11   -1    0    0    0    0 -0.00000000000E+00 -0.00000000000E+00 -0.45593999997E+02  0.45594000000E+02  0.51100000000E-03 0.  1.
    9900012    2    1    2    0    0 -0.54496181377E+01 -0.24765774540E+02  0.37229981233E+02  0.46142318420E+02  0.10000006008E+02 0.  0.
        -12    1    1    2    0    0  0.54496181377E+01  0.24765774540E+02 -0.37229981233E+02  0.45045681580E+02  0.00000000000E+00 0.  1.
         11    1    3    3    0    0 -0.25932647808E+01 -0.12376875421E+01  0.71734321947E+01  0.77275495720E+01  0.51100000000E-03 0. -1.
        -11    1    3    3    0    0 -0.13347524326E+01 -0.13432232712E+02  0.14533632263E+02  0.19835143223E+02  0.51100000000E-03 0.  1.
         12    1    3    3    0    0 -0.15216009243E+01 -0.10095854286E+02  0.15522916775E+02  0.18579625625E+02  0.00000000000E+00 0. -1.
</event>
<event>
 7    1  0.4623443E-009  0.4614232E+02  0.7816164E-02  0.1320468E+00
        -11   -1    0    0    0    0  0.00000000000E+00  0.00000000000E+00  0.45593999997E+02  0.45594000000E+02  0.51100000000E-03 0. -1.
         11   -1    0    0    0    0 -0.00000000000E+00 -0.00000000000E+00 -0.45593999997E+02  0.45594000000E+02  0.51100000000E-03 0.  1.
    9900012    2    1    2    0    0  0.76549353657E+01  0.31306190850E+02 -0.31471221816E+02  0.46142318481E+02  0.10000006560E+02 0.  0.
         12    1    1    2    0    0 -0.76549353657E+01 -0.31306190850E+02  0.31471221816E+02  0.45045681519E+02  0.00000000000E+00 0. -1.
         11    1    3    3    0    0  0.63853056081E+01  0.13448006248E+02 -0.16812661532E+02  0.22456326232E+02  0.51100000000E-03 0.  1.
        -11    1    3    3    0    0  0.64783823517E+00  0.34725659252E+01 -0.57668966080E+01  0.67628030603E+01  0.51100000000E-03 0. -1.
        -12    1    3    3    0    0  0.62179152246E+00  0.14385618676E+02 -0.88916636757E+01  0.16923189189E+02  0.00000000000E+00 0.  1.
</event>
<event>
 7    1  0.4623443E-009  0.4614232E+02  0.7816164E-02  0.1320468E+00
        -11   -1    0    0    0    0  0.00000000000E+00  0.00000000000E+00  0.45593999997E+02  0.45594000000E+02  0.51100000000E-03 0. -1.
         11   -1    0    0    0    0 -0.00000000000E+00 -0.00000000000E+00 -0.45593999997E+02  0.45594000000E+02  0.51100000000E-03 0.  1.
    9900012    2    1    2    0    0 -0.14377168655E+02 -0.29930709379E+02 -0.30439498207E+02  0.46142318814E+02  0.10000009601E+02 0.  0.
         12    1    1    2    0    0  0.14377168655E+02  0.29930709379E+02  0.30439498207E+02  0.45045681186E+02  0.00000000000E+00 0. -1.
         11    1    3    3    0    0 -0.15797608803E+01 -0.91413245352E+01 -0.12922966384E+02  0.15907938871E+02  0.51100000000E-03 0. -1.
        -11    1    3    3    0    0 -0.86862409155E+01 -0.16808430135E+02 -0.13510856193E+02  0.23249028800E+02  0.51100000000E-03 0.  1.
         12    1    3    3    0    0 -0.41111668591E+01 -0.39809547085E+01 -0.40056756304E+01  0.69853511430E+01  0.00000000000E+00 0. -1.
</event>
<event>
 7    1  0.4623443E-009  0.4614232E+02  0.7816164E-02  0.1320468E+00
        -11   -1    0    0    0    0  0.00000000000E+00  0.00000000000E+00  0.45593999997E+02  0.45594000000E+02  0.51100000000E-03 0. -1.
         11   -1    0    0    0    0 -0.00000000000E+00 -0.00000000000E+00 -0.45593999997E+02  0.45594000000E+02  0.51100000000E-03 0.  1.
    9900012    2    1    2    0    0 -0.29282622707E+02 -0.91389821754E+01  0.32986668365E+02  0.46142320100E+02  0.10000021331E+02 0.  0.
        -12    1    1    2    0    0  0.29282622707E+02  0.91389821754E+01 -0.32986668365E+02  0.45045679900E+02  0.00000000000E+00 0.  1.
         11    1    3    3    0    0 -0.16507777424E+02 -0.47985815247E+01  0.19709420423E+02  0.26153285717E+02  0.51100000000E-03 0. -1.
        -11    1    3    3    0    0 -0.46126885254E+01 -0.45424037337E+01  0.78954459100E+01  0.10210210257E+02  0.51100000000E-03 0.  1.
        -12    1    3    3    0    0 -0.81621567576E+01  0.20200308305E+00  0.53818020315E+01  0.97788241260E+01  0.00000000000E+00 0.  1.
</event>
<event>
 7    1  0.4623443E-009  0.4614232E+02  0.7816164E-02  0.1320468E+00
        -11   -1    0    0    0    0  0.00000000000E+00  0.00000000000E+00  0.45593999997E+02  0.45594000000E+02  0.51100000000E-03 0. -1.
         11   -1    0    0    0    0 -0.00000000000E+00 -0.00000000000E+00 -0.45593999997E+02  0.45594000000E+02  0.51100000000E-03 0.  1.
    9900012    2    1    2    0    0 -0.20497368220E+02  0.30004205287E+02  0.26621778071E+02  0.46142317560E+02  0.99999981635E+01 0.  0.
        -12    1    1    2    0    0  0.20497368220E+02 -0.30004205287E+02 -0.26621778071E+02  0.45045682440E+02  0.00000000000E+00 0.  1.
         11    1    3    3    0    0 -0.13966576678E+02  0.24525627153E+02  0.18329621984E+02  0.33653331094E+02  0.51100000000E-03 0. -1.
        -11    1    3    3    0    0 -0.16546079409E+01  0.32797601582E+01  0.50128850515E+01  0.62147864754E+01  0.51100000000E-03 0.  1.
        -12    1    3    3    0    0 -0.48761836009E+01  0.21988179759E+01  0.32792710346E+01  0.62741999903E+01  0.00000000000E+00 0.  1.
</event>
<event>
 7    1  0.4623443E-009  0.4614232E+02  0.7816164E-02  0.1320468E+00
        -11   -1    0    0    0    0  0.00000000000E+00  0.00000000000E+00  0.45593999997E+02  0.45594000000E+02  0.51100000000E-03 0. -1.
         11   -1    0    0    0    0 -0.00000000000E+00 -0.00000000000E+00 -0.45593999997E+02  0.45594000000E+02  0.51100000000E-03 0.  1.
    9900012    2    1    2    0    0  0.49505116226E+01  0.58759609018E+01 -0.44385572386E+02  0.46142317434E+02  0.99999970146E+01 0.  0.
         12    1    1    2    0    0 -0.49505116226E+01 -0.58759609018E+01  0.44385572386E+02  0.45045682566E+02  0.00000000000E+00 0. -1.
         11    1    3    3    0    0  0.11091639051E+01  0.67992174526E+01 -0.33764338677E+02  0.34459979238E+02  0.51100000000E-03 0. -1.
        -11    1    3    3    0    0  0.24812174627E+01 -0.38116947963E+00 -0.95331540657E+01  0.98581315152E+01  0.51100000000E-03 0.  1.
         12    1    3    3    0    0  0.13601302547E+01 -0.54208707116E+00 -0.10880796428E+01  0.18242066801E+01  0.00000000000E+00 0. -1.
</event>
<event>
 7    1  0.4623443E-009  0.4614232E+02  0.7816164E-02  0.1320468E+00
        -11   -1    0    0    0    0  0.00000000000E+00  0.00000000000E+00  0.45593999997E+02  0.45594000000E+02  0.51100000000E-03 0. -1.
         11   -1    0    0    0    0 -0.00000000000E+00 -0.00000000000E+00 -0.45593999997E+02  0.45594000000E+02  0.51100000000E-03 0.  1.
    9900012    2    1    2    0    0 -0.36063585531E+02  0.26786248577E+02  0.33207965813E+01  0.46142323136E+02  0.10000049012E+02 0.  0.
        -12    1    1    2    0    0  0.36063585531E+02 -0.26786248577E+02 -0.33207965813E+01  0.45045676864E+02  0.00000000000E+00 0.  1.
         11    1    3    3    0    0 -0.25804043909E+01  0.23341718067E+01  0.26409954534E+01  0.43682607626E+01  0.51100000000E-03 0.  1.
        -11    1    3    3    0    0 -0.63140771116E+01  0.30761733671E+01 -0.13186721589E+01  0.71462793732E+01  0.51100000000E-03 0. -1.
        -12    1    3    3    0    0 -0.27169104029E+02  0.21375903404E+02  0.19984732868E+01  0.34627783000E+02  0.00000000000E+00 0.  1.
</event>
<event>
 7    1  0.4623443E-009  0.4614232E+02  0.7816164E-02  0.1320468E+00
        -11   -1    0    0    0    0  0.00000000000E+00  0.00000000000E+00  0.45593999997E+02  0.45594000000E+02  0.51100000000E-03 0. -1.
         11   -1    0    0    0    0 -0.00000000000E+00 -0.00000000000E+00 -0.45593999997E+02  0.45594000000E+02  0.51100000000E-03 0.  1.
    9900012    2    1    2    0    0  0.23167842446E+02 -0.26889765576E+01  0.38537437200E+02  0.46142316695E+02  0.99999902749E+01 0.  0.
        -12    1    1    2    0    0 -0.23167842446E+02  0.26889765576E+01 -0.38537437200E+02  0.45045683305E+02  0.00000000000E+00 0.  1.
         11    1    3    3    0    0  0.16286398945E+02 -0.40418372793E+01  0.27176618425E+02  0.31939815724E+02  0.51100000000E-03 0. -1.
        -11    1    3    3    0    0  0.57903567384E+01  0.30137426309E+01  0.84406082634E+01  0.10670273845E+02  0.51100000000E-03 0.  1.
         12    1    3    3    0    0  0.10910867622E+01 -0.16608819093E+01  0.29202105111E+01  0.35322271258E+01  0.00000000000E+00 0. -1.
</event>
<event>
 7    1  0.4623443E-009  0.4614232E+02  0.7816164E-02  0.1320468E+00
        -11   -1    0    0    0    0  0.00000000000E+00  0.00000000000E+00  0.45593999997E+02  0.45594000000E+02  0.51100000000E-03 0. -1.
         11   -1    0    0    0    0 -0.00000000000E+00 -0.00000000000E+00 -0.45593999997E+02  0.45594000000E+02  0.51100000000E-03 0.  1.
    9900012    2    1    2    0    0  0.29464705340E+01  0.14554738279E+02  0.42527535433E+02  0.46142319131E+02  0.10000012489E+02 0.  0.
        -12    1    1    2    0    0 -0.29464705340E+01 -0.14554738279E+02 -0.42527535433E+02  0.45045680869E+02  0.00000000000E+00 0.  1.
         11    1    3    3    0    0  0.22921698423E+00  0.58250520703E+00  0.86866010548E+01  0.87091268729E+01  0.51100000000E-03 0. -1.
        -11    1    3    3    0    0  0.23010124767E+01  0.41984277374E+01  0.47612237433E+01  0.67520889863E+01  0.51100000000E-03 0.  1.
         12    1    3    3    0    0  0.41624107307E+00  0.97738053341E+01  0.29079710635E+02  0.30681103271E+02  0.00000000000E+00 0. -1.
</event>
<event>
 7    1  0.4623443E-009  0.4614232E+02  0.7816164E-02  0.1320468E+00
        -11   -1    0    0    0    0  0.00000000000E+00  0.00000000000E+00  0.45593999997E+02  0.45594000000E+02  0.51100000000E-03 0. -1.
         11   -1    0    0    0    0 -0.00000000000E+00 -0.00000000000E+00 -0.45593999997E+02  0.45594000000E+02  0.51100000000E-03 0.  1.
    9900012    2    1    2    0    0  0.48457986510E+01  0.27950753442E+02 -0.34991243128E+02  0.46142317874E+02  0.10000001033E+02 0.  0.
         12    1    1    2    0    0 -0.48457986510E+01 -0.27950753442E+02  0.34991243128E+02  0.45045682126E+02  0.00000000000E+00 0. -1.
         11    1    3    3    0    0  0.24127641383E+01  0.19028066396E+02 -0.21115623913E+02  0.28526449394E+02  0.51100000000E-03 0. -1.
        -11    1    3    3    0    0  0.35582568417E+01  0.78925278147E+01 -0.13511849208E+02  0.16047531160E+02  0.51100000000E-03 0.  1.
        -12    1    3    3    0    0 -0.11252223291E+01  0.10301592314E+01 -0.36377000734E+00  0.15683373203E+01  0.00000000000E+00 0.  1.
</event>
<event>
 7    1  0.4623443E-009  0.4614232E+02  0.7816164E-02  0.1320468E+00
        -11   -1    0    0    0    0  0.00000000000E+00  0.00000000000E+00  0.45593999997E+02  0.45594000000E+02  0.51100000000E-03 0. -1.
         11   -1    0    0    0    0 -0.00000000000E+00 -0.00000000000E+00 -0.45593999997E+02  0.45594000000E+02  0.51100000000E-03 0.  1.
    9900012    2    1    2    0    0  0.70386064310E+01  0.31377875548E+02 -0.31543626896E+02  0.46142318163E+02  0.10000003663E+02 0.  0.
         12    1    1    2    0    0 -0.70386064310E+01 -0.31377875548E+02  0.31543626896E+02  0.45045681837E+02  0.00000000000E+00 0. -1.
         11    1    3    3    0    0  0.39080309323E+00  0.70961327395E+01 -0.73962487606E+01  0.10257305831E+02  0.51100000000E-03 0.  1.
        -11    1    3    3    0    0  0.65196496749E+00  0.16867583877E-01 -0.32221051138E+01  0.32874464954E+01  0.51100000000E-03 0. -1.
         12    1    3    3    0    0  0.59958383703E+01  0.24264875225E+02 -0.20925273022E+02  0.32597565837E+02  0.00000000000E+00 0. -1.
</event>
<event>
 7    1  0.4623443E-009  0.4614232E+02  0.7816164E-02  0.1320468E+00
        -11   -1    0    0    0    0  0.00000000000E+00  0.00000000000E+00  0.45593999997E+02  0.45594000000E+02  0.51100000000E-03 0. -1.
         11   -1    0    0    0    0 -0.00000000000E+00 -0.00000000000E+00 -0.45593999997E+02  0.45594000000E+02  0.51100000000E-03 0.  1.
    9900012    2    1    2    0    0 -0.33747288065E+02 -0.10890327790E+02 -0.27778314141E+02  0.46142318435E+02  0.10000006149E+02 0.  0.
         12    1    1    2    0    0  0.33747288065E+02  0.10890327790E+02  0.27778314141E+02  0.45045681565E+02  0.00000000000E+00 0. -1.
         11    1    3    3    0    0 -0.10583536550E+02 -0.36276393054E+01 -0.49659629742E+01  0.12240580107E+02  0.51100000000E-03 0. -1.
        -11    1    3    3    0    0 -0.94398496144E+01  0.16680318869E+00 -0.77867534962E+01  0.12238141784E+02  0.51100000000E-03 0.  1.
        -12    1    3    3    0    0 -0.13723901900E+02 -0.74294916729E+01 -0.15025597671E+02  0.21663596545E+02  0.00000000000E+00 0.  1.
</event>
<event>
 7    1  0.4623443E-009  0.4614232E+02  0.7816164E-02  0.1320468E+00
        -11   -1    0    0    0    0  0.00000000000E+00  0.00000000000E+00  0.45593999997E+02  0.45594000000E+02  0.51100000000E-03 0.  1.
         11   -1    0    0    0    0 -0.00000000000E+00 -0.00000000000E+00 -0.45593999997E+02  0.45594000000E+02  0.51100000000E-03 0. -1.
    9900012    2    1    2    0    0 -0.41533978525E+02  0.17387617723E+02  0.13086199612E+01  0.46142321979E+02  0.10000038461E+02 0.  0.
         12    1    1    2    0    0  0.41533978525E+02 -0.17387617723E+02 -0.13086199612E+01  0.45045678021E+02  0.00000000000E+00 0. -1.
         11    1    3    3    0    0 -0.12313633937E+02  0.37672188516E+01 -0.28722736302E+01  0.13193463331E+02  0.51100000000E-03 0. -1.
        -11    1    3    3    0    0 -0.23251871646E+02  0.12609519948E+02  0.20457860438E+01  0.26529884454E+02  0.51100000000E-03 0.  1.
         12    1    3    3    0    0 -0.59684729419E+01  0.10108789239E+01  0.21351075476E+01  0.64189741935E+01  0.00000000000E+00 0. -1.
</event>
<event>
 7    1  0.4623443E-009  0.4614232E+02  0.7816164E-02  0.1320468E+00
        -11   -1    0    0    0    0  0.00000000000E+00  0.00000000000E+00  0.45593999997E+02  0.45594000000E+02  0.51100000000E-03 0. -1.
         11   -1    0    0    0    0 -0.00000000000E+00 -0.00000000000E+00 -0.45593999997E+02  0.45594000000E+02  0.51100000000E-03 0.  1.
    9900012    2    1    2    0    0  0.17552735508E+02 -0.25834982723E+02 -0.32458722973E+02  0.46142317042E+02  0.99999934465E+01 0.  0.
         12    1    1    2    0    0 -0.17552735508E+02  0.25834982723E+02  0.32458722973E+02  0.45045682958E+02  0.00000000000E+00 0. -1.
         11    1    3    3    0    0  0.62032696288E+01 -0.35266830090E+01 -0.90364623698E+01  0.11514152142E+02  0.51100000000E-03 0. -1.
        -11    1    3    3    0    0  0.11281573450E+02 -0.21003828064E+02 -0.23265710727E+02  0.33312580037E+02  0.51100000000E-03 0.  1.
         12    1    3    3    0    0  0.67892428979E-01 -0.13044716500E+01 -0.15654987572E+00  0.13155848628E+01  0.00000000000E+00 0. -1.
</event>
<event>
 7    1  0.4623443E-009  0.4614232E+02  0.7816164E-02  0.1320468E+00
        -11   -1    0    0    0    0  0.00000000000E+00  0.00000000000E+00  0.45593999997E+02  0.45594000000E+02  0.51100000000E-03 0. -1.
         11   -1    0    0    0    0 -0.00000000000E+00 -0.00000000000E+00 -0.45593999997E+02  0.45594000000E+02  0.51100000000E-03 0.  1.
    9900012    2    1    2    0    0 -0.82905889522E+01  0.33523700711E+02  0.28923020002E+02  0.46142318070E+02  0.10000002818E+02 0.  0.
        -12    1    1    2    0    0  0.82905889522E+01 -0.33523700711E+02 -0.28923020002E+02  0.45045681930E+02  0.00000000000E+00 0.  1.
         11    1    3    3    0    0 -0.51366407150E+01  0.17972644576E+02  0.15036506727E+02  0.23989530335E+02  0.51100000000E-03 0. -1.
        -11    1    3    3    0    0 -0.58731045807E+00 -0.32400313938E+00  0.21281041328E+01  0.22313088243E+01  0.51100000000E-03 0.  1.
        -12    1    3    3    0    0 -0.25666377791E+01  0.15875059274E+02  0.11758409142E+02  0.19921478911E+02  0.00000000000E+00 0.  1.
</event>
<event>
 7    1  0.4623443E-009  0.4614232E+02  0.7816164E-02  0.1320468E+00
        -11   -1    0    0    0    0  0.00000000000E+00  0.00000000000E+00  0.45593999997E+02  0.45594000000E+02  0.51100000000E-03 0. -1.
         11   -1    0    0    0    0 -0.00000000000E+00 -0.00000000000E+00 -0.45593999997E+02  0.45594000000E+02  0.51100000000E-03 0.  1.
    9900012    2    1    2    0    0  0.72782905331E+01  0.22110875095E+02 -0.38564869181E+02  0.46142318237E+02  0.10000004341E+02 0.  0.
         12    1    1    2    0    0 -0.72782905331E+01 -0.22110875095E+02  0.38564869181E+02  0.45045681763E+02  0.00000000000E+00 0. -1.
         11    1    3    3    0    0 -0.31295660246E+00 -0.77523718047E+00 -0.22584298966E+01  0.24082027282E+01  0.51100000000E-03 0. -1.
        -11    1    3    3    0    0  0.60622286809E+01  0.15561520811E+02 -0.27544827269E+02  0.32212250093E+02  0.51100000000E-03 0.  1.
        -12    1    3    3    0    0  0.15290184547E+01  0.73245914640E+01 -0.87616120153E+01  0.11521865416E+02  0.00000000000E+00 0.  1.
</event>
<event>
 7    1  0.4623443E-009  0.4614232E+02  0.7816164E-02  0.1320468E+00
        -11   -1    0    0    0    0  0.00000000000E+00  0.00000000000E+00  0.45593999997E+02  0.45594000000E+02  0.51100000000E-03 0. -1.
         11   -1    0    0    0    0 -0.00000000000E+00 -0.00000000000E+00 -0.45593999997E+02  0.45594000000E+02  0.51100000000E-03 0.  1.
    9900012    2    1    2    0    0 -0.16425659355E+02  0.19639408178E+02 -0.37062176336E+02  0.46142317037E+02  0.99999934010E+01 0.  0.
         12    1    1    2    0    0  0.16425659355E+02 -0.19639408178E+02  0.37062176336E+02  0.45045682963E+02  0.00000000000E+00 0. -1.
         11    1    3    3    0    0 -0.48200543164E+01  0.76770352103E+01 -0.81062443127E+01  0.12160632810E+02  0.51100000000E-03 0. -1.
        -11    1    3    3    0    0 -0.84594009283E+01  0.49688342376E+01 -0.13078008380E+02  0.16348855654E+02  0.51100000000E-03 0.  1.
        -12    1    3    3    0    0 -0.31462041106E+01  0.69935387297E+01 -0.15877923643E+02  0.17632828573E+02  0.00000000000E+00 0.  1.
</event>
<event>
 7    1  0.4623443E-009  0.4614232E+02  0.7816164E-02  0.1320468E+00
        -11   -1    0    0    0    0  0.00000000000E+00  0.00000000000E+00  0.45593999997E+02  0.45594000000E+02  0.51100000000E-03 0. -1.
         11   -1    0    0    0    0 -0.00000000000E+00 -0.00000000000E+00 -0.45593999997E+02  0.45594000000E+02  0.51100000000E-03 0.  1.
    9900012    2    1    2    0    0 -0.26324648845E+02 -0.27010110145E+02 -0.24628851009E+02  0.46142317755E+02  0.99999999488E+01 0.  0.
         12    1    1    2    0    0  0.26324648845E+02  0.27010110145E+02  0.24628851009E+02  0.45045682245E+02  0.00000000000E+00 0. -1.
         11    1    3    3    0    0 -0.83032992710E+01 -0.13171254416E+02 -0.12110131751E+02  0.19725161925E+02  0.51100000000E-03 0. -1.
        -11    1    3    3    0    0 -0.16151451492E+01 -0.31483234917E+01 -0.30249193005E+01  0.46551876114E+01  0.51100000000E-03 0.  1.
        -12    1    3    3    0    0 -0.16406204425E+02 -0.10690532237E+02 -0.94937999580E+01  0.21761968219E+02  0.00000000000E+00 0.  1.
</event>
<event>
 7    1  0.4623443E-009  0.4614232E+02  0.7816164E-02  0.1320468E+00
        -11   -1    0    0    0    0  0.00000000000E+00  0.00000000000E+00  0.45593999997E+02  0.45594000000E+02  0.51100000000E-03 0. -1.
         11   -1    0    0    0    0 -0.00000000000E+00 -0.00000000000E+00 -0.45593999997E+02  0.45594000000E+02  0.51100000000E-03 0.  1.
    9900012    2    1    2    0    0 -0.21077132259E+02  0.30351203170E+02 -0.25761842122E+02  0.46142317103E+02  0.99999939960E+01 0.  0.
         12    1    1    2    0    0  0.21077132259E+02 -0.30351203170E+02  0.25761842122E+02  0.45045682897E+02  0.00000000000E+00 0. -1.
         11    1    3    3    0    0 -0.94464661986E+01  0.17879431567E+02 -0.16304284618E+02  0.25975748189E+02  0.51100000000E-03 0.  1.
        -11    1    3    3    0    0 -0.50814769936E+01  0.91112949399E+01 -0.59879555192E+01  0.12028828516E+02  0.51100000000E-03 0. -1.
         12    1    3    3    0    0 -0.65491890670E+01  0.33604766631E+01 -0.34696019850E+01  0.81377403972E+01  0.00000000000E+00 0. -1.
</event>
<event>
 7    1  0.4623443E-009  0.4614232E+02  0.7816164E-02  0.1320468E+00
        -11   -1    0    0    0    0  0.00000000000E+00  0.00000000000E+00  0.45593999997E+02  0.45594000000E+02  0.51100000000E-03 0. -1.
         11   -1    0    0    0    0 -0.00000000000E+00 -0.00000000000E+00 -0.45593999997E+02  0.45594000000E+02  0.51100000000E-03 0.  1.
    9900012    2    1    2    0    0  0.21926249402E+02  0.82489918698E+01 -0.38474760596E+02  0.46142317825E+02  0.10000000583E+02 0.  0.
         12    1    1    2    0    0 -0.21926249402E+02 -0.82489918698E+01  0.38474760596E+02  0.45045682175E+02  0.00000000000E+00 0. -1.
         11    1    3    3    0    0  0.96759826144E+01  0.73057229142E+00 -0.95797629766E+01  0.13635623725E+02  0.51100000000E-03 0. -1.
        -11    1    3    3    0    0  0.92189693039E+01  0.55715037435E+01 -0.24883352092E+02  0.27114797816E+02  0.51100000000E-03 0.  1.
        -12    1    3    3    0    0  0.30312974839E+01  0.19469158348E+01 -0.40116455266E+01  0.53918962838E+01  0.00000000000E+00 0.  1.
</event>
<event>
 7    1  0.4623443E-009  0.4614232E+02  0.7816164E-02  0.1320468E+00
        -11   -1    0    0    0    0  0.00000000000E+00  0.00000000000E+00  0.45593999997E+02  0.45594000000E+02  0.51100000000E-03 0. -1.
         11   -1    0    0    0    0 -0.00000000000E+00 -0.00000000000E+00 -0.45593999997E+02  0.45594000000E+02  0.51100000000E-03 0.  1.
    9900012    2    1    2    0    0 -0.18421962324E+02 -0.25931423027E+02 -0.31895237240E+02  0.46142317025E+02  0.99999932892E+01 0.  0.
         12    1    1    2    0    0  0.18421962324E+02  0.25931423027E+02  0.31895237240E+02  0.45045682975E+02  0.00000000000E+00 0. -1.
         11    1    3    3    0    0 -0.31175075887E+01 -0.35459064407E+01 -0.10216378548E+02  0.11254630023E+02  0.51100000000E-03 0. -1.
        -11    1    3    3    0    0 -0.53459778881E+01 -0.98994816067E+01 -0.10534852546E+02  0.15413057259E+02  0.51100000000E-03 0.  1.
        -12    1    3    3    0    0 -0.99584768477E+01 -0.12486034980E+02 -0.11144006145E+02  0.19474629743E+02  0.00000000000E+00 0.  1.
</event>
<event>
 7    1  0.4623443E-009  0.4614232E+02  0.7816164E-02  0.1320468E+00
        -11   -1    0    0    0    0  0.00000000000E+00  0.00000000000E+00  0.45593999997E+02  0.45594000000E+02  0.51100000000E-03 0. -1.
         11   -1    0    0    0    0 -0.00000000000E+00 -0.00000000000E+00 -0.45593999997E+02  0.45594000000E+02  0.51100000000E-03 0.  1.
    9900012    2    1    2    0    0 -0.13278103578E+02 -0.25434652349E+02  0.34725839642E+02  0.46142317482E+02  0.99999974520E+01 0.  0.
        -12    1    1    2    0    0  0.13278103578E+02  0.25434652349E+02 -0.34725839642E+02  0.45045682518E+02  0.00000000000E+00 0.  1.
         11    1    3    3    0    0 -0.60599925616E+01 -0.84846935875E+01  0.13519279907E+02  0.17072916113E+02  0.51100000000E-03 0. -1.
        -11    1    3    3    0    0 -0.40971554816E+01 -0.86243214709E+01  0.54948605775E+01  0.11016310494E+02  0.51100000000E-03 0.  1.
        -12    1    3    3    0    0 -0.31209555344E+01 -0.83256372902E+01  0.15711699157E+02  0.18053090875E+02  0.00000000000E+00 0.  1.
</event>
<event>
 7    1  0.4623443E-009  0.4614232E+02  0.7816164E-02  0.1320468E+00
        -11   -1    0    0    0    0  0.00000000000E+00  0.00000000000E+00  0.45593999997E+02  0.45594000000E+02  0.51100000000E-03 0. -1.
         11   -1    0    0    0    0 -0.00000000000E+00 -0.00000000000E+00 -0.45593999997E+02  0.45594000000E+02  0.51100000000E-03 0.  1.
    9900012    2    1    2    0    0  0.52710443496E+01 -0.21567777732E+02  0.39193884461E+02  0.46142317366E+02  0.99999963951E+01 0.  0.
        -12    1    1    2    0    0 -0.52710443496E+01  0.21567777732E+02 -0.39193884461E+02  0.45045682634E+02  0.00000000000E+00 0.  1.
         11    1    3    3    0    0  0.12272075374E+01 -0.99292775951E+00  0.56633063796E+01  0.58791992045E+01  0.51100000000E-03 0. -1.
        -11    1    3    3    0    0  0.41656818995E+01 -0.66898227953E+01  0.16530231383E+02  0.18312705550E+02  0.51100000000E-03 0.  1.
        -12    1    3    3    0    0 -0.12184508736E+00 -0.13885027178E+02  0.17000346698E+02  0.21950412611E+02  0.00000000000E+00 0.  1.
</event>
<event>
 7    1  0.4623443E-009  0.4614232E+02  0.7816164E-02  0.1320468E+00
        -11   -1    0    0    0    0  0.00000000000E+00  0.00000000000E+00  0.45593999997E+02  0.45594000000E+02  0.51100000000E-03 0. -1.
         11   -1    0    0    0    0 -0.00000000000E+00 -0.00000000000E+00 -0.45593999997E+02  0.45594000000E+02  0.51100000000E-03 0.  1.
    9900012    2    1    2    0    0 -0.84062948521E+01 -0.27871207269E+01 -0.44166499320E+02  0.46142317663E+02  0.99999991022E+01 0.  0.
         12    1    1    2    0    0  0.84062948521E+01  0.27871207269E+01  0.44166499320E+02  0.45045682337E+02  0.00000000000E+00 0. -1.
         11    1    3    3    0    0 -0.17768503087E+01 -0.21421441242E+01 -0.20754022680E+02  0.20939805064E+02  0.51100000000E-03 0. -1.
        -11    1    3    3    0    0 -0.38893164665E+00  0.44789598439E+00 -0.13003779844E+02  0.13017302683E+02  0.51100000000E-03 0.  1.
        -12    1    3    3    0    0 -0.62405128968E+01 -0.10928725871E+01 -0.10408696795E+02  0.12185209915E+02  0.00000000000E+00 0.  1.
</event>
<event>
 7    1  0.4623443E-009  0.4614232E+02  0.7816164E-02  0.1320468E+00
        -11   -1    0    0    0    0  0.00000000000E+00  0.00000000000E+00  0.45593999997E+02  0.45594000000E+02  0.51100000000E-03 0. -1.
         11   -1    0    0    0    0 -0.00000000000E+00 -0.00000000000E+00 -0.45593999997E+02  0.45594000000E+02  0.51100000000E-03 0.  1.
    9900012    2    1    2    0    0  0.83742713221E+01 -0.12492846765E+02  0.42460733201E+02  0.46142317583E+02  0.99999983772E+01 0.  0.
        -12    1    1    2    0    0 -0.83742713221E+01  0.12492846765E+02 -0.42460733201E+02  0.45045682417E+02  0.00000000000E+00 0.  1.
         11    1    3    3    0    0  0.56340466574E+01 -0.45345666050E+01  0.22788824694E+02  0.23908895985E+02  0.51100000000E-03 0. -1.
        -11    1    3    3    0    0  0.55130464021E+00 -0.37150243404E+01  0.27609056554E+01  0.46613241633E+01  0.51100000000E-03 0.  1.
        -12    1    3    3    0    0  0.21889200245E+01 -0.42432558198E+01  0.16911002851E+02  0.17572097435E+02  0.00000000000E+00 0.  1.
</event>
<event>
 7    1  0.4623443E-009  0.4614232E+02  0.7816164E-02  0.1320468E+00
        -11   -1    0    0    0    0  0.00000000000E+00  0.00000000000E+00  0.45593999997E+02  0.45594000000E+02  0.51100000000E-03 0. -1.
         11   -1    0    0    0    0 -0.00000000000E+00 -0.00000000000E+00 -0.45593999997E+02  0.45594000000E+02  0.51100000000E-03 0.  1.
    9900012    2    1    2    0    0 -0.22585748158E+02  0.85179090097E+01 -0.38032129505E+02  0.46142315762E+02  0.99999817710E+01 0.  0.
         12    1    1    2    0    0  0.22585748158E+02 -0.85179090097E+01  0.38032129505E+02  0.45045684238E+02  0.00000000000E+00 0. -1.
         11    1    3    3    0    0 -0.39278721019E+01  0.70585430982E+00 -0.81291517682E+01  0.90559106824E+01  0.51100000000E-03 0.  1.
        -11    1    3    3    0    0 -0.15253764585E+02  0.96328804481E+01 -0.25403292440E+02  0.31157615230E+02  0.51100000000E-03 0. -1.
         12    1    3    3    0    0 -0.34041114710E+01 -0.18208257482E+01 -0.44996852969E+01  0.59287898499E+01  0.00000000000E+00 0. -1.
</event>
<event>
 7    1  0.4623443E-009  0.4614232E+02  0.7816164E-02  0.1320468E+00
        -11   -1    0    0    0    0  0.00000000000E+00  0.00000000000E+00  0.45593999997E+02  0.45594000000E+02  0.51100000000E-03 0. -1.
         11   -1    0    0    0    0 -0.00000000000E+00 -0.00000000000E+00 -0.45593999997E+02  0.45594000000E+02  0.51100000000E-03 0.  1.
    9900012    2    1    2    0    0 -0.61504805350E+01  0.19621215887E+02  0.40078581737E+02  0.46142320543E+02  0.10000025367E+02 0.  0.
        -12    1    1    2    0    0  0.61504805350E+01 -0.19621215887E+02 -0.40078581737E+02  0.45045679457E+02  0.00000000000E+00 0.  1.
         11    1    3    3    0    0 -0.72453164847E+00  0.33180807761E+01  0.13048584921E+02  0.13483329516E+02  0.51100000000E-03 0. -1.
        -11    1    3    3    0    0 -0.31834338587E+01  0.27675521243E+01  0.37875571200E+01  0.56691432414E+01  0.51100000000E-03 0.  1.
         12    1    3    3    0    0 -0.22425150278E+01  0.13535582987E+02  0.23242439696E+02  0.26989847785E+02  0.00000000000E+00 0. -1.
</event>
<event>
 7    1  0.4623443E-009  0.4614232E+02  0.7816164E-02  0.1320468E+00
        -11   -1    0    0    0    0  0.00000000000E+00  0.00000000000E+00  0.45593999997E+02  0.45594000000E+02  0.51100000000E-03 0. -1.
         11   -1    0    0    0    0 -0.00000000000E+00 -0.00000000000E+00 -0.45593999997E+02  0.45594000000E+02  0.51100000000E-03 0.  1.
    9900012    2    1    2    0    0  0.19120398184E+02 -0.10757031332E+02 -0.39342221233E+02  0.46142315175E+02  0.99999764220E+01 0.  0.
         12    1    1    2    0    0 -0.19120398184E+02  0.10757031332E+02  0.39342221233E+02  0.45045684825E+02  0.00000000000E+00 0. -1.
         11    1    3    3    0    0  0.69570848203E+01 -0.62411213468E+01 -0.16030712358E+02  0.18556302537E+02  0.51100000000E-03 0. -1.
        -11    1    3    3    0    0  0.70933410572E+01 -0.12205596666E+01 -0.64198948046E+01  0.96447033556E+01  0.51100000000E-03 0.  1.
         12    1    3    3    0    0  0.50699723068E+01 -0.32953503182E+01 -0.16891614070E+02  0.17941309283E+02  0.00000000000E+00 0. -1.
</event>
<event>
 7    1  0.4623443E-009  0.4614232E+02  0.7816164E-02  0.1320468E+00
        -11   -1    0    0    0    0  0.00000000000E+00  0.00000000000E+00  0.45593999997E+02  0.45594000000E+02  0.51100000000E-03 0. -1.
         11   -1    0    0    0    0 -0.00000000000E+00 -0.00000000000E+00 -0.45593999997E+02  0.45594000000E+02  0.51100000000E-03 0.  1.
    9900012    2    1    2    0    0  0.15823517028E+02  0.40098124651E+01  0.41983940090E+02  0.46142317492E+02  0.99999975456E+01 0.  0.
        -12    1    1    2    0    0 -0.15823517028E+02 -0.40098124651E+01 -0.41983940090E+02  0.45045682508E+02  0.00000000000E+00 0.  1.
         11    1    3    3    0    0  0.12030601122E+02  0.86453155476E+00  0.31345811853E+02  0.33586346916E+02  0.51100000000E-03 0. -1.
        -11    1    3    3    0    0  0.41653848688E+01  0.20778776217E+01  0.51053763577E+01  0.69088982139E+01  0.51100000000E-03 0.  1.
         12    1    3    3    0    0 -0.37246896227E+00  0.10674032886E+01  0.55327518787E+01  0.56470723618E+01  0.00000000000E+00 0. -1.
</event>
<event>
 7    1  0.4623443E-009  0.4614232E+02  0.7816164E-02  0.1320468E+00
        -11   -1    0    0    0    0  0.00000000000E+00  0.00000000000E+00  0.45593999997E+02  0.45594000000E+02  0.51100000000E-03 0.  1.
         11   -1    0    0    0    0 -0.00000000000E+00 -0.00000000000E+00 -0.45593999997E+02  0.45594000000E+02  0.51100000000E-03 0. -1.
    9900012    2    1    2    0    0 -0.27208809098E+02 -0.31813429629E+02  0.16634303785E+02  0.46142315859E+02  0.99999826572E+01 0.  0.
        -12    1    1    2    0    0  0.27208809098E+02  0.31813429629E+02 -0.16634303785E+02  0.45045684141E+02  0.00000000000E+00 0.  1.
         11    1    3    3    0    0 -0.57749767119E+01 -0.38357637703E+01  0.17563173246E+00  0.69350044334E+01  0.51100000000E-03 0. -1.
        -11    1    3    3    0    0 -0.52735983811E+01 -0.94458661960E+01  0.32503678821E+01  0.11296022296E+02  0.51100000000E-03 0.  1.
        -12    1    3    3    0    0 -0.16160234005E+02 -0.18531799662E+02  0.13208304171E+02  0.27911289130E+02  0.00000000000E+00 0.  1.
</event>
<event>
 7    1  0.4623443E-009  0.4614232E+02  0.7816164E-02  0.1320468E+00
        -11   -1    0    0    0    0  0.00000000000E+00  0.00000000000E+00  0.45593999997E+02  0.45594000000E+02  0.51100000000E-03 0. -1.
         11   -1    0    0    0    0 -0.00000000000E+00 -0.00000000000E+00 -0.45593999997E+02  0.45594000000E+02  0.51100000000E-03 0.  1.
    9900012    2    1    2    0    0  0.25004369914E+02 -0.31257095449E+02  0.20661291589E+02  0.46142317622E+02  0.99999987312E+01 0.  0.
        -12    1    1    2    0    0 -0.25004369914E+02  0.31257095449E+02 -0.20661291589E+02  0.45045682378E+02  0.00000000000E+00 0.  1.
         11    1    3    3    0    0  0.10511460650E+01 -0.13785947356E+01 -0.16399115388E-02  0.17336188871E+01  0.51100000000E-03 0. -1.
        -11    1    3    3    0    0  0.11111723848E+02 -0.81459849785E+01  0.47739570770E+01  0.14581431500E+02  0.51100000000E-03 0.  1.
        -12    1    3    3    0    0  0.12841500001E+02 -0.21732515735E+02  0.15888974424E+02  0.29827267235E+02  0.00000000000E+00 0.  1.
</event>
<event>
 7    1  0.4623443E-009  0.4614232E+02  0.7816164E-02  0.1320468E+00
        -11   -1    0    0    0    0  0.00000000000E+00  0.00000000000E+00  0.45593999997E+02  0.45594000000E+02  0.51100000000E-03 0. -1.
         11   -1    0    0    0    0 -0.00000000000E+00 -0.00000000000E+00 -0.45593999997E+02  0.45594000000E+02  0.51100000000E-03 0.  1.
    9900012    2    1    2    0    0  0.23783814056E+02 -0.36662541857E+02 -0.10922536576E+02  0.46142316614E+02  0.99999895407E+01 0.  0.
         12    1    1    2    0    0 -0.23783814056E+02  0.36662541857E+02  0.10922536576E+02  0.45045683386E+02  0.00000000000E+00 0. -1.
         11    1    3    3    0    0  0.55451372433E+01 -0.40187865113E+01  0.12904637324E+00  0.68495142381E+01  0.51100000000E-03 0. -1.
        -11    1    3    3    0    0  0.15903307235E+02 -0.24589369454E+02 -0.93044240070E+01  0.30726610251E+02  0.51100000000E-03 0.  1.
         12    1    3    3    0    0  0.23353695776E+01 -0.80543858912E+01 -0.17471589423E+01  0.85661921247E+01  0.00000000000E+00 0. -1.
</event>
<event>
 7    1  0.4623443E-009  0.4614232E+02  0.7816164E-02  0.1320468E+00
        -11   -1    0    0    0    0  0.00000000000E+00  0.00000000000E+00  0.45593999997E+02  0.45594000000E+02  0.51100000000E-03 0.  1.
         11   -1    0    0    0    0 -0.00000000000E+00 -0.00000000000E+00 -0.45593999997E+02  0.45594000000E+02  0.51100000000E-03 0. -1.
    9900012    2    1    2    0    0  0.36016436747E+02 -0.15522887693E+01 -0.27009630804E+02  0.46142317937E+02  0.10000001599E+02 0.  0.
         12    1    1    2    0    0 -0.36016436747E+02  0.15522887693E+01  0.27009630804E+02  0.45045682063E+02  0.00000000000E+00 0. -1.
         11    1    3    3    0    0  0.15478169636E+02 -0.35492679072E+01 -0.13368974340E+02  0.20758143296E+02  0.51100000000E-03 0. -1.
        -11    1    3    3    0    0  0.83362621896E+01 -0.14769147608E+00 -0.86891832012E+01  0.12042299823E+02  0.51100000000E-03 0.  1.
         12    1    3    3    0    0  0.12202004922E+02  0.21446706140E+01 -0.49514732627E+01  0.13341874817E+02  0.00000000000E+00 0. -1.
</event>
<event>
 7    1  0.4623443E-009  0.4614232E+02  0.7816164E-02  0.1320468E+00
        -11   -1    0    0    0    0  0.00000000000E+00  0.00000000000E+00  0.45593999997E+02  0.45594000000E+02  0.51100000000E-03 0. -1.
         11   -1    0    0    0    0 -0.00000000000E+00 -0.00000000000E+00 -0.45593999997E+02  0.45594000000E+02  0.51100000000E-03 0.  1.
    9900012    2    1    2    0    0  0.38071914758E+02  0.86725248768E+01  0.22459520627E+02  0.46142318211E+02  0.10000004101E+02 0.  0.
        -12    1    1    2    0    0 -0.38071914758E+02 -0.86725248768E+01 -0.22459520627E+02  0.45045681789E+02  0.00000000000E+00 0.  1.
         11    1    3    3    0    0  0.18466204430E+02  0.48391980333E+01  0.68189896104E+01  0.20271091811E+02  0.51100000000E-03 0. -1.
        -11    1    3    3    0    0  0.92379770615E+01  0.80184410720E+00  0.43386382061E+01  0.10237526845E+02  0.51100000000E-03 0.  1.
        -12    1    3    3    0    0  0.10367733267E+02  0.30314827363E+01  0.11301892810E+02  0.15633699555E+02  0.00000000000E+00 0.  1.
</event>
<event>
 7    1  0.6356904E-009  0.4614232E+02  0.7816164E-02  0.1320468E+00
        -11   -1    0    0    0    0  0.00000000000E+00  0.00000000000E+00  0.45593999997E+02  0.45594000000E+02  0.51100000000E-03 0. -1.
         11   -1    0    0    0    0 -0.00000000000E+00 -0.00000000000E+00 -0.45593999997E+02  0.45594000000E+02  0.51100000000E-03 0.  1.
    9900012    2    1    2    0    0 -0.78185473559E+01  0.32875760466E+02 -0.29785367923E+02  0.46142318173E+02  0.10000003756E+02 0.  0.
         12    1    1    2    0    0  0.78185473559E+01 -0.32875760466E+02  0.29785367923E+02  0.45045681827E+02  0.00000000000E+00 0. -1.
         11    1    3    3    0    0 -0.16292975481E+01  0.10000412267E+02 -0.13983460567E+02  0.17268469119E+02  0.51100000000E-03 0. -1.
        -11    1    3    3    0    0 -0.41012942655E+01  0.13762201460E+02 -0.12240389410E+02  0.18869179549E+02  0.51100000000E-03 0.  1.
         12    1    3    3    0    0 -0.20879555423E+01  0.91131467395E+01 -0.35615179454E+01  0.10004669506E+02  0.00000000000E+00 0. -1.
</event>
<event>
 7    1  0.4623443E-009  0.4614232E+02  0.7816164E-02  0.1320468E+00
        -11   -1    0    0    0    0  0.00000000000E+00  0.00000000000E+00  0.45593999997E+02  0.45594000000E+02  0.51100000000E-03 0. -1.
         11   -1    0    0    0    0 -0.00000000000E+00 -0.00000000000E+00 -0.45593999997E+02  0.45594000000E+02  0.51100000000E-03 0.  1.
    9900012    2    1    2    0    0  0.42767178710E+01  0.32128234290E+02 -0.31282578304E+02  0.46142318079E+02  0.10000002901E+02 0.  0.
         12    1    1    2    0    0 -0.42767178710E+01 -0.32128234290E+02  0.31282578304E+02  0.45045681921E+02  0.00000000000E+00 0. -1.
         11    1    3    3    0    0  0.16192177566E+01  0.24896380856E+01 -0.41850516994E+01  0.51317464794E+01  0.51100000000E-03 0. -1.
        -11    1    3    3    0    0  0.74008715984E+00  0.10045854956E+01 -0.39446505549E+01  0.41372925064E+01  0.51100000000E-03 0.  1.
        -12    1    3    3    0    0  0.19174129546E+01  0.28634010709E+02 -0.23152876050E+02  0.36873279093E+02  0.00000000000E+00 0.  1.
</event>
<event>
 7    1  0.4623443E-009  0.4614231E+02  0.7816164E-02  0.1320468E+00
        -11   -1    0    0    0    0  0.00000000000E+00  0.00000000000E+00  0.45593999997E+02  0.45594000000E+02  0.51100000000E-03 0. -1.
         11   -1    0    0    0    0 -0.00000000000E+00 -0.00000000000E+00 -0.45593999997E+02  0.45594000000E+02  0.51100000000E-03 0.  1.
    9900012    2    1    2    0    0 -0.33041881262E+02 -0.12022282724E+02 -0.28156932988E+02  0.46142311255E+02  0.99999406682E+01 0.  0.
         12    1    1    2    0    0  0.33041881262E+02  0.12022282724E+02  0.28156932988E+02  0.45045688745E+02  0.00000000000E+00 0. -1.
         11    1    3    3    0    0 -0.10766664666E+02 -0.75491976201E+01 -0.76711840189E+01  0.15223617088E+02  0.51100000000E-03 0. -1.
        -11    1    3    3    0    0 -0.16102092456E+01 -0.11871289613E+01 -0.69607631729E+00  0.21181528476E+01  0.51100000000E-03 0.  1.
        -12    1    3    3    0    0 -0.20665007350E+02 -0.32859561427E+01 -0.19789672652E+02  0.28800541318E+02  0.00000000000E+00 0.  1.
</event>
<event>
 7    1  0.4623443E-009  0.4614232E+02  0.7816164E-02  0.1320468E+00
        -11   -1    0    0    0    0  0.00000000000E+00  0.00000000000E+00  0.45593999997E+02  0.45594000000E+02  0.51100000000E-03 0. -1.
         11   -1    0    0    0    0 -0.00000000000E+00 -0.00000000000E+00 -0.45593999997E+02  0.45594000000E+02  0.51100000000E-03 0.  1.
    9900012    2    1    2    0    0  0.14502881555E+02  0.18319218914E+02  0.38512155772E+02  0.46142317663E+02  0.99999991023E+01 0.  0.
        -12    1    1    2    0    0 -0.14502881555E+02 -0.18319218914E+02 -0.38512155772E+02  0.45045682337E+02  0.00000000000E+00 0.  1.
         11    1    3    3    0    0  0.47086152451E+01  0.12389422032E+02  0.21866308731E+02  0.25569597056E+02  0.51100000000E-03 0.  1.
        -11    1    3    3    0    0  0.62434223336E+01  0.56053815494E+01  0.13004319921E+02  0.15476206306E+02  0.51100000000E-03 0. -1.
        -12    1    3    3    0    0  0.35508439766E+01  0.32441533249E+00  0.36415271195E+01  0.50965143007E+01  0.00000000000E+00 0.  1.
</event>
<event>
 7    1  0.4623443E-009  0.4614232E+02  0.7816164E-02  0.1320468E+00
        -11   -1    0    0    0    0  0.00000000000E+00  0.00000000000E+00  0.45593999997E+02  0.45594000000E+02  0.51100000000E-03 0. -1.
         11   -1    0    0    0    0 -0.00000000000E+00 -0.00000000000E+00 -0.45593999997E+02  0.45594000000E+02  0.51100000000E-03 0.  1.
    9900012    2    1    2    0    0  0.10311483497E+02 -0.74565932160E+01  0.43210948055E+02  0.46142317564E+02  0.99999982017E+01 0.  0.
        -12    1    1    2    0    0 -0.10311483497E+02  0.74565932160E+01 -0.43210948055E+02  0.45045682436E+02  0.00000000000E+00 0.  1.
         11    1    3    3    0    0  0.18388120511E+01  0.42144626162E+00  0.47040298181E+01  0.50682091020E+01  0.51100000000E-03 0. -1.
        -11    1    3    3    0    0  0.54750839491E+01 -0.77951905003E+00  0.24202616164E+02  0.24826413830E+02  0.51100000000E-03 0.  1.
         12    1    3    3    0    0  0.29975874970E+01 -0.70985204276E+01  0.14304302073E+02  0.16247694632E+02  0.00000000000E+00 0. -1.
</event>
<event>
 7    1  0.4623443E-009  0.4614232E+02  0.7816164E-02  0.1320468E+00
        -11   -1    0    0    0    0  0.00000000000E+00  0.00000000000E+00  0.45593999997E+02  0.45594000000E+02  0.51100000000E-03 0. -1.
         11   -1    0    0    0    0 -0.00000000000E+00 -0.00000000000E+00 -0.45593999997E+02  0.45594000000E+02  0.51100000000E-03 0.  1.
    9900012    2    1    2    0    0  0.15184408685E+02  0.37378311594E+02  0.20035195423E+02  0.46142317628E+02  0.99999987845E+01 0.  0.
        -12    1    1    2    0    0 -0.15184408685E+02 -0.37378311594E+02 -0.20035195423E+02  0.45045682372E+02  0.00000000000E+00 0.  1.
         11    1    3    3    0    0  0.45464467028E+01  0.77917531596E+01  0.43720835541E+01  0.10024804726E+02  0.51100000000E-03 0. -1.
        -11    1    3    3    0    0  0.46618638159E+01  0.53049566553E+01  0.10093575066E+01  0.71340270668E+01  0.51100000000E-03 0.  1.
        -12    1    3    3    0    0  0.59760981659E+01  0.24281601779E+02  0.14653754363E+02  0.28983485835E+02  0.00000000000E+00 0.  1.
</event>
<event>
 7    1  0.4623443E-009  0.4614232E+02  0.7816164E-02  0.1320468E+00
        -11   -1    0    0    0    0  0.00000000000E+00  0.00000000000E+00  0.45593999997E+02  0.45594000000E+02  0.51100000000E-03 0. -1.
         11   -1    0    0    0    0 -0.00000000000E+00 -0.00000000000E+00 -0.45593999997E+02  0.45594000000E+02  0.51100000000E-03 0.  1.
    9900012    2    1    2    0    0  0.14888332839E+02 -0.19905944927E+01 -0.42467497307E+02  0.46142320422E+02  0.10000024261E+02 0.  0.
         12    1    1    2    0    0 -0.14888332839E+02  0.19905944927E+01  0.42467497307E+02  0.45045679578E+02  0.00000000000E+00 0. -1.
         11    1    3    3    0    0 -0.21967906702E+00  0.35308059658E+00 -0.10342163586E+01  0.11146876413E+01  0.51100000000E-03 0. -1.
        -11    1    3    3    0    0  0.11608004524E+02 -0.20418859505E+01 -0.39031185404E+02  0.40771908240E+02  0.51100000000E-03 0.  1.
        -12    1    3    3    0    0  0.35000073817E+01 -0.30178913879E+00 -0.24020955445E+01  0.42557245401E+01  0.00000000000E+00 0.  1.
</event>
<event>
 7    1  0.4623443E-009  0.4614232E+02  0.7816164E-02  0.1320468E+00
        -11   -1    0    0    0    0  0.00000000000E+00  0.00000000000E+00  0.45593999997E+02  0.45594000000E+02  0.51100000000E-03 0. -1.
         11   -1    0    0    0    0 -0.00000000000E+00 -0.00000000000E+00 -0.45593999997E+02  0.45594000000E+02  0.51100000000E-03 0.  1.
    9900012    2    1    2    0    0  0.27777287618E+02  0.28702955216E+02  0.20824892690E+02  0.46142317620E+02  0.99999987099E+01 0.  0.
        -12    1    1    2    0    0 -0.27777287618E+02 -0.28702955216E+02 -0.20824892690E+02  0.45045682380E+02  0.00000000000E+00 0.  1.
         11    1    3    3    0    0  0.17955025142E+02  0.19896338864E+02  0.15132108434E+02  0.30777068313E+02  0.51100000000E-03 0. -1.
        -11    1    3    3    0    0  0.19747510942E+01  0.40006823621E+01  0.40338069228E+01  0.60147069586E+01  0.51100000000E-03 0.  1.
        -12    1    3    3    0    0  0.78475113816E+01  0.48059339900E+01  0.16589773332E+01  0.93505423475E+01  0.00000000000E+00 0.  1.
</event>
<event>
 7    1  0.4623443E-009  0.4614232E+02  0.7816164E-02  0.1320468E+00
        -11   -1    0    0    0    0  0.00000000000E+00  0.00000000000E+00  0.45593999997E+02  0.45594000000E+02  0.51100000000E-03 0. -1.
         11   -1    0    0    0    0 -0.00000000000E+00 -0.00000000000E+00 -0.45593999997E+02  0.45594000000E+02  0.51100000000E-03 0.  1.
    9900012    2    1    2    0    0 -0.38201156391E+02 -0.22560234853E+02 -0.77987824940E+01  0.46142317026E+02  0.99999932955E+01 0.  0.
        -12    1    1    2    0    0  0.38201156391E+02  0.22560234853E+02  0.77987824940E+01  0.45045682974E+02  0.00000000000E+00 0.  1.
         11    1    3    3    0    0 -0.14408452653E+02 -0.12711681504E+02 -0.32651838250E+01  0.19489786561E+02  0.51100000000E-03 0. -1.
        -11    1    3    3    0    0 -0.11534891726E+02 -0.72215746280E+01 -0.36249008107E+01  0.14083492940E+02  0.51100000000E-03 0.  1.
        -12    1    3    3    0    0 -0.12257812011E+02 -0.26269787212E+01 -0.90869785837E+00  0.12569037525E+02  0.00000000000E+00 0.  1.
</event>
<event>
 7    1  0.4623443E-009  0.4614232E+02  0.7816164E-02  0.1320468E+00
        -11   -1    0    0    0    0  0.00000000000E+00  0.00000000000E+00  0.45593999997E+02  0.45594000000E+02  0.51100000000E-03 0. -1.
         11   -1    0    0    0    0 -0.00000000000E+00 -0.00000000000E+00 -0.45593999997E+02  0.45594000000E+02  0.51100000000E-03 0.  1.
    9900012    2    1    2    0    0  0.54628626214E+01 -0.25528951933E+02 -0.36708899073E+02  0.46142317344E+02  0.99999961990E+01 0.  0.
         12    1    1    2    0    0 -0.54628626214E+01  0.25528951933E+02  0.36708899073E+02  0.45045682656E+02  0.00000000000E+00 0. -1.
         11    1    3    3    0    0  0.24269879114E+01 -0.37619487655E+01 -0.35845699574E+01  0.57351260559E+01  0.51100000000E-03 0. -1.
        -11    1    3    3    0    0 -0.66810922832E+00 -0.95564759246E+01 -0.91436527728E+01  0.13243073221E+02  0.51100000000E-03 0.  1.
        -12    1    3    3    0    0  0.37039839383E+01 -0.12210527242E+02 -0.23980676342E+02  0.27164118068E+02  0.00000000000E+00 0.  1.
</event>
<event>
 7    1  0.4623443E-009  0.4614232E+02  0.7816164E-02  0.1320468E+00
        -11   -1    0    0    0    0  0.00000000000E+00  0.00000000000E+00  0.45593999997E+02  0.45594000000E+02  0.51100000000E-03 0. -1.
         11   -1    0    0    0    0 -0.00000000000E+00 -0.00000000000E+00 -0.45593999997E+02  0.45594000000E+02  0.51100000000E-03 0.  1.
    9900012    2    1    2    0    0  0.14386673046E+02  0.36143847862E+02  0.22710336429E+02  0.46142317850E+02  0.10000000813E+02 0.  0.
        -12    1    1    2    0    0 -0.14386673046E+02 -0.36143847862E+02 -0.22710336429E+02  0.45045682150E+02  0.00000000000E+00 0.  1.
         11    1    3    3    0    0  0.34552645362E+01  0.14114870597E+02  0.10752874550E+02  0.18077409558E+02  0.51100000000E-03 0. -1.
        -11    1    3    3    0    0  0.58435130422E+01  0.17412858400E+02  0.72981518756E+01  0.19764040664E+02  0.51100000000E-03 0.  1.
         12    1    3    3    0    0  0.50878954677E+01  0.46161188661E+01  0.46593100029E+01  0.83008676281E+01  0.00000000000E+00 0. -1.
</event>
<event>
 7    1  0.4623443E-009  0.4614232E+02  0.7816164E-02  0.1320468E+00
        -11   -1    0    0    0    0  0.00000000000E+00  0.00000000000E+00  0.45593999997E+02  0.45594000000E+02  0.51100000000E-03 0. -1.
         11   -1    0    0    0    0 -0.00000000000E+00 -0.00000000000E+00 -0.45593999997E+02  0.45594000000E+02  0.51100000000E-03 0.  1.
    9900012    2    1    2    0    0 -0.13838764631E+00  0.39953899664E+02 -0.20803373112E+02  0.46142316718E+02  0.99999904851E+01 0.  0.
         12    1    1    2    0    0  0.13838764631E+00 -0.39953899664E+02  0.20803373112E+02  0.45045683282E+02  0.00000000000E+00 0. -1.
         11    1    3    3    0    0 -0.34463709875E+00  0.50527405389E+01 -0.85347242615E+00  0.51358910743E+01  0.51100000000E-03 0. -1.
        -11    1    3    3    0    0  0.32522002216E+01  0.12829495211E+02 -0.10083404510E+02  0.16638743956E+02  0.51100000000E-03 0.  1.
        -12    1    3    3    0    0 -0.30459507691E+01  0.22071663915E+02 -0.98664961762E+01  0.24367681688E+02  0.00000000000E+00 0.  1.
</event>
<event>
 7    1  0.4623443E-009  0.4614231E+02  0.7816164E-02  0.1320468E+00
        -11   -1    0    0    0    0  0.00000000000E+00  0.00000000000E+00  0.45593999997E+02  0.45594000000E+02  0.51100000000E-03 0. -1.
         11   -1    0    0    0    0 -0.00000000000E+00 -0.00000000000E+00 -0.45593999997E+02  0.45594000000E+02  0.51100000000E-03 0.  1.
    9900012    2    1    2    0    0  0.44100763781E+02  0.87687143174E+01 -0.27103861946E+01  0.46142313079E+02  0.99999573079E+01 0.  0.
         12    1    1    2    0    0 -0.44100763781E+02 -0.87687143174E+01  0.27103861946E+01  0.45045686921E+02  0.00000000000E+00 0. -1.
         11    1    3    3    0    0  0.15665310973E+02  0.53330858867E+01  0.10189381370E+01  0.16579565981E+02  0.51100000000E-03 0. -1.
        -11    1    3    3    0    0  0.23062643553E+02  0.37193196435E+01 -0.66303376033E+00  0.23370033810E+02  0.51100000000E-03 0.  1.
         12    1    3    3    0    0  0.53728092556E+01 -0.28369121276E+00 -0.30662905713E+01  0.61927132881E+01  0.00000000000E+00 0. -1.
</event>
<event>
 7    1  0.4623443E-009  0.4614232E+02  0.7816164E-02  0.1320468E+00
        -11   -1    0    0    0    0  0.00000000000E+00  0.00000000000E+00  0.45593999997E+02  0.45594000000E+02  0.51100000000E-03 0. -1.
         11   -1    0    0    0    0 -0.00000000000E+00 -0.00000000000E+00 -0.45593999997E+02  0.45594000000E+02  0.51100000000E-03 0.  1.
    9900012    2    1    2    0    0 -0.20923840235E+02  0.26693138376E+02  0.29644269172E+02  0.46142318506E+02  0.10000006791E+02 0.  0.
        -12    1    1    2    0    0  0.20923840235E+02 -0.26693138376E+02 -0.29644269172E+02  0.45045681494E+02  0.00000000000E+00 0.  1.
         11    1    3    3    0    0 -0.10011474984E+01  0.44266647822E+00 -0.39939883672E+00  0.11652337175E+01  0.51100000000E-03 0.  1.
        -11    1    3    3    0    0 -0.19214649663E+02  0.22344888177E+02  0.25822985213E+02  0.39183202458E+02  0.51100000000E-03 0. -1.
         12    1    3    3    0    0 -0.70804307370E+00  0.39055837207E+01  0.42206827961E+01  0.57938823305E+01  0.00000000000E+00 0. -1.
</event>
<event>
 7    1  0.4623443E-009  0.4614232E+02  0.7816164E-02  0.1320468E+00
        -11   -1    0    0    0    0  0.00000000000E+00  0.00000000000E+00  0.45593999997E+02  0.45594000000E+02  0.51100000000E-03 0. -1.
         11   -1    0    0    0    0 -0.00000000000E+00 -0.00000000000E+00 -0.45593999997E+02  0.45594000000E+02  0.51100000000E-03 0.  1.
    9900012    2    1    2    0    0 -0.22335379764E+02  0.83613431015E+01  0.38214291465E+02  0.46142319632E+02  0.10000017062E+02 0.  0.
        -12    1    1    2    0    0  0.22335379764E+02 -0.83613431015E+01 -0.38214291465E+02  0.45045680368E+02  0.00000000000E+00 0.  1.
         11    1    3    3    0    0 -0.71781964918E+01  0.35548416725E+00  0.79040574283E+01  0.10683023821E+02  0.51100000000E-03 0. -1.
        -11    1    3    3    0    0 -0.37675153308E+00  0.14001092340E+01  0.65452583003E+01  0.67039282561E+01  0.51100000000E-03 0.  1.
        -12    1    3    3    0    0 -0.14780431739E+02  0.66057497002E+01  0.23764975736E+02  0.28755367555E+02  0.00000000000E+00 0.  1.
</event>
<event>
 7    1  0.4623443E-009  0.4614232E+02  0.7816164E-02  0.1320468E+00
        -11   -1    0    0    0    0  0.00000000000E+00  0.00000000000E+00  0.45593999997E+02  0.45594000000E+02  0.51100000000E-03 0. -1.
         11   -1    0    0    0    0 -0.00000000000E+00 -0.00000000000E+00 -0.45593999997E+02  0.45594000000E+02  0.51100000000E-03 0.  1.
    9900012    2    1    2    0    0 -0.34582030403E+02  0.18303318593E+02  0.22320062932E+02  0.46142317548E+02  0.99999980541E+01 0.  0.
        -12    1    1    2    0    0  0.34582030403E+02 -0.18303318593E+02 -0.22320062932E+02  0.45045682452E+02  0.00000000000E+00 0.  1.
         11    1    3    3    0    0 -0.80572327078E+01  0.61351755926E+01  0.85341830106E+01  0.13243551577E+02  0.51100000000E-03 0. -1.
        -11    1    3    3    0    0 -0.17831979531E+02  0.62242470898E+01  0.11532824016E+02  0.22129771257E+02  0.51100000000E-03 0.  1.
        -12    1    3    3    0    0 -0.86928181641E+01  0.59438959109E+01  0.22530559052E+01  0.10768994714E+02  0.00000000000E+00 0.  1.
</event>
<event>
 7    1  0.4623443E-009  0.4614232E+02  0.7816164E-02  0.1320468E+00
        -11   -1    0    0    0    0  0.00000000000E+00  0.00000000000E+00  0.45593999997E+02  0.45594000000E+02  0.51100000000E-03 0. -1.
         11   -1    0    0    0    0 -0.00000000000E+00 -0.00000000000E+00 -0.45593999997E+02  0.45594000000E+02  0.51100000000E-03 0.  1.
    9900012    2    1    2    0    0  0.43868969616E+01 -0.43208617662E+02 -0.11953409985E+02  0.46142317460E+02  0.99999972571E+01 0.  0.
         12    1    1    2    0    0 -0.43868969616E+01  0.43208617662E+02  0.11953409985E+02  0.45045682540E+02  0.00000000000E+00 0. -1.
         11    1    3    3    0    0  0.26301505514E+01 -0.94547368146E+01 -0.89357415055E+00  0.98543500638E+01  0.51100000000E-03 0. -1.
        -11    1    3    3    0    0  0.23126059995E+01 -0.30231372730E+02 -0.74666388891E+01  0.31225546276E+02  0.51100000000E-03 0.  1.
        -12    1    3    3    0    0 -0.55585958933E+00 -0.35225081173E+01 -0.35931969450E+01  0.50624211209E+01  0.00000000000E+00 0.  1.
</event>
<event>
 7    1  0.4623443E-009  0.4614232E+02  0.7816164E-02  0.1320468E+00
        -11   -1    0    0    0    0  0.00000000000E+00  0.00000000000E+00  0.45593999997E+02  0.45594000000E+02  0.51100000000E-03 0. -1.
         11   -1    0    0    0    0 -0.00000000000E+00 -0.00000000000E+00 -0.45593999997E+02  0.45594000000E+02  0.51100000000E-03 0.  1.
    9900012    2    1    2    0    0  0.36032829053E+02  0.14564057142E+02  0.22773589308E+02  0.46142324293E+02  0.10000059559E+02 0.  0.
        -12    1    1    2    0    0 -0.36032829053E+02 -0.14564057142E+02 -0.22773589308E+02  0.45045675707E+02  0.00000000000E+00 0.  1.
         11    1    3    3    0    0  0.13270271971E+02  0.26956415728E+01  0.75597322359E+01  0.15508583217E+02  0.51100000000E-03 0. -1.
        -11    1    3    3    0    0  0.17634422257E+02  0.56918112589E+01  0.99331215096E+01  0.21024663301E+02  0.51100000000E-03 0.  1.
        -12    1    3    3    0    0  0.51281348249E+01  0.61766043099E+01  0.52807355629E+01  0.96090777741E+01  0.00000000000E+00 0.  1.
</event>
<event>
 7    1  0.4623443E-009  0.4614232E+02  0.7816164E-02  0.1320468E+00
        -11   -1    0    0    0    0  0.00000000000E+00  0.00000000000E+00  0.45593999997E+02  0.45594000000E+02  0.51100000000E-03 0. -1.
         11   -1    0    0    0    0 -0.00000000000E+00 -0.00000000000E+00 -0.45593999997E+02  0.45594000000E+02  0.51100000000E-03 0.  1.
    9900012    2    1    2    0    0  0.33259596037E+02 -0.41173304842E+01 -0.30099175506E+02  0.46142317576E+02  0.99999983163E+01 0.  0.
         12    1    1    2    0    0 -0.33259596037E+02  0.41173304842E+01  0.30099175506E+02  0.45045682424E+02  0.00000000000E+00 0. -1.
         11    1    3    3    0    0  0.39529917502E+01 -0.39012796298E+01 -0.52518580548E+01  0.76438301797E+01  0.51100000000E-03 0. -1.
        -11    1    3    3    0    0  0.47027555050E+01 -0.31957859357E+00 -0.29443394128E+01  0.55576231121E+01  0.51100000000E-03 0.  1.
        -12    1    3    3    0    0  0.24603848782E+02  0.10352773915E+00 -0.21902978038E+02  0.32940864285E+02  0.00000000000E+00 0.  1.
</event>
<event>
 7    1  0.4623443E-009  0.4614232E+02  0.7816164E-02  0.1320468E+00
        -11   -1    0    0    0    0  0.00000000000E+00  0.00000000000E+00  0.45593999997E+02  0.45594000000E+02  0.51100000000E-03 0. -1.
         11   -1    0    0    0    0 -0.00000000000E+00 -0.00000000000E+00 -0.45593999997E+02  0.45594000000E+02  0.51100000000E-03 0.  1.
    9900012    2    1    2    0    0  0.74812538563E+01  0.30861211865E+02 -0.31948864995E+02  0.46142317282E+02  0.99999956341E+01 0.  0.
         12    1    1    2    0    0 -0.74812538563E+01 -0.30861211865E+02  0.31948864995E+02  0.45045682718E+02  0.00000000000E+00 0. -1.
         11    1    3    3    0    0  0.50458043251E+01  0.19088188240E+02 -0.25415570897E+02  0.32183385712E+02  0.51100000000E-03 0. -1.
        -11    1    3    3    0    0  0.19655447141E+01  0.93290887238E+01 -0.63674440150E+01  0.11464711335E+02  0.51100000000E-03 0.  1.
         12    1    3    3    0    0  0.46990481708E+00  0.24439349008E+01 -0.16585008311E+00  0.24942202362E+01  0.00000000000E+00 0. -1.
</event>
<event>
 7    1  0.4623443E-009  0.4614232E+02  0.7816164E-02  0.1320468E+00
        -11   -1    0    0    0    0  0.00000000000E+00  0.00000000000E+00  0.45593999997E+02  0.45594000000E+02  0.51100000000E-03 0. -1.
         11   -1    0    0    0    0 -0.00000000000E+00 -0.00000000000E+00 -0.45593999997E+02  0.45594000000E+02  0.51100000000E-03 0.  1.
    9900012    2    1    2    0    0 -0.11644321133E+02  0.24700274757E+02  0.35824850645E+02  0.46142315285E+02  0.99999774192E+01 0.  0.
        -12    1    1    2    0    0  0.11644321133E+02 -0.24700274757E+02 -0.35824850645E+02  0.45045684715E+02  0.00000000000E+00 0.  1.
         11    1    3    3    0    0 -0.69890421211E+01  0.94336216545E+01  0.12905299001E+02  0.17446680769E+02  0.51100000000E-03 0. -1.
        -11    1    3    3    0    0 -0.44296989233E+01  0.11209571937E+02  0.20973826067E+02  0.24190455054E+02  0.51100000000E-03 0.  1.
        -12    1    3    3    0    0 -0.22558008895E+00  0.40570811658E+01  0.19457255762E+01  0.45051794615E+01  0.00000000000E+00 0.  1.
</event>
<event>
 7    1  0.4623443E-009  0.4614232E+02  0.7816164E-02  0.1320468E+00
        -11   -1    0    0    0    0  0.00000000000E+00  0.00000000000E+00  0.45593999997E+02  0.45594000000E+02  0.51100000000E-03 0. -1.
         11   -1    0    0    0    0 -0.00000000000E+00 -0.00000000000E+00 -0.45593999997E+02  0.45594000000E+02  0.51100000000E-03 0.  1.
    9900012    2    1    2    0    0 -0.43465424712E+02  0.18086770377E+01  0.11687563363E+02  0.46142316574E+02  0.99999891726E+01 0.  0.
        -12    1    1    2    0    0  0.43465424712E+02 -0.18086770377E+01 -0.11687563363E+02  0.45045683426E+02  0.00000000000E+00 0.  1.
         11    1    3    3    0    0 -0.70598533250E+01  0.27262798014E+01  0.14779772251E+01  0.77109368734E+01  0.51100000000E-03 0. -1.
        -11    1    3    3    0    0 -0.19105862099E+02  0.69464351846E+00  0.86580287736E+01  0.20987566764E+02  0.51100000000E-03 0.  1.
        -12    1    3    3    0    0 -0.17299709287E+02 -0.16122462822E+01  0.15515573638E+01  0.17443812936E+02  0.00000000000E+00 0.  1.
</event>
<event>
 7    1  0.4623443E-009  0.4614232E+02  0.7816164E-02  0.1320468E+00
        -11   -1    0    0    0    0  0.00000000000E+00  0.00000000000E+00  0.45593999997E+02  0.45594000000E+02  0.51100000000E-03 0. -1.
         11   -1    0    0    0    0 -0.00000000000E+00 -0.00000000000E+00 -0.45593999997E+02  0.45594000000E+02  0.51100000000E-03 0.  1.
    9900012    2    1    2    0    0  0.16597957661E+02 -0.89219395640E+01  0.40914795058E+02  0.46142315870E+02  0.99999827547E+01 0.  0.
        -12    1    1    2    0    0 -0.16597957661E+02  0.89219395640E+01 -0.40914795058E+02  0.45045684130E+02  0.00000000000E+00 0.  1.
         11    1    3    3    0    0  0.49755021545E+00 -0.71021895394E+00  0.91615837058E+01  0.92025313603E+01  0.51100000000E-03 0. -1.
        -11    1    3    3    0    0  0.11034250140E+01 -0.22162002910E+01  0.65852022444E+01  0.70351957580E+01  0.51100000000E-03 0.  1.
        -12    1    3    3    0    0  0.14996982432E+02 -0.59955203191E+01  0.25168009108E+02  0.29904588752E+02  0.00000000000E+00 0.  1.
</event>
<event>
 7    1  0.4623443E-009  0.4614232E+02  0.7816164E-02  0.1320468E+00
        -11   -1    0    0    0    0  0.00000000000E+00  0.00000000000E+00  0.45593999997E+02  0.45594000000E+02  0.51100000000E-03 0. -1.
         11   -1    0    0    0    0 -0.00000000000E+00 -0.00000000000E+00 -0.45593999997E+02  0.45594000000E+02  0.51100000000E-03 0.  1.
    9900012    2    1    2    0    0  0.27507291166E+02  0.13824269970E+02  0.32883915743E+02  0.46142318497E+02  0.10000006707E+02 0.  0.
        -12    1    1    2    0    0 -0.27507291166E+02 -0.13824269970E+02 -0.32883915743E+02  0.45045681503E+02  0.00000000000E+00 0.  1.
         11    1    3    3    0    0  0.22184723712E+02  0.77759600218E+01  0.24953039281E+02  0.34282381628E+02  0.51100000000E-03 0. -1.
        -11    1    3    3    0    0  0.52420619411E+01  0.38067918295E+01  0.66172567518E+01  0.92606136194E+01  0.51100000000E-03 0.  1.
        -12    1    3    3    0    0  0.80505513641E-01  0.22415181188E+01  0.13136197098E+01  0.25993232497E+01  0.00000000000E+00 0.  1.
</event>
<event>
 7    1  0.4623443E-009  0.4614232E+02  0.7816164E-02  0.1320468E+00
        -11   -1    0    0    0    0  0.00000000000E+00  0.00000000000E+00  0.45593999997E+02  0.45594000000E+02  0.51100000000E-03 0. -1.
         11   -1    0    0    0    0 -0.00000000000E+00 -0.00000000000E+00 -0.45593999997E+02  0.45594000000E+02  0.51100000000E-03 0.  1.
    9900012    2    1    2    0    0 -0.18170559116E+02 -0.25167005646E+02  0.32643009507E+02  0.46142318060E+02  0.10000002723E+02 0.  0.
        -12    1    1    2    0    0  0.18170559116E+02  0.25167005646E+02 -0.32643009507E+02  0.45045681940E+02  0.00000000000E+00 0.  1.
         11    1    3    3    0    0 -0.93719734796E+01 -0.80050243178E+01  0.88545869408E+01  0.15176231791E+02  0.51100000000E-03 0. -1.
        -11    1    3    3    0    0 -0.77743611204E+01 -0.12552976656E+02  0.20270760515E+02  0.25078310268E+02  0.51100000000E-03 0.  1.
        -12    1    3    3    0    0 -0.10242245161E+01 -0.46090046722E+01  0.35176620508E+01  0.58877760004E+01  0.00000000000E+00 0.  1.
</event>
<event>
 7    1  0.4623443E-009  0.4614232E+02  0.7816164E-02  0.1320468E+00
        -11   -1    0    0    0    0  0.00000000000E+00  0.00000000000E+00  0.45593999997E+02  0.45594000000E+02  0.51100000000E-03 0. -1.
         11   -1    0    0    0    0 -0.00000000000E+00 -0.00000000000E+00 -0.45593999997E+02  0.45594000000E+02  0.51100000000E-03 0.  1.
    9900012    2    1    2    0    0 -0.20936003094E+02 -0.96866389981E+01 -0.38690649780E+02  0.46142316732E+02  0.99999906172E+01 0.  0.
         12    1    1    2    0    0  0.20936003094E+02  0.96866389981E+01  0.38690649780E+02  0.45045683268E+02  0.00000000000E+00 0. -1.
         11    1    3    3    0    0 -0.12934852375E+02 -0.22717173487E+01 -0.26718962728E+02  0.29772035120E+02  0.51100000000E-03 0. -1.
        -11    1    3    3    0    0 -0.23177040924E+01 -0.95229934801E+00 -0.34006184200E+01  0.42240776754E+01  0.51100000000E-03 0.  1.
         12    1    3    3    0    0 -0.56834466265E+01 -0.64626223014E+01 -0.85710686326E+01  0.12146203937E+02  0.00000000000E+00 0. -1.
</event>
<event>
 7    1  0.4623443E-009  0.4614232E+02  0.7816164E-02  0.1320468E+00
        -11   -1    0    0    0    0  0.00000000000E+00  0.00000000000E+00  0.45593999997E+02  0.45594000000E+02  0.51100000000E-03 0. -1.
         11   -1    0    0    0    0 -0.00000000000E+00 -0.00000000000E+00 -0.45593999997E+02  0.45594000000E+02  0.51100000000E-03 0.  1.
    9900012    2    1    2    0    0  0.27558843373E+02 -0.16086176400E+01  0.35595448807E+02  0.46142317914E+02  0.10000001397E+02 0.  0.
        -12    1    1    2    0    0 -0.27558843373E+02  0.16086176400E+01 -0.35595448807E+02  0.45045682086E+02  0.00000000000E+00 0.  1.
         11    1    3    3    0    0  0.17542456137E+00 -0.51440507794E+00  0.47124637444E+01  0.47437012095E+01  0.51100000000E-03 0. -1.
        -11    1    3    3    0    0  0.18951928865E+02 -0.27130722407E+00  0.23237658776E+02  0.29987297327E+02  0.51100000000E-03 0.  1.
        -12    1    3    3    0    0  0.84314899466E+01 -0.82290533803E+00  0.76453262867E+01  0.11411319378E+02  0.00000000000E+00 0.  1.
</event>
<event>
 7    1  0.4623443E-009  0.4614232E+02  0.7816164E-02  0.1320468E+00
        -11   -1    0    0    0    0  0.00000000000E+00  0.00000000000E+00  0.45593999997E+02  0.45594000000E+02  0.51100000000E-03 0. -1.
         11   -1    0    0    0    0 -0.00000000000E+00 -0.00000000000E+00 -0.45593999997E+02  0.45594000000E+02  0.51100000000E-03 0.  1.
    9900012    2    1    2    0    0 -0.28126778621E+01  0.21659933952E+02 -0.39396060369E+02  0.46142317986E+02  0.10000002046E+02 0.  0.
         12    1    1    2    0    0  0.28126778621E+01 -0.21659933952E+02  0.39396060369E+02  0.45045682014E+02  0.00000000000E+00 0. -1.
         11    1    3    3    0    0 -0.18220454251E+01  0.83236972113E+01 -0.16204914657E+02  0.18308551120E+02  0.51100000000E-03 0. -1.
        -11    1    3    3    0    0 -0.21424479867E+01  0.10501033382E+01 -0.75073805224E+01  0.78774083915E+01  0.51100000000E-03 0.  1.
         12    1    3    3    0    0  0.11518155497E+01  0.12286133402E+02 -0.15683765190E+02  0.19956358474E+02  0.00000000000E+00 0. -1.
</event>
<event>
 7    1  0.4623443E-009  0.4614231E+02  0.7816164E-02  0.1320468E+00
        -11   -1    0    0    0    0  0.00000000000E+00  0.00000000000E+00  0.45593999997E+02  0.45594000000E+02  0.51100000000E-03 0. -1.
         11   -1    0    0    0    0 -0.00000000000E+00 -0.00000000000E+00 -0.45593999997E+02  0.45594000000E+02  0.51100000000E-03 0.  1.
    9900012    2    1    2    0    0 -0.75999909680E+01 -0.23280679612E+02  0.37806933207E+02  0.46142310923E+02  0.99999376411E+01 0.  0.
        -12    1    1    2    0    0  0.75999909680E+01  0.23280679612E+02 -0.37806933207E+02  0.45045689077E+02  0.00000000000E+00 0.  1.
         11    1    3    3    0    0  0.22751933145E+01 -0.42497591034E+01  0.74647988147E+01  0.88859540096E+01  0.51100000000E-03 0.  1.
        -11    1    3    3    0    0 -0.32583123291E+01 -0.53048894414E+01  0.10922490580E+02  0.12572161785E+02  0.51100000000E-03 0. -1.
        -12    1    3    3    0    0 -0.66168719534E+01 -0.13726031067E+02  0.19419643813E+02  0.24684195128E+02  0.00000000000E+00 0.  1.
</event>
<event>
 7    1  0.4623443E-009  0.4614232E+02  0.7816164E-02  0.1320468E+00
        -11   -1    0    0    0    0  0.00000000000E+00  0.00000000000E+00  0.45593999997E+02  0.45594000000E+02  0.51100000000E-03 0. -1.
         11   -1    0    0    0    0 -0.00000000000E+00 -0.00000000000E+00 -0.45593999997E+02  0.45594000000E+02  0.51100000000E-03 0.  1.
    9900012    2    1    2    0    0 -0.31635032333E+02 -0.31633890493E+02  0.52569217226E+01  0.46142317360E+02  0.99999963446E+01 0.  0.
        -12    1    1    2    0    0  0.31635032333E+02  0.31633890493E+02 -0.52569217226E+01  0.45045682640E+02  0.00000000000E+00 0.  1.
         11    1    3    3    0    0 -0.49044919727E+01 -0.50098928283E+01  0.27426679047E+01  0.75282996193E+01  0.51100000000E-03 0. -1.
        -11    1    3    3    0    0  0.43037098484E+00 -0.72888820695E+00  0.60139200503E+00  0.10383495595E+01  0.51100000000E-03 0.  1.
        -12    1    3    3    0    0 -0.27160911345E+02 -0.25895109458E+02  0.19128618129E+01  0.37575668181E+02  0.00000000000E+00 0.  1.
</event>
<event>
 7    1  0.4623443E-009  0.4614232E+02  0.7816164E-02  0.1320468E+00
        -11   -1    0    0    0    0  0.00000000000E+00  0.00000000000E+00  0.45593999997E+02  0.45594000000E+02  0.51100000000E-03 0.  1.
         11   -1    0    0    0    0 -0.00000000000E+00 -0.00000000000E+00 -0.45593999997E+02  0.45594000000E+02  0.51100000000E-03 0. -1.
    9900012    2    1    2    0    0 -0.15366804483E+02  0.34938938654E+02 -0.23921646261E+02  0.46142320139E+02  0.10000021686E+02 0.  0.
        -12    1    1    2    0    0  0.15366804483E+02 -0.34938938654E+02  0.23921646261E+02  0.45045679861E+02  0.00000000000E+00 0.  1.
         11    1    3    3    0    0 -0.55982708179E+01  0.12866592227E+02 -0.11450349958E+02  0.18110779831E+02  0.51100000000E-03 0. -1.
        -11    1    3    3    0    0 -0.10345978588E+02  0.16320284506E+02 -0.96417117810E+01  0.21595220898E+02  0.51100000000E-03 0.  1.
        -12    1    3    3    0    0  0.57744492269E+00  0.57520619211E+01 -0.28295845221E+01  0.64363194103E+01  0.00000000000E+00 0.  1.
</event>
<event>
 7    1  0.4623443E-009  0.4614232E+02  0.7816164E-02  0.1320468E+00
        -11   -1    0    0    0    0  0.00000000000E+00  0.00000000000E+00  0.45593999997E+02  0.45594000000E+02  0.51100000000E-03 0. -1.
         11   -1    0    0    0    0 -0.00000000000E+00 -0.00000000000E+00 -0.45593999997E+02  0.45594000000E+02  0.51100000000E-03 0.  1.
    9900012    2    1    2    0    0  0.10544654045E+02 -0.32456104354E+02  0.29402806939E+02  0.46142317691E+02  0.99999993617E+01 0.  0.
        -12    1    1    2    0    0 -0.10544654045E+02  0.32456104354E+02 -0.29402806939E+02  0.45045682309E+02  0.00000000000E+00 0.  1.
         11    1    3    3    0    0  0.26740910342E+01 -0.17514632376E+02  0.10416041992E+02  0.20552543423E+02  0.51100000000E-03 0. -1.
        -11    1    3    3    0    0  0.46751363211E+01 -0.69332870849E+01  0.75445435985E+01  0.11262659890E+02  0.51100000000E-03 0.  1.
         12    1    3    3    0    0  0.31954266899E+01 -0.80081848935E+01  0.11442221348E+02  0.14327114378E+02  0.00000000000E+00 0. -1.
</event>
<event>
 7    1  0.4623443E-009  0.4614232E+02  0.7816164E-02  0.1320468E+00
        -11   -1    0    0    0    0  0.00000000000E+00  0.00000000000E+00  0.45593999997E+02  0.45594000000E+02  0.51100000000E-03 0.  1.
         11   -1    0    0    0    0 -0.00000000000E+00 -0.00000000000E+00 -0.45593999997E+02  0.45594000000E+02  0.51100000000E-03 0. -1.
    9900012    2    1    2    0    0  0.28962327345E+02  0.33893253241E+02  0.64455021450E+01  0.46142317428E+02  0.99999969597E+01 0.  0.
         12    1    1    2    0    0 -0.28962327345E+02 -0.33893253241E+02 -0.64455021450E+01  0.45045682572E+02  0.00000000000E+00 0. -1.
         11    1    3    3    0    0  0.12043439992E+01  0.38102584914E+00  0.11132104837E+01  0.16837051429E+01  0.51100000000E-03 0. -1.
        -11    1    3    3    0    0  0.11543104831E+01  0.15727989061E+01  0.19420860206E+01  0.27527854008E+01  0.51100000000E-03 0.  1.
        -12    1    3    3    0    0  0.26603672863E+02  0.31939428486E+02  0.33902056407E+01  0.41705826884E+02  0.00000000000E+00 0.  1.
</event>
<event>
 7    1  0.4623443E-009  0.4614232E+02  0.7816164E-02  0.1320468E+00
        -11   -1    0    0    0    0  0.00000000000E+00  0.00000000000E+00  0.45593999997E+02  0.45594000000E+02  0.51100000000E-03 0.  1.
         11   -1    0    0    0    0 -0.00000000000E+00 -0.00000000000E+00 -0.45593999997E+02  0.45594000000E+02  0.51100000000E-03 0. -1.
    9900012    2    1    2    0    0  0.28814419418E+02  0.26219274553E+02  0.22613981538E+02  0.46142320013E+02  0.10000020535E+02 0.  0.
         12    1    1    2    0    0 -0.28814419418E+02 -0.26219274553E+02 -0.22613981538E+02  0.45045679987E+02  0.00000000000E+00 0. -1.
         11    1    3    3    0    0  0.76501520201E+01  0.44922440311E+01  0.79997285882E+01  0.11945741505E+02  0.51100000000E-03 0. -1.
        -11    1    3    3    0    0  0.19938524906E+02  0.18580540976E+02  0.14371492313E+02  0.30811054346E+02  0.51100000000E-03 0.  1.
         12    1    3    3    0    0  0.12257424920E+01  0.31464895462E+01  0.24276063717E+00  0.33855241614E+01  0.00000000000E+00 0. -1.
</event>
<event>
 7    1  0.4623443E-009  0.4614232E+02  0.7816164E-02  0.1320468E+00
        -11   -1    0    0    0    0  0.00000000000E+00  0.00000000000E+00  0.45593999997E+02  0.45594000000E+02  0.51100000000E-03 0.  1.
         11   -1    0    0    0    0 -0.00000000000E+00 -0.00000000000E+00 -0.45593999997E+02  0.45594000000E+02  0.51100000000E-03 0. -1.
    9900012    2    1    2    0    0 -0.43401276759E+02 -0.16893238278E+01  0.11941049180E+02  0.46142319910E+02  0.10000019594E+02 0.  0.
        -12    1    1    2    0    0  0.43401276759E+02  0.16893238278E+01 -0.11941049180E+02  0.45045680090E+02  0.00000000000E+00 0.  1.
         11    1    3    3    0    0 -0.36058652554E+01  0.10844834776E+01 -0.33148888861E+00  0.37799806610E+01  0.51100000000E-03 0. -1.
        -11    1    3    3    0    0 -0.25794483961E+02 -0.24898970579E+01  0.43626734761E+01  0.26279039372E+02  0.51100000000E-03 0.  1.
         12    1    3    3    0    0 -0.14000927542E+02 -0.28391024749E+00  0.79098645923E+01  0.16083299877E+02  0.00000000000E+00 0. -1.
</event>
<event>
 7    1  0.4623443E-009  0.4614232E+02  0.7816164E-02  0.1320468E+00
        -11   -1    0    0    0    0  0.00000000000E+00  0.00000000000E+00  0.45593999997E+02  0.45594000000E+02  0.51100000000E-03 0. -1.
         11   -1    0    0    0    0 -0.00000000000E+00 -0.00000000000E+00 -0.45593999997E+02  0.45594000000E+02  0.51100000000E-03 0.  1.
    9900012    2    1    2    0    0 -0.60056862812E+01  0.12750577867E+02  0.42783968638E+02  0.46142317898E+02  0.10000001248E+02 0.  0.
        -12    1    1    2    0    0  0.60056862812E+01 -0.12750577867E+02 -0.42783968638E+02  0.45045682102E+02  0.00000000000E+00 0.  1.
         11    1    3    3    0    0 -0.15516672582E+01  0.50721278381E+00  0.43243874343E+01  0.46222573524E+01  0.51100000000E-03 0. -1.
        -11    1    3    3    0    0 -0.23354048908E+01  0.79538618553E+01  0.33943394016E+02  0.34940979265E+02  0.51100000000E-03 0.  1.
        -12    1    3    3    0    0 -0.21186141323E+01  0.42895032280E+01  0.45161871870E+01  0.65790812803E+01  0.00000000000E+00 0.  1.
</event>
<event>
 7    1  0.4623443E-009  0.4614232E+02  0.7816164E-02  0.1320468E+00
        -11   -1    0    0    0    0  0.00000000000E+00  0.00000000000E+00  0.45593999997E+02  0.45594000000E+02  0.51100000000E-03 0. -1.
         11   -1    0    0    0    0 -0.00000000000E+00 -0.00000000000E+00 -0.45593999997E+02  0.45594000000E+02  0.51100000000E-03 0.  1.
    9900012    2    1    2    0    0  0.41010439895E+01  0.71617308028E+01 -0.44283231408E+02  0.46142317256E+02  0.99999953976E+01 0.  0.
         12    1    1    2    0    0 -0.41010439895E+01 -0.71617308028E+01  0.44283231408E+02  0.45045682744E+02  0.00000000000E+00 0. -1.
         11    1    3    3    0    0  0.27155831194E+01  0.29613907316E+01 -0.80450268946E+01  0.89925905466E+01  0.51100000000E-03 0. -1.
        -11    1    3    3    0    0  0.29461018050E+01  0.30234104593E+01 -0.33611369652E+02  0.33875429102E+02  0.51100000000E-03 0.  1.
         12    1    3    3    0    0 -0.15606409348E+01  0.11769296120E+01 -0.26268348611E+01  0.32742976081E+01  0.00000000000E+00 0. -1.
</event>
<event>
 7    1  0.4623443E-009  0.4614232E+02  0.7816164E-02  0.1320468E+00
        -11   -1    0    0    0    0  0.00000000000E+00  0.00000000000E+00  0.45593999997E+02  0.45594000000E+02  0.51100000000E-03 0.  1.
         11   -1    0    0    0    0 -0.00000000000E+00 -0.00000000000E+00 -0.45593999997E+02  0.45594000000E+02  0.51100000000E-03 0. -1.
    9900012    2    1    2    0    0 -0.22745426112E+02 -0.37258076257E+02  0.11117319648E+02  0.46142318170E+02  0.10000003729E+02 0.  0.
        -12    1    1    2    0    0  0.22745426112E+02  0.37258076257E+02 -0.11117319648E+02  0.45045681830E+02  0.00000000000E+00 0.  1.
         11    1    3    3    0    0 -0.52863130093E+01 -0.86651651628E+01  0.26247270852E+01  0.10484244611E+02  0.51100000000E-03 0. -1.
        -11    1    3    3    0    0 -0.11643161038E+01 -0.53315780396E+01  0.43034714972E+01  0.69499081699E+01  0.51100000000E-03 0.  1.
         12    1    3    3    0    0 -0.16294796999E+02 -0.23261333055E+02  0.41891210652E+01  0.28708165389E+02  0.00000000000E+00 0. -1.
</event>
<event>
 7    1  0.4623443E-009  0.4614232E+02  0.7816164E-02  0.1320468E+00
        -11   -1    0    0    0    0  0.00000000000E+00  0.00000000000E+00  0.45593999997E+02  0.45594000000E+02  0.51100000000E-03 0. -1.
         11   -1    0    0    0    0 -0.00000000000E+00 -0.00000000000E+00 -0.45593999997E+02  0.45594000000E+02  0.51100000000E-03 0.  1.
    9900012    2    1    2    0    0  0.13663557406E+02  0.83661114510E+01 -0.42100224071E+02  0.46142317758E+02  0.99999999704E+01 0.  0.
         12    1    1    2    0    0 -0.13663557406E+02 -0.83661114510E+01  0.42100224071E+02  0.45045682242E+02  0.00000000000E+00 0. -1.
         11    1    3    3    0    0  0.16100127614E+01 -0.15457501802E+01 -0.72696880615E+01  0.76045939723E+01  0.51100000000E-03 0. -1.
        -11    1    3    3    0    0  0.11104087593E+02  0.78426959921E+01 -0.25106514154E+02  0.28550756469E+02  0.51100000000E-03 0.  1.
        -12    1    3    3    0    0  0.94945705106E+00  0.20691656391E+01 -0.97240218557E+01  0.99869673167E+01  0.00000000000E+00 0.  1.
</event>
<event>
 7    1  0.5356191E-009  0.4614232E+02  0.7816164E-02  0.1320468E+00
        -11   -1    0    0    0    0  0.00000000000E+00  0.00000000000E+00  0.45593999997E+02  0.45594000000E+02  0.51100000000E-03 0. -1.
         11   -1    0    0    0    0 -0.00000000000E+00 -0.00000000000E+00 -0.45593999997E+02  0.45594000000E+02  0.51100000000E-03 0.  1.
    9900012    2    1    2    0    0  0.24465330101E+02 -0.74956643859E+01 -0.37072579042E+02  0.46142317872E+02  0.10000001011E+02 0.  0.
         12    1    1    2    0    0 -0.24465330101E+02  0.74956643859E+01  0.37072579042E+02  0.45045682128E+02  0.00000000000E+00 0. -1.
         11    1    3    3    0    0  0.31312658893E+01  0.10090606928E+01 -0.85739460559E+01  0.91834405743E+01  0.51100000000E-03 0. -1.
        -11    1    3    3    0    0  0.85758243620E+01 -0.33473571600E+01 -0.15507958326E+02  0.18034587191E+02  0.51100000000E-03 0.  1.
         12    1    3    3    0    0  0.12758239850E+02 -0.51573679187E+01 -0.12990674660E+02  0.18924290107E+02  0.00000000000E+00 0. -1.
</event>
<event>
 7    1  0.4623443E-009  0.4614233E+02  0.7816164E-02  0.1320468E+00
        -11   -1    0    0    0    0  0.00000000000E+00  0.00000000000E+00  0.45593999997E+02  0.45594000000E+02  0.51100000000E-03 0. -1.
         11   -1    0    0    0    0 -0.00000000000E+00 -0.00000000000E+00 -0.45593999997E+02  0.45594000000E+02  0.51100000000E-03 0.  1.
    9900012    2    1    2    0    0  0.13160210363E+02 -0.12690328549E+02  0.41168884811E+02  0.46142327044E+02  0.10000084651E+02 0.  0.
        -12    1    1    2    0    0 -0.13160210363E+02  0.12690328549E+02 -0.41168884811E+02  0.45045672956E+02  0.00000000000E+00 0.  1.
         11    1    3    3    0    0  0.75201984252E+01 -0.70315039760E+01  0.13792744623E+02  0.17211485613E+02  0.51100000000E-03 0. -1.
        -11    1    3    3    0    0  0.54320448861E+01 -0.21925268443E+01  0.16127219971E+02  0.17158132470E+02  0.51100000000E-03 0.  1.
        -12    1    3    3    0    0  0.20796705133E+00 -0.34662977291E+01  0.11248920216E+02  0.11772708961E+02  0.00000000000E+00 0.  1.
</event>
<event>
 7    1  0.4623443E-009  0.4614232E+02  0.7816164E-02  0.1320468E+00
        -11   -1    0    0    0    0  0.00000000000E+00  0.00000000000E+00  0.45593999997E+02  0.45594000000E+02  0.51100000000E-03 0. -1.
         11   -1    0    0    0    0 -0.00000000000E+00 -0.00000000000E+00 -0.45593999997E+02  0.45594000000E+02  0.51100000000E-03 0.  1.
    9900012    2    1    2    0    0  0.28289412151E+02  0.19766546374E+02  0.28950066913E+02  0.46142316859E+02  0.99999917729E+01 0.  0.
        -12    1    1    2    0    0 -0.28289412151E+02 -0.19766546374E+02 -0.28950066913E+02  0.45045683141E+02  0.00000000000E+00 0.  1.
         11    1    3    3    0    0  0.22754729951E+01  0.17119157221E+01  0.36755415999E+01  0.46495203091E+01  0.51100000000E-03 0. -1.
        -11    1    3    3    0    0  0.10150074799E+01  0.40521367843E+01  0.42011582751E+01  0.59245070526E+01  0.51100000000E-03 0.  1.
        -12    1    3    3    0    0  0.24998931676E+02  0.14002493868E+02  0.21073367038E+02  0.35568289497E+02  0.00000000000E+00 0.  1.
</event>
<event>
 7    1  0.4623443E-009  0.4614232E+02  0.7816164E-02  0.1320468E+00
        -11   -1    0    0    0    0  0.00000000000E+00  0.00000000000E+00  0.45593999997E+02  0.45594000000E+02  0.51100000000E-03 0.  1.
         11   -1    0    0    0    0 -0.00000000000E+00 -0.00000000000E+00 -0.45593999997E+02  0.45594000000E+02  0.51100000000E-03 0. -1.
    9900012    2    1    2    0    0  0.30937312464E+02  0.32345951267E+02 -0.50730273290E+01  0.46142317941E+02  0.10000001641E+02 0.  0.
        -12    1    1    2    0    0 -0.30937312464E+02 -0.32345951267E+02  0.50730273290E+01  0.45045682059E+02  0.00000000000E+00 0.  1.
         11    1    3    3    0    0  0.46808626595E+01  0.70801897448E+01  0.21278092059E+00  0.84902790319E+01  0.51100000000E-03 0. -1.
        -11    1    3    3    0    0  0.22229285550E+02  0.22944177255E+02 -0.69879054094E+01  0.32701792432E+02  0.51100000000E-03 0.  1.
        -12    1    3    3    0    0  0.40271642545E+01  0.23215842666E+01  0.17020971598E+01  0.49502464768E+01  0.00000000000E+00 0.  1.
</event>
<event>
 7    1  0.4623443E-009  0.4614232E+02  0.7816164E-02  0.1320468E+00
        -11   -1    0    0    0    0  0.00000000000E+00  0.00000000000E+00  0.45593999997E+02  0.45594000000E+02  0.51100000000E-03 0. -1.
         11   -1    0    0    0    0 -0.00000000000E+00 -0.00000000000E+00 -0.45593999997E+02  0.45594000000E+02  0.51100000000E-03 0.  1.
    9900012    2    1    2    0    0  0.17572802837E+02 -0.72736119507E+01  0.40833867188E+02  0.46142317189E+02  0.99999947822E+01 0.  0.
        -12    1    1    2    0    0 -0.17572802837E+02  0.72736119507E+01 -0.40833867188E+02  0.45045682811E+02  0.00000000000E+00 0.  1.
         11    1    3    3    0    0  0.79152686359E+01 -0.36578938197E+01  0.11483311476E+02  0.14418672182E+02  0.51100000000E-03 0. -1.
        -11    1    3    3    0    0  0.77242211764E+01  0.23720618420E-01  0.16293960019E+02  0.18032118256E+02  0.51100000000E-03 0.  1.
         12    1    3    3    0    0  0.19333130251E+01 -0.36394387493E+01  0.13056595694E+02  0.13691526751E+02  0.00000000000E+00 0. -1.
</event>
<event>
 7    1  0.4623443E-009  0.4614232E+02  0.7816164E-02  0.1320468E+00
        -11   -1    0    0    0    0  0.00000000000E+00  0.00000000000E+00  0.45593999997E+02  0.45594000000E+02  0.51100000000E-03 0. -1.
         11   -1    0    0    0    0 -0.00000000000E+00 -0.00000000000E+00 -0.45593999997E+02  0.45594000000E+02  0.51100000000E-03 0.  1.
    9900012    2    1    2    0    0 -0.10596405570E+02 -0.23939182607E+02  0.36657131223E+02  0.46142317139E+02  0.99999943292E+01 0.  0.
        -12    1    1    2    0    0  0.10596405570E+02  0.23939182607E+02 -0.36657131223E+02  0.45045682861E+02  0.00000000000E+00 0.  1.
         11    1    3    3    0    0 -0.25682717162E+01 -0.35925969494E+01  0.68478739075E+01  0.81483832607E+01  0.51100000000E-03 0. -1.
        -11    1    3    3    0    0 -0.62875934767E+01 -0.81449257226E+01  0.18968428939E+02  0.21579502854E+02  0.51100000000E-03 0.  1.
        -12    1    3    3    0    0 -0.17405403771E+01 -0.12201659935E+02  0.10840828377E+02  0.16414431025E+02  0.00000000000E+00 0.  1.
</event>
<event>
 7    1  0.4623443E-009  0.4614231E+02  0.7816164E-02  0.1320468E+00
        -11   -1    0    0    0    0  0.00000000000E+00  0.00000000000E+00  0.45593999997E+02  0.45594000000E+02  0.51100000000E-03 0. -1.
         11   -1    0    0    0    0 -0.00000000000E+00 -0.00000000000E+00 -0.45593999997E+02  0.45594000000E+02  0.51100000000E-03 0.  1.
    9900012    2    1    2    0    0 -0.33126849662E+02 -0.67897091328E+01 -0.29759462307E+02  0.46142313020E+02  0.99999567705E+01 0.  0.
         12    1    1    2    0    0  0.33126849662E+02  0.67897091328E+01  0.29759462307E+02  0.45045686980E+02  0.00000000000E+00 0. -1.
         11    1    3    3    0    0 -0.90276889350E+00 -0.63560015390E+00 -0.90737359802E+00  0.14290928375E+01  0.51100000000E-03 0. -1.
        -11    1    3    3    0    0 -0.27722484378E+02 -0.41895177686E+01 -0.19505983035E+02  0.34155110505E+02  0.51100000000E-03 0.  1.
        -12    1    3    3    0    0 -0.45015963909E+01 -0.19645912103E+01 -0.93461056741E+01  0.10558109678E+02  0.00000000000E+00 0.  1.
</event>
<event>
 7    1  0.4623443E-009  0.4614232E+02  0.7816164E-02  0.1320468E+00
        -11   -1    0    0    0    0  0.00000000000E+00  0.00000000000E+00  0.45593999997E+02  0.45594000000E+02  0.51100000000E-03 0. -1.
         11   -1    0    0    0    0 -0.00000000000E+00 -0.00000000000E+00 -0.45593999997E+02  0.45594000000E+02  0.51100000000E-03 0.  1.
    9900012    2    1    2    0    0  0.11948031901E+02 -0.27439737770E+02  0.33666288240E+02  0.46142316088E+02  0.99999847472E+01 0.  0.
        -12    1    1    2    0    0 -0.11948031901E+02  0.27439737770E+02 -0.33666288240E+02  0.45045683912E+02  0.00000000000E+00 0.  1.
         11    1    3    3    0    0  0.34514183206E+01 -0.13812638185E+02  0.12429743323E+02  0.18899729664E+02  0.51100000000E-03 0. -1.
        -11    1    3    3    0    0 -0.30954990446E+00 -0.53616588627E+00 -0.17749502408E+00  0.64404949006E+00  0.51100000000E-03 0.  1.
         12    1    3    3    0    0  0.88061634848E+01 -0.13090933699E+02  0.21414039941E+02  0.26598536934E+02  0.00000000000E+00 0. -1.
</event>
<event>
 7    1  0.4623443E-009  0.4614232E+02  0.7816164E-02  0.1320468E+00
        -11   -1    0    0    0    0  0.00000000000E+00  0.00000000000E+00  0.45593999997E+02  0.45594000000E+02  0.51100000000E-03 0. -1.
         11   -1    0    0    0    0 -0.00000000000E+00 -0.00000000000E+00 -0.45593999997E+02  0.45594000000E+02  0.51100000000E-03 0.  1.
    9900012    2    1    2    0    0  0.24397978456E+02 -0.18131558290E+01 -0.37822802782E+02  0.46142319885E+02  0.10000019365E+02 0.  0.
         12    1    1    2    0    0 -0.24397978456E+02  0.18131558290E+01  0.37822802782E+02  0.45045680115E+02  0.00000000000E+00 0. -1.
         11    1    3    3    0    0  0.12751086589E+02  0.28370531482E+01 -0.15515674746E+02  0.20282387503E+02  0.51100000000E-03 0. -1.
        -11    1    3    3    0    0  0.75037201937E+01 -0.31419594790E+01 -0.10683474923E+02  0.13428118364E+02  0.51100000000E-03 0.  1.
         12    1    3    3    0    0  0.41431716729E+01 -0.15082494982E+01 -0.11623653114E+02  0.12431814017E+02  0.00000000000E+00 0. -1.
</event>
<event>
 7    1  0.4623443E-009  0.4614232E+02  0.7816164E-02  0.1320468E+00
        -11   -1    0    0    0    0  0.00000000000E+00  0.00000000000E+00  0.45593999997E+02  0.45594000000E+02  0.51100000000E-03 0. -1.
         11   -1    0    0    0    0 -0.00000000000E+00 -0.00000000000E+00 -0.45593999997E+02  0.45594000000E+02  0.51100000000E-03 0.  1.
    9900012    2    1    2    0    0  0.16439197307E+02  0.15328575494E+02  0.39037175159E+02  0.46142317863E+02  0.10000000931E+02 0.  0.
        -12    1    1    2    0    0 -0.16439197307E+02 -0.15328575494E+02 -0.39037175159E+02  0.45045682137E+02  0.00000000000E+00 0.  1.
         11    1    3    3    0    0  0.57487938660E+01  0.59781810935E+01  0.10596085976E+02  0.13456014208E+02  0.51100000000E-03 0. -1.
        -11    1    3    3    0    0  0.70448879355E+01  0.10081595038E+02  0.23226224695E+02  0.26281676476E+02  0.51100000000E-03 0.  1.
        -12    1    3    3    0    0  0.36455155058E+01 -0.73120063775E+00  0.52148644880E+01  0.64046271792E+01  0.00000000000E+00 0.  1.
</event>
<event>
 7    1  0.4623443E-009  0.4614232E+02  0.7816164E-02  0.1320468E+00
        -11   -1    0    0    0    0  0.00000000000E+00  0.00000000000E+00  0.45593999997E+02  0.45594000000E+02  0.51100000000E-03 0. -1.
         11   -1    0    0    0    0 -0.00000000000E+00 -0.00000000000E+00 -0.45593999997E+02  0.45594000000E+02  0.51100000000E-03 0.  1.
    9900012    2    1    2    0    0 -0.75781499688E+01  0.17907092730E+02 -0.40632759497E+02  0.46142317950E+02  0.10000001721E+02 0.  0.
         12    1    1    2    0    0  0.75781499688E+01 -0.17907092730E+02  0.40632759497E+02  0.45045682050E+02  0.00000000000E+00 0. -1.
         11    1    3    3    0    0 -0.10684012614E+01  0.97909665646E+01 -0.14677388504E+02  0.17675696339E+02  0.51100000000E-03 0. -1.
        -11    1    3    3    0    0 -0.25045355055E+01  0.65122526371E+01 -0.12243820196E+02  0.14092312293E+02  0.51100000000E-03 0.  1.
         12    1    3    3    0    0 -0.40052132019E+01  0.16038735287E+01 -0.13711550797E+02  0.14374309317E+02  0.00000000000E+00 0. -1.
</event>
<event>
 7    1  0.4623443E-009  0.4614232E+02  0.7816164E-02  0.1320468E+00
        -11   -1    0    0    0    0  0.00000000000E+00  0.00000000000E+00  0.45593999997E+02  0.45594000000E+02  0.51100000000E-03 0. -1.
         11   -1    0    0    0    0 -0.00000000000E+00 -0.00000000000E+00 -0.45593999997E+02  0.45594000000E+02  0.51100000000E-03 0.  1.
    9900012    2    1    2    0    0 -0.22440950458E+02  0.20124475368E+02  0.33474208522E+02  0.46142318715E+02  0.10000008696E+02 0.  0.
        -12    1    1    2    0    0  0.22440950458E+02 -0.20124475368E+02 -0.33474208522E+02  0.45045681285E+02  0.00000000000E+00 0.  1.
         11    1    3    3    0    0 -0.71338873559E+01  0.41910647264E+01  0.87794862051E+01  0.12063861348E+02  0.51100000000E-03 0. -1.
        -11    1    3    3    0    0 -0.14885987562E+02  0.14374037749E+02  0.18770870174E+02  0.27938345589E+02  0.51100000000E-03 0.  1.
         12    1    3    3    0    0 -0.42107554047E+00  0.15593728924E+01  0.59238521428E+01  0.61401117773E+01  0.00000000000E+00 0. -1.
</event>
<event>
 7    1  0.4623443E-009  0.4614232E+02  0.7816164E-02  0.1320468E+00
        -11   -1    0    0    0    0  0.00000000000E+00  0.00000000000E+00  0.45593999997E+02  0.45594000000E+02  0.51100000000E-03 0. -1.
         11   -1    0    0    0    0 -0.00000000000E+00 -0.00000000000E+00 -0.45593999997E+02  0.45594000000E+02  0.51100000000E-03 0.  1.
    9900012    2    1    2    0    0 -0.10187129419E+00 -0.34774295593E+02  0.28633047641E+02  0.46142318420E+02  0.10000006011E+02 0.  0.
        -12    1    1    2    0    0  0.10187129419E+00  0.34774295593E+02 -0.28633047641E+02  0.45045681580E+02  0.00000000000E+00 0.  1.
         11    1    3    3    0    0  0.81069706840E+00 -0.25297494208E+02  0.24815281231E+02  0.35445995906E+02  0.51100000000E-03 0. -1.
        -11    1    3    3    0    0  0.83311690662E+00 -0.54811615281E+01  0.28336872319E+01  0.62263150472E+01  0.51100000000E-03 0.  1.
        -12    1    3    3    0    0 -0.17456852692E+01 -0.39956398570E+01  0.98407917820E+00  0.44700074670E+01  0.00000000000E+00 0.  1.
</event>
<event>
 7    1  0.4623443E-009  0.4614232E+02  0.7816164E-02  0.1320468E+00
        -11   -1    0    0    0    0  0.00000000000E+00  0.00000000000E+00  0.45593999997E+02  0.45594000000E+02  0.51100000000E-03 0. -1.
         11   -1    0    0    0    0 -0.00000000000E+00 -0.00000000000E+00 -0.45593999997E+02  0.45594000000E+02  0.51100000000E-03 0.  1.
    9900012    2    1    2    0    0 -0.11965270999E+02  0.33019240836E+02  0.28207720504E+02  0.46142317948E+02  0.10000001703E+02 0.  0.
        -12    1    1    2    0    0  0.11965270999E+02 -0.33019240836E+02 -0.28207720504E+02  0.45045682052E+02  0.00000000000E+00 0.  1.
         11    1    3    3    0    0 -0.20239642692E+01  0.48845245029E+01  0.20655458925E+01  0.56763977202E+01  0.51100000000E-03 0.  1.
        -11    1    3    3    0    0 -0.86117010153E+01  0.18814484293E+02  0.13511220296E+02  0.24712330682E+02  0.51100000000E-03 0. -1.
         12    1    3    3    0    0 -0.13296057149E+01  0.93202320402E+01  0.12630954316E+02  0.15753589545E+02  0.00000000000E+00 0. -1.
</event>
<event>
 7    1  0.7402642E-009  0.4614232E+02  0.7816164E-02  0.1320468E+00
        -11   -1    0    0    0    0  0.00000000000E+00  0.00000000000E+00  0.45593999997E+02  0.45594000000E+02  0.51100000000E-03 0. -1.
         11   -1    0    0    0    0 -0.00000000000E+00 -0.00000000000E+00 -0.45593999997E+02  0.45594000000E+02  0.51100000000E-03 0.  1.
    9900012    2    1    2    0    0  0.53449698087E+01 -0.37435492786E+01 -0.44570513040E+02  0.46142317675E+02  0.99999992192E+01 0.  0.
         12    1    1    2    0    0 -0.53449698087E+01  0.37435492786E+01  0.44570513040E+02  0.45045682325E+02  0.00000000000E+00 0. -1.
         11    1    3    3    0    0  0.26593264718E+01 -0.35022680637E+00 -0.19947755361E+02  0.20127285468E+02  0.51100000000E-03 0. -1.
        -11    1    3    3    0    0  0.37876413860E+01 -0.59317350722E+00 -0.20798046367E+02  0.21148447107E+02  0.51100000000E-03 0.  1.
         12    1    3    3    0    0 -0.11019980491E+01 -0.28001489650E+01 -0.38247113114E+01  0.48665851007E+01  0.00000000000E+00 0. -1.
</event>
<event>
 7    1  0.4623443E-009  0.4614232E+02  0.7816164E-02  0.1320468E+00
        -11   -1    0    0    0    0  0.00000000000E+00  0.00000000000E+00  0.45593999997E+02  0.45594000000E+02  0.51100000000E-03 0. -1.
         11   -1    0    0    0    0 -0.00000000000E+00 -0.00000000000E+00 -0.45593999997E+02  0.45594000000E+02  0.51100000000E-03 0.  1.
    9900012    2    1    2    0    0 -0.10810860734E+02 -0.38470981496E+01  0.43559598523E+02  0.46142317660E+02  0.99999990813E+01 0.  0.
        -12    1    1    2    0    0  0.10810860734E+02  0.38470981496E+01 -0.43559598523E+02  0.45045682340E+02  0.00000000000E+00 0.  1.
         11    1    3    3    0    0 -0.48401495999E+01 -0.19154506907E+01  0.24185419974E+02  0.24739250980E+02  0.51100000000E-03 0. -1.
        -11    1    3    3    0    0  0.34353344298E+00  0.17468883631E+01  0.34542224843E+01  0.38860374949E+01  0.51100000000E-03 0.  1.
        -12    1    3    3    0    0 -0.63142445771E+01 -0.36785358220E+01  0.15919956065E+02  0.17517029185E+02  0.00000000000E+00 0.  1.
</event>
<event>
 7    1  0.4623443E-009  0.4614232E+02  0.7816164E-02  0.1320468E+00
        -11   -1    0    0    0    0  0.00000000000E+00  0.00000000000E+00  0.45593999997E+02  0.45594000000E+02  0.51100000000E-03 0. -1.
         11   -1    0    0    0    0 -0.00000000000E+00 -0.00000000000E+00 -0.45593999997E+02  0.45594000000E+02  0.51100000000E-03 0.  1.
    9900012    2    1    2    0    0 -0.17544442708E+02  0.27955746868E+02 -0.30655868162E+02  0.46142317569E+02  0.99999982503E+01 0.  0.
         12    1    1    2    0    0  0.17544442708E+02 -0.27955746868E+02  0.30655868162E+02  0.45045682431E+02  0.00000000000E+00 0. -1.
         11    1    3    3    0    0 -0.48870674394E+01  0.88317288280E+01 -0.15719359747E+02  0.18681036732E+02  0.51100000000E-03 0. -1.
        -11    1    3    3    0    0 -0.86722219222E+01  0.12826692991E+02 -0.11305003608E+02  0.19171191746E+02  0.51100000000E-03 0.  1.
         12    1    3    3    0    0 -0.39851533466E+01  0.62973250494E+01 -0.36315048067E+01  0.82900890909E+01  0.00000000000E+00 0. -1.
</event>
<event>
 7    1  0.4623443E-009  0.4614232E+02  0.7816164E-02  0.1320468E+00
        -11   -1    0    0    0    0  0.00000000000E+00  0.00000000000E+00  0.45593999997E+02  0.45594000000E+02  0.51100000000E-03 0. -1.
         11   -1    0    0    0    0 -0.00000000000E+00 -0.00000000000E+00 -0.45593999997E+02  0.45594000000E+02  0.51100000000E-03 0.  1.
    9900012    2    1    2    0    0  0.42886126444E+02  0.16545229520E+01 -0.13680505767E+02  0.46142317348E+02  0.99999962295E+01 0.  0.
         12    1    1    2    0    0 -0.42886126444E+02 -0.16545229520E+01  0.13680505767E+02  0.45045682652E+02  0.00000000000E+00 0. -1.
         11    1    3    3    0    0 -0.10727636734E+00  0.11348218841E+00 -0.74804833981E+00  0.76417472209E+00  0.51100000000E-03 0. -1.
        -11    1    3    3    0    0  0.10008946785E+02  0.30818348883E+01 -0.33499215418E+01  0.10995394337E+02  0.51100000000E-03 0.  1.
         12    1    3    3    0    0  0.32984456026E+02 -0.15407941248E+01 -0.95825358856E+01  0.34382748289E+02  0.00000000000E+00 0. -1.
</event>
<event>
 7    1  0.4623443E-009  0.4614232E+02  0.7816164E-02  0.1320468E+00
        -11   -1    0    0    0    0  0.00000000000E+00  0.00000000000E+00  0.45593999997E+02  0.45594000000E+02  0.51100000000E-03 0. -1.
         11   -1    0    0    0    0 -0.00000000000E+00 -0.00000000000E+00 -0.45593999997E+02  0.45594000000E+02  0.51100000000E-03 0.  1.
    9900012    2    1    2    0    0 -0.35809267005E+02 -0.14488199956E+02  0.23171144639E+02  0.46142317795E+02  0.10000000309E+02 0.  0.
        -12    1    1    2    0    0  0.35809267005E+02  0.14488199956E+02 -0.23171144639E+02  0.45045682205E+02  0.00000000000E+00 0.  1.
         11    1    3    3    0    0 -0.93868450383E+01 -0.22321485389E+01  0.76948961180E+01  0.12341263039E+02  0.51100000000E-03 0. -1.
        -11    1    3    3    0    0 -0.33140012162E+01  0.80009530928E+00  0.26757844202E+01  0.43338872954E+01  0.51100000000E-03 0.  1.
         12    1    3    3    0    0 -0.23108420751E+02 -0.13056146726E+02  0.12800464101E+02  0.29467167460E+02  0.00000000000E+00 0. -1.
</event>
<event>
 7    1  0.4623443E-009  0.4614232E+02  0.7816164E-02  0.1320468E+00
        -11   -1    0    0    0    0  0.00000000000E+00  0.00000000000E+00  0.45593999997E+02  0.45594000000E+02  0.51100000000E-03 0. -1.
         11   -1    0    0    0    0 -0.00000000000E+00 -0.00000000000E+00 -0.45593999997E+02  0.45594000000E+02  0.51100000000E-03 0.  1.
    9900012    2    1    2    0    0 -0.20324971773E+02 -0.17949788021E+02  0.35969628048E+02  0.46142317527E+02  0.99999978627E+01 0.  0.
        -12    1    1    2    0    0  0.20324971773E+02  0.17949788021E+02 -0.35969628048E+02  0.45045682473E+02  0.00000000000E+00 0.  1.
         11    1    3    3    0    0 -0.17324842596E+02 -0.11868097977E+02  0.28874904368E+02  0.35703809644E+02  0.51100000000E-03 0. -1.
        -11    1    3    3    0    0 -0.19803815341E+01 -0.78819538378E+00  0.29453658239E+01  0.36357039320E+01  0.51100000000E-03 0.  1.
         12    1    3    3    0    0 -0.10197476428E+01 -0.52934946602E+01  0.41493578557E+01  0.68028039504E+01  0.00000000000E+00 0. -1.
</event>
<event>
 7    1  0.4623443E-009  0.4614232E+02  0.7816164E-02  0.1320468E+00
        -11   -1    0    0    0    0  0.00000000000E+00  0.00000000000E+00  0.45593999997E+02  0.45594000000E+02  0.51100000000E-03 0.  1.
         11   -1    0    0    0    0 -0.00000000000E+00 -0.00000000000E+00 -0.45593999997E+02  0.45594000000E+02  0.51100000000E-03 0. -1.
    9900012    2    1    2    0    0  0.32579634262E+02  0.24062340233E+02  0.19715089269E+02  0.46142317287E+02  0.99999956784E+01 0.  0.
         12    1    1    2    0    0 -0.32579634262E+02 -0.24062340233E+02 -0.19715089269E+02  0.45045682713E+02  0.00000000000E+00 0. -1.
         11    1    3    3    0    0  0.48742496628E+01  0.31306448119E+01  0.32166305566E+00  0.58019577812E+01  0.51100000000E-03 0. -1.
        -11    1    3    3    0    0  0.82737251370E+01  0.43249144914E+01  0.82383951291E+01  0.12451127160E+02  0.51100000000E-03 0.  1.
        -12    1    3    3    0    0  0.19431659462E+02  0.16606780930E+02  0.11155031085E+02  0.27889232346E+02  0.00000000000E+00 0.  1.
</event>
<event>
 7    1  0.4623443E-009  0.4614232E+02  0.7816164E-02  0.1320468E+00
        -11   -1    0    0    0    0  0.00000000000E+00  0.00000000000E+00  0.45593999997E+02  0.45594000000E+02  0.51100000000E-03 0. -1.
         11   -1    0    0    0    0 -0.00000000000E+00 -0.00000000000E+00 -0.45593999997E+02  0.45594000000E+02  0.51100000000E-03 0.  1.
    9900012    2    1    2    0    0  0.31495261858E+02  0.29186389961E+02 -0.13613104502E+02  0.46142317714E+02  0.99999995671E+01 0.  0.
         12    1    1    2    0    0 -0.31495261858E+02 -0.29186389961E+02  0.13613104502E+02  0.45045682286E+02  0.00000000000E+00 0. -1.
         11    1    3    3    0    0  0.78479656298E+01  0.84017461725E+01 -0.63462092061E+01  0.13132184693E+02  0.51100000000E-03 0. -1.
        -11    1    3    3    0    0  0.16777723193E+02  0.15214853137E+02 -0.82652297210E+01  0.24110117672E+02  0.51100000000E-03 0.  1.
         12    1    3    3    0    0  0.68695730347E+01  0.55697906515E+01  0.99833442499E+00  0.89000153486E+01  0.00000000000E+00 0. -1.
</event>
<event>
 7    1  0.4623443E-009  0.4614232E+02  0.7816164E-02  0.1320468E+00
        -11   -1    0    0    0    0  0.00000000000E+00  0.00000000000E+00  0.45593999997E+02  0.45594000000E+02  0.51100000000E-03 0. -1.
         11   -1    0    0    0    0 -0.00000000000E+00 -0.00000000000E+00 -0.45593999997E+02  0.45594000000E+02  0.51100000000E-03 0.  1.
    9900012    2    1    2    0    0 -0.54115139365E+01  0.33788275184E+02  0.29294734271E+02  0.46142317865E+02  0.10000000949E+02 0.  0.
        -12    1    1    2    0    0  0.54115139365E+01 -0.33788275184E+02 -0.29294734271E+02  0.45045682135E+02  0.00000000000E+00 0.  1.
         11    1    3    3    0    0 -0.54323947644E+00  0.22467150075E+02  0.17216936803E+02  0.28310613818E+02  0.51100000000E-03 0.  1.
        -11    1    3    3    0    0 -0.41272323516E+01  0.11079248177E+02  0.95861766887E+01  0.15220991125E+02  0.51100000000E-03 0. -1.
         12    1    3    3    0    0 -0.74104210849E+00  0.24187693260E+00  0.24916207794E+01  0.26107129228E+01  0.00000000000E+00 0. -1.
</event>
<event>
 7    1  0.4623443E-009  0.4614232E+02  0.7816164E-02  0.1320468E+00
        -11   -1    0    0    0    0  0.00000000000E+00  0.00000000000E+00  0.45593999997E+02  0.45594000000E+02  0.51100000000E-03 0. -1.
         11   -1    0    0    0    0 -0.00000000000E+00 -0.00000000000E+00 -0.45593999997E+02  0.45594000000E+02  0.51100000000E-03 0.  1.
    9900012    2    1    2    0    0 -0.71027903530E+01 -0.31405108982E+02  0.31502107511E+02  0.46142320090E+02  0.10000021235E+02 0.  0.
        -12    1    1    2    0    0  0.71027903530E+01  0.31405108982E+02 -0.31502107511E+02  0.45045679910E+02  0.00000000000E+00 0.  1.
         11    1    3    3    0    0 -0.35148647736E+01 -0.11299823224E+02  0.13478891897E+02  0.17936577329E+02  0.51100000000E-03 0. -1.
        -11    1    3    3    0    0 -0.28259190657E+01 -0.10457126542E+02  0.14056798998E+02  0.17746292920E+02  0.51100000000E-03 0.  1.
        -12    1    3    3    0    0 -0.76200651369E+00 -0.96481592162E+01  0.39664166155E+01  0.10459449840E+02  0.00000000000E+00 0.  1.
</event>
<event>
 7    1  0.4623443E-009  0.4614232E+02  0.7816164E-02  0.1320468E+00
        -11   -1    0    0    0    0  0.00000000000E+00  0.00000000000E+00  0.45593999997E+02  0.45594000000E+02  0.51100000000E-03 0. -1.
         11   -1    0    0    0    0 -0.00000000000E+00 -0.00000000000E+00 -0.45593999997E+02  0.45594000000E+02  0.51100000000E-03 0.  1.
    9900012    2    1    2    0    0 -0.17042295394E+02  0.52221275688E+01 -0.41369108511E+02  0.46142316660E+02  0.99999899577E+01 0.  0.
         12    1    1    2    0    0  0.17042295394E+02 -0.52221275688E+01  0.41369108511E+02  0.45045683340E+02  0.00000000000E+00 0. -1.
         11    1    3    3    0    0 -0.47849838450E+01  0.28226076273E+01 -0.20918916097E+02  0.21644034632E+02  0.51100000000E-03 0. -1.
        -11    1    3    3    0    0 -0.41782593159E+01 -0.12904478877E+01 -0.90088030912E+01  0.10014072102E+02  0.51100000000E-03 0.  1.
         12    1    3    3    0    0 -0.80790522327E+01  0.36899678293E+01 -0.11441389322E+02  0.14484209926E+02  0.00000000000E+00 0. -1.
</event>
<event>
 7    1  0.4623443E-009  0.4614232E+02  0.7816164E-02  0.1320468E+00
        -11   -1    0    0    0    0  0.00000000000E+00  0.00000000000E+00  0.45593999997E+02  0.45594000000E+02  0.51100000000E-03 0. -1.
         11   -1    0    0    0    0 -0.00000000000E+00 -0.00000000000E+00 -0.45593999997E+02  0.45594000000E+02  0.51100000000E-03 0.  1.
    9900012    2    1    2    0    0  0.58810088226E+01 -0.12066243465E+02  0.42999221255E+02  0.46142317358E+02  0.99999963237E+01 0.  0.
        -12    1    1    2    0    0 -0.58810088226E+01  0.12066243465E+02 -0.42999221255E+02  0.45045682642E+02  0.00000000000E+00 0.  1.
         11    1    3    3    0    0  0.64301618492E+01 -0.46588620448E+01  0.30462050817E+02  0.31479970095E+02  0.51100000000E-03 0. -1.
        -11    1    3    3    0    0 -0.67660295668E+00 -0.49581969443E+01  0.96799087271E+01  0.10896886791E+02  0.51100000000E-03 0.  1.
         12    1    3    3    0    0  0.12744993006E+00 -0.24491844757E+01  0.28572617112E+01  0.37654604721E+01  0.00000000000E+00 0. -1.
</event>
<event>
 7    1  0.4623443E-009  0.4614232E+02  0.7816164E-02  0.1320468E+00
        -11   -1    0    0    0    0  0.00000000000E+00  0.00000000000E+00  0.45593999997E+02  0.45594000000E+02  0.51100000000E-03 0. -1.
         11   -1    0    0    0    0 -0.00000000000E+00 -0.00000000000E+00 -0.45593999997E+02  0.45594000000E+02  0.51100000000E-03 0.  1.
    9900012    2    1    2    0    0 -0.10809853515E+02  0.32705848654E+02  0.29027367130E+02  0.46142317502E+02  0.99999976412E+01 0.  0.
        -12    1    1    2    0    0  0.10809853515E+02 -0.32705848654E+02 -0.29027367130E+02  0.45045682498E+02  0.00000000000E+00 0.  1.
         11    1    3    3    0    0 -0.59797852579E+00  0.70007427009E+01  0.33772676662E+01  0.77957625562E+01  0.51100000000E-03 0.  1.
        -11    1    3    3    0    0 -0.30439987468E+01  0.74519219032E+01  0.35419976574E+01  0.87944764534E+01  0.51100000000E-03 0. -1.
         12    1    3    3    0    0 -0.71678762429E+01  0.18253184049E+02  0.22108101806E+02  0.29552078493E+02  0.00000000000E+00 0. -1.
</event>
<event>
 7    1  0.4623443E-009  0.4614232E+02  0.7816164E-02  0.1320468E+00
        -11   -1    0    0    0    0  0.00000000000E+00  0.00000000000E+00  0.45593999997E+02  0.45594000000E+02  0.51100000000E-03 0. -1.
         11   -1    0    0    0    0 -0.00000000000E+00 -0.00000000000E+00 -0.45593999997E+02  0.45594000000E+02  0.51100000000E-03 0.  1.
    9900012    2    1    2    0    0  0.21583783244E+02  0.20328526387E+02 -0.33911720700E+02  0.46142317799E+02  0.10000000342E+02 0.  0.
         12    1    1    2    0    0 -0.21583783244E+02 -0.20328526387E+02  0.33911720700E+02  0.45045682201E+02  0.00000000000E+00 0. -1.
         11    1    3    3    0    0  0.50081412482E+01  0.71364784139E+01 -0.13729214648E+02  0.16263521698E+02  0.51100000000E-03 0. -1.
        -11    1    3    3    0    0  0.10521701054E+02  0.11814782602E+02 -0.14701665094E+02  0.21597088642E+02  0.51100000000E-03 0.  1.
         12    1    3    3    0    0  0.60539409418E+01  0.13772653710E+01 -0.54808409577E+01  0.82817074588E+01  0.00000000000E+00 0. -1.
</event>
<event>
 7    1  0.4623443E-009  0.4614232E+02  0.7816164E-02  0.1320468E+00
        -11   -1    0    0    0    0  0.00000000000E+00  0.00000000000E+00  0.45593999997E+02  0.45594000000E+02  0.51100000000E-03 0. -1.
         11   -1    0    0    0    0 -0.00000000000E+00 -0.00000000000E+00 -0.45593999997E+02  0.45594000000E+02  0.51100000000E-03 0.  1.
    9900012    2    1    2    0    0  0.40149833327E+02  0.77031628358E+01 -0.18914696312E+02  0.46142316851E+02  0.99999916978E+01 0.  0.
         12    1    1    2    0    0 -0.40149833327E+02 -0.77031628358E+01  0.18914696312E+02  0.45045683149E+02  0.00000000000E+00 0. -1.
         11    1    3    3    0    0  0.33185079884E+01 -0.26172928183E+00 -0.26666493178E+00  0.33394771946E+01  0.51100000000E-03 0. -1.
        -11    1    3    3    0    0  0.64062255670E+01  0.53880266810E+00 -0.15199471540E+00  0.64306404801E+01  0.51100000000E-03 0.  1.
        -12    1    3    3    0    0  0.30425099771E+02  0.74260894496E+01 -0.18496036665E+02  0.36372199176E+02  0.00000000000E+00 0.  1.
</event>
<event>
 7    1  0.4623443E-009  0.4614232E+02  0.7816164E-02  0.1320468E+00
        -11   -1    0    0    0    0  0.00000000000E+00  0.00000000000E+00  0.45593999997E+02  0.45594000000E+02  0.51100000000E-03 0. -1.
         11   -1    0    0    0    0 -0.00000000000E+00 -0.00000000000E+00 -0.45593999997E+02  0.45594000000E+02  0.51100000000E-03 0.  1.
    9900012    2    1    2    0    0 -0.83011463905E+01  0.63774974704E+01 -0.43812462508E+02  0.46142319004E+02  0.10000011335E+02 0.  0.
         12    1    1    2    0    0  0.83011463905E+01 -0.63774974704E+01  0.43812462508E+02  0.45045680996E+02  0.00000000000E+00 0. -1.
         11    1    3    3    0    0 -0.33234127283E+01 -0.19279178872E+01 -0.92586931723E+01  0.10024237580E+02  0.51100000000E-03 0. -1.
        -11    1    3    3    0    0 -0.29485477420E+00  0.33093534895E+01 -0.15992540434E+02  0.16334016948E+02  0.51100000000E-03 0.  1.
        -12    1    3    3    0    0 -0.46828788880E+01  0.49960618681E+01 -0.18561228901E+02  0.19784064476E+02  0.00000000000E+00 0.  1.
</event>
<event>
 7    1  0.4623443E-009  0.4614232E+02  0.7816164E-02  0.1320468E+00
        -11   -1    0    0    0    0  0.00000000000E+00  0.00000000000E+00  0.45593999997E+02  0.45594000000E+02  0.51100000000E-03 0. -1.
         11   -1    0    0    0    0 -0.00000000000E+00 -0.00000000000E+00 -0.45593999997E+02  0.45594000000E+02  0.51100000000E-03 0.  1.
    9900012    2    1    2    0    0 -0.30926512081E+02 -0.70205404728E+00 -0.32744030740E+02  0.46142316761E+02  0.99999908819E+01 0.  0.
         12    1    1    2    0    0  0.30926512081E+02  0.70205404728E+00  0.32744030740E+02  0.45045683239E+02  0.00000000000E+00 0. -1.
         11    1    3    3    0    0 -0.11588117836E+02 -0.11215896795E+01 -0.12940840902E+02  0.17407119288E+02  0.51100000000E-03 0.  1.
        -11    1    3    3    0    0 -0.10191186178E+02 -0.34486243476E+01 -0.11902944855E+02  0.16044730664E+02  0.51100000000E-03 0. -1.
        -12    1    3    3    0    0 -0.91472080673E+01  0.38681599798E+01 -0.79002449833E+01  0.12690466810E+02  0.00000000000E+00 0.  1.
</event>
<event>
 7    1  0.4623443E-009  0.4614231E+02  0.7816164E-02  0.1320468E+00
        -11   -1    0    0    0    0  0.00000000000E+00  0.00000000000E+00  0.45593999997E+02  0.45594000000E+02  0.51100000000E-03 0. -1.
         11   -1    0    0    0    0 -0.00000000000E+00 -0.00000000000E+00 -0.45593999997E+02  0.45594000000E+02  0.51100000000E-03 0.  1.
    9900012    2    1    2    0    0 -0.51845450248E+01 -0.36636554818E+02 -0.25690424651E+02  0.46142305702E+02  0.99998900355E+01 0.  0.
         12    1    1    2    0    0  0.51845450248E+01  0.36636554818E+02  0.25690424651E+02  0.45045694298E+02  0.00000000000E+00 0. -1.
         11    1    3    3    0    0 -0.79474321268E+00 -0.23096655183E+02 -0.11142256280E+02  0.25656129340E+02  0.51100000000E-03 0. -1.
        -11    1    3    3    0    0 -0.12626668917E+01 -0.15208360319E+01 -0.24537684243E+01  0.31509125118E+01  0.51100000000E-03 0.  1.
        -12    1    3    3    0    0 -0.31271349204E+01 -0.12019063603E+02 -0.12094399947E+02  0.17335263850E+02  0.00000000000E+00 0.  1.
</event>
<event>
 7    1  0.4623443E-009  0.4614232E+02  0.7816164E-02  0.1320468E+00
        -11   -1    0    0    0    0  0.00000000000E+00  0.00000000000E+00  0.45593999997E+02  0.45594000000E+02  0.51100000000E-03 0. -1.
         11   -1    0    0    0    0 -0.00000000000E+00 -0.00000000000E+00 -0.45593999997E+02  0.45594000000E+02  0.51100000000E-03 0.  1.
    9900012    2    1    2    0    0  0.33285579801E+02 -0.30204092529E+02  0.29826886087E+01  0.46142318081E+02  0.10000002916E+02 0.  0.
         12    1    1    2    0    0 -0.33285579801E+02  0.30204092529E+02 -0.29826886087E+01  0.45045681919E+02  0.00000000000E+00 0. -1.
         11    1    3    3    0    0  0.30273214709E+01 -0.74139555041E+01  0.13968591597E-01  0.80082212063E+01  0.51100000000E-03 0. -1.
        -11    1    3    3    0    0  0.91200216022E+01 -0.80109316252E+01 -0.25171641220E+00  0.12141382991E+02  0.51100000000E-03 0.  1.
         12    1    3    3    0    0  0.21138236728E+02 -0.14779205400E+02  0.32204364293E+01  0.25992713883E+02  0.00000000000E+00 0. -1.
</event>
<event>
 7    1  0.4730826E-009  0.4614232E+02  0.7816164E-02  0.1320468E+00
        -11   -1    0    0    0    0  0.00000000000E+00  0.00000000000E+00  0.45593999997E+02  0.45594000000E+02  0.51100000000E-03 0. -1.
         11   -1    0    0    0    0 -0.00000000000E+00 -0.00000000000E+00 -0.45593999997E+02  0.45594000000E+02  0.51100000000E-03 0.  1.
    9900012    2    1    2    0    0  0.33553873943E+02 -0.19745381005E+02 -0.22657692373E+02  0.46142317062E+02  0.99999936291E+01 0.  0.
         12    1    1    2    0    0 -0.33553873943E+02  0.19745381005E+02  0.22657692373E+02  0.45045682938E+02  0.00000000000E+00 0. -1.
         11    1    3    3    0    0  0.15953200711E+02 -0.12788428463E+02 -0.14314059148E+02  0.24958782122E+02  0.51100000000E-03 0. -1.
        -11    1    3    3    0    0  0.72959243694E+01 -0.49100917948E+01 -0.52026844219E+01  0.10217995855E+02  0.51100000000E-03 0.  1.
         12    1    3    3    0    0  0.10304748863E+02 -0.20468607471E+01 -0.31409488038E+01  0.10965539085E+02  0.00000000000E+00 0. -1.
</event>
<event>
 7    1  0.4623443E-009  0.4614232E+02  0.7816164E-02  0.1320468E+00
        -11   -1    0    0    0    0  0.00000000000E+00  0.00000000000E+00  0.45593999997E+02  0.45594000000E+02  0.51100000000E-03 0. -1.
         11   -1    0    0    0    0 -0.00000000000E+00 -0.00000000000E+00 -0.45593999997E+02  0.45594000000E+02  0.51100000000E-03 0.  1.
    9900012    2    1    2    0    0 -0.18265272681E+02  0.10819642780E+02  0.39729441552E+02  0.46142318941E+02  0.10000010760E+02 0.  0.
        -12    1    1    2    0    0  0.18265272681E+02 -0.10819642780E+02 -0.39729441552E+02  0.45045681059E+02  0.00000000000E+00 0.  1.
         11    1    3    3    0    0 -0.83793670365E+01  0.41577289927E+01  0.19174348200E+02  0.21334388472E+02  0.51100000000E-03 0. -1.
        -11    1    3    3    0    0 -0.10928734073E+02  0.61508299336E+01  0.17419083318E+02  0.21463792797E+02  0.51100000000E-03 0.  1.
         12    1    3    3    0    0  0.10428284289E+01  0.51108385357E+00  0.31360100339E+01  0.33441376721E+01  0.00000000000E+00 0. -1.
</event>
<event>
 7    1  0.4623443E-009  0.4614232E+02  0.7816164E-02  0.1320468E+00
        -11   -1    0    0    0    0  0.00000000000E+00  0.00000000000E+00  0.45593999997E+02  0.45594000000E+02  0.51100000000E-03 0. -1.
         11   -1    0    0    0    0 -0.00000000000E+00 -0.00000000000E+00 -0.45593999997E+02  0.45594000000E+02  0.51100000000E-03 0.  1.
    9900012    2    1    2    0    0 -0.78931288228E+01 -0.18076724593E+02 -0.40497456439E+02  0.46142318380E+02  0.10000005644E+02 0.  0.
         12    1    1    2    0    0  0.78931288228E+01  0.18076724593E+02  0.40497456439E+02  0.45045681620E+02  0.00000000000E+00 0. -1.
         11    1    3    3    0    0 -0.50556174915E+01 -0.88540873265E+01 -0.16970778063E+02  0.19798016035E+02  0.51100000000E-03 0. -1.
        -11    1    3    3    0    0 -0.29296817326E+01 -0.73934015787E+01 -0.10408817156E+02  0.13099194510E+02  0.51100000000E-03 0.  1.
         12    1    3    3    0    0  0.92170401281E-01 -0.18292356875E+01 -0.13117861220E+02  0.13245107835E+02  0.00000000000E+00 0. -1.
</event>
<event>
 7    1  0.4623443E-009  0.4614232E+02  0.7816164E-02  0.1320468E+00
        -11   -1    0    0    0    0  0.00000000000E+00  0.00000000000E+00  0.45593999997E+02  0.45594000000E+02  0.51100000000E-03 0. -1.
         11   -1    0    0    0    0 -0.00000000000E+00 -0.00000000000E+00 -0.45593999997E+02  0.45594000000E+02  0.51100000000E-03 0.  1.
    9900012    2    1    2    0    0  0.23569381003E+02  0.30400461445E+01 -0.38266903331E+02  0.46142317721E+02  0.99999996350E+01 0.  0.
         12    1    1    2    0    0 -0.23569381003E+02 -0.30400461445E+01  0.38266903331E+02  0.45045682279E+02  0.00000000000E+00 0. -1.
         11    1    3    3    0    0  0.58275900847E+01 -0.57485722525E+00 -0.41746279779E+01  0.71915774375E+01  0.51100000000E-03 0. -1.
        -11    1    3    3    0    0  0.14394848214E+01 -0.10608922358E+01 -0.45133774690E+01  0.48547075428E+01  0.51100000000E-03 0.  1.
        -12    1    3    3    0    0  0.16302306097E+02  0.46757956055E+01 -0.29578897884E+02  0.34096032741E+02  0.00000000000E+00 0.  1.
</event>
<event>
 7    1  0.4623443E-009  0.4614232E+02  0.7816164E-02  0.1320468E+00
        -11   -1    0    0    0    0  0.00000000000E+00  0.00000000000E+00  0.45593999997E+02  0.45594000000E+02  0.51100000000E-03 0. -1.
         11   -1    0    0    0    0 -0.00000000000E+00 -0.00000000000E+00 -0.45593999997E+02  0.45594000000E+02  0.51100000000E-03 0.  1.
    9900012    2    1    2    0    0 -0.23558496506E+02  0.10584064632E+02  0.36906480250E+02  0.46142318007E+02  0.10000002238E+02 0.  0.
        -12    1    1    2    0    0  0.23558496506E+02 -0.10584064632E+02 -0.36906480250E+02  0.45045681993E+02  0.00000000000E+00 0.  1.
         11    1    3    3    0    0 -0.64461835254E+01  0.32978693001E+01  0.11943765567E+02  0.13967203018E+02  0.51100000000E-03 0. -1.
        -11    1    3    3    0    0  0.40929621753E+00  0.45710478822E-01  0.35570676659E+01  0.35808299991E+01  0.51100000000E-03 0.  1.
        -12    1    3    3    0    0 -0.17521609198E+02  0.72404848534E+01  0.21405647017E+02  0.28594284989E+02  0.00000000000E+00 0.  1.
</event>
<event>
 7    1  0.4623443E-009  0.4614232E+02  0.7816164E-02  0.1320468E+00
        -11   -1    0    0    0    0  0.00000000000E+00  0.00000000000E+00  0.45593999997E+02  0.45594000000E+02  0.51100000000E-03 0. -1.
         11   -1    0    0    0    0 -0.00000000000E+00 -0.00000000000E+00 -0.45593999997E+02  0.45594000000E+02  0.51100000000E-03 0.  1.
    9900012    2    1    2    0    0  0.14467537204E+01  0.20486095007E+02  0.40091648595E+02  0.46142317943E+02  0.10000001656E+02 0.  0.
        -12    1    1    2    0    0 -0.14467537204E+01 -0.20486095007E+02 -0.40091648595E+02  0.45045682057E+02  0.00000000000E+00 0.  1.
         11    1    3    3    0    0  0.20175341674E+01  0.42706901090E+01  0.46946566748E+01  0.66595074653E+01  0.51100000000E-03 0. -1.
        -11    1    3    3    0    0 -0.15458852395E+01  0.33817734937E+01  0.35819559027E+01  0.51629992723E+01  0.51100000000E-03 0.  1.
         12    1    3    3    0    0  0.97510479250E+00  0.12833631404E+02  0.31815036017E+02  0.34319811205E+02  0.00000000000E+00 0. -1.
</event>
<event>
 7    1  0.4623443E-009  0.4614232E+02  0.7816164E-02  0.1320468E+00
        -11   -1    0    0    0    0  0.00000000000E+00  0.00000000000E+00  0.45593999997E+02  0.45594000000E+02  0.51100000000E-03 0.  1.
         11   -1    0    0    0    0 -0.00000000000E+00 -0.00000000000E+00 -0.45593999997E+02  0.45594000000E+02  0.51100000000E-03 0. -1.
    9900012    2    1    2    0    0 -0.31930459179E+02  0.31772477658E+02 -0.26256941941E+00  0.46142317603E+02  0.99999985570E+01 0.  0.
         12    1    1    2    0    0  0.31930459179E+02 -0.31772477658E+02  0.26256941941E+00  0.45045682397E+02  0.00000000000E+00 0. -1.
         11    1    3    3    0    0 -0.38460757864E+01  0.74841137607E+00 -0.94330789159E+00  0.40301673144E+01  0.51100000000E-03 0. -1.
        -11    1    3    3    0    0 -0.43781813714E+01  0.35272458944E+01  0.14227052653E+01  0.57994849990E+01  0.51100000000E-03 0.  1.
        -12    1    3    3    0    0 -0.23706202021E+02  0.27496820388E+02 -0.74196679311E+00  0.36312665290E+02  0.00000000000E+00 0.  1.
</event>
<event>
 7    1  0.4623443E-009  0.4614232E+02  0.7816164E-02  0.1320468E+00
        -11   -1    0    0    0    0  0.00000000000E+00  0.00000000000E+00  0.45593999997E+02  0.45594000000E+02  0.51100000000E-03 0. -1.
         11   -1    0    0    0    0 -0.00000000000E+00 -0.00000000000E+00 -0.45593999997E+02  0.45594000000E+02  0.51100000000E-03 0.  1.
    9900012    2    1    2    0    0  0.20177576060E+02  0.20532122680E+02 -0.34646945985E+02  0.46142317593E+02  0.99999984702E+01 0.  0.
         12    1    1    2    0    0 -0.20177576060E+02 -0.20532122680E+02  0.34646945985E+02  0.45045682407E+02  0.00000000000E+00 0. -1.
         11    1    3    3    0    0  0.44123498936E+01  0.11117410636E+02 -0.14423498408E+02  0.18737741524E+02  0.51100000000E-03 0. -1.
        -11    1    3    3    0    0  0.74463397273E+01  0.36197038428E+01 -0.78647877628E+01  0.11419506034E+02  0.51100000000E-03 0.  1.
         12    1    3    3    0    0  0.83188864392E+01  0.57950082012E+01 -0.12358659814E+02  0.15985070035E+02  0.00000000000E+00 0. -1.
</event>
<event>
 7    1  0.4623443E-009  0.4614232E+02  0.7816164E-02  0.1320468E+00
        -11   -1    0    0    0    0  0.00000000000E+00  0.00000000000E+00  0.45593999997E+02  0.45594000000E+02  0.51100000000E-03 0. -1.
         11   -1    0    0    0    0 -0.00000000000E+00 -0.00000000000E+00 -0.45593999997E+02  0.45594000000E+02  0.51100000000E-03 0.  1.
    9900012    2    1    2    0    0 -0.69112407277E+01  0.55999665844E+00 -0.44508815363E+02  0.46142317746E+02  0.99999998660E+01 0.  0.
         12    1    1    2    0    0  0.69112407277E+01 -0.55999665844E+00  0.44508815363E+02  0.45045682254E+02  0.00000000000E+00 0. -1.
         11    1    3    3    0    0 -0.19757465463E+00 -0.21714078073E+01 -0.70019449862E+01  0.73335722169E+01  0.51100000000E-03 0. -1.
        -11    1    3    3    0    0 -0.71258800065E+01  0.71686249722E+00 -0.21296779489E+02  0.22468753293E+02  0.51100000000E-03 0.  1.
        -12    1    3    3    0    0  0.41221393342E+00  0.20145419685E+01 -0.16210090888E+02  0.16339992236E+02  0.00000000000E+00 0.  1.
</event>
<event>
 7    1  0.4623443E-009  0.4614231E+02  0.7816164E-02  0.1320468E+00
        -11   -1    0    0    0    0  0.00000000000E+00  0.00000000000E+00  0.45593999997E+02  0.45594000000E+02  0.51100000000E-03 0. -1.
         11   -1    0    0    0    0 -0.00000000000E+00 -0.00000000000E+00 -0.45593999997E+02  0.45594000000E+02  0.51100000000E-03 0.  1.
    9900012    2    1    2    0    0  0.29711793006E+02  0.21290986425E+00 -0.33856724715E+02  0.46142314495E+02  0.99999702149E+01 0.  0.
         12    1    1    2    0    0 -0.29711793006E+02 -0.21290986425E+00  0.33856724715E+02  0.45045685505E+02  0.00000000000E+00 0. -1.
         11    1    3    3    0    0  0.79539570832E+01  0.12352811899E+01 -0.16017343522E+02  0.17926144222E+02  0.51100000000E-03 0. -1.
        -11    1    3    3    0    0  0.13471611857E+00  0.55667382710E-01 -0.36808255963E+00  0.39589433177E+00  0.51100000000E-03 0.  1.
         12    1    3    3    0    0  0.21623119804E+02 -0.10780387083E+01 -0.17471298633E+02  0.27820275941E+02  0.00000000000E+00 0. -1.
</event>
<event>
 7    1  0.4623443E-009  0.4614232E+02  0.7816164E-02  0.1320468E+00
        -11   -1    0    0    0    0  0.00000000000E+00  0.00000000000E+00  0.45593999997E+02  0.45594000000E+02  0.51100000000E-03 0. -1.
         11   -1    0    0    0    0 -0.00000000000E+00 -0.00000000000E+00 -0.45593999997E+02  0.45594000000E+02  0.51100000000E-03 0.  1.
    9900012    2    1    2    0    0 -0.42244866583E+02 -0.34187018294E+01 -0.15257695817E+02  0.46142317006E+02  0.99999931104E+01 0.  0.
        -12    1    1    2    0    0  0.42244866583E+02  0.34187018294E+01  0.15257695817E+02  0.45045682994E+02  0.00000000000E+00 0.  1.
         11    1    3    3    0    0 -0.77443403587E+01 -0.67549147074E+00 -0.45027892930E+01  0.89836633951E+01  0.51100000000E-03 0. -1.
        -11    1    3    3    0    0 -0.97920627091E+01 -0.20307232421E+01 -0.68789477546E+01  0.12137884966E+02  0.51100000000E-03 0.  1.
         12    1    3    3    0    0 -0.24708463515E+02 -0.71248711653E+00 -0.38759587694E+01  0.25020768644E+02  0.00000000000E+00 0. -1.
</event>
<event>
 7    1  0.4623443E-009  0.4614230E+02  0.7816164E-02  0.1320468E+00
        -11   -1    0    0    0    0  0.00000000000E+00  0.00000000000E+00  0.45593999997E+02  0.45594000000E+02  0.51100000000E-03 0. -1.
         11   -1    0    0    0    0 -0.00000000000E+00 -0.00000000000E+00 -0.45593999997E+02  0.45594000000E+02  0.51100000000E-03 0.  1.
    9900012    2    1    2    0    0  0.21104357377E+01  0.41326517913E+02 -0.17798309901E+02  0.46142302567E+02  0.99998614511E+01 0.  0.
         12    1    1    2    0    0 -0.21104357377E+01 -0.41326517913E+02  0.17798309901E+02  0.45045697433E+02  0.00000000000E+00 0. -1.
         11    1    3    3    0    0  0.86328510263E+00  0.68572169843E+01 -0.21440451288E+01  0.72362708430E+01  0.51100000000E-03 0. -1.
        -11    1    3    3    0    0  0.36574461829E+01  0.28436889047E+02 -0.15052056698E+02  0.32382062664E+02  0.51100000000E-03 0.  1.
         12    1    3    3    0    0 -0.24102955478E+01  0.60324118818E+01 -0.60220807465E+00  0.65239690607E+01  0.00000000000E+00 0. -1.
</event>
<event>
 7    1  0.4623443E-009  0.4614232E+02  0.7816164E-02  0.1320468E+00
        -11   -1    0    0    0    0  0.00000000000E+00  0.00000000000E+00  0.45593999997E+02  0.45594000000E+02  0.51100000000E-03 0.  1.
         11   -1    0    0    0    0 -0.00000000000E+00 -0.00000000000E+00 -0.45593999997E+02  0.45594000000E+02  0.51100000000E-03 0. -1.
    9900012    2    1    2    0    0  0.14468118690E+02  0.32494442578E+02  0.27638704403E+02  0.46142320540E+02  0.10000025344E+02 0.  0.
        -12    1    1    2    0    0 -0.14468118690E+02 -0.32494442578E+02 -0.27638704403E+02  0.45045679460E+02  0.00000000000E+00 0.  1.
         11    1    3    3    0    0  0.26383097373E+01  0.88873691106E+01  0.53976446801E+01  0.10727561528E+02  0.51100000000E-03 0. -1.
        -11    1    3    3    0    0  0.90256624181E+01  0.22844397846E+02  0.20719477551E+02  0.32134496188E+02  0.51100000000E-03 0.  1.
        -12    1    3    3    0    0  0.28041465350E+01  0.76267562217E+00  0.15215821720E+01  0.32802628249E+01  0.00000000000E+00 0.  1.
</event>
<event>
 7    1  0.4623443E-009  0.4614232E+02  0.7816164E-02  0.1320468E+00
        -11   -1    0    0    0    0  0.00000000000E+00  0.00000000000E+00  0.45593999997E+02  0.45594000000E+02  0.51100000000E-03 0. -1.
         11   -1    0    0    0    0 -0.00000000000E+00 -0.00000000000E+00 -0.45593999997E+02  0.45594000000E+02  0.51100000000E-03 0.  1.
    9900012    2    1    2    0    0 -0.33263632676E+02 -0.24892682800E+02 -0.17406855039E+02  0.46142317431E+02  0.99999969880E+01 0.  0.
         12    1    1    2    0    0  0.33263632676E+02  0.24892682800E+02  0.17406855039E+02  0.45045682569E+02  0.00000000000E+00 0. -1.
         11    1    3    3    0    0 -0.76133816904E+01 -0.90670981608E+01 -0.24398017640E+01  0.12088361458E+02  0.51100000000E-03 0. -1.
        -11    1    3    3    0    0 -0.16982244736E+02 -0.13040307884E+02 -0.11561186385E+02  0.24333254958E+02  0.51100000000E-03 0.  1.
        -12    1    3    3    0    0 -0.86680062498E+01 -0.27852767551E+01 -0.34058668900E+01  0.97207010149E+01  0.00000000000E+00 0.  1.
</event>
<event>
 7    1  0.4623443E-009  0.4614232E+02  0.7816164E-02  0.1320468E+00
        -11   -1    0    0    0    0  0.00000000000E+00  0.00000000000E+00  0.45593999997E+02  0.45594000000E+02  0.51100000000E-03 0. -1.
         11   -1    0    0    0    0 -0.00000000000E+00 -0.00000000000E+00 -0.45593999997E+02  0.45594000000E+02  0.51100000000E-03 0.  1.
    9900012    2    1    2    0    0  0.20209360233E+02  0.24177528447E+02  0.32189165654E+02  0.46142317539E+02  0.99999979786E+01 0.  0.
        -12    1    1    2    0    0 -0.20209360233E+02 -0.24177528447E+02 -0.32189165654E+02  0.45045682461E+02  0.00000000000E+00 0.  1.
         11    1    3    3    0    0  0.60571606762E+01  0.60020053203E+01  0.48002699413E+01  0.97854920721E+01  0.51100000000E-03 0. -1.
        -11    1    3    3    0    0  0.73536966922E+01  0.10937898912E+02  0.10875214704E+02  0.17087562224E+02  0.51100000000E-03 0.  1.
         12    1    3    3    0    0  0.67985028642E+01  0.72376242153E+01  0.16513681009E+02  0.19269263243E+02  0.00000000000E+00 0. -1.
</event>
<event>
 7    1  0.5449595E-009  0.4614232E+02  0.7816164E-02  0.1320468E+00
        -11   -1    0    0    0    0  0.00000000000E+00  0.00000000000E+00  0.45593999997E+02  0.45594000000E+02  0.51100000000E-03 0. -1.
         11   -1    0    0    0    0 -0.00000000000E+00 -0.00000000000E+00 -0.45593999997E+02  0.45594000000E+02  0.51100000000E-03 0.  1.
    9900012    2    1    2    0    0  0.17219553126E+02 -0.21039858118E+02 -0.35915526133E+02  0.46142315891E+02  0.99999829436E+01 0.  0.
         12    1    1    2    0    0 -0.17219553126E+02  0.21039858118E+02  0.35915526133E+02  0.45045684109E+02  0.00000000000E+00 0. -1.
         11    1    3    3    0    0  0.51329752232E+01 -0.59219385392E+01 -0.11950709566E+02  0.14291124871E+02  0.51100000000E-03 0. -1.
        -11    1    3    3    0    0  0.86302453249E+01 -0.14472865641E+02 -0.22327810062E+02  0.27972773846E+02  0.51100000000E-03 0.  1.
         12    1    3    3    0    0  0.34563325778E+01 -0.64505393806E+00 -0.16370065054E+01  0.38784171733E+01  0.00000000000E+00 0. -1.
</event>
<event>
 7    1  0.4623443E-009  0.4614232E+02  0.7816164E-02  0.1320468E+00
        -11   -1    0    0    0    0  0.00000000000E+00  0.00000000000E+00  0.45593999997E+02  0.45594000000E+02  0.51100000000E-03 0. -1.
         11   -1    0    0    0    0 -0.00000000000E+00 -0.00000000000E+00 -0.45593999997E+02  0.45594000000E+02  0.51100000000E-03 0.  1.
    9900012    2    1    2    0    0  0.35262514417E+02  0.25404322485E+02  0.11844365249E+02  0.46142317498E+02  0.99999976010E+01 0.  0.
        -12    1    1    2    0    0 -0.35262514417E+02 -0.25404322485E+02 -0.11844365249E+02  0.45045682502E+02  0.00000000000E+00 0.  1.
         11    1    3    3    0    0  0.14286545690E+02  0.73254629620E+01  0.20774210671E+01  0.16188992368E+02  0.51100000000E-03 0. -1.
        -11    1    3    3    0    0  0.20016093917E+02  0.17106415543E+02  0.76236974762E+01  0.27411571131E+02  0.51100000000E-03 0.  1.
        -12    1    3    3    0    0  0.95987481056E+00  0.97244397961E+00  0.21432467061E+01  0.25417539984E+01  0.00000000000E+00 0.  1.
</event>
<event>
 7    1  0.4623443E-009  0.4614232E+02  0.7816164E-02  0.1320468E+00
        -11   -1    0    0    0    0  0.00000000000E+00  0.00000000000E+00  0.45593999997E+02  0.45594000000E+02  0.51100000000E-03 0. -1.
         11   -1    0    0    0    0 -0.00000000000E+00 -0.00000000000E+00 -0.45593999997E+02  0.45594000000E+02  0.51100000000E-03 0.  1.
    9900012    2    1    2    0    0  0.25782324339E+02 -0.12021223709E+02  0.34926716304E+02  0.46142316749E+02  0.99999907677E+01 0.  0.
        -12    1    1    2    0    0 -0.25782324339E+02  0.12021223709E+02 -0.34926716304E+02  0.45045683251E+02  0.00000000000E+00 0.  1.
         11    1    3    3    0    0  0.86983410337E+01 -0.42333101544E+01  0.11086058218E+02  0.14713352394E+02  0.51100000000E-03 0. -1.
        -11    1    3    3    0    0  0.75216218599E+01 -0.78499166284E+01  0.13719378801E+02  0.17504780530E+02  0.51100000000E-03 0.  1.
        -12    1    3    3    0    0  0.95623614454E+01  0.62003073644E-01  0.10121279285E+02  0.13924183824E+02  0.00000000000E+00 0.  1.
</event>
<event>
 7    1  0.4623443E-009  0.4614232E+02  0.7816164E-02  0.1320468E+00
        -11   -1    0    0    0    0  0.00000000000E+00  0.00000000000E+00  0.45593999997E+02  0.45594000000E+02  0.51100000000E-03 0. -1.
         11   -1    0    0    0    0 -0.00000000000E+00 -0.00000000000E+00 -0.45593999997E+02  0.45594000000E+02  0.51100000000E-03 0.  1.
    9900012    2    1    2    0    0  0.20124518167E+02 -0.31548988005E+02  0.25075458376E+02  0.46142317761E+02  0.99999999989E+01 0.  0.
        -12    1    1    2    0    0 -0.20124518167E+02  0.31548988005E+02 -0.25075458376E+02  0.45045682239E+02  0.00000000000E+00 0.  1.
         11    1    3    3    0    0  0.14879760594E+01 -0.21485678833E+01  0.46327402689E+01  0.53190882079E+01  0.51100000000E-03 0. -1.
        -11    1    3    3    0    0  0.15071927338E+02 -0.21447341741E+02  0.12540834288E+02  0.29058974282E+02  0.51100000000E-03 0.  1.
         12    1    3    3    0    0  0.35646147693E+01 -0.79530783813E+01  0.79018838189E+01  0.11764255271E+02  0.00000000000E+00 0. -1.
</event>
<event>
 7    1  0.4623443E-009  0.4614231E+02  0.7816164E-02  0.1320468E+00
        -11   -1    0    0    0    0  0.00000000000E+00  0.00000000000E+00  0.45593999997E+02  0.45594000000E+02  0.51100000000E-03 0. -1.
         11   -1    0    0    0    0 -0.00000000000E+00 -0.00000000000E+00 -0.45593999997E+02  0.45594000000E+02  0.51100000000E-03 0.  1.
    9900012    2    1    2    0    0  0.37564477544E+01  0.12803613636E+02 -0.43024069687E+02  0.46142312145E+02  0.99999487892E+01 0.  0.
         12    1    1    2    0    0 -0.37564477544E+01 -0.12803613636E+02  0.43024069687E+02  0.45045687855E+02  0.00000000000E+00 0. -1.
         11    1    3    3    0    0 -0.11379685775E+01  0.36959705207E+01 -0.73653171046E+01  0.83188380731E+01  0.51100000000E-03 0.  1.
        -11    1    3    3    0    0  0.41745601975E+01  0.70898977541E+01 -0.34330868911E+02  0.35303005020E+02  0.51100000000E-03 0. -1.
        -12    1    3    3    0    0  0.71985613439E+00  0.20177453611E+01 -0.13278836715E+01  0.25204690519E+01  0.00000000000E+00 0.  1.
</event>
<event>
 7    1  0.4623443E-009  0.4614232E+02  0.7816164E-02  0.1320468E+00
        -11   -1    0    0    0    0  0.00000000000E+00  0.00000000000E+00  0.45593999997E+02  0.45594000000E+02  0.51100000000E-03 0. -1.
         11   -1    0    0    0    0 -0.00000000000E+00 -0.00000000000E+00 -0.45593999997E+02  0.45594000000E+02  0.51100000000E-03 0.  1.
    9900012    2    1    2    0    0 -0.56649772266E+01  0.29811357330E+01 -0.44588499657E+02  0.46142318310E+02  0.10000005007E+02 0.  0.
         12    1    1    2    0    0  0.56649772266E+01 -0.29811357330E+01  0.44588499657E+02  0.45045681690E+02  0.00000000000E+00 0. -1.
         11    1    3    3    0    0 -0.55336216441E+00  0.28917440409E+01 -0.20905908636E+02  0.21112209961E+02  0.51100000000E-03 0. -1.
        -11    1    3    3    0    0 -0.95149597786E+00  0.27941792684E+01 -0.63741637082E+01  0.70244391676E+01  0.51100000000E-03 0.  1.
         12    1    3    3    0    0 -0.41601190844E+01 -0.27047875763E+01 -0.17308427312E+02  0.18005669181E+02  0.00000000000E+00 0. -1.
</event>
<event>
 7    1  0.5925793E-009  0.4614232E+02  0.7816164E-02  0.1320468E+00
        -11   -1    0    0    0    0  0.00000000000E+00  0.00000000000E+00  0.45593999997E+02  0.45594000000E+02  0.51100000000E-03 0. -1.
         11   -1    0    0    0    0 -0.00000000000E+00 -0.00000000000E+00 -0.45593999997E+02  0.45594000000E+02  0.51100000000E-03 0.  1.
    9900012    2    1    2    0    0  0.27903258652E+02 -0.41201232323E+01 -0.35121875480E+02  0.46142318786E+02  0.10000009345E+02 0.  0.
         12    1    1    2    0    0 -0.27903258652E+02  0.41201232323E+01  0.35121875480E+02  0.45045681214E+02  0.00000000000E+00 0. -1.
         11    1    3    3    0    0  0.21850115308E+02 -0.45070745053E+01 -0.24037471641E+02  0.32795446372E+02  0.51100000000E-03 0. -1.
        -11    1    3    3    0    0  0.50317719834E+01 -0.13671996641E+01 -0.92120512195E+01  0.10585360275E+02  0.51100000000E-03 0.  1.
         12    1    3    3    0    0  0.10213713601E+01  0.17541509371E+01 -0.18723526191E+01  0.27615121393E+01  0.00000000000E+00 0. -1.
</event>
<event>
 7    1  0.4720854E-009  0.4614232E+02  0.7816164E-02  0.1320468E+00
        -11   -1    0    0    0    0  0.00000000000E+00  0.00000000000E+00  0.45593999997E+02  0.45594000000E+02  0.51100000000E-03 0. -1.
         11   -1    0    0    0    0 -0.00000000000E+00 -0.00000000000E+00 -0.45593999997E+02  0.45594000000E+02  0.51100000000E-03 0.  1.
    9900012    2    1    2    0    0  0.34655519736E+02 -0.15803638126E+02 -0.24048983329E+02  0.46142316240E+02  0.99999861324E+01 0.  0.
         12    1    1    2    0    0 -0.34655519736E+02  0.15803638126E+02  0.24048983329E+02  0.45045683760E+02  0.00000000000E+00 0. -1.
         11    1    3    3    0    0  0.12083446198E+02 -0.75714271549E+01 -0.67923297467E+01  0.15794680270E+02  0.51100000000E-03 0. -1.
        -11    1    3    3    0    0  0.15236588667E+02 -0.86069222609E+01 -0.10768558163E+02  0.20547374289E+02  0.51100000000E-03 0.  1.
         12    1    3    3    0    0  0.73354848712E+01  0.37471128944E+00 -0.64880954198E+01  0.98002616813E+01  0.00000000000E+00 0. -1.
</event>
<event>
 7    1  0.4623443E-009  0.4614232E+02  0.7816164E-02  0.1320468E+00
        -11   -1    0    0    0    0  0.00000000000E+00  0.00000000000E+00  0.45593999997E+02  0.45594000000E+02  0.51100000000E-03 0. -1.
         11   -1    0    0    0    0 -0.00000000000E+00 -0.00000000000E+00 -0.45593999997E+02  0.45594000000E+02  0.51100000000E-03 0.  1.
    9900012    2    1    2    0    0 -0.28039890417E+01 -0.43773363604E+02  0.10253964198E+02  0.46142317660E+02  0.99999990754E+01 0.  0.
        -12    1    1    2    0    0  0.28039890417E+01  0.43773363604E+02 -0.10253964198E+02  0.45045682340E+02  0.00000000000E+00 0.  1.
         11    1    3    3    0    0 -0.41758484088E+01 -0.15438468463E+02  0.44006518225E+01  0.16587638624E+02  0.51100000000E-03 0. -1.
        -11    1    3    3    0    0  0.21171080315E+00 -0.51608221205E+00 -0.75451479289E+00  0.93832571508E+00  0.51100000000E-03 0.  1.
        -12    1    3    3    0    0  0.11601485639E+01 -0.27818812929E+02  0.66078271688E+01  0.28616353320E+02  0.00000000000E+00 0.  1.
</event>
<event>
 7    1  0.4623443E-009  0.4614232E+02  0.7816164E-02  0.1320468E+00
        -11   -1    0    0    0    0  0.00000000000E+00  0.00000000000E+00  0.45593999997E+02  0.45594000000E+02  0.51100000000E-03 0. -1.
         11   -1    0    0    0    0 -0.00000000000E+00 -0.00000000000E+00 -0.45593999997E+02  0.45594000000E+02  0.51100000000E-03 0.  1.
    9900012    2    1    2    0    0  0.28746655363E+02 -0.17785057292E+02  0.29773058401E+02  0.46142318032E+02  0.10000002471E+02 0.  0.
        -12    1    1    2    0    0 -0.28746655363E+02  0.17785057292E+02 -0.29773058401E+02  0.45045681968E+02  0.00000000000E+00 0.  1.
         11    1    3    3    0    0  0.13059075117E+02 -0.34679606689E+01  0.12103145828E+02  0.18139799704E+02  0.51100000000E-03 0. -1.
        -11    1    3    3    0    0  0.34576928533E+01 -0.55757227525E+01  0.68190050121E+01  0.94627244331E+01  0.51100000000E-03 0.  1.
         12    1    3    3    0    0  0.12229887392E+02 -0.87413738702E+01  0.10850907561E+02  0.18539793895E+02  0.00000000000E+00 0. -1.
</event>
<event>
 7    1  0.4623443E-009  0.4614232E+02  0.7816164E-02  0.1320468E+00
        -11   -1    0    0    0    0  0.00000000000E+00  0.00000000000E+00  0.45593999997E+02  0.45594000000E+02  0.51100000000E-03 0. -1.
         11   -1    0    0    0    0 -0.00000000000E+00 -0.00000000000E+00 -0.45593999997E+02  0.45594000000E+02  0.51100000000E-03 0.  1.
    9900012    2    1    2    0    0  0.14052383012E+02 -0.30345812407E+02  0.30179061140E+02  0.46142317296E+02  0.99999957598E+01 0.  0.
        -12    1    1    2    0    0 -0.14052383012E+02  0.30345812407E+02 -0.30179061140E+02  0.45045682704E+02  0.00000000000E+00 0.  1.
         11    1    3    3    0    0  0.43510539593E+01 -0.49238092182E+01  0.88576268893E+01  0.11028740733E+02  0.51100000000E-03 0. -1.
        -11    1    3    3    0    0  0.16233094687E+01 -0.41889974085E+01  0.93286487269E+00  0.45883624586E+01  0.51100000000E-03 0.  1.
         12    1    3    3    0    0  0.80780195838E+01 -0.21233005781E+02  0.20388569378E+02  0.30525214105E+02  0.00000000000E+00 0. -1.
</event>
<event>
 7    1  0.4623443E-009  0.4614232E+02  0.7816164E-02  0.1320468E+00
        -11   -1    0    0    0    0  0.00000000000E+00  0.00000000000E+00  0.45593999997E+02  0.45594000000E+02  0.51100000000E-03 0. -1.
         11   -1    0    0    0    0 -0.00000000000E+00 -0.00000000000E+00 -0.45593999997E+02  0.45594000000E+02  0.51100000000E-03 0.  1.
    9900012    2    1    2    0    0 -0.91739734103E+01  0.19452865033E+02 -0.39579513277E+02  0.46142316329E+02  0.99999869418E+01 0.  0.
         12    1    1    2    0    0  0.91739734103E+01 -0.19452865033E+02  0.39579513277E+02  0.45045683671E+02  0.00000000000E+00 0. -1.
         11    1    3    3    0    0 -0.15833241161E+01  0.32607970010E+00 -0.79850636911E+01  0.81470538012E+01  0.51100000000E-03 0. -1.
        -11    1    3    3    0    0 -0.26414723445E+01  0.32969921064E+01 -0.41083129474E+01  0.58928574250E+01  0.51100000000E-03 0.  1.
        -12    1    3    3    0    0 -0.49491769497E+01  0.15829793227E+02 -0.27486136638E+02  0.32102405103E+02  0.00000000000E+00 0.  1.
</event>
<event>
 7    1  0.4623443E-009  0.4614232E+02  0.7816164E-02  0.1320468E+00
        -11   -1    0    0    0    0  0.00000000000E+00  0.00000000000E+00  0.45593999997E+02  0.45594000000E+02  0.51100000000E-03 0.  1.
         11   -1    0    0    0    0 -0.00000000000E+00 -0.00000000000E+00 -0.45593999997E+02  0.45594000000E+02  0.51100000000E-03 0. -1.
    9900012    2    1    2    0    0  0.25729675958E+02 -0.34582566539E+02 -0.13082176312E+02  0.46142317961E+02  0.10000001821E+02 0.  0.
         12    1    1    2    0    0 -0.25729675958E+02  0.34582566539E+02  0.13082176312E+02  0.45045682039E+02  0.00000000000E+00 0. -1.
         11    1    3    3    0    0  0.31453365528E+00 -0.32778577739E+01 -0.15425387593E-01  0.32929502288E+01  0.51100000000E-03 0. -1.
        -11    1    3    3    0    0  0.12956246822E+02 -0.20799284693E+02 -0.82353596434E+01  0.25851416290E+02  0.51100000000E-03 0.  1.
         12    1    3    3    0    0  0.12458895480E+02 -0.10505424072E+02 -0.48313912811E+01  0.16997951442E+02  0.00000000000E+00 0. -1.
</event>
<event>
 7    1  0.4623443E-009  0.4614232E+02  0.7816164E-02  0.1320468E+00
        -11   -1    0    0    0    0  0.00000000000E+00  0.00000000000E+00  0.45593999997E+02  0.45594000000E+02  0.51100000000E-03 0. -1.
         11   -1    0    0    0    0 -0.00000000000E+00 -0.00000000000E+00 -0.45593999997E+02  0.45594000000E+02  0.51100000000E-03 0.  1.
    9900012    2    1    2    0    0  0.44264443768E+01  0.44573204020E+02  0.47696433135E+01  0.46142318478E+02  0.10000006541E+02 0.  0.
        -12    1    1    2    0    0 -0.44264443768E+01 -0.44573204020E+02 -0.47696433135E+01  0.45045681522E+02  0.00000000000E+00 0.  1.
         11    1    3    3    0    0 -0.52231646060E-01  0.19327431374E+02  0.35892437458E+01  0.19657950112E+02  0.51100000000E-03 0. -1.
        -11    1    3    3    0    0  0.55740187169E+01  0.15514077779E+02 -0.75290965253E+00  0.16502217039E+02  0.51100000000E-03 0.  1.
        -12    1    3    3    0    0 -0.10953426940E+01  0.97316948664E+01  0.19333092202E+01  0.99821513278E+01  0.00000000000E+00 0.  1.
</event>
<event>
 7    1  0.4623443E-009  0.4614232E+02  0.7816164E-02  0.1320468E+00
        -11   -1    0    0    0    0  0.00000000000E+00  0.00000000000E+00  0.45593999997E+02  0.45594000000E+02  0.51100000000E-03 0. -1.
         11   -1    0    0    0    0 -0.00000000000E+00 -0.00000000000E+00 -0.45593999997E+02  0.45594000000E+02  0.51100000000E-03 0.  1.
    9900012    2    1    2    0    0 -0.13647944749E+02  0.10487970145E+02 -0.41627510481E+02  0.46142317160E+02  0.99999945210E+01 0.  0.
         12    1    1    2    0    0  0.13647944749E+02 -0.10487970145E+02  0.41627510481E+02  0.45045682840E+02  0.00000000000E+00 0. -1.
         11    1    3    3    0    0 -0.17557467974E+01  0.61753501793E+01 -0.18897100263E+02  0.19957905583E+02  0.51100000000E-03 0. -1.
        -11    1    3    3    0    0 -0.36955124353E+01  0.22542175788E+01 -0.55558016640E+01  0.70430988523E+01  0.51100000000E-03 0.  1.
         12    1    3    3    0    0 -0.81966855161E+01  0.20584023866E+01 -0.17174608554E+02  0.19141312725E+02  0.00000000000E+00 0. -1.
</event>
<event>
 7    1  0.4623443E-009  0.4614232E+02  0.7816164E-02  0.1320468E+00
        -11   -1    0    0    0    0  0.00000000000E+00  0.00000000000E+00  0.45593999997E+02  0.45594000000E+02  0.51100000000E-03 0. -1.
         11   -1    0    0    0    0 -0.00000000000E+00 -0.00000000000E+00 -0.45593999997E+02  0.45594000000E+02  0.51100000000E-03 0.  1.
    9900012    2    1    2    0    0 -0.35391446237E+02  0.11912103393E+02  0.25192477314E+02  0.46142316664E+02  0.99999899959E+01 0.  0.
        -12    1    1    2    0    0  0.35391446237E+02 -0.11912103393E+02 -0.25192477314E+02  0.45045683336E+02  0.00000000000E+00 0.  1.
         11    1    3    3    0    0 -0.14684243606E+02  0.56484363493E+01  0.89613973673E+01  0.18106310682E+02  0.51100000000E-03 0. -1.
        -11    1    3    3    0    0 -0.95764209438E+01  0.62556571820E+01  0.59962452002E+01  0.12914954186E+02  0.51100000000E-03 0.  1.
        -12    1    3    3    0    0 -0.11130781688E+02  0.80098614127E-02  0.10234834746E+02  0.15121051796E+02  0.00000000000E+00 0.  1.
</event>
<event>
 7    1  0.4623443E-009  0.4614232E+02  0.7816164E-02  0.1320468E+00
        -11   -1    0    0    0    0  0.00000000000E+00  0.00000000000E+00  0.45593999997E+02  0.45594000000E+02  0.51100000000E-03 0. -1.
         11   -1    0    0    0    0 -0.00000000000E+00 -0.00000000000E+00 -0.45593999997E+02  0.45594000000E+02  0.51100000000E-03 0.  1.
    9900012    2    1    2    0    0  0.33403759022E+02  0.19482769910E+02 -0.23102467053E+02  0.46142318475E+02  0.10000006509E+02 0.  0.
         12    1    1    2    0    0 -0.33403759022E+02 -0.19482769910E+02  0.23102467053E+02  0.45045681525E+02  0.00000000000E+00 0. -1.
         11    1    3    3    0    0  0.63414759858E+01  0.96618316283E+00 -0.28541137061E+01  0.70209538448E+01  0.51100000000E-03 0. -1.
        -11    1    3    3    0    0  0.14742081107E+02  0.14032601977E+02 -0.12777856278E+02  0.24031572669E+02  0.51100000000E-03 0.  1.
        -12    1    3    3    0    0  0.12320201929E+02  0.44839847700E+01 -0.74704970686E+01  0.15089791961E+02  0.00000000000E+00 0.  1.
</event>
<event>
 7    1  0.4623443E-009  0.4614232E+02  0.7816164E-02  0.1320468E+00
        -11   -1    0    0    0    0  0.00000000000E+00  0.00000000000E+00  0.45593999997E+02  0.45594000000E+02  0.51100000000E-03 0. -1.
         11   -1    0    0    0    0 -0.00000000000E+00 -0.00000000000E+00 -0.45593999997E+02  0.45594000000E+02  0.51100000000E-03 0.  1.
    9900012    2    1    2    0    0 -0.13883344629E+02  0.42534287115E+02 -0.52154228814E+01  0.46142317917E+02  0.10000001425E+02 0.  0.
         12    1    1    2    0    0  0.13883344629E+02 -0.42534287115E+02  0.52154228814E+01  0.45045682083E+02  0.00000000000E+00 0. -1.
         11    1    3    3    0    0 -0.33218492301E+01  0.80306812128E+01 -0.13697384023E+01  0.87978808017E+01  0.51100000000E-03 0.  1.
        -11    1    3    3    0    0 -0.66516511095E+01  0.93212194567E+01  0.63785925613E+00  0.11468934533E+02  0.51100000000E-03 0. -1.
        -12    1    3    3    0    0 -0.39098442893E+01  0.25182386445E+02 -0.44835437353E+01  0.25875502582E+02  0.00000000000E+00 0.  1.
</event>
<event>
 7    1  0.4623443E-009  0.4614232E+02  0.7816164E-02  0.1320468E+00
        -11   -1    0    0    0    0  0.00000000000E+00  0.00000000000E+00  0.45593999997E+02  0.45594000000E+02  0.51100000000E-03 0. -1.
         11   -1    0    0    0    0 -0.00000000000E+00 -0.00000000000E+00 -0.45593999997E+02  0.45594000000E+02  0.51100000000E-03 0.  1.
    9900012    2    1    2    0    0 -0.28790105735E+02  0.89313591628E+01 -0.33473485805E+02  0.46142316337E+02  0.99999870178E+01 0.  0.
         12    1    1    2    0    0  0.28790105735E+02 -0.89313591628E+01  0.33473485805E+02  0.45045683663E+02  0.00000000000E+00 0. -1.
         11    1    3    3    0    0 -0.45173086542E+01  0.34545475169E+01 -0.28474158335E+01  0.63598548107E+01  0.51100000000E-03 0. -1.
        -11    1    3    3    0    0 -0.18417247856E+02  0.55299405907E+01 -0.25896173963E+02  0.32255031975E+02  0.51100000000E-03 0.  1.
        -12    1    3    3    0    0 -0.58555492251E+01 -0.53128944790E-01 -0.47298960080E+01  0.75274295519E+01  0.00000000000E+00 0.  1.
</event>
<event>
 7    1  0.4623443E-009  0.4614232E+02  0.7816164E-02  0.1320468E+00
        -11   -1    0    0    0    0  0.00000000000E+00  0.00000000000E+00  0.45593999997E+02  0.45594000000E+02  0.51100000000E-03 0. -1.
         11   -1    0    0    0    0 -0.00000000000E+00 -0.00000000000E+00 -0.45593999997E+02  0.45594000000E+02  0.51100000000E-03 0.  1.
    9900012    2    1    2    0    0  0.30704941479E+02 -0.29226361106E+02 -0.15236134161E+02  0.46142318754E+02  0.10000009056E+02 0.  0.
         12    1    1    2    0    0 -0.30704941479E+02  0.29226361106E+02  0.15236134161E+02  0.45045681246E+02  0.00000000000E+00 0. -1.
         11    1    3    3    0    0  0.17253441863E+01 -0.60928396715E+00 -0.27109569896E+01  0.32706769291E+01  0.51100000000E-03 0. -1.
        -11    1    3    3    0    0  0.43370078890E+01 -0.58462209855E+01 -0.37606673292E+01  0.81933238836E+01  0.51100000000E-03 0.  1.
        -12    1    3    3    0    0  0.24642589403E+02 -0.22770856154E+02 -0.87645098426E+01  0.34678317941E+02  0.00000000000E+00 0.  1.
</event>
<event>
 7    1  0.4623443E-009  0.4614232E+02  0.7816164E-02  0.1320468E+00
        -11   -1    0    0    0    0  0.00000000000E+00  0.00000000000E+00  0.45593999997E+02  0.45594000000E+02  0.51100000000E-03 0.  1.
         11   -1    0    0    0    0 -0.00000000000E+00 -0.00000000000E+00 -0.45593999997E+02  0.45594000000E+02  0.51100000000E-03 0. -1.
    9900012    2    1    2    0    0  0.57931378946E+01  0.43175800142E+02 -0.11463125155E+02  0.46142318709E+02  0.10000008648E+02 0.  0.
         12    1    1    2    0    0 -0.57931378946E+01 -0.43175800142E+02  0.11463125155E+02  0.45045681291E+02  0.00000000000E+00 0. -1.
         11    1    3    3    0    0  0.12623360814E+01  0.15735547496E+02 -0.33436617361E+01  0.16136326144E+02  0.51100000000E-03 0. -1.
        -11    1    3    3    0    0  0.18383191038E+01  0.71142908107E+01 -0.58206012155E+01  0.93740039277E+01  0.51100000000E-03 0.  1.
        -12    1    3    3    0    0  0.26924827095E+01  0.20325961836E+02 -0.22988622038E+01  0.20631988637E+02  0.00000000000E+00 0.  1.
</event>
<event>
 7    1  0.4623443E-009  0.4614232E+02  0.7816164E-02  0.1320468E+00
        -11   -1    0    0    0    0  0.00000000000E+00  0.00000000000E+00  0.45593999997E+02  0.45594000000E+02  0.51100000000E-03 0. -1.
         11   -1    0    0    0    0 -0.00000000000E+00 -0.00000000000E+00 -0.45593999997E+02  0.45594000000E+02  0.51100000000E-03 0.  1.
    9900012    2    1    2    0    0  0.45553695381E+01  0.36404991325E+02 -0.26135007556E+02  0.46142318687E+02  0.10000008440E+02 0.  0.
         12    1    1    2    0    0 -0.45553695381E+01 -0.36404991325E+02  0.26135007556E+02  0.45045681313E+02  0.00000000000E+00 0. -1.
         11    1    3    3    0    0 -0.24882264927E+00  0.83865491192E+01 -0.90131799116E+01  0.12313956765E+02  0.51100000000E-03 0. -1.
        -11    1    3    3    0    0  0.47236870756E+01  0.24110770868E+02 -0.17074497549E+02  0.29919574834E+02  0.51100000000E-03 0.  1.
        -12    1    3    3    0    0  0.80505111743E-01  0.39076713373E+01 -0.47330096010E-01  0.39087870870E+01  0.00000000000E+00 0.  1.
</event>
<event>
 7    1  0.4623443E-009  0.4614232E+02  0.7816164E-02  0.1320468E+00
        -11   -1    0    0    0    0  0.00000000000E+00  0.00000000000E+00  0.45593999997E+02  0.45594000000E+02  0.51100000000E-03 0.  1.
         11   -1    0    0    0    0 -0.00000000000E+00 -0.00000000000E+00 -0.45593999997E+02  0.45594000000E+02  0.51100000000E-03 0. -1.
    9900012    2    1    2    0    0 -0.30279539899E+02 -0.71116399438E+01  0.32583547195E+02  0.46142317554E+02  0.99999981132E+01 0.  0.
        -12    1    1    2    0    0  0.30279539899E+02  0.71116399438E+01 -0.32583547195E+02  0.45045682446E+02  0.00000000000E+00 0.  1.
         11    1    3    3    0    0 -0.26651216943E+01 -0.32659950149E+01  0.48649770430E+01  0.64372042824E+01  0.51100000000E-03 0. -1.
        -11    1    3    3    0    0 -0.73563669442E+01 -0.14767967144E+01  0.11088973301E+02  0.13388890629E+02  0.51100000000E-03 0.  1.
         12    1    3    3    0    0 -0.20258051261E+02 -0.23688482146E+01  0.16629596851E+02  0.26316222643E+02  0.00000000000E+00 0. -1.
</event>
<event>
 7    1  0.4623443E-009  0.4614232E+02  0.7816164E-02  0.1320468E+00
        -11   -1    0    0    0    0  0.00000000000E+00  0.00000000000E+00  0.45593999997E+02  0.45594000000E+02  0.51100000000E-03 0. -1.
         11   -1    0    0    0    0 -0.00000000000E+00 -0.00000000000E+00 -0.45593999997E+02  0.45594000000E+02  0.51100000000E-03 0.  1.
    9900012    2    1    2    0    0  0.21984893912E+02 -0.29676977833E+02  0.25788658847E+02  0.46142317646E+02  0.99999989517E+01 0.  0.
        -12    1    1    2    0    0 -0.21984893912E+02  0.29676977833E+02 -0.25788658847E+02  0.45045682354E+02  0.00000000000E+00 0.  1.
         11    1    3    3    0    0  0.16680075299E+02 -0.19469674666E+02  0.16694923541E+02  0.30594339605E+02  0.51100000000E-03 0. -1.
        -11    1    3    3    0    0  0.36994862324E+01 -0.92339336136E+01  0.93515816887E+01  0.13652978016E+02  0.51100000000E-03 0.  1.
         12    1    3    3    0    0  0.16053323800E+01 -0.97336955330E+00 -0.25784638246E+00  0.18950000249E+01  0.00000000000E+00 0. -1.
</event>
<event>
 7    1  0.4623443E-009  0.4614231E+02  0.7816164E-02  0.1320468E+00
        -11   -1    0    0    0    0  0.00000000000E+00  0.00000000000E+00  0.45593999997E+02  0.45594000000E+02  0.51100000000E-03 0. -1.
         11   -1    0    0    0    0 -0.00000000000E+00 -0.00000000000E+00 -0.45593999997E+02  0.45594000000E+02  0.51100000000E-03 0.  1.
    9900012    2    1    2    0    0  0.95213565496E+01  0.43544015442E+02 -0.65097024337E+01  0.46142314999E+02  0.99999748173E+01 0.  0.
         12    1    1    2    0    0 -0.95213565496E+01 -0.43544015442E+02  0.65097024337E+01  0.45045685001E+02  0.00000000000E+00 0. -1.
         11    1    3    3    0    0 -0.72956436591E-01  0.36037724255E+01  0.20312062328E+01  0.41374264172E+01  0.51100000000E-03 0. -1.
        -11    1    3    3    0    0  0.45995711080E+01  0.15886934045E+02 -0.41051374037E+01  0.17041211256E+02  0.51100000000E-03 0.  1.
        -12    1    3    3    0    0  0.49947418782E+01  0.24053308972E+02 -0.44357712628E+01  0.24963677326E+02  0.00000000000E+00 0.  1.
</event>
<event>
 7    1  0.4623443E-009  0.4614232E+02  0.7816164E-02  0.1320468E+00
        -11   -1    0    0    0    0  0.00000000000E+00  0.00000000000E+00  0.45593999997E+02  0.45594000000E+02  0.51100000000E-03 0. -1.
         11   -1    0    0    0    0 -0.00000000000E+00 -0.00000000000E+00 -0.45593999997E+02  0.45594000000E+02  0.51100000000E-03 0.  1.
    9900012    2    1    2    0    0 -0.40345711679E+02 -0.17961527004E+02  0.88724752460E+01  0.46142315188E+02  0.99999765381E+01 0.  0.
        -12    1    1    2    0    0  0.40345711679E+02  0.17961527004E+02 -0.88724752460E+01  0.45045684812E+02  0.00000000000E+00 0.  1.
         11    1    3    3    0    0 -0.33365132590E+01 -0.42620887230E+00  0.30572035112E+01  0.45453787851E+01  0.51100000000E-03 0. -1.
        -11    1    3    3    0    0 -0.86242516757E+01 -0.58773187021E+01  0.45397319367E+00  0.10446371811E+02  0.51100000000E-03 0.  1.
         12    1    3    3    0    0 -0.28384946744E+02 -0.11657999429E+02  0.53612985411E+01  0.31150564592E+02  0.00000000000E+00 0. -1.
</event>
<event>
 7    1  0.4623443E-009  0.4614231E+02  0.7816164E-02  0.1320468E+00
        -11   -1    0    0    0    0  0.00000000000E+00  0.00000000000E+00  0.45593999997E+02  0.45594000000E+02  0.51100000000E-03 0. -1.
         11   -1    0    0    0    0 -0.00000000000E+00 -0.00000000000E+00 -0.45593999997E+02  0.45594000000E+02  0.51100000000E-03 0.  1.
    9900012    2    1    2    0    0  0.10628126322E+01  0.25660845317E+01  0.44959975506E+02  0.46142314768E+02  0.99999727045E+01 0.  0.
        -12    1    1    2    0    0 -0.10628126322E+01 -0.25660845317E+01 -0.44959975506E+02  0.45045685232E+02  0.00000000000E+00 0.  1.
         11    1    3    3    0    0  0.48704414508E+01  0.48578220812E+00  0.21969485333E+02  0.22508120098E+02  0.51100000000E-03 0. -1.
        -11    1    3    3    0    0 -0.17567396780E+01 -0.79544875817E+00  0.72314995616E+01  0.74842139997E+01  0.51100000000E-03 0.  1.
         12    1    3    3    0    0 -0.20508891406E+01  0.28757510817E+01  0.15758990611E+02  0.16149980670E+02  0.00000000000E+00 0. -1.
</event>
<event>
 7    1  0.4623443E-009  0.4614232E+02  0.7816164E-02  0.1320468E+00
        -11   -1    0    0    0    0  0.00000000000E+00  0.00000000000E+00  0.45593999997E+02  0.45594000000E+02  0.51100000000E-03 0. -1.
         11   -1    0    0    0    0 -0.00000000000E+00 -0.00000000000E+00 -0.45593999997E+02  0.45594000000E+02  0.51100000000E-03 0.  1.
    9900012    2    1    2    0    0  0.27372239948E+02  0.17174109415E+02  0.31383498827E+02  0.46142317048E+02  0.99999934989E+01 0.  0.
        -12    1    1    2    0    0 -0.27372239948E+02 -0.17174109415E+02 -0.31383498827E+02  0.45045682952E+02  0.00000000000E+00 0.  1.
         11    1    3    3    0    0  0.91441077544E+01  0.69379865877E+01  0.98971630796E+01  0.15155995573E+02  0.51100000000E-03 0. -1.
        -11    1    3    3    0    0  0.10808501544E+02  0.65341851797E+01  0.18005245219E+02  0.21993365755E+02  0.51100000000E-03 0.  1.
        -12    1    3    3    0    0  0.74196306494E+01  0.37019376474E+01  0.34810905291E+01  0.89929557205E+01  0.00000000000E+00 0.  1.
</event>
<event>
 7    1  0.4623443E-009  0.4614232E+02  0.7816164E-02  0.1320468E+00
        -11   -1    0    0    0    0  0.00000000000E+00  0.00000000000E+00  0.45593999997E+02  0.45594000000E+02  0.51100000000E-03 0. -1.
         11   -1    0    0    0    0 -0.00000000000E+00 -0.00000000000E+00 -0.45593999997E+02  0.45594000000E+02  0.51100000000E-03 0.  1.
    9900012    2    1    2    0    0  0.23132216593E+02  0.33842628994E+02  0.18673255053E+02  0.46142318343E+02  0.10000005304E+02 0.  0.
        -12    1    1    2    0    0 -0.23132216593E+02 -0.33842628994E+02 -0.18673255053E+02  0.45045681657E+02  0.00000000000E+00 0.  1.
         11    1    3    3    0    0  0.75599532523E+01  0.10629322662E+02  0.47033459762E+01  0.13865671894E+02  0.51100000000E-03 0. -1.
        -11    1    3    3    0    0  0.13662934044E+02  0.13771882712E+02  0.83107879038E+01  0.21104732075E+02  0.51100000000E-03 0.  1.
        -12    1    3    3    0    0  0.19093292965E+01  0.94414236195E+01  0.56591211725E+01  0.11171914374E+02  0.00000000000E+00 0.  1.
</event>
<event>
 7    1  0.4623443E-009  0.4614232E+02  0.7816164E-02  0.1320468E+00
        -11   -1    0    0    0    0  0.00000000000E+00  0.00000000000E+00  0.45593999997E+02  0.45594000000E+02  0.51100000000E-03 0. -1.
         11   -1    0    0    0    0 -0.00000000000E+00 -0.00000000000E+00 -0.45593999997E+02  0.45594000000E+02  0.51100000000E-03 0.  1.
    9900012    2    1    2    0    0  0.22958273940E+02 -0.55803857628E+00  0.38752030059E+02  0.46142316710E+02  0.99999904158E+01 0.  0.
        -12    1    1    2    0    0 -0.22958273940E+02  0.55803857628E+00 -0.38752030059E+02  0.45045683290E+02  0.00000000000E+00 0.  1.
         11    1    3    3    0    0  0.81962176950E+01 -0.16992399013E+00  0.16843491284E+02  0.18732593456E+02  0.51100000000E-03 0. -1.
        -11    1    3    3    0    0  0.11111015235E+02  0.24958164319E+01  0.18158397163E+02  0.21433878487E+02  0.51100000000E-03 0.  1.
        -12    1    3    3    0    0  0.36510410106E+01 -0.28839310181E+01  0.37501416118E+01  0.59758447676E+01  0.00000000000E+00 0.  1.
</event>
<event>
 7    1  0.4623443E-009  0.4614232E+02  0.7816164E-02  0.1320468E+00
        -11   -1    0    0    0    0  0.00000000000E+00  0.00000000000E+00  0.45593999997E+02  0.45594000000E+02  0.51100000000E-03 0. -1.
         11   -1    0    0    0    0 -0.00000000000E+00 -0.00000000000E+00 -0.45593999997E+02  0.45594000000E+02  0.51100000000E-03 0.  1.
    9900012    2    1    2    0    0 -0.18313240195E+02 -0.21693056828E+02  0.34973560436E+02  0.46142318625E+02  0.10000007874E+02 0.  0.
        -12    1    1    2    0    0  0.18313240195E+02  0.21693056828E+02 -0.34973560436E+02  0.45045681375E+02  0.00000000000E+00 0.  1.
         11    1    3    3    0    0 -0.59690944844E+01 -0.35929421219E+01  0.73981390293E+01  0.10162272552E+02  0.51100000000E-03 0. -1.
        -11    1    3    3    0    0 -0.83704165552E+01 -0.57960504646E+01  0.11998816665E+02  0.15736253554E+02  0.51100000000E-03 0.  1.
        -12    1    3    3    0    0 -0.39737291555E+01 -0.12304064242E+02  0.15576604742E+02  0.20243792519E+02  0.00000000000E+00 0.  1.
</event>
<event>
 7    1  0.4623443E-009  0.4614232E+02  0.7816164E-02  0.1320468E+00
        -11   -1    0    0    0    0  0.00000000000E+00  0.00000000000E+00  0.45593999997E+02  0.45594000000E+02  0.51100000000E-03 0. -1.
         11   -1    0    0    0    0 -0.00000000000E+00 -0.00000000000E+00 -0.45593999997E+02  0.45594000000E+02  0.51100000000E-03 0.  1.
    9900012    2    1    2    0    0  0.33435505186E+00 -0.82631865541E+01 -0.44280034475E+02  0.46142317649E+02  0.99999989805E+01 0.  0.
         12    1    1    2    0    0 -0.33435505186E+00  0.82631865541E+01  0.44280034475E+02  0.45045682351E+02  0.00000000000E+00 0. -1.
         11    1    3    3    0    0 -0.12583212856E+01 -0.35159300656E+01 -0.27620622654E+02  0.27871920148E+02  0.51100000000E-03 0. -1.
        -11    1    3    3    0    0  0.40383158662E+00 -0.37844199323E+01 -0.16245774452E+02  0.16685625610E+02  0.51100000000E-03 0.  1.
        -12    1    3    3    0    0  0.11888447508E+01 -0.96283655613E+00 -0.41363736888E+00  0.15847718916E+01  0.00000000000E+00 0.  1.
</event>
<event>
 7    1  0.4623443E-009  0.4614232E+02  0.7816164E-02  0.1320468E+00
        -11   -1    0    0    0    0  0.00000000000E+00  0.00000000000E+00  0.45593999997E+02  0.45594000000E+02  0.51100000000E-03 0. -1.
         11   -1    0    0    0    0 -0.00000000000E+00 -0.00000000000E+00 -0.45593999997E+02  0.45594000000E+02  0.51100000000E-03 0.  1.
    9900012    2    1    2    0    0 -0.76931712974E+01  0.57422272059E+01  0.44010850246E+02  0.46142323213E+02  0.10000049711E+02 0.  0.
        -12    1    1    2    0    0  0.76931712974E+01 -0.57422272059E+01 -0.44010850246E+02  0.45045676787E+02  0.00000000000E+00 0.  1.
         11    1    3    3    0    0 -0.41023978853E+01  0.73221666295E+01  0.26096361408E+02  0.27412841362E+02  0.51100000000E-03 0.  1.
        -11    1    3    3    0    0 -0.38636554111E+01 -0.73283081527E-01  0.14077596910E+02  0.14598353967E+02  0.51100000000E-03 0. -1.
        -12    1    3    3    0    0  0.27288199895E+00 -0.15066563421E+01  0.38368919281E+01  0.41311278830E+01  0.00000000000E+00 0.  1.
</event>
<event>
 7    1  0.4623443E-009  0.4614232E+02  0.7816164E-02  0.1320468E+00
        -11   -1    0    0    0    0  0.00000000000E+00  0.00000000000E+00  0.45593999997E+02  0.45594000000E+02  0.51100000000E-03 0. -1.
         11   -1    0    0    0    0 -0.00000000000E+00 -0.00000000000E+00 -0.45593999997E+02  0.45594000000E+02  0.51100000000E-03 0.  1.
    9900012    2    1    2    0    0 -0.37817950847E+01  0.14679065897E+02  0.42418585597E+02  0.46142319255E+02  0.10000013625E+02 0.  0.
        -12    1    1    2    0    0  0.37817950847E+01 -0.14679065897E+02 -0.42418585597E+02  0.45045680745E+02  0.00000000000E+00 0.  1.
         11    1    3    3    0    0 -0.22040234627E+01  0.10624091782E+02  0.30495870313E+02  0.32368613687E+02  0.51100000000E-03 0. -1.
        -11    1    3    3    0    0  0.96692733410E+00  0.27882540471E+01  0.97756799830E+01  0.10211426369E+02  0.51100000000E-03 0.  1.
        -12    1    3    3    0    0 -0.25446989561E+01  0.12667200680E+01  0.21470353017E+01  0.35622791994E+01  0.00000000000E+00 0.  1.
</event>
<event>
 7    1  0.4623443E-009  0.4614232E+02  0.7816164E-02  0.1320468E+00
        -11   -1    0    0    0    0  0.00000000000E+00  0.00000000000E+00  0.45593999997E+02  0.45594000000E+02  0.51100000000E-03 0. -1.
         11   -1    0    0    0    0 -0.00000000000E+00 -0.00000000000E+00 -0.45593999997E+02  0.45594000000E+02  0.51100000000E-03 0.  1.
    9900012    2    1    2    0    0  0.39214297822E+02  0.15749001556E+01  0.22110450216E+02  0.46142317933E+02  0.10000001564E+02 0.  0.
        -12    1    1    2    0    0 -0.39214297822E+02 -0.15749001556E+01 -0.22110450216E+02  0.45045682067E+02  0.00000000000E+00 0.  1.
         11    1    3    3    0    0  0.28456790314E+02 -0.23382661982E+01  0.13029553626E+02  0.31385118635E+02  0.51100000000E-03 0. -1.
        -11    1    3    3    0    0  0.12048116814E+01  0.78590087025E-01  0.17244764882E+01  0.21051287393E+01  0.51100000000E-03 0.  1.
         12    1    3    3    0    0  0.95526958267E+01  0.38345762667E+01  0.73564201012E+01  0.12652070558E+02  0.00000000000E+00 0. -1.
</event>
<event>
 7    1  0.4623443E-009  0.4614232E+02  0.7816164E-02  0.1320468E+00
        -11   -1    0    0    0    0  0.00000000000E+00  0.00000000000E+00  0.45593999997E+02  0.45594000000E+02  0.51100000000E-03 0. -1.
         11   -1    0    0    0    0 -0.00000000000E+00 -0.00000000000E+00 -0.45593999997E+02  0.45594000000E+02  0.51100000000E-03 0.  1.
    9900012    2    1    2    0    0  0.74242165027E+00  0.40313450060E+01  0.44858785336E+02  0.46142317030E+02  0.99999933311E+01 0.  0.
        -12    1    1    2    0    0 -0.74242165027E+00 -0.40313450060E+01 -0.44858785336E+02  0.45045682970E+02  0.00000000000E+00 0.  1.
         11    1    3    3    0    0  0.19575623912E+01  0.89344279167E+00  0.24818195165E+01  0.32847707547E+01  0.51100000000E-03 0. -1.
        -11    1    3    3    0    0 -0.29924470225E+01  0.27129820152E+01  0.35938499117E+02  0.36164771942E+02  0.51100000000E-03 0.  1.
        -12    1    3    3    0    0  0.17773062815E+01  0.42492019914E+00  0.64384667023E+01  0.66927743328E+01  0.00000000000E+00 0.  1.
</event>
<event>
 7    1  0.4623443E-009  0.4614232E+02  0.7816164E-02  0.1320468E+00
        -11   -1    0    0    0    0  0.00000000000E+00  0.00000000000E+00  0.45593999997E+02  0.45594000000E+02  0.51100000000E-03 0. -1.
         11   -1    0    0    0    0 -0.00000000000E+00 -0.00000000000E+00 -0.45593999997E+02  0.45594000000E+02  0.51100000000E-03 0.  1.
    9900012    2    1    2    0    0  0.44891827319E+01 -0.96244980742E+01  0.43775904739E+02  0.46142316960E+02  0.99999926947E+01 0.  0.
        -12    1    1    2    0    0 -0.44891827319E+01  0.96244980742E+01 -0.43775904739E+02  0.45045683040E+02  0.00000000000E+00 0.  1.
         11    1    3    3    0    0 -0.59581442688E+00  0.13774430661E+00  0.57882644706E+01  0.58204788607E+01  0.51100000000E-03 0. -1.
        -11    1    3    3    0    0  0.34183326692E+01 -0.10056802587E+02  0.24171017460E+02  0.26401938600E+02  0.51100000000E-03 0.  1.
        -12    1    3    3    0    0  0.16666644895E+01  0.29456020613E+00  0.13816622808E+02  0.13919899499E+02  0.00000000000E+00 0.  1.
</event>
<event>
 7    1  0.4623443E-009  0.4614232E+02  0.7816164E-02  0.1320468E+00
        -11   -1    0    0    0    0  0.00000000000E+00  0.00000000000E+00  0.45593999997E+02  0.45594000000E+02  0.51100000000E-03 0. -1.
         11   -1    0    0    0    0 -0.00000000000E+00 -0.00000000000E+00 -0.45593999997E+02  0.45594000000E+02  0.51100000000E-03 0.  1.
    9900012    2    1    2    0    0  0.10688949572E+02 -0.38176692563E+00 -0.43757445239E+02  0.46142318711E+02  0.10000008661E+02 0.  0.
         12    1    1    2    0    0 -0.10688949572E+02  0.38176692563E+00  0.43757445239E+02  0.45045681289E+02  0.00000000000E+00 0. -1.
         11    1    3    3    0    0  0.88514609024E+01  0.37400764817E+00 -0.18182673467E+02  0.20226167618E+02  0.51100000000E-03 0. -1.
        -11    1    3    3    0    0  0.21879866626E+01 -0.19572173103E+01 -0.18521560108E+02  0.18752764445E+02  0.51100000000E-03 0.  1.
         12    1    3    3    0    0 -0.35049799319E+00  0.12014427365E+01 -0.70532116639E+01  0.71633866480E+01  0.00000000000E+00 0. -1.
</event>
<event>
 7    1  0.4623443E-009  0.4614232E+02  0.7816164E-02  0.1320468E+00
        -11   -1    0    0    0    0  0.00000000000E+00  0.00000000000E+00  0.45593999997E+02  0.45594000000E+02  0.51100000000E-03 0. -1.
         11   -1    0    0    0    0 -0.00000000000E+00 -0.00000000000E+00 -0.45593999997E+02  0.45594000000E+02  0.51100000000E-03 0.  1.
    9900012    2    1    2    0    0 -0.31736808803E+02 -0.38763486956E+01 -0.31731094846E+02  0.46142317717E+02  0.99999995951E+01 0.  0.
         12    1    1    2    0    0  0.31736808803E+02  0.38763486956E+01  0.31731094846E+02  0.45045682283E+02  0.00000000000E+00 0. -1.
         11    1    3    3    0    0 -0.46893844664E+01  0.16509009851E+01 -0.63302669818E+01  0.80491043637E+01  0.51100000000E-03 0. -1.
        -11    1    3    3    0    0 -0.33725896786E+01 -0.30296745280E+01 -0.49094137161E+01  0.66824869759E+01  0.51100000000E-03 0.  1.
         12    1    3    3    0    0 -0.23674834658E+02 -0.24975751527E+01 -0.20491414149E+02  0.31410726377E+02  0.00000000000E+00 0. -1.
</event>
<event>
 7    1  0.4623443E-009  0.4614232E+02  0.7816164E-02  0.1320468E+00
        -11   -1    0    0    0    0  0.00000000000E+00  0.00000000000E+00  0.45593999997E+02  0.45594000000E+02  0.51100000000E-03 0. -1.
         11   -1    0    0    0    0 -0.00000000000E+00 -0.00000000000E+00 -0.45593999997E+02  0.45594000000E+02  0.51100000000E-03 0.  1.
    9900012    2    1    2    0    0  0.22814968415E+02 -0.34105617138E+02 -0.18584874334E+02  0.46142318096E+02  0.10000003056E+02 0.  0.
         12    1    1    2    0    0 -0.22814968415E+02  0.34105617138E+02  0.18584874334E+02  0.45045681904E+02  0.00000000000E+00 0. -1.
         11    1    3    3    0    0  0.76251320319E+01 -0.52590417885E+01 -0.47833636971E+01  0.10425004919E+02  0.51100000000E-03 0. -1.
        -11    1    3    3    0    0  0.12715277962E+02 -0.22859518071E+02 -0.12934981943E+02  0.29181323106E+02  0.51100000000E-03 0.  1.
        -12    1    3    3    0    0  0.24745584212E+01 -0.59870572786E+01 -0.86652869414E+00  0.65359900715E+01  0.00000000000E+00 0.  1.
</event>
<event>
 7    1  0.4623443E-009  0.4614232E+02  0.7816164E-02  0.1320468E+00
        -11   -1    0    0    0    0  0.00000000000E+00  0.00000000000E+00  0.45593999997E+02  0.45594000000E+02  0.51100000000E-03 0. -1.
         11   -1    0    0    0    0 -0.00000000000E+00 -0.00000000000E+00 -0.45593999997E+02  0.45594000000E+02  0.51100000000E-03 0.  1.
    9900012    2    1    2    0    0  0.23314692850E+02  0.14669144993E+02  0.35642038037E+02  0.46142316601E+02  0.99999894169E+01 0.  0.
        -12    1    1    2    0    0 -0.23314692850E+02 -0.14669144993E+02 -0.35642038037E+02  0.45045683399E+02  0.00000000000E+00 0.  1.
         11    1    3    3    0    0  0.20480284415E+02  0.99524870771E+01  0.27680180987E+02  0.35842523187E+02  0.51100000000E-03 0. -1.
        -11    1    3    3    0    0  0.35104095971E+01  0.38490224881E+01  0.74397201753E+01  0.90822566690E+01  0.51100000000E-03 0.  1.
        -12    1    3    3    0    0 -0.67600116220E+00  0.86763542788E+00  0.52213687492E+00  0.12175367441E+01  0.00000000000E+00 0.  1.
</event>
<event>
 7    1  0.8287514E-009  0.4614232E+02  0.7816164E-02  0.1320468E+00
        -11   -1    0    0    0    0  0.00000000000E+00  0.00000000000E+00  0.45593999997E+02  0.45594000000E+02  0.51100000000E-03 0. -1.
         11   -1    0    0    0    0 -0.00000000000E+00 -0.00000000000E+00 -0.45593999997E+02  0.45594000000E+02  0.51100000000E-03 0.  1.
    9900012    2    1    2    0    0  0.14223301169E+02  0.20544945828E+02 -0.37479547268E+02  0.46142316981E+02  0.99999928897E+01 0.  0.
         12    1    1    2    0    0 -0.14223301169E+02 -0.20544945828E+02  0.37479547268E+02  0.45045683019E+02  0.00000000000E+00 0. -1.
         11    1    3    3    0    0  0.44278666177E+01  0.50172991572E+01 -0.98719880570E+01  0.11926250126E+02  0.51100000000E-03 0. -1.
        -11    1    3    3    0    0  0.96893356333E+01  0.87398657683E+01 -0.21120833499E+02  0.24826560104E+02  0.51100000000E-03 0.  1.
         12    1    3    3    0    0  0.10609891796E+00  0.67877809025E+01 -0.64867257116E+01  0.93895067505E+01  0.00000000000E+00 0. -1.
</event>
<event>
 7    1  0.4623443E-009  0.4614232E+02  0.7816164E-02  0.1320468E+00
        -11   -1    0    0    0    0  0.00000000000E+00  0.00000000000E+00  0.45593999997E+02  0.45594000000E+02  0.51100000000E-03 0. -1.
         11   -1    0    0    0    0 -0.00000000000E+00 -0.00000000000E+00 -0.45593999997E+02  0.45594000000E+02  0.51100000000E-03 0.  1.
    9900012    2    1    2    0    0  0.32700656246E+02 -0.11159793640E+02 -0.28900514179E+02  0.46142316158E+02  0.99999853812E+01 0.  0.
         12    1    1    2    0    0 -0.32700656246E+02  0.11159793640E+02  0.28900514179E+02  0.45045683842E+02  0.00000000000E+00 0. -1.
         11    1    3    3    0    0  0.55255719017E+01  0.10427821662E+01 -0.70952718623E+01  0.90532989871E+01  0.51100000000E-03 0. -1.
        -11    1    3    3    0    0  0.41732504382E+01 -0.14237936855E+01 -0.48133515664E+01  0.65277531542E+01  0.51100000000E-03 0.  1.
        -12    1    3    3    0    0  0.23001833906E+02 -0.10778782120E+02 -0.16991890750E+02  0.30561264017E+02  0.00000000000E+00 0.  1.
</event>
<event>
 7    1  0.4623443E-009  0.4614232E+02  0.7816164E-02  0.1320468E+00
        -11   -1    0    0    0    0  0.00000000000E+00  0.00000000000E+00  0.45593999997E+02  0.45594000000E+02  0.51100000000E-03 0. -1.
         11   -1    0    0    0    0 -0.00000000000E+00 -0.00000000000E+00 -0.45593999997E+02  0.45594000000E+02  0.51100000000E-03 0.  1.
    9900012    2    1    2    0    0 -0.22051128223E+02  0.79319424299E+01  0.38470060991E+02  0.46142316974E+02  0.99999928249E+01 0.  0.
        -12    1    1    2    0    0  0.22051128223E+02 -0.79319424299E+01 -0.38470060991E+02  0.45045683026E+02  0.00000000000E+00 0.  1.
         11    1    3    3    0    0 -0.16368960119E+02  0.55424814623E+01  0.30448131656E+02  0.35010722325E+02  0.51100000000E-03 0. -1.
        -11    1    3    3    0    0 -0.35370168959E+01  0.84521628489E+00  0.76394972795E+01  0.84608981813E+01  0.51100000000E-03 0.  1.
        -12    1    3    3    0    0 -0.21451512080E+01  0.15442446827E+01  0.38243205541E+00  0.26706964677E+01  0.00000000000E+00 0.  1.
</event>
<event>
 7    1  0.4623443E-009  0.4614232E+02  0.7816164E-02  0.1320468E+00
        -11   -1    0    0    0    0  0.00000000000E+00  0.00000000000E+00  0.45593999997E+02  0.45594000000E+02  0.51100000000E-03 0. -1.
         11   -1    0    0    0    0 -0.00000000000E+00 -0.00000000000E+00 -0.45593999997E+02  0.45594000000E+02  0.51100000000E-03 0.  1.
    9900012    2    1    2    0    0 -0.75932652223E+01 -0.19534827383E+02  0.39872878687E+02  0.46142316384E+02  0.99999874430E+01 0.  0.
        -12    1    1    2    0    0  0.75932652223E+01  0.19534827383E+02 -0.39872878687E+02  0.45045683616E+02  0.00000000000E+00 0.  1.
         11    1    3    3    0    0 -0.60206689397E+01 -0.17785617769E+02  0.33048695268E+02  0.38010431635E+02  0.51100000000E-03 0. -1.
        -11    1    3    3    0    0 -0.18272940303E+01 -0.26558011492E+01  0.39003169713E+01  0.50601142235E+01  0.51100000000E-03 0.  1.
        -12    1    3    3    0    0  0.25469774767E+00  0.90659153554E+00  0.29238664478E+01  0.30717705252E+01  0.00000000000E+00 0.  1.
</event>
<event>
 7    1  0.4623443E-009  0.4614232E+02  0.7816164E-02  0.1320468E+00
        -11   -1    0    0    0    0  0.00000000000E+00  0.00000000000E+00  0.45593999997E+02  0.45594000000E+02  0.51100000000E-03 0. -1.
         11   -1    0    0    0    0 -0.00000000000E+00 -0.00000000000E+00 -0.45593999997E+02  0.45594000000E+02  0.51100000000E-03 0.  1.
    9900012    2    1    2    0    0  0.15572198441E+02  0.30587766113E+02 -0.29172052698E+02  0.46142318091E+02  0.10000003006E+02 0.  0.
         12    1    1    2    0    0 -0.15572198441E+02 -0.30587766113E+02  0.29172052698E+02  0.45045681909E+02  0.00000000000E+00 0. -1.
         11    1    3    3    0    0  0.52551442035E+01  0.70907116609E+01 -0.42014322376E+01  0.97748025845E+01  0.51100000000E-03 0. -1.
        -11    1    3    3    0    0 -0.77350288217E+00  0.32273532948E+01 -0.35619552973E+01  0.48684331976E+01  0.51100000000E-03 0.  1.
        -12    1    3    3    0    0  0.11090557120E+02  0.20269701158E+02 -0.21408665163E+02  0.31499082309E+02  0.00000000000E+00 0.  1.
</event>
<event>
 7    1  0.4623443E-009  0.4614232E+02  0.7816164E-02  0.1320468E+00
        -11   -1    0    0    0    0  0.00000000000E+00  0.00000000000E+00  0.45593999997E+02  0.45594000000E+02  0.51100000000E-03 0. -1.
         11   -1    0    0    0    0 -0.00000000000E+00 -0.00000000000E+00 -0.45593999997E+02  0.45594000000E+02  0.51100000000E-03 0.  1.
    9900012    2    1    2    0    0  0.58842301616E+00  0.37041304479E+02  0.25626334440E+02  0.46142317676E+02  0.99999992272E+01 0.  0.
        -12    1    1    2    0    0 -0.58842301616E+00 -0.37041304479E+02 -0.25626334440E+02  0.45045682324E+02  0.00000000000E+00 0.  1.
         11    1    3    3    0    0  0.14204283357E+01  0.16514096061E+02  0.11307133121E+02  0.20064502113E+02  0.51100000000E-03 0. -1.
        -11    1    3    3    0    0  0.56443700737E+00  0.17171148905E+02  0.83816382512E+01  0.19115930631E+02  0.51100000000E-03 0.  1.
        -12    1    3    3    0    0 -0.13964423269E+01  0.33560595134E+01  0.59375630674E+01  0.69618849322E+01  0.00000000000E+00 0.  1.
</event>
<event>
 7    1  0.4623443E-009  0.4614232E+02  0.7816164E-02  0.1320468E+00
        -11   -1    0    0    0    0  0.00000000000E+00  0.00000000000E+00  0.45593999997E+02  0.45594000000E+02  0.51100000000E-03 0. -1.
         11   -1    0    0    0    0 -0.00000000000E+00 -0.00000000000E+00 -0.45593999997E+02  0.45594000000E+02  0.51100000000E-03 0.  1.
    9900012    2    1    2    0    0 -0.43745992567E+02 -0.40004874396E+01 -0.99698405066E+01  0.46142317797E+02  0.10000000325E+02 0.  0.
         12    1    1    2    0    0  0.43745992567E+02  0.40004874396E+01  0.99698405066E+01  0.45045682203E+02  0.00000000000E+00 0. -1.
         11    1    3    3    0    0 -0.10547262968E+01 -0.19402204994E+00 -0.12136898979E+01  0.16196096895E+01  0.51100000000E-03 0. -1.
        -11    1    3    3    0    0 -0.33913904425E+02  0.17942904819E+00 -0.80513630771E+01  0.34856987187E+02  0.51100000000E-03 0.  1.
        -12    1    3    3    0    0 -0.87773618456E+01 -0.39858944379E+01 -0.70478753158E+00  0.96657209200E+01  0.00000000000E+00 0.  1.
</event>
<event>
 7    1  0.4623443E-009  0.4614232E+02  0.7816164E-02  0.1320468E+00
        -11   -1    0    0    0    0  0.00000000000E+00  0.00000000000E+00  0.45593999997E+02  0.45594000000E+02  0.51100000000E-03 0. -1.
         11   -1    0    0    0    0 -0.00000000000E+00 -0.00000000000E+00 -0.45593999997E+02  0.45594000000E+02  0.51100000000E-03 0.  1.
    9900012    2    1    2    0    0  0.13427546582E+02  0.92486380217E+01  0.41991394212E+02  0.46142317629E+02  0.99999987914E+01 0.  0.
        -12    1    1    2    0    0 -0.13427546582E+02 -0.92486380217E+01 -0.41991394212E+02  0.45045682371E+02  0.00000000000E+00 0.  1.
         11    1    3    3    0    0  0.88600655015E+01  0.36269534202E+01  0.31054704463E+02  0.32496926337E+02  0.51100000000E-03 0. -1.
        -11    1    3    3    0    0 -0.64839226022E+00  0.96839821287E+00  0.17294451719E+01  0.20854708067E+01  0.51100000000E-03 0.  1.
         12    1    3    3    0    0  0.52158733406E+01  0.46532863886E+01  0.92072445765E+01  0.11559920485E+02  0.00000000000E+00 0. -1.
</event>
<event>
 7    1  0.4623443E-009  0.4614232E+02  0.7816164E-02  0.1320468E+00
        -11   -1    0    0    0    0  0.00000000000E+00  0.00000000000E+00  0.45593999997E+02  0.45594000000E+02  0.51100000000E-03 0. -1.
         11   -1    0    0    0    0 -0.00000000000E+00 -0.00000000000E+00 -0.45593999997E+02  0.45594000000E+02  0.51100000000E-03 0.  1.
    9900012    2    1    2    0    0  0.44567696979E+02  0.29294549327E+01  0.58525432380E+01  0.46142316715E+02  0.99999904624E+01 0.  0.
        -12    1    1    2    0    0 -0.44567696979E+02 -0.29294549327E+01 -0.58525432380E+01  0.45045683285E+02  0.00000000000E+00 0.  1.
         11    1    3    3    0    0  0.27196029026E+02  0.31202669829E+01  0.71783287788E+01  0.28299972882E+02  0.51100000000E-03 0. -1.
        -11    1    3    3    0    0  0.51030236757E+01  0.10868480762E+01 -0.17412181313E+01  0.55003572809E+01  0.51100000000E-03 0.  1.
         12    1    3    3    0    0  0.12268644278E+02 -0.12776601264E+01  0.41543259044E+00  0.12341986552E+02  0.00000000000E+00 0. -1.
</event>
<event>
 7    1  0.4623443E-009  0.4614232E+02  0.7816164E-02  0.1320468E+00
        -11   -1    0    0    0    0  0.00000000000E+00  0.00000000000E+00  0.45593999997E+02  0.45594000000E+02  0.51100000000E-03 0. -1.
         11   -1    0    0    0    0 -0.00000000000E+00 -0.00000000000E+00 -0.45593999997E+02  0.45594000000E+02  0.51100000000E-03 0.  1.
    9900012    2    1    2    0    0 -0.28661354908E+02 -0.20597563886E+01  0.34690020998E+02  0.46142318538E+02  0.10000007080E+02 0.  0.
        -12    1    1    2    0    0  0.28661354908E+02  0.20597563886E+01 -0.34690020998E+02  0.45045681462E+02  0.00000000000E+00 0.  1.
         11    1    3    3    0    0  0.19266533345E+00 -0.20321942759E+00  0.17106207422E+00  0.32814716336E+00  0.51100000000E-03 0. -1.
        -11    1    3    3    0    0 -0.25150349712E+01 -0.25715555782E+01  0.26746077488E+01  0.44823906422E+01  0.51100000000E-03 0.  1.
         12    1    3    3    0    0 -0.26338985270E+02  0.71501861723E+00  0.31844351175E+02  0.41331780732E+02  0.00000000000E+00 0. -1.
</event>
<event>
 7    1  0.4623443E-009  0.4614232E+02  0.7816164E-02  0.1320468E+00
        -11   -1    0    0    0    0  0.00000000000E+00  0.00000000000E+00  0.45593999997E+02  0.45594000000E+02  0.51100000000E-03 0. -1.
         11   -1    0    0    0    0 -0.00000000000E+00 -0.00000000000E+00 -0.45593999997E+02  0.45594000000E+02  0.51100000000E-03 0.  1.
    9900012    2    1    2    0    0  0.11020407060E+02 -0.24493510447E+02 -0.36162578251E+02  0.46142317726E+02  0.99999996759E+01 0.  0.
         12    1    1    2    0    0 -0.11020407060E+02  0.24493510447E+02  0.36162578251E+02  0.45045682274E+02  0.00000000000E+00 0. -1.
         11    1    3    3    0    0  0.18618380279E+01 -0.11169573055E+02 -0.10238104110E+02  0.15265797690E+02  0.51100000000E-03 0. -1.
        -11    1    3    3    0    0  0.10798084182E+01 -0.30082805883E+01 -0.25851375042E+01  0.41107997391E+01  0.51100000000E-03 0.  1.
         12    1    3    3    0    0  0.80787606136E+01 -0.10315656804E+02 -0.23339336637E+02  0.26765720296E+02  0.00000000000E+00 0. -1.
</event>
<event>
 7    1  0.4623443E-009  0.4614232E+02  0.7816164E-02  0.1320468E+00
        -11   -1    0    0    0    0  0.00000000000E+00  0.00000000000E+00  0.45593999997E+02  0.45594000000E+02  0.51100000000E-03 0. -1.
         11   -1    0    0    0    0 -0.00000000000E+00 -0.00000000000E+00 -0.45593999997E+02  0.45594000000E+02  0.51100000000E-03 0.  1.
    9900012    2    1    2    0    0  0.10247415350E+02  0.34860505771E+02 -0.26624220112E+02  0.46142317848E+02  0.10000000791E+02 0.  0.
         12    1    1    2    0    0 -0.10247415350E+02 -0.34860505771E+02  0.26624220112E+02  0.45045682152E+02  0.00000000000E+00 0. -1.
         11    1    3    3    0    0  0.11846501489E+01  0.14823088482E+00  0.18625677234E-02  0.11938894844E+01  0.51100000000E-03 0. -1.
        -11    1    3    3    0    0  0.68394499088E+01  0.22089698537E+02 -0.14436945050E+02  0.27260928802E+02  0.51100000000E-03 0.  1.
        -12    1    3    3    0    0  0.22233152927E+01  0.12622576349E+02 -0.12189137630E+02  0.17687499562E+02  0.00000000000E+00 0.  1.
</event>
<event>
 7    1  0.4623443E-009  0.4614232E+02  0.7816164E-02  0.1320468E+00
        -11   -1    0    0    0    0  0.00000000000E+00  0.00000000000E+00  0.45593999997E+02  0.45594000000E+02  0.51100000000E-03 0. -1.
         11   -1    0    0    0    0 -0.00000000000E+00 -0.00000000000E+00 -0.45593999997E+02  0.45594000000E+02  0.51100000000E-03 0.  1.
    9900012    2    1    2    0    0  0.10869142261E+02 -0.12273920531E+02  0.41956239622E+02  0.46142318499E+02  0.10000006729E+02 0.  0.
        -12    1    1    2    0    0 -0.10869142261E+02  0.12273920531E+02 -0.41956239622E+02  0.45045681501E+02  0.00000000000E+00 0.  1.
         11    1    3    3    0    0  0.12624004640E+01 -0.12846159987E+01  0.22882622991E+01  0.29120504471E+01  0.51100000000E-03 0. -1.
        -11    1    3    3    0    0  0.31793442051E+01  0.89368549710E+00  0.47091020800E+01  0.57517428665E+01  0.51100000000E-03 0.  1.
         12    1    3    3    0    0  0.64273975924E+01 -0.11882990029E+02  0.34958875243E+02  0.37478525185E+02  0.00000000000E+00 0. -1.
</event>
<event>
 7    1  0.4623443E-009  0.4614232E+02  0.7816164E-02  0.1320468E+00
        -11   -1    0    0    0    0  0.00000000000E+00  0.00000000000E+00  0.45593999997E+02  0.45594000000E+02  0.51100000000E-03 0. -1.
         11   -1    0    0    0    0 -0.00000000000E+00 -0.00000000000E+00 -0.45593999997E+02  0.45594000000E+02  0.51100000000E-03 0.  1.
    9900012    2    1    2    0    0 -0.19872253020E+02 -0.38665629661E+02  0.11797296857E+02  0.46142316852E+02  0.99999917070E+01 0.  0.
        -12    1    1    2    0    0  0.19872253020E+02  0.38665629661E+02 -0.11797296857E+02  0.45045683148E+02  0.00000000000E+00 0.  1.
         11    1    3    3    0    0 -0.16767943928E+02 -0.34915744022E+02  0.13125972731E+02  0.40896996033E+02  0.51100000000E-03 0. -1.
        -11    1    3    3    0    0 -0.97428766989E+00 -0.10929172895E+01 -0.11018339659E+01  0.18324145314E+01  0.51100000000E-03 0.  1.
         12    1    3    3    0    0 -0.21300214217E+01 -0.26569683502E+01 -0.22684190900E+00  0.34129062868E+01  0.00000000000E+00 0. -1.
</event>
<event>
 7    1  0.4623443E-009  0.4614232E+02  0.7816164E-02  0.1320468E+00
        -11   -1    0    0    0    0  0.00000000000E+00  0.00000000000E+00  0.45593999997E+02  0.45594000000E+02  0.51100000000E-03 0. -1.
         11   -1    0    0    0    0 -0.00000000000E+00 -0.00000000000E+00 -0.45593999997E+02  0.45594000000E+02  0.51100000000E-03 0.  1.
    9900012    2    1    2    0    0  0.90871991394E+01  0.23815729188E+02  0.37139567676E+02  0.46142316165E+02  0.99999854495E+01 0.  0.
        -12    1    1    2    0    0 -0.90871991394E+01 -0.23815729188E+02 -0.37139567676E+02  0.45045683835E+02  0.00000000000E+00 0.  1.
         11    1    3    3    0    0  0.46287542899E+00  0.24436907506E+01  0.31675348607E+01  0.40273012679E+01  0.51100000000E-03 0. -1.
        -11    1    3    3    0    0 -0.14170956736E+01  0.82144616616E+01  0.11024967123E+02  0.13821557107E+02  0.51100000000E-03 0.  1.
        -12    1    3    3    0    0  0.10041419384E+02  0.13157576776E+02  0.22947065692E+02  0.28293457790E+02  0.00000000000E+00 0.  1.
</event>
<event>
 7    1  0.4623443E-009  0.4614232E+02  0.7816164E-02  0.1320468E+00
        -11   -1    0    0    0    0  0.00000000000E+00  0.00000000000E+00  0.45593999997E+02  0.45594000000E+02  0.51100000000E-03 0. -1.
         11   -1    0    0    0    0 -0.00000000000E+00 -0.00000000000E+00 -0.45593999997E+02  0.45594000000E+02  0.51100000000E-03 0.  1.
    9900012    2    1    2    0    0  0.17798681463E+02  0.19721608628E+02 -0.36378270019E+02  0.46142318317E+02  0.10000005072E+02 0.  0.
         12    1    1    2    0    0 -0.17798681463E+02 -0.19721608628E+02  0.36378270019E+02  0.45045681683E+02  0.00000000000E+00 0. -1.
         11    1    3    3    0    0  0.11721848194E+02  0.11821705807E+02 -0.22332413094E+02  0.27854822350E+02  0.51100000000E-03 0. -1.
        -11    1    3    3    0    0  0.18768030433E+01  0.59798574583E+01 -0.11280675499E+02  0.12904833392E+02  0.51100000000E-03 0.  1.
         12    1    3    3    0    0  0.42000302253E+01  0.19200453620E+01 -0.27651814252E+01  0.53826625753E+01  0.00000000000E+00 0. -1.
</event>
<event>
 7    1  0.4623443E-009  0.4614232E+02  0.7816164E-02  0.1320468E+00
        -11   -1    0    0    0    0  0.00000000000E+00  0.00000000000E+00  0.45593999997E+02  0.45594000000E+02  0.51100000000E-03 0. -1.
         11   -1    0    0    0    0 -0.00000000000E+00 -0.00000000000E+00 -0.45593999997E+02  0.45594000000E+02  0.51100000000E-03 0.  1.
    9900012    2    1    2    0    0  0.15386192494E+02  0.21348924127E+02  0.36559568124E+02  0.46142317607E+02  0.99999985951E+01 0.  0.
        -12    1    1    2    0    0 -0.15386192494E+02 -0.21348924127E+02 -0.36559568124E+02  0.45045682393E+02  0.00000000000E+00 0.  1.
         11    1    3    3    0    0  0.54090999500E+01  0.69473394060E+01  0.94051796257E+01  0.12883372662E+02  0.51100000000E-03 0. -1.
        -11    1    3    3    0    0  0.72843204502E+01  0.48748392600E+01  0.88916536999E+01  0.12485467072E+02  0.51100000000E-03 0.  1.
        -12    1    3    3    0    0  0.26927720940E+01  0.95267454612E+01  0.18262734798E+02  0.20773477873E+02  0.00000000000E+00 0.  1.
</event>
<event>
 7    1  0.4623443E-009  0.4614232E+02  0.7816164E-02  0.1320468E+00
        -11   -1    0    0    0    0  0.00000000000E+00  0.00000000000E+00  0.45593999997E+02  0.45594000000E+02  0.51100000000E-03 0. -1.
         11   -1    0    0    0    0 -0.00000000000E+00 -0.00000000000E+00 -0.45593999997E+02  0.45594000000E+02  0.51100000000E-03 0.  1.
    9900012    2    1    2    0    0 -0.31633150666E+02  0.29850420506E+02 -0.11722186959E+02  0.46142317715E+02  0.99999995795E+01 0.  0.
         12    1    1    2    0    0  0.31633150666E+02 -0.29850420506E+02  0.11722186959E+02  0.45045682285E+02  0.00000000000E+00 0. -1.
         11    1    3    3    0    0 -0.22299222020E+02  0.20924808710E+02 -0.80426197395E+01  0.31619403138E+02  0.51100000000E-03 0.  1.
        -11    1    3    3    0    0 -0.23835953370E+01  0.31327989794E+01 -0.38040587771E+01  0.54741957964E+01  0.51100000000E-03 0. -1.
        -12    1    3    3    0    0 -0.69503333087E+01  0.57928128160E+01  0.12449155765E+00  0.90487187807E+01  0.00000000000E+00 0.  1.
</event>
<event>
 7    1  0.4623443E-009  0.4614232E+02  0.7816164E-02  0.1320468E+00
        -11   -1    0    0    0    0  0.00000000000E+00  0.00000000000E+00  0.45593999997E+02  0.45594000000E+02  0.51100000000E-03 0.  1.
         11   -1    0    0    0    0 -0.00000000000E+00 -0.00000000000E+00 -0.45593999997E+02  0.45594000000E+02  0.51100000000E-03 0. -1.
    9900012    2    1    2    0    0  0.41136023081E+02 -0.66566774758E+01  0.17106423007E+02  0.46142318098E+02  0.10000003068E+02 0.  0.
         12    1    1    2    0    0 -0.41136023081E+02  0.66566774758E+01 -0.17106423007E+02  0.45045681902E+02  0.00000000000E+00 0. -1.
         11    1    3    3    0    0  0.17735125702E+01 -0.17554530590E+01  0.20052068656E+01  0.32012211911E+01  0.51100000000E-03 0. -1.
        -11    1    3    3    0    0 -0.91272266976E-01  0.13556320661E+00  0.57453952502E+00  0.59733067612E+00  0.51100000000E-03 0.  1.
        -12    1    3    3    0    0  0.39453782778E+02 -0.50367876234E+01  0.14526676616E+02  0.42343766230E+02  0.00000000000E+00 0.  1.
</event>
<event>
 7    1  0.4623443E-009  0.4614232E+02  0.7816164E-02  0.1320468E+00
        -11   -1    0    0    0    0  0.00000000000E+00  0.00000000000E+00  0.45593999997E+02  0.45594000000E+02  0.51100000000E-03 0. -1.
         11   -1    0    0    0    0 -0.00000000000E+00 -0.00000000000E+00 -0.45593999997E+02  0.45594000000E+02  0.51100000000E-03 0.  1.
    9900012    2    1    2    0    0  0.90080429568E+01  0.20656530381E+02 -0.39003543199E+02  0.46142317994E+02  0.10000002126E+02 0.  0.
         12    1    1    2    0    0 -0.90080429568E+01 -0.20656530381E+02  0.39003543199E+02  0.45045682006E+02  0.00000000000E+00 0. -1.
         11    1    3    3    0    0 -0.13141856981E+00  0.74721659204E+01 -0.10713491584E+02  0.13062520299E+02  0.51100000000E-03 0. -1.
        -11    1    3    3    0    0 -0.45240066483E+00  0.33993242302E+01 -0.51539275090E+01  0.61905606057E+01  0.51100000000E-03 0.  1.
        -12    1    3    3    0    0  0.95918621914E+01  0.97850402300E+01 -0.23136124106E+02  0.26889237090E+02  0.00000000000E+00 0.  1.
</event>
<event>
 7    1  0.4623443E-009  0.4614232E+02  0.7816164E-02  0.1320468E+00
        -11   -1    0    0    0    0  0.00000000000E+00  0.00000000000E+00  0.45593999997E+02  0.45594000000E+02  0.51100000000E-03 0. -1.
         11   -1    0    0    0    0 -0.00000000000E+00 -0.00000000000E+00 -0.45593999997E+02  0.45594000000E+02  0.51100000000E-03 0.  1.
    9900012    2    1    2    0    0 -0.34883735121E+02 -0.30009095664E+01 -0.28341364600E+02  0.46142318946E+02  0.10000010806E+02 0.  0.
         12    1    1    2    0    0  0.34883735121E+02  0.30009095664E+01  0.28341364600E+02  0.45045681054E+02  0.00000000000E+00 0. -1.
         11    1    3    3    0    0 -0.40404612238E+01 -0.15510455075E+01 -0.12873938126E+01  0.45153573676E+01  0.51100000000E-03 0.  1.
        -11    1    3    3    0    0 -0.38451038509E+01  0.19541497981E+01 -0.49764312403E+01  0.65854683363E+01  0.51100000000E-03 0. -1.
        -12    1    3    3    0    0 -0.26998170046E+02 -0.34040138571E+01 -0.22077539547E+02  0.35041493242E+02  0.00000000000E+00 0.  1.
</event>
<event>
 7    1  0.4623443E-009  0.4614232E+02  0.7816164E-02  0.1320468E+00
        -11   -1    0    0    0    0  0.00000000000E+00  0.00000000000E+00  0.45593999997E+02  0.45594000000E+02  0.51100000000E-03 0. -1.
         11   -1    0    0    0    0 -0.00000000000E+00 -0.00000000000E+00 -0.45593999997E+02  0.45594000000E+02  0.51100000000E-03 0.  1.
    9900012    2    1    2    0    0  0.10499871508E+02 -0.33002912759E+02 -0.28804061782E+02  0.46142317328E+02  0.99999960533E+01 0.  0.
         12    1    1    2    0    0 -0.10499871508E+02  0.33002912759E+02  0.28804061782E+02  0.45045682672E+02  0.00000000000E+00 0. -1.
         11    1    3    3    0    0  0.86135717564E+00 -0.92234617513E+00 -0.20054846210E+01  0.23695205162E+01  0.51100000000E-03 0. -1.
        -11    1    3    3    0    0  0.88810866341E+01 -0.15058053898E+02 -0.11999157963E+02  0.21203737384E+02  0.51100000000E-03 0.  1.
        -12    1    3    3    0    0  0.75742769836E+00 -0.17022512686E+02 -0.14799419198E+02  0.22569059428E+02  0.00000000000E+00 0.  1.
</event>
<event>
 7    1  0.4623443E-009  0.4614232E+02  0.7816164E-02  0.1320468E+00
        -11   -1    0    0    0    0  0.00000000000E+00  0.00000000000E+00  0.45593999997E+02  0.45594000000E+02  0.51100000000E-03 0. -1.
         11   -1    0    0    0    0 -0.00000000000E+00 -0.00000000000E+00 -0.45593999997E+02  0.45594000000E+02  0.51100000000E-03 0.  1.
    9900012    2    1    2    0    0 -0.28475505872E+02 -0.35574262152E+01 -0.34721804973E+02  0.46142318115E+02  0.10000003223E+02 0.  0.
         12    1    1    2    0    0  0.28475505872E+02  0.35574262152E+01  0.34721804973E+02  0.45045681885E+02  0.00000000000E+00 0. -1.
         11    1    3    3    0    0 -0.24401429552E+02 -0.29153736981E+01 -0.32130863197E+02  0.40451471395E+02  0.51100000000E-03 0.  1.
        -11    1    3    3    0    0 -0.19884107046E+01 -0.12554376776E+01 -0.26148497873E+01  0.35167229865E+01  0.51100000000E-03 0. -1.
         12    1    3    3    0    0 -0.20856656156E+01  0.61338516045E+00  0.23908010826E-01  0.21741237334E+01  0.00000000000E+00 0. -1.
</event>
<event>
 7    1  0.4623443E-009  0.4614232E+02  0.7816164E-02  0.1320468E+00
        -11   -1    0    0    0    0  0.00000000000E+00  0.00000000000E+00  0.45593999997E+02  0.45594000000E+02  0.51100000000E-03 0.  1.
         11   -1    0    0    0    0 -0.00000000000E+00 -0.00000000000E+00 -0.45593999997E+02  0.45594000000E+02  0.51100000000E-03 0. -1.
    9900012    2    1    2    0    0  0.19243605170E+02 -0.25120094964E+02  0.32058975036E+02  0.46142318839E+02  0.10000009826E+02 0.  0.
        -12    1    1    2    0    0 -0.19243605170E+02  0.25120094964E+02 -0.32058975036E+02  0.45045681161E+02  0.00000000000E+00 0.  1.
         11    1    3    3    0    0  0.78011832067E+00 -0.35569130579E+01  0.12179447557E+01  0.38397401976E+01  0.51100000000E-03 0. -1.
        -11    1    3    3    0    0  0.31594531796E+01 -0.70042028845E+01  0.64117149464E+01  0.10007551711E+02  0.51100000000E-03 0.  1.
         12    1    3    3    0    0  0.15304033670E+02 -0.14558979022E+02  0.24429315334E+02  0.32295026930E+02  0.00000000000E+00 0. -1.
</event>
<event>
 7    1  0.4623443E-009  0.4614232E+02  0.7816164E-02  0.1320468E+00
        -11   -1    0    0    0    0  0.00000000000E+00  0.00000000000E+00  0.45593999997E+02  0.45594000000E+02  0.51100000000E-03 0. -1.
         11   -1    0    0    0    0 -0.00000000000E+00 -0.00000000000E+00 -0.45593999997E+02  0.45594000000E+02  0.51100000000E-03 0.  1.
    9900012    2    1    2    0    0  0.14224188312E+02  0.12128695832E+02  0.40983904536E+02  0.46142320666E+02  0.10000026485E+02 0.  0.
        -12    1    1    2    0    0 -0.14224188312E+02 -0.12128695832E+02 -0.40983904536E+02  0.45045679334E+02  0.00000000000E+00 0.  1.
         11    1    3    3    0    0  0.40211177034E+01  0.61612974339E+01  0.13237345691E+02  0.15144579719E+02  0.51100000000E-03 0.  1.
        -11    1    3    3    0    0  0.10058247289E+02  0.65602120458E+01  0.27894755842E+02  0.30369756739E+02  0.51100000000E-03 0. -1.
        -12    1    3    3    0    0  0.14482331920E+00 -0.59281364813E+00 -0.14819699762E+00  0.62798420784E+00  0.00000000000E+00 0.  1.
</event>
<event>
 7    1  0.4623443E-009  0.4614231E+02  0.7816164E-02  0.1320468E+00
        -11   -1    0    0    0    0  0.00000000000E+00  0.00000000000E+00  0.45593999997E+02  0.45594000000E+02  0.51100000000E-03 0. -1.
         11   -1    0    0    0    0 -0.00000000000E+00 -0.00000000000E+00 -0.45593999997E+02  0.45594000000E+02  0.51100000000E-03 0.  1.
    9900012    2    1    2    0    0 -0.28296479571E+02 -0.16221529778E+02  0.31069035488E+02  0.46142314850E+02  0.99999734561E+01 0.  0.
        -12    1    1    2    0    0  0.28296479571E+02  0.16221529778E+02 -0.31069035488E+02  0.45045685150E+02  0.00000000000E+00 0.  1.
         11    1    3    3    0    0 -0.17749046366E+02 -0.78817538684E+01  0.16672892968E+02  0.25595625624E+02  0.51100000000E-03 0. -1.
        -11    1    3    3    0    0 -0.68965134808E+01 -0.72562829029E+01  0.69613064610E+01  0.12193249266E+02  0.51100000000E-03 0.  1.
        -12    1    3    3    0    0 -0.36509197243E+01 -0.10834930070E+01  0.74348360596E+01  0.83534399599E+01  0.00000000000E+00 0.  1.
</event>
<event>
 7    1  0.4623443E-009  0.4614231E+02  0.7816164E-02  0.1320468E+00
        -11   -1    0    0    0    0  0.00000000000E+00  0.00000000000E+00  0.45593999997E+02  0.45594000000E+02  0.51100000000E-03 0. -1.
         11   -1    0    0    0    0 -0.00000000000E+00 -0.00000000000E+00 -0.45593999997E+02  0.45594000000E+02  0.51100000000E-03 0.  1.
    9900012    2    1    2    0    0 -0.19904370644E+02 -0.30120726208E+02  0.26938293510E+02  0.46142314577E+02  0.99999709623E+01 0.  0.
        -12    1    1    2    0    0  0.19904370644E+02  0.30120726208E+02 -0.26938293510E+02  0.45045685423E+02  0.00000000000E+00 0.  1.
         11    1    3    3    0    0 -0.57189572059E+01 -0.82639209031E+01  0.48469118680E+01  0.11157572099E+02  0.51100000000E-03 0.  1.
        -11    1    3    3    0    0 -0.10694296370E+02 -0.20557470212E+02  0.20480891048E+02  0.30926436180E+02  0.51100000000E-03 0. -1.
         12    1    3    3    0    0 -0.34911170672E+01 -0.12993350928E+01  0.16104905937E+01  0.40583062986E+01  0.00000000000E+00 0. -1.
</event>
<event>
 7    1  0.4623443E-009  0.4614232E+02  0.7816164E-02  0.1320468E+00
        -11   -1    0    0    0    0  0.00000000000E+00  0.00000000000E+00  0.45593999997E+02  0.45594000000E+02  0.51100000000E-03 0. -1.
         11   -1    0    0    0    0 -0.00000000000E+00 -0.00000000000E+00 -0.45593999997E+02  0.45594000000E+02  0.51100000000E-03 0.  1.
    9900012    2    1    2    0    0  0.19148394763E+02  0.34044440615E+02  0.22437206720E+02  0.46142320916E+02  0.10000028767E+02 0.  0.
        -12    1    1    2    0    0 -0.19148394763E+02 -0.34044440615E+02 -0.22437206720E+02  0.45045679084E+02  0.00000000000E+00 0.  1.
         11    1    3    3    0    0 -0.53883954606E+00  0.13593509350E+00  0.89802147765E+00  0.10560630859E+01  0.51100000000E-03 0. -1.
        -11    1    3    3    0    0  0.57928180315E+01  0.10135192057E+02  0.94238669950E+01  0.15002937318E+02  0.51100000000E-03 0.  1.
         12    1    3    3    0    0  0.13894416278E+02  0.23773313464E+02  0.12115318247E+02  0.30083320512E+02  0.00000000000E+00 0. -1.
</event>
<event>
 7    1  0.4623443E-009  0.4614232E+02  0.7816164E-02  0.1320468E+00
        -11   -1    0    0    0    0  0.00000000000E+00  0.00000000000E+00  0.45593999997E+02  0.45594000000E+02  0.51100000000E-03 0. -1.
         11   -1    0    0    0    0 -0.00000000000E+00 -0.00000000000E+00 -0.45593999997E+02  0.45594000000E+02  0.51100000000E-03 0.  1.
    9900012    2    1    2    0    0  0.15899830967E+02  0.47248556026E+01 -0.41880600213E+02  0.46142316973E+02  0.99999928093E+01 0.  0.
         12    1    1    2    0    0 -0.15899830967E+02 -0.47248556026E+01  0.41880600213E+02  0.45045683027E+02  0.00000000000E+00 0. -1.
         11    1    3    3    0    0  0.14446402564E+02  0.35899954174E+01 -0.26386174826E+02  0.30295492014E+02  0.51100000000E-03 0. -1.
        -11    1    3    3    0    0  0.15056013497E+01 -0.53146129466E+00 -0.90788711136E+01  0.92181987119E+01  0.51100000000E-03 0.  1.
         12    1    3    3    0    0 -0.52172947401E-01  0.16663214799E+01 -0.64155542730E+01  0.66286262469E+01  0.00000000000E+00 0. -1.
</event>
<event>
 7    1  0.4623443E-009  0.4614232E+02  0.7816164E-02  0.1320468E+00
        -11   -1    0    0    0    0  0.00000000000E+00  0.00000000000E+00  0.45593999997E+02  0.45594000000E+02  0.51100000000E-03 0.  1.
         11   -1    0    0    0    0 -0.00000000000E+00 -0.00000000000E+00 -0.45593999997E+02  0.45594000000E+02  0.51100000000E-03 0. -1.
    9900012    2    1    2    0    0 -0.39283192749E+02 -0.93301591020E+01  0.19972292897E+02  0.46142316688E+02  0.99999902189E+01 0.  0.
        -12    1    1    2    0    0  0.39283192749E+02  0.93301591020E+01 -0.19972292897E+02  0.45045683312E+02  0.00000000000E+00 0.  1.
         11    1    3    3    0    0 -0.22196640116E+02 -0.59104669344E+01  0.70565365835E+01  0.24029547658E+02  0.51100000000E-03 0. -1.
        -11    1    3    3    0    0 -0.62406493887E+01 -0.23001774630E+01  0.72002408413E+01  0.98020400728E+01  0.51100000000E-03 0.  1.
         12    1    3    3    0    0 -0.10845903244E+02 -0.11195147045E+01  0.57155154723E+01  0.12310728958E+02  0.00000000000E+00 0. -1.
</event>
<event>
 7    1  0.4623443E-009  0.4614232E+02  0.7816164E-02  0.1320468E+00
        -11   -1    0    0    0    0  0.00000000000E+00  0.00000000000E+00  0.45593999997E+02  0.45594000000E+02  0.51100000000E-03 0. -1.
         11   -1    0    0    0    0 -0.00000000000E+00 -0.00000000000E+00 -0.45593999997E+02  0.45594000000E+02  0.51100000000E-03 0.  1.
    9900012    2    1    2    0    0  0.16379694766E+02  0.31194661400E+02  0.28066210460E+02  0.46142317964E+02  0.10000001853E+02 0.  0.
        -12    1    1    2    0    0 -0.16379694766E+02 -0.31194661400E+02 -0.28066210460E+02  0.45045682036E+02  0.00000000000E+00 0.  1.
         11    1    3    3    0    0 -0.58720474843E+00  0.35857671661E+01  0.11374431415E+01  0.38074023621E+01  0.51100000000E-03 0.  1.
        -11    1    3    3    0    0  0.91992934795E+01  0.16736030564E+02  0.13475923086E+02  0.23373536807E+02  0.51100000000E-03 0. -1.
        -12    1    3    3    0    0  0.77676060348E+01  0.10872863670E+02  0.13452844232E+02  0.18961378795E+02  0.00000000000E+00 0.  1.
</event>
<event>
 7    1  0.4623443E-009  0.4614232E+02  0.7816164E-02  0.1320468E+00
        -11   -1    0    0    0    0  0.00000000000E+00  0.00000000000E+00  0.45593999997E+02  0.45594000000E+02  0.51100000000E-03 0. -1.
         11   -1    0    0    0    0 -0.00000000000E+00 -0.00000000000E+00 -0.45593999997E+02  0.45594000000E+02  0.51100000000E-03 0.  1.
    9900012    2    1    2    0    0  0.12383426897E+02 -0.30214250620E+02  0.31030038382E+02  0.46142317807E+02  0.10000000416E+02 0.  0.
        -12    1    1    2    0    0 -0.12383426897E+02  0.30214250620E+02 -0.31030038382E+02  0.45045682193E+02  0.00000000000E+00 0.  1.
         11    1    3    3    0    0  0.27236300694E+01 -0.41412094723E+01  0.45092014650E+01  0.67007965767E+01  0.51100000000E-03 0. -1.
        -11    1    3    3    0    0  0.90999597713E+01 -0.24036945682E+02  0.19938842151E+02  0.32529086248E+02  0.51100000000E-03 0.  1.
         12    1    3    3    0    0  0.55983705588E+00 -0.20360954657E+01  0.65819947661E+01  0.69124349817E+01  0.00000000000E+00 0. -1.
</event>
<event>
 7    1  0.4623443E-009  0.4614232E+02  0.7816164E-02  0.1320468E+00
        -11   -1    0    0    0    0  0.00000000000E+00  0.00000000000E+00  0.45593999997E+02  0.45594000000E+02  0.51100000000E-03 0.  1.
         11   -1    0    0    0    0 -0.00000000000E+00 -0.00000000000E+00 -0.45593999997E+02  0.45594000000E+02  0.51100000000E-03 0. -1.
    9900012    2    1    2    0    0  0.40408887297E+02  0.14207517970E+02 -0.13942084638E+02  0.46142318037E+02  0.10000002518E+02 0.  0.
         12    1    1    2    0    0 -0.40408887297E+02 -0.14207517970E+02  0.13942084638E+02  0.45045681963E+02  0.00000000000E+00 0. -1.
         11    1    3    3    0    0  0.50090068525E+01  0.42089225870E+01 -0.10324918004E+01  0.66235352019E+01  0.51100000000E-03 0. -1.
        -11    1    3    3    0    0  0.29173731566E+02  0.10112688557E+02 -0.89827390567E+01  0.32156845066E+02  0.51100000000E-03 0.  1.
        -12    1    3    3    0    0  0.62261488779E+01 -0.11409317473E+00 -0.39268537813E+01  0.73619377695E+01  0.00000000000E+00 0.  1.
</event>
<event>
 7    1  0.4623443E-009  0.4614231E+02  0.7816164E-02  0.1320468E+00
        -11   -1    0    0    0    0  0.00000000000E+00  0.00000000000E+00  0.45593999997E+02  0.45594000000E+02  0.51100000000E-03 0. -1.
         11   -1    0    0    0    0 -0.00000000000E+00 -0.00000000000E+00 -0.45593999997E+02  0.45594000000E+02  0.51100000000E-03 0.  1.
    9900012    2    1    2    0    0  0.13510352705E+02  0.92444682688E+01  0.41965751620E+02  0.46142310608E+02  0.99999347744E+01 0.  0.
        -12    1    1    2    0    0 -0.13510352705E+02 -0.92444682688E+01 -0.41965751620E+02  0.45045689392E+02  0.00000000000E+00 0.  1.
         11    1    3    3    0    0  0.24810718770E+01  0.21034724566E+01  0.87703386893E+01  0.93540983007E+01  0.51100000000E-03 0. -1.
        -11    1    3    3    0    0 -0.83959584506E+00  0.40532512735E+00  0.86833200543E+01  0.87332271852E+01  0.51100000000E-03 0.  1.
        -12    1    3    3    0    0  0.11868876673E+02  0.67356706849E+01  0.24512092876E+02  0.28054985122E+02  0.00000000000E+00 0.  1.
</event>
<event>
 7    1  0.4623443E-009  0.4614232E+02  0.7816164E-02  0.1320468E+00
        -11   -1    0    0    0    0  0.00000000000E+00  0.00000000000E+00  0.45593999997E+02  0.45594000000E+02  0.51100000000E-03 0. -1.
         11   -1    0    0    0    0 -0.00000000000E+00 -0.00000000000E+00 -0.45593999997E+02  0.45594000000E+02  0.51100000000E-03 0.  1.
    9900012    2    1    2    0    0 -0.10182635277E+02  0.42174519391E+02  0.12113517739E+02  0.46142318086E+02  0.10000002965E+02 0.  0.
        -12    1    1    2    0    0  0.10182635277E+02 -0.42174519391E+02 -0.12113517739E+02  0.45045681914E+02  0.00000000000E+00 0.  1.
         11    1    3    3    0    0 -0.17926769036E+01  0.18167148896E+02  0.51945928090E+01  0.18980062809E+02  0.51100000000E-03 0. -1.
        -11    1    3    3    0    0  0.63184610284E+00  0.62353036322E+01  0.24996147620E+01  0.67473191049E+01  0.51100000000E-03 0.  1.
        -12    1    3    3    0    0 -0.90218044762E+01  0.17772066863E+02  0.44193101681E+01  0.20414936173E+02  0.00000000000E+00 0.  1.
</event>
<event>
 7    1  0.4623443E-009  0.4614232E+02  0.7816164E-02  0.1320468E+00
        -11   -1    0    0    0    0  0.00000000000E+00  0.00000000000E+00  0.45593999997E+02  0.45594000000E+02  0.51100000000E-03 0. -1.
         11   -1    0    0    0    0 -0.00000000000E+00 -0.00000000000E+00 -0.45593999997E+02  0.45594000000E+02  0.51100000000E-03 0.  1.
    9900012    2    1    2    0    0 -0.81359814473E+01  0.11901387851E+02  0.42676411898E+02  0.46142319193E+02  0.10000013056E+02 0.  0.
        -12    1    1    2    0    0  0.81359814473E+01 -0.11901387851E+02 -0.42676411898E+02  0.45045680807E+02  0.00000000000E+00 0.  1.
         11    1    3    3    0    0 -0.29380227486E+01  0.33844006910E+00  0.65280507700E+01  0.71667263425E+01  0.51100000000E-03 0. -1.
        -11    1    3    3    0    0 -0.48865022337E+00  0.12658206915E+00  0.10385404921E+02  0.10397665012E+02  0.51100000000E-03 0.  1.
         12    1    3    3    0    0 -0.47093084754E+01  0.11436365713E+02  0.25762956206E+02  0.28577927838E+02  0.00000000000E+00 0. -1.
</event>
<event>
 7    1  0.4623443E-009  0.4614232E+02  0.7816164E-02  0.1320468E+00
        -11   -1    0    0    0    0  0.00000000000E+00  0.00000000000E+00  0.45593999997E+02  0.45594000000E+02  0.51100000000E-03 0. -1.
         11   -1    0    0    0    0 -0.00000000000E+00 -0.00000000000E+00 -0.45593999997E+02  0.45594000000E+02  0.51100000000E-03 0.  1.
    9900012    2    1    2    0    0  0.14624124465E+02 -0.18232366013E+02  0.38507522080E+02  0.46142318259E+02  0.10000004540E+02 0.  0.
        -12    1    1    2    0    0 -0.14624124465E+02  0.18232366013E+02 -0.38507522080E+02  0.45045681741E+02  0.00000000000E+00 0.  1.
         11    1    3    3    0    0 -0.27203193149E+00 -0.11072444435E-01  0.21381888268E+01  0.21554525490E+01  0.51100000000E-03 0.  1.
        -11    1    3    3    0    0  0.87243811785E+01 -0.15634405552E+02  0.28497227430E+02  0.33654738676E+02  0.51100000000E-03 0. -1.
         12    1    3    3    0    0  0.61717752183E+01 -0.25868880164E+01  0.78721058230E+01  0.10332127034E+02  0.00000000000E+00 0. -1.
</event>
<event>
 7    1  0.4623443E-009  0.4614232E+02  0.7816164E-02  0.1320468E+00
        -11   -1    0    0    0    0  0.00000000000E+00  0.00000000000E+00  0.45593999997E+02  0.45594000000E+02  0.51100000000E-03 0. -1.
         11   -1    0    0    0    0 -0.00000000000E+00 -0.00000000000E+00 -0.45593999997E+02  0.45594000000E+02  0.51100000000E-03 0.  1.
    9900012    2    1    2    0    0 -0.14380135352E+02  0.26999091379E+02  0.33066210589E+02  0.46142317513E+02  0.99999977400E+01 0.  0.
        -12    1    1    2    0    0  0.14380135352E+02 -0.26999091379E+02 -0.33066210589E+02  0.45045682487E+02  0.00000000000E+00 0.  1.
         11    1    3    3    0    0 -0.63828493236E+01  0.96312155181E+01  0.12684507151E+02  0.17158024355E+02  0.51100000000E-03 0. -1.
        -11    1    3    3    0    0  0.10328430225E+01  0.45752175764E+01  0.28973464284E+01  0.55130751099E+01  0.51100000000E-03 0.  1.
        -12    1    3    3    0    0 -0.90301290506E+01  0.12792658284E+02  0.17484357009E+02  0.23471218048E+02  0.00000000000E+00 0.  1.
</event>
<event>
 7    1  0.4623443E-009  0.4614232E+02  0.7816164E-02  0.1320468E+00
        -11   -1    0    0    0    0  0.00000000000E+00  0.00000000000E+00  0.45593999997E+02  0.45594000000E+02  0.51100000000E-03 0.  1.
         11   -1    0    0    0    0 -0.00000000000E+00 -0.00000000000E+00 -0.45593999997E+02  0.45594000000E+02  0.51100000000E-03 0. -1.
    9900012    2    1    2    0    0  0.40207624823E+02  0.18884608328E+02  0.74720779316E+01  0.46142317918E+02  0.10000001428E+02 0.  0.
        -12    1    1    2    0    0 -0.40207624823E+02 -0.18884608328E+02 -0.74720779316E+01  0.45045682082E+02  0.00000000000E+00 0.  1.
         11    1    3    3    0    0  0.34362140490E+02  0.15351832962E+02  0.50892412555E+01  0.37978096992E+02  0.51100000000E-03 0. -1.
        -11    1    3    3    0    0  0.31432799574E+01  0.33533955056E+00  0.24145109242E+01  0.39777537341E+01  0.51100000000E-03 0.  1.
         12    1    3    3    0    0  0.27022043761E+01  0.31974358161E+01 -0.31674248113E-01  0.41864671916E+01  0.00000000000E+00 0. -1.
</event>
<event>
 7    1  0.4623443E-009  0.4614232E+02  0.7816164E-02  0.1320468E+00
        -11   -1    0    0    0    0  0.00000000000E+00  0.00000000000E+00  0.45593999997E+02  0.45594000000E+02  0.51100000000E-03 0.  1.
         11   -1    0    0    0    0 -0.00000000000E+00 -0.00000000000E+00 -0.45593999997E+02  0.45594000000E+02  0.51100000000E-03 0. -1.
    9900012    2    1    2    0    0 -0.37447391659E+02  0.25007098612E+02 -0.12047241204E+01  0.46142317818E+02  0.10000000520E+02 0.  0.
         12    1    1    2    0    0  0.37447391659E+02 -0.25007098612E+02  0.12047241204E+01  0.45045682182E+02  0.00000000000E+00 0. -1.
         11    1    3    3    0    0 -0.12580503204E+01  0.18819469537E+01 -0.14262533589E+01  0.26755586053E+01  0.51100000000E-03 0. -1.
        -11    1    3    3    0    0 -0.35888379333E+02  0.23394546603E+02  0.69318605491E+00  0.42845782629E+02  0.51100000000E-03 0.  1.
        -12    1    3    3    0    0 -0.30096200572E+00 -0.26939494556E+00 -0.47165681634E+00  0.62097658408E+00  0.00000000000E+00 0.  1.
</event>
<event>
 7    1  0.4623443E-009  0.4614232E+02  0.7816164E-02  0.1320468E+00
        -11   -1    0    0    0    0  0.00000000000E+00  0.00000000000E+00  0.45593999997E+02  0.45594000000E+02  0.51100000000E-03 0. -1.
         11   -1    0    0    0    0 -0.00000000000E+00 -0.00000000000E+00 -0.45593999997E+02  0.45594000000E+02  0.51100000000E-03 0.  1.
    9900012    2    1    2    0    0  0.18822774848E+02 -0.27018519461E+02  0.30737863784E+02  0.46142317445E+02  0.99999971197E+01 0.  0.
        -12    1    1    2    0    0 -0.18822774848E+02  0.27018519461E+02 -0.30737863784E+02  0.45045682555E+02  0.00000000000E+00 0.  1.
         11    1    3    3    0    0  0.11723603119E+02 -0.11488859041E+02  0.14654058790E+02  0.22004049432E+02  0.51100000000E-03 0. -1.
        -11    1    3    3    0    0  0.51399313983E+01 -0.48212340334E+01  0.73394357107E+01  0.10174994309E+02  0.51100000000E-03 0.  1.
        -12    1    3    3    0    0  0.19592403306E+01 -0.10708426387E+02  0.87443692837E+01  0.13963273704E+02  0.00000000000E+00 0.  1.
</event>
<event>
 7    1  0.4623443E-009  0.4614232E+02  0.7816164E-02  0.1320468E+00
        -11   -1    0    0    0    0  0.00000000000E+00  0.00000000000E+00  0.45593999997E+02  0.45594000000E+02  0.51100000000E-03 0. -1.
         11   -1    0    0    0    0 -0.00000000000E+00 -0.00000000000E+00 -0.45593999997E+02  0.45594000000E+02  0.51100000000E-03 0.  1.
    9900012    2    1    2    0    0 -0.16646883274E+01 -0.51107201072E+01  0.44723851413E+02  0.46142317271E+02  0.99999955336E+01 0.  0.
        -12    1    1    2    0    0  0.16646883274E+01  0.51107201072E+01 -0.44723851413E+02  0.45045682729E+02  0.00000000000E+00 0.  1.
         11    1    3    3    0    0 -0.10454613127E+01  0.13323278131E+01  0.46903058333E+01  0.49866878616E+01  0.51100000000E-03 0.  1.
        -11    1    3    3    0    0  0.10728047705E+01  0.12107413036E+01  0.49716654451E+01  0.52282178741E+01  0.51100000000E-03 0. -1.
         12    1    3    3    0    0 -0.16920317851E+01 -0.76537892238E+01  0.35061880135E+02  0.35927411536E+02  0.00000000000E+00 0. -1.
</event>
<event>
 7    1  0.4623443E-009  0.4614232E+02  0.7816164E-02  0.1320468E+00
        -11   -1    0    0    0    0  0.00000000000E+00  0.00000000000E+00  0.45593999997E+02  0.45594000000E+02  0.51100000000E-03 0. -1.
         11   -1    0    0    0    0 -0.00000000000E+00 -0.00000000000E+00 -0.45593999997E+02  0.45594000000E+02  0.51100000000E-03 0.  1.
    9900012    2    1    2    0    0 -0.10346743034E+02 -0.43433758930E+02 -0.59638078893E+01  0.46142317512E+02  0.99999977307E+01 0.  0.
         12    1    1    2    0    0  0.10346743034E+02  0.43433758930E+02  0.59638078893E+01  0.45045682488E+02  0.00000000000E+00 0. -1.
         11    1    3    3    0    0 -0.37522343973E+01 -0.10272955043E+02 -0.29560250860E+01  0.11329207954E+02  0.51100000000E-03 0. -1.
        -11    1    3    3    0    0 -0.44261104576E+01 -0.13902733068E+02 -0.47778858854E+01  0.15352675153E+02  0.51100000000E-03 0.  1.
        -12    1    3    3    0    0 -0.21683981793E+01 -0.19258070819E+02  0.17701030821E+01  0.19460434406E+02  0.00000000000E+00 0.  1.
</event>
<event>
 7    1  0.4623443E-009  0.4614232E+02  0.7816164E-02  0.1320468E+00
        -11   -1    0    0    0    0  0.00000000000E+00  0.00000000000E+00  0.45593999997E+02  0.45594000000E+02  0.51100000000E-03 0. -1.
         11   -1    0    0    0    0 -0.00000000000E+00 -0.00000000000E+00 -0.45593999997E+02  0.45594000000E+02  0.51100000000E-03 0.  1.
    9900012    2    1    2    0    0  0.17356881369E+02 -0.28110550652E+02  0.30621054858E+02  0.46142318859E+02  0.10000010014E+02 0.  0.
        -12    1    1    2    0    0 -0.17356881369E+02  0.28110550652E+02 -0.30621054858E+02  0.45045681141E+02  0.00000000000E+00 0.  1.
         11    1    3    3    0    0  0.53127914796E+01 -0.45874229775E+01  0.33775345938E+01  0.77896048086E+01  0.51100000000E-03 0.  1.
        -11    1    3    3    0    0  0.37375657225E+01 -0.60348658401E+01  0.41707525783E+01  0.82331148764E+01  0.51100000000E-03 0. -1.
        -12    1    3    3    0    0  0.83065241665E+01 -0.17488261834E+02  0.23072767686E+02  0.30119599174E+02  0.00000000000E+00 0.  1.
</event>
<event>
 7    1  0.4962491E-009  0.4614232E+02  0.7816164E-02  0.1320468E+00
        -11   -1    0    0    0    0  0.00000000000E+00  0.00000000000E+00  0.45593999997E+02  0.45594000000E+02  0.51100000000E-03 0. -1.
         11   -1    0    0    0    0 -0.00000000000E+00 -0.00000000000E+00 -0.45593999997E+02  0.45594000000E+02  0.51100000000E-03 0.  1.
    9900012    2    1    2    0    0  0.24033253516E+02 -0.23443161464E+02 -0.30032223235E+02  0.46142317338E+02  0.99999961444E+01 0.  0.
         12    1    1    2    0    0 -0.24033253516E+02  0.23443161464E+02  0.30032223235E+02  0.45045682662E+02  0.00000000000E+00 0. -1.
         11    1    3    3    0    0  0.15072512799E+02 -0.14659402850E+02 -0.17859797445E+02  0.27587154602E+02  0.51100000000E-03 0. -1.
        -11    1    3    3    0    0  0.84232281215E+01 -0.96768592516E+01 -0.10471908142E+02  0.16560592905E+02  0.51100000000E-03 0.  1.
         12    1    3    3    0    0  0.53751259528E+00  0.89310063763E+00 -0.17005176491E+01  0.19945698318E+01  0.00000000000E+00 0. -1.
</event>
<event>
 7    1  0.4623443E-009  0.4614232E+02  0.7816164E-02  0.1320468E+00
        -11   -1    0    0    0    0  0.00000000000E+00  0.00000000000E+00  0.45593999997E+02  0.45594000000E+02  0.51100000000E-03 0. -1.
         11   -1    0    0    0    0 -0.00000000000E+00 -0.00000000000E+00 -0.45593999997E+02  0.45594000000E+02  0.51100000000E-03 0.  1.
    9900012    2    1    2    0    0 -0.64195410509E+01  0.34823104570E+02  0.27843391538E+02  0.46142316838E+02  0.99999915832E+01 0.  0.
        -12    1    1    2    0    0  0.64195410509E+01 -0.34823104570E+02 -0.27843391538E+02  0.45045683162E+02  0.00000000000E+00 0.  1.
         11    1    3    3    0    0 -0.12550079208E+00  0.22579673301E+02  0.16639870755E+02  0.28048933952E+02  0.51100000000E-03 0. -1.
        -11    1    3    3    0    0 -0.17812343448E+01  0.44734341261E+01  0.60596474697E+01  0.77397504088E+01  0.51100000000E-03 0.  1.
         12    1    3    3    0    0 -0.45128059140E+01  0.77699971430E+01  0.51438733126E+01  0.10353632477E+02  0.00000000000E+00 0. -1.
</event>
<event>
 7    1  0.4623443E-009  0.4614232E+02  0.7816164E-02  0.1320468E+00
        -11   -1    0    0    0    0  0.00000000000E+00  0.00000000000E+00  0.45593999997E+02  0.45594000000E+02  0.51100000000E-03 0. -1.
         11   -1    0    0    0    0 -0.00000000000E+00 -0.00000000000E+00 -0.45593999997E+02  0.45594000000E+02  0.51100000000E-03 0.  1.
    9900012    2    1    2    0    0  0.17723172026E+02  0.26036725377E+02 -0.32203906127E+02  0.46142318022E+02  0.10000002378E+02 0.  0.
         12    1    1    2    0    0 -0.17723172026E+02 -0.26036725377E+02  0.32203906127E+02  0.45045681978E+02  0.00000000000E+00 0. -1.
         11    1    3    3    0    0  0.11076819718E+01 -0.71117624835E-01 -0.21146817753E+00  0.11299274837E+01  0.51100000000E-03 0. -1.
        -11    1    3    3    0    0  0.33013960443E+01  0.97243743618E+01 -0.13389597244E+02  0.16874358868E+02  0.51100000000E-03 0.  1.
        -12    1    3    3    0    0  0.13314094009E+02  0.16383468641E+02 -0.18602840705E+02  0.28138031671E+02  0.00000000000E+00 0.  1.
</event>
<event>
 7    1  0.4623443E-009  0.4614232E+02  0.7816164E-02  0.1320468E+00
        -11   -1    0    0    0    0  0.00000000000E+00  0.00000000000E+00  0.45593999997E+02  0.45594000000E+02  0.51100000000E-03 0. -1.
         11   -1    0    0    0    0 -0.00000000000E+00 -0.00000000000E+00 -0.45593999997E+02  0.45594000000E+02  0.51100000000E-03 0.  1.
    9900012    2    1    2    0    0  0.96529352547E+01  0.34143702481E+02  0.27751430770E+02  0.46142317767E+02  0.10000000050E+02 0.  0.
        -12    1    1    2    0    0 -0.96529352547E+01 -0.34143702481E+02 -0.27751430770E+02  0.45045682233E+02  0.00000000000E+00 0.  1.
         11    1    3    3    0    0  0.42321985398E+01  0.13654172592E+02  0.80397509529E+01  0.16400778314E+02  0.51100000000E-03 0. -1.
        -11    1    3    3    0    0  0.46901008362E+01  0.76757597581E+01  0.11092448964E+02  0.14281343004E+02  0.51100000000E-03 0.  1.
        -12    1    3    3    0    0  0.73063587873E+00  0.12813770131E+02  0.86192308530E+01  0.15460196449E+02  0.00000000000E+00 0.  1.
</event>
<event>
 7    1  0.4623443E-009  0.4614232E+02  0.7816164E-02  0.1320468E+00
        -11   -1    0    0    0    0  0.00000000000E+00  0.00000000000E+00  0.45593999997E+02  0.45594000000E+02  0.51100000000E-03 0. -1.
         11   -1    0    0    0    0 -0.00000000000E+00 -0.00000000000E+00 -0.45593999997E+02  0.45594000000E+02  0.51100000000E-03 0.  1.
    9900012    2    1    2    0    0 -0.15868319616E+01  0.45015166520E+02  0.47985857926E+00  0.46142317446E+02  0.99999971266E+01 0.  0.
        -12    1    1    2    0    0  0.15868319616E+01 -0.45015166520E+02 -0.47985857926E+00  0.45045682554E+02  0.00000000000E+00 0.  1.
         11    1    3    3    0    0  0.22634379417E+01  0.11521760291E+02  0.10707088770E+01  0.11790696726E+02  0.51100000000E-03 0. -1.
        -11    1    3    3    0    0  0.70619152495E+00  0.21464182732E+02 -0.22537831309E-01  0.21475808600E+02  0.51100000000E-03 0.  1.
         12    1    3    3    0    0 -0.45564614282E+01  0.12029223497E+02 -0.56831246640E+00  0.12875812120E+02  0.00000000000E+00 0. -1.
</event>
<event>
 7    1  0.4623443E-009  0.4614232E+02  0.7816164E-02  0.1320468E+00
        -11   -1    0    0    0    0  0.00000000000E+00  0.00000000000E+00  0.45593999997E+02  0.45594000000E+02  0.51100000000E-03 0. -1.
         11   -1    0    0    0    0 -0.00000000000E+00 -0.00000000000E+00 -0.45593999997E+02  0.45594000000E+02  0.51100000000E-03 0.  1.
    9900012    2    1    2    0    0  0.30330994992E+01  0.15392147458E+02  0.42225530619E+02  0.46142319496E+02  0.10000015823E+02 0.  0.
        -12    1    1    2    0    0 -0.30330994992E+01 -0.15392147458E+02 -0.42225530619E+02  0.45045680504E+02  0.00000000000E+00 0.  1.
         11    1    3    3    0    0  0.50551333452E+01  0.85064090355E+01  0.27210638848E+02  0.28953967510E+02  0.51100000000E-03 0. -1.
        -11    1    3    3    0    0 -0.12660912972E+01  0.23703451839E+01  0.18831855327E+01  0.32814495997E+01  0.51100000000E-03 0.  1.
         12    1    3    3    0    0 -0.75594254878E+00  0.45153932390E+01  0.13131706239E+02  0.13906902386E+02  0.00000000000E+00 0. -1.
</event>
<event>
 7    1  0.4623443E-009  0.4614232E+02  0.7816164E-02  0.1320468E+00
        -11   -1    0    0    0    0  0.00000000000E+00  0.00000000000E+00  0.45593999997E+02  0.45594000000E+02  0.51100000000E-03 0. -1.
         11   -1    0    0    0    0 -0.00000000000E+00 -0.00000000000E+00 -0.45593999997E+02  0.45594000000E+02  0.51100000000E-03 0.  1.
    9900012    2    1    2    0    0 -0.30498903564E+02  0.31259413236E+02  0.11035370542E+02  0.46142318326E+02  0.10000005155E+02 0.  0.
        -12    1    1    2    0    0  0.30498903564E+02 -0.31259413236E+02 -0.11035370542E+02  0.45045681674E+02  0.00000000000E+00 0.  1.
         11    1    3    3    0    0 -0.15150580552E+02  0.16891025114E+02  0.29903436064E+01  0.22886436499E+02  0.51100000000E-03 0. -1.
        -11    1    3    3    0    0 -0.17771842797E+00  0.10656915919E+00  0.13769311435E+01  0.13924368784E+01  0.51100000000E-03 0.  1.
        -12    1    3    3    0    0 -0.15170604584E+02  0.14261818963E+02  0.66680957919E+01  0.21863444949E+02  0.00000000000E+00 0.  1.
</event>
<event>
 7    1  0.4623443E-009  0.4614232E+02  0.7816164E-02  0.1320468E+00
        -11   -1    0    0    0    0  0.00000000000E+00  0.00000000000E+00  0.45593999997E+02  0.45594000000E+02  0.51100000000E-03 0. -1.
         11   -1    0    0    0    0 -0.00000000000E+00 -0.00000000000E+00 -0.45593999997E+02  0.45594000000E+02  0.51100000000E-03 0.  1.
    9900012    2    1    2    0    0  0.23902905410E+02 -0.20964001584E+01 -0.38123086838E+02  0.46142317291E+02  0.99999957149E+01 0.  0.
         12    1    1    2    0    0 -0.23902905410E+02  0.20964001584E+01  0.38123086838E+02  0.45045682709E+02  0.00000000000E+00 0. -1.
         11    1    3    3    0    0  0.70457627002E+01  0.53350567572E+00 -0.15822037113E+02  0.17328134896E+02  0.51100000000E-03 0. -1.
        -11    1    3    3    0    0  0.16176585861E+02 -0.19303877424E+01 -0.22538335130E+02  0.27809798231E+02  0.51100000000E-03 0.  1.
        -12    1    3    3    0    0  0.68055684923E+00 -0.69951809174E+00  0.23728540481E+00  0.10043841641E+01  0.00000000000E+00 0.  1.
</event>
<event>
 7    1  0.4623443E-009  0.4614232E+02  0.7816164E-02  0.1320468E+00
        -11   -1    0    0    0    0  0.00000000000E+00  0.00000000000E+00  0.45593999997E+02  0.45594000000E+02  0.51100000000E-03 0. -1.
         11   -1    0    0    0    0 -0.00000000000E+00 -0.00000000000E+00 -0.45593999997E+02  0.45594000000E+02  0.51100000000E-03 0.  1.
    9900012    2    1    2    0    0 -0.19604369090E+02 -0.13438512106E+02 -0.38264717252E+02  0.46142317839E+02  0.10000000706E+02 0.  0.
         12    1    1    2    0    0  0.19604369090E+02  0.13438512106E+02  0.38264717252E+02  0.45045682161E+02  0.00000000000E+00 0. -1.
         11    1    3    3    0    0 -0.64592625752E+01 -0.20463214463E+01 -0.18436811450E+02  0.19642441833E+02  0.51100000000E-03 0. -1.
        -11    1    3    3    0    0 -0.50642198672E+01 -0.30169666451E+01 -0.76118924007E+01  0.96275291109E+01  0.51100000000E-03 0.  1.
         12    1    3    3    0    0 -0.80808866472E+01 -0.83752240144E+01 -0.12216013401E+02  0.16872346894E+02  0.00000000000E+00 0. -1.
</event>
<event>
 7    1  0.4623443E-009  0.4614232E+02  0.7816164E-02  0.1320468E+00
        -11   -1    0    0    0    0  0.00000000000E+00  0.00000000000E+00  0.45593999997E+02  0.45594000000E+02  0.51100000000E-03 0.  1.
         11   -1    0    0    0    0 -0.00000000000E+00 -0.00000000000E+00 -0.45593999997E+02  0.45594000000E+02  0.51100000000E-03 0. -1.
    9900012    2    1    2    0    0  0.43806524698E+02 -0.55785691350E+01  0.88871502377E+01  0.46142317864E+02  0.10000000939E+02 0.  0.
        -12    1    1    2    0    0 -0.43806524698E+02  0.55785691350E+01 -0.88871502377E+01  0.45045682136E+02  0.00000000000E+00 0.  1.
         11    1    3    3    0    0  0.22956810783E+02 -0.32909857181E+01  0.25606333117E+01  0.23332436469E+02  0.51100000000E-03 0. -1.
        -11    1    3    3    0    0  0.14464458464E+02  0.13408731283E+01  0.48826379692E+01  0.15325098799E+02  0.51100000000E-03 0.  1.
        -12    1    3    3    0    0  0.63852554513E+01 -0.36284565452E+01  0.14438789568E+01  0.74847825968E+01  0.00000000000E+00 0.  1.
</event>
<event>
 7    1  0.4623443E-009  0.4614232E+02  0.7816164E-02  0.1320468E+00
        -11   -1    0    0    0    0  0.00000000000E+00  0.00000000000E+00  0.45593999997E+02  0.45594000000E+02  0.51100000000E-03 0. -1.
         11   -1    0    0    0    0 -0.00000000000E+00 -0.00000000000E+00 -0.45593999997E+02  0.45594000000E+02  0.51100000000E-03 0.  1.
    9900012    2    1    2    0    0  0.36536587807E+01  0.36376962385E+02 -0.26315031615E+02  0.46142317591E+02  0.99999984479E+01 0.  0.
         12    1    1    2    0    0 -0.36536587807E+01 -0.36376962385E+02  0.26315031615E+02  0.45045682409E+02  0.00000000000E+00 0. -1.
         11    1    3    3    0    0  0.83497680701E+00  0.32470753923E+01 -0.23902197471E+00  0.33612224915E+01  0.51100000000E-03 0. -1.
        -11    1    3    3    0    0 -0.13959671284E+01  0.20854278313E+02 -0.17033128672E+02  0.26962513251E+02  0.51100000000E-03 0.  1.
        -12    1    3    3    0    0  0.42146491021E+01  0.12275608679E+02 -0.90428809682E+01  0.15818581849E+02  0.00000000000E+00 0.  1.
</event>
<event>
 7    1  0.4623443E-009  0.4614232E+02  0.7816164E-02  0.1320468E+00
        -11   -1    0    0    0    0  0.00000000000E+00  0.00000000000E+00  0.45593999997E+02  0.45594000000E+02  0.51100000000E-03 0. -1.
         11   -1    0    0    0    0 -0.00000000000E+00 -0.00000000000E+00 -0.45593999997E+02  0.45594000000E+02  0.51100000000E-03 0.  1.
    9900012    2    1    2    0    0 -0.10986348195E+02  0.31460556166E+02 -0.30309191957E+02  0.46142316988E+02  0.99999929504E+01 0.  0.
         12    1    1    2    0    0  0.10986348195E+02 -0.31460556166E+02  0.30309191957E+02  0.45045683012E+02  0.00000000000E+00 0. -1.
         11    1    3    3    0    0  0.18301663102E-01 -0.43853615088E+00 -0.95228993756E+00  0.10485729792E+01  0.51100000000E-03 0. -1.
        -11    1    3    3    0    0 -0.16596731146E+01  0.12126992447E+02 -0.87563506307E+01  0.15049655719E+02  0.51100000000E-03 0.  1.
        -12    1    3    3    0    0 -0.93449767437E+01  0.19772099870E+02 -0.20600551388E+02  0.30044088289E+02  0.00000000000E+00 0.  1.
</event>
<event>
 7    1  0.4623443E-009  0.4614232E+02  0.7816164E-02  0.1320468E+00
        -11   -1    0    0    0    0  0.00000000000E+00  0.00000000000E+00  0.45593999997E+02  0.45594000000E+02  0.51100000000E-03 0. -1.
         11   -1    0    0    0    0 -0.00000000000E+00 -0.00000000000E+00 -0.45593999997E+02  0.45594000000E+02  0.51100000000E-03 0.  1.
    9900012    2    1    2    0    0 -0.10212511355E+02  0.26083915558E+02  0.35276726819E+02  0.46142317698E+02  0.99999994253E+01 0.  0.
        -12    1    1    2    0    0  0.10212511355E+02 -0.26083915558E+02 -0.35276726819E+02  0.45045682302E+02  0.00000000000E+00 0.  1.
         11    1    3    3    0    0 -0.90293272935E+01  0.24614065546E+02  0.31572096861E+02  0.41038741142E+02  0.51100000000E-03 0. -1.
        -11    1    3    3    0    0 -0.15457495111E+00 -0.71491889251E+00  0.20492077018E+01  0.21758343008E+01  0.51100000000E-03 0.  1.
         12    1    3    3    0    0 -0.10286091101E+01  0.21847689044E+01  0.16554222562E+01  0.29277422553E+01  0.00000000000E+00 0. -1.
</event>
<event>
 7    1  0.4623443E-009  0.4614232E+02  0.7816164E-02  0.1320468E+00
        -11   -1    0    0    0    0  0.00000000000E+00  0.00000000000E+00  0.45593999997E+02  0.45594000000E+02  0.51100000000E-03 0.  1.
         11   -1    0    0    0    0 -0.00000000000E+00 -0.00000000000E+00 -0.45593999997E+02  0.45594000000E+02  0.51100000000E-03 0. -1.
    9900012    2    1    2    0    0  0.21217289026E+02  0.39735790208E+02 -0.84347313796E-01  0.46142317726E+02  0.99999996753E+01 0.  0.
        -12    1    1    2    0    0 -0.21217289026E+02 -0.39735790208E+02  0.84347313796E-01  0.45045682274E+02  0.00000000000E+00 0.  1.
         11    1    3    3    0    0  0.80058666466E+01  0.14434608497E+02 -0.23426848962E+01  0.16671532503E+02  0.51100000000E-03 0. -1.
        -11    1    3    3    0    0 -0.31826532539E+00  0.40447328213E+01  0.12816647310E+01  0.42548585355E+01  0.51100000000E-03 0.  1.
         12    1    3    3    0    0  0.13529687705E+02  0.21256448890E+02  0.97667285139E+00  0.25215926687E+02  0.00000000000E+00 0. -1.
</event>
<event>
 7    1  0.4623443E-009  0.4614232E+02  0.7816164E-02  0.1320468E+00
        -11   -1    0    0    0    0  0.00000000000E+00  0.00000000000E+00  0.45593999997E+02  0.45594000000E+02  0.51100000000E-03 0. -1.
         11   -1    0    0    0    0 -0.00000000000E+00 -0.00000000000E+00 -0.45593999997E+02  0.45594000000E+02  0.51100000000E-03 0.  1.
    9900012    2    1    2    0    0  0.14424922328E+02 -0.19944556155E+02  0.37725985202E+02  0.46142315813E+02  0.99999822349E+01 0.  0.
        -12    1    1    2    0    0 -0.14424922328E+02  0.19944556155E+02 -0.37725985202E+02  0.45045684187E+02  0.00000000000E+00 0.  1.
         11    1    3    3    0    0  0.79640603469E+01 -0.11932496800E+02  0.17013671729E+02  0.22254791913E+02  0.51100000000E-03 0. -1.
        -11    1    3    3    0    0  0.32755301628E+01 -0.77622353093E+01  0.12486829197E+02  0.15063276486E+02  0.51100000000E-03 0.  1.
        -12    1    3    3    0    0  0.31853318186E+01 -0.24982404500E+00  0.82254842761E+01  0.88242474141E+01  0.00000000000E+00 0.  1.
</event>
<event>
 7    1  0.4623443E-009  0.4614232E+02  0.7816164E-02  0.1320468E+00
        -11   -1    0    0    0    0  0.00000000000E+00  0.00000000000E+00  0.45593999997E+02  0.45594000000E+02  0.51100000000E-03 0. -1.
         11   -1    0    0    0    0 -0.00000000000E+00 -0.00000000000E+00 -0.45593999997E+02  0.45594000000E+02  0.51100000000E-03 0.  1.
    9900012    2    1    2    0    0 -0.41251068859E+02 -0.10083197847E+02  0.15026374740E+02  0.46142317647E+02  0.99999989568E+01 0.  0.
        -12    1    1    2    0    0  0.41251068859E+02  0.10083197847E+02 -0.15026374740E+02  0.45045682353E+02  0.00000000000E+00 0.  1.
         11    1    3    3    0    0 -0.98037839635E+01  0.31256368870E+00  0.31937307799E+01  0.10315609173E+02  0.51100000000E-03 0.  1.
        -11    1    3    3    0    0 -0.53752672715E+01  0.72160360191E+00  0.26242561062E+01  0.60250253419E+01  0.51100000000E-03 0. -1.
         12    1    3    3    0    0 -0.26072017624E+02 -0.11117365138E+02  0.92083878542E+01  0.29801683131E+02  0.00000000000E+00 0. -1.
</event>
<event>
 7    1  0.4623443E-009  0.4614232E+02  0.7816164E-02  0.1320468E+00
        -11   -1    0    0    0    0  0.00000000000E+00  0.00000000000E+00  0.45593999997E+02  0.45594000000E+02  0.51100000000E-03 0.  1.
         11   -1    0    0    0    0 -0.00000000000E+00 -0.00000000000E+00 -0.45593999997E+02  0.45594000000E+02  0.51100000000E-03 0. -1.
    9900012    2    1    2    0    0 -0.44172393624E+02  0.83524748695E+01 -0.28546887644E+01  0.46142318266E+02  0.10000004606E+02 0.  0.
        -12    1    1    2    0    0  0.44172393624E+02 -0.83524748695E+01  0.28546887644E+01  0.45045681734E+02  0.00000000000E+00 0.  1.
         11    1    3    3    0    0 -0.62072043924E+01  0.17626861662E+01 -0.25181213556E+01  0.69265708913E+01  0.51100000000E-03 0. -1.
        -11    1    3    3    0    0 -0.22786196807E+02  0.31502527059E+00 -0.34156926751E+00  0.22790934068E+02  0.51100000000E-03 0.  1.
        -12    1    3    3    0    0 -0.15178992424E+02  0.62747634326E+01  0.50018587577E-02  0.16424813307E+02  0.00000000000E+00 0.  1.
</event>
<event>
 7    1  0.4623443E-009  0.4614232E+02  0.7816164E-02  0.1320468E+00
        -11   -1    0    0    0    0  0.00000000000E+00  0.00000000000E+00  0.45593999997E+02  0.45594000000E+02  0.51100000000E-03 0. -1.
         11   -1    0    0    0    0 -0.00000000000E+00 -0.00000000000E+00 -0.45593999997E+02  0.45594000000E+02  0.51100000000E-03 0.  1.
    9900012    2    1    2    0    0  0.43279977140E+01  0.10607316866E+02 -0.43564511892E+02  0.46142318391E+02  0.10000005740E+02 0.  0.
         12    1    1    2    0    0 -0.43279977140E+01 -0.10607316866E+02  0.43564511892E+02  0.45045681609E+02  0.00000000000E+00 0. -1.
         11    1    3    3    0    0  0.70165735761E+00 -0.61821141012E+00 -0.48901445936E+01  0.49787571544E+01  0.51100000000E-03 0. -1.
        -11    1    3    3    0    0  0.29900956616E+01  0.12241373778E+02 -0.32175820408E+02  0.34555394995E+02  0.51100000000E-03 0.  1.
        -12    1    3    3    0    0  0.63624469487E+00 -0.10158455019E+01 -0.64985468897E+01  0.66081662414E+01  0.00000000000E+00 0.  1.
</event>
<event>
 7    1  0.4623443E-009  0.4614232E+02  0.7816164E-02  0.1320468E+00
        -11   -1    0    0    0    0  0.00000000000E+00  0.00000000000E+00  0.45593999997E+02  0.45594000000E+02  0.51100000000E-03 0. -1.
         11   -1    0    0    0    0 -0.00000000000E+00 -0.00000000000E+00 -0.45593999997E+02  0.45594000000E+02  0.51100000000E-03 0.  1.
    9900012    2    1    2    0    0 -0.26140341107E+02 -0.24287429682E+02  0.27493940897E+02  0.46142318078E+02  0.10000002889E+02 0.  0.
        -12    1    1    2    0    0  0.26140341107E+02  0.24287429682E+02 -0.27493940897E+02  0.45045681922E+02  0.00000000000E+00 0.  1.
         11    1    3    3    0    0 -0.12792953966E+02 -0.11082048507E+02  0.82092080002E+01  0.18811235115E+02  0.51100000000E-03 0. -1.
        -11    1    3    3    0    0 -0.82482656681E+01 -0.55948623067E+01  0.78977613367E+01  0.12716564204E+02  0.51100000000E-03 0.  1.
        -12    1    3    3    0    0 -0.50991214729E+01 -0.76105188682E+01  0.11386971560E+02  0.14614518759E+02  0.00000000000E+00 0.  1.
</event>
<event>
 7    1  0.4623443E-009  0.4614232E+02  0.7816164E-02  0.1320468E+00
        -11   -1    0    0    0    0  0.00000000000E+00  0.00000000000E+00  0.45593999997E+02  0.45594000000E+02  0.51100000000E-03 0. -1.
         11   -1    0    0    0    0 -0.00000000000E+00 -0.00000000000E+00 -0.45593999997E+02  0.45594000000E+02  0.51100000000E-03 0.  1.
    9900012    2    1    2    0    0  0.18505885371E+02 -0.36230042040E+02 -0.19339849222E+02  0.46142317549E+02  0.99999980659E+01 0.  0.
         12    1    1    2    0    0 -0.18505885371E+02  0.36230042040E+02  0.19339849222E+02  0.45045682451E+02  0.00000000000E+00 0. -1.
         11    1    3    3    0    0  0.13546008766E+02 -0.19992885236E+02 -0.11325850927E+02  0.26673670783E+02  0.51100000000E-03 0.  1.
        -11    1    3    3    0    0  0.36457769471E+01 -0.15811399495E+02 -0.66773832597E+01  0.17546495120E+02  0.51100000000E-03 0. -1.
         12    1    3    3    0    0  0.13140996579E+01 -0.42575730785E+00 -0.13366150356E+01  0.19221516458E+01  0.00000000000E+00 0. -1.
</event>
<event>
 7    1  0.4623443E-009  0.4614232E+02  0.7816164E-02  0.1320468E+00
        -11   -1    0    0    0    0  0.00000000000E+00  0.00000000000E+00  0.45593999997E+02  0.45594000000E+02  0.51100000000E-03 0. -1.
         11   -1    0    0    0    0 -0.00000000000E+00 -0.00000000000E+00 -0.45593999997E+02  0.45594000000E+02  0.51100000000E-03 0.  1.
    9900012    2    1    2    0    0 -0.12559971505E+02  0.30311270666E+02  0.30864017027E+02  0.46142316959E+02  0.99999926849E+01 0.  0.
        -12    1    1    2    0    0  0.12559971505E+02 -0.30311270666E+02 -0.30864017027E+02  0.45045683041E+02  0.00000000000E+00 0.  1.
         11    1    3    3    0    0 -0.24958628935E+01  0.11901147410E+01  0.20108832438E+01  0.34189700731E+01  0.51100000000E-03 0. -1.
        -11    1    3    3    0    0 -0.11595903057E+01  0.55398235298E+01  0.90241186276E+01  0.10652183423E+02  0.51100000000E-03 0.  1.
         12    1    3    3    0    0 -0.89045183059E+01  0.23581332395E+02  0.19829015156E+02  0.32071163462E+02  0.00000000000E+00 0. -1.
</event>
<event>
 7    1  0.4623443E-009  0.4614231E+02  0.7816164E-02  0.1320468E+00
        -11   -1    0    0    0    0  0.00000000000E+00  0.00000000000E+00  0.45593999997E+02  0.45594000000E+02  0.51100000000E-03 0. -1.
         11   -1    0    0    0    0 -0.00000000000E+00 -0.00000000000E+00 -0.45593999997E+02  0.45594000000E+02  0.51100000000E-03 0.  1.
    9900012    2    1    2    0    0 -0.25950649580E+02  0.19439565476E+02  0.31269488935E+02  0.46142313661E+02  0.99999626097E+01 0.  0.
        -12    1    1    2    0    0  0.25950649580E+02 -0.19439565476E+02 -0.31269488935E+02  0.45045686339E+02  0.00000000000E+00 0.  1.
         11    1    3    3    0    0 -0.56662903740E+01  0.39278585123E+01  0.56644960187E+01  0.89230843604E+01  0.51100000000E-03 0. -1.
        -11    1    3    3    0    0 -0.71653150456E+01  0.61557612642E+01  0.39790286873E+01  0.10250258826E+02  0.51100000000E-03 0.  1.
         12    1    3    3    0    0 -0.13119044160E+02  0.93559456994E+01  0.21625964229E+02  0.26968970474E+02  0.00000000000E+00 0. -1.
</event>
<event>
 7    1  0.4623443E-009  0.4614232E+02  0.7816164E-02  0.1320468E+00
        -11   -1    0    0    0    0  0.00000000000E+00  0.00000000000E+00  0.45593999997E+02  0.45594000000E+02  0.51100000000E-03 0. -1.
         11   -1    0    0    0    0 -0.00000000000E+00 -0.00000000000E+00 -0.45593999997E+02  0.45594000000E+02  0.51100000000E-03 0.  1.
    9900012    2    1    2    0    0 -0.17882732294E+02  0.13980258142E+02  0.38908530326E+02  0.46142318030E+02  0.10000002449E+02 0.  0.
        -12    1    1    2    0    0  0.17882732294E+02 -0.13980258142E+02 -0.38908530326E+02  0.45045681970E+02  0.00000000000E+00 0.  1.
         11    1    3    3    0    0 -0.74622502522E+01  0.11055091237E+02  0.19365849068E+02  0.23514598263E+02  0.51100000000E-03 0. -1.
        -11    1    3    3    0    0 -0.11443964294E+01  0.40000956175E+00  0.53079848155E+00  0.13234039921E+01  0.51100000000E-03 0.  1.
         12    1    3    3    0    0 -0.92760856127E+01  0.25251573431E+01  0.19011882777E+02  0.21304315775E+02  0.00000000000E+00 0. -1.
</event>
<event>
 7    1  0.4623443E-009  0.4614232E+02  0.7816164E-02  0.1320468E+00
        -11   -1    0    0    0    0  0.00000000000E+00  0.00000000000E+00  0.45593999997E+02  0.45594000000E+02  0.51100000000E-03 0.  1.
         11   -1    0    0    0    0 -0.00000000000E+00 -0.00000000000E+00 -0.45593999997E+02  0.45594000000E+02  0.51100000000E-03 0. -1.
    9900012    2    1    2    0    0  0.42801974304E+02  0.10794963408E+02 -0.89762595449E+01  0.46142317913E+02  0.10000001381E+02 0.  0.
         12    1    1    2    0    0 -0.42801974304E+02 -0.10794963408E+02  0.89762595449E+01  0.45045682087E+02  0.00000000000E+00 0. -1.
         11    1    3    3    0    0  0.57046692981E+01  0.38121265470E+01  0.85406431809E+00  0.69141150360E+01  0.51100000000E-03 0. -1.
        -11    1    3    3    0    0  0.11641945628E+02  0.30743167153E+01 -0.49365872182E+01  0.13013693361E+02  0.51100000000E-03 0.  1.
        -12    1    3    3    0    0  0.25455359378E+02  0.39085201453E+01 -0.48937366448E+01  0.26214509515E+02  0.00000000000E+00 0.  1.
</event>
<event>
 7    1  0.4623443E-009  0.4614232E+02  0.7816164E-02  0.1320468E+00
        -11   -1    0    0    0    0  0.00000000000E+00  0.00000000000E+00  0.45593999997E+02  0.45594000000E+02  0.51100000000E-03 0.  1.
         11   -1    0    0    0    0 -0.00000000000E+00 -0.00000000000E+00 -0.45593999997E+02  0.45594000000E+02  0.51100000000E-03 0. -1.
    9900012    2    1    2    0    0  0.35242077584E+02 -0.11375834768E+02  0.25645659676E+02  0.46142317529E+02  0.99999978840E+01 0.  0.
        -12    1    1    2    0    0 -0.35242077584E+02  0.11375834768E+02 -0.25645659676E+02  0.45045682471E+02  0.00000000000E+00 0.  1.
         11    1    3    3    0    0  0.77696330559E+01 -0.51147940009E+01  0.98088041021E+01  0.13518171240E+02  0.51100000000E-03 0.  1.
        -11    1    3    3    0    0  0.14727435151E+02 -0.33176331071E+01  0.10996112147E+02  0.18676683811E+02  0.51100000000E-03 0. -1.
        -12    1    3    3    0    0  0.12745009376E+02 -0.29434076601E+01  0.48407434263E+01  0.13947462478E+02  0.00000000000E+00 0.  1.
</event>
<event>
 7    1  0.4623443E-009  0.4614232E+02  0.7816164E-02  0.1320468E+00
        -11   -1    0    0    0    0  0.00000000000E+00  0.00000000000E+00  0.45593999997E+02  0.45594000000E+02  0.51100000000E-03 0. -1.
         11   -1    0    0    0    0 -0.00000000000E+00 -0.00000000000E+00 -0.45593999997E+02  0.45594000000E+02  0.51100000000E-03 0.  1.
    9900012    2    1    2    0    0 -0.26962225420E+02  0.27640788012E+01 -0.35979320586E+02  0.46142320507E+02  0.10000025037E+02 0.  0.
         12    1    1    2    0    0  0.26962225420E+02 -0.27640788012E+01  0.35979320586E+02  0.45045679493E+02  0.00000000000E+00 0. -1.
         11    1    3    3    0    0 -0.10385659907E+02  0.17130804470E+01 -0.18821597925E+02  0.21564997682E+02  0.51100000000E-03 0. -1.
        -11    1    3    3    0    0 -0.61850187276E+01 -0.19128271363E+01 -0.42542026460E+01  0.77467157382E+01  0.51100000000E-03 0.  1.
         12    1    3    3    0    0 -0.10391546785E+02  0.29638254904E+01 -0.12903520015E+02  0.16830607087E+02  0.00000000000E+00 0. -1.
</event>
<event>
 7    1  0.4623443E-009  0.4614232E+02  0.7816164E-02  0.1320468E+00
        -11   -1    0    0    0    0  0.00000000000E+00  0.00000000000E+00  0.45593999997E+02  0.45594000000E+02  0.51100000000E-03 0. -1.
         11   -1    0    0    0    0 -0.00000000000E+00 -0.00000000000E+00 -0.45593999997E+02  0.45594000000E+02  0.51100000000E-03 0.  1.
    9900012    2    1    2    0    0  0.34448097387E+01 -0.28714967389E+02  0.34535447161E+02  0.46142321218E+02  0.10000031524E+02 0.  0.
        -12    1    1    2    0    0 -0.34448097387E+01  0.28714967389E+02 -0.34535447161E+02  0.45045678782E+02  0.00000000000E+00 0.  1.
         11    1    3    3    0    0  0.56566881163E-01 -0.94241420749E+01  0.17815428518E+02  0.20154581296E+02  0.51100000000E-03 0. -1.
        -11    1    3    3    0    0  0.55541924866E-02 -0.61844320680E+01  0.68936162488E+01  0.92611649429E+01  0.51100000000E-03 0.  1.
        -12    1    3    3    0    0  0.33826886650E+01 -0.13106393246E+02  0.98264023939E+01  0.16726574979E+02  0.00000000000E+00 0.  1.
</event>
<event>
 7    1  0.4623443E-009  0.4614232E+02  0.7816164E-02  0.1320468E+00
        -11   -1    0    0    0    0  0.00000000000E+00  0.00000000000E+00  0.45593999997E+02  0.45594000000E+02  0.51100000000E-03 0. -1.
         11   -1    0    0    0    0 -0.00000000000E+00 -0.00000000000E+00 -0.45593999997E+02  0.45594000000E+02  0.51100000000E-03 0.  1.
    9900012    2    1    2    0    0 -0.41719231521E+01 -0.22739754810E+01 -0.44794392685E+02  0.46142317373E+02  0.99999964614E+01 0.  0.
         12    1    1    2    0    0  0.41719231521E+01  0.22739754810E+01  0.44794392685E+02  0.45045682627E+02  0.00000000000E+00 0. -1.
         11    1    3    3    0    0 -0.41094675329E+01 -0.14303384509E+01 -0.11687994798E+02  0.12471680486E+02  0.51100000000E-03 0. -1.
        -11    1    3    3    0    0 -0.15754091089E+00  0.61827187864E+00 -0.31461355267E+02  0.31467824118E+02  0.51100000000E-03 0.  1.
        -12    1    3    3    0    0  0.95085291666E-01 -0.14619089088E+01 -0.16450426204E+01  0.22028127686E+01  0.00000000000E+00 0.  1.
</event>
<event>
 7    1  0.4623443E-009  0.4614232E+02  0.7816164E-02  0.1320468E+00
        -11   -1    0    0    0    0  0.00000000000E+00  0.00000000000E+00  0.45593999997E+02  0.45594000000E+02  0.51100000000E-03 0. -1.
         11   -1    0    0    0    0 -0.00000000000E+00 -0.00000000000E+00 -0.45593999997E+02  0.45594000000E+02  0.51100000000E-03 0.  1.
    9900012    2    1    2    0    0 -0.22152173954E+02 -0.15969896810E+02  0.35823974518E+02  0.46142316908E+02  0.99999922165E+01 0.  0.
        -12    1    1    2    0    0  0.22152173954E+02  0.15969896810E+02 -0.35823974518E+02  0.45045683092E+02  0.00000000000E+00 0.  1.
         11    1    3    3    0    0 -0.72470041426E+01 -0.53277457179E+01  0.91094075381E+01  0.12801767434E+02  0.51100000000E-03 0. -1.
        -11    1    3    3    0    0 -0.13355588754E+02 -0.55209338664E+01  0.21197107133E+02  0.25654820459E+02  0.51100000000E-03 0.  1.
        -12    1    3    3    0    0 -0.15495810580E+01 -0.51212172255E+01  0.55174598470E+01  0.76857290148E+01  0.00000000000E+00 0.  1.
</event>
<event>
 7    1  0.4623443E-009  0.4614232E+02  0.7816164E-02  0.1320468E+00
        -11   -1    0    0    0    0  0.00000000000E+00  0.00000000000E+00  0.45593999997E+02  0.45594000000E+02  0.51100000000E-03 0. -1.
         11   -1    0    0    0    0 -0.00000000000E+00 -0.00000000000E+00 -0.45593999997E+02  0.45594000000E+02  0.51100000000E-03 0.  1.
    9900012    2    1    2    0    0  0.17848396121E+01  0.11885718606E+02  0.43412642307E+02  0.46142317951E+02  0.10000001730E+02 0.  0.
        -12    1    1    2    0    0 -0.17848396121E+01 -0.11885718606E+02 -0.43412642307E+02  0.45045682049E+02  0.00000000000E+00 0.  1.
         11    1    3    3    0    0  0.24825428441E+01  0.87487043976E+01  0.26945328801E+02  0.28438593356E+02  0.51100000000E-03 0. -1.
        -11    1    3    3    0    0 -0.29466309427E+01  0.22672619493E+01  0.12681145805E+02  0.13214937376E+02  0.51100000000E-03 0.  1.
        -12    1    3    3    0    0  0.22489277106E+01  0.86975225930E+00  0.37861677012E+01  0.44887872194E+01  0.00000000000E+00 0.  1.
</event>
<event>
 7    1  0.4623443E-009  0.4614232E+02  0.7816164E-02  0.1320468E+00
        -11   -1    0    0    0    0  0.00000000000E+00  0.00000000000E+00  0.45593999997E+02  0.45594000000E+02  0.51100000000E-03 0. -1.
         11   -1    0    0    0    0 -0.00000000000E+00 -0.00000000000E+00 -0.45593999997E+02  0.45594000000E+02  0.51100000000E-03 0.  1.
    9900012    2    1    2    0    0 -0.24800885985E+02 -0.80298120987E+01  0.36736244704E+02  0.46142317600E+02  0.99999985288E+01 0.  0.
        -12    1    1    2    0    0  0.24800885985E+02  0.80298120987E+01 -0.36736244704E+02  0.45045682400E+02  0.00000000000E+00 0.  1.
         11    1    3    3    0    0 -0.15153165784E+02 -0.86511643397E+01  0.23139728582E+02  0.28981168314E+02  0.51100000000E-03 0. -1.
        -11    1    3    3    0    0 -0.34469077152E+01 -0.22303189681E+00  0.20200162457E+01  0.40014224868E+01  0.51100000000E-03 0.  1.
         12    1    3    3    0    0 -0.62008124851E+01  0.84438413779E+00  0.11576499876E+02  0.13159726799E+02  0.00000000000E+00 0. -1.
</event>
<event>
 7    1  0.4623443E-009  0.4614232E+02  0.7816164E-02  0.1320468E+00
        -11   -1    0    0    0    0  0.00000000000E+00  0.00000000000E+00  0.45593999997E+02  0.45594000000E+02  0.51100000000E-03 0. -1.
         11   -1    0    0    0    0 -0.00000000000E+00 -0.00000000000E+00 -0.45593999997E+02  0.45594000000E+02  0.51100000000E-03 0.  1.
    9900012    2    1    2    0    0 -0.63144951528E+01 -0.17940352935E+02  0.40833620244E+02  0.46142315915E+02  0.99999831645E+01 0.  0.
        -12    1    1    2    0    0  0.63144951528E+01  0.17940352935E+02 -0.40833620244E+02  0.45045684085E+02  0.00000000000E+00 0.  1.
         11    1    3    3    0    0 -0.28488878301E+00 -0.92241816655E+01  0.27047632567E+02  0.28578682908E+02  0.51100000000E-03 0. -1.
        -11    1    3    3    0    0 -0.25598688677E+01 -0.55583848673E+01  0.67961023898E+01  0.91452489800E+01  0.51100000000E-03 0.  1.
        -12    1    3    3    0    0 -0.34697375020E+01 -0.31577864024E+01  0.69898852872E+01  0.84183840269E+01  0.00000000000E+00 0.  1.
</event>
<event>
 7    1  0.4623443E-009  0.4614232E+02  0.7816164E-02  0.1320468E+00
        -11   -1    0    0    0    0  0.00000000000E+00  0.00000000000E+00  0.45593999997E+02  0.45594000000E+02  0.51100000000E-03 0. -1.
         11   -1    0    0    0    0 -0.00000000000E+00 -0.00000000000E+00 -0.45593999997E+02  0.45594000000E+02  0.51100000000E-03 0.  1.
    9900012    2    1    2    0    0  0.40479241259E+02  0.10330885882E+02 -0.16846881514E+02  0.46142316603E+02  0.99999894378E+01 0.  0.
         12    1    1    2    0    0 -0.40479241259E+02 -0.10330885882E+02  0.16846881514E+02  0.45045683397E+02  0.00000000000E+00 0. -1.
         11    1    3    3    0    0  0.44097525299E+00  0.12920867005E+01 -0.33013458489E+00  0.14046125162E+01  0.51100000000E-03 0. -1.
        -11    1    3    3    0    0  0.25037332253E+02  0.23448649988E+01 -0.10275803682E+02  0.27165392318E+02  0.51100000000E-03 0.  1.
        -12    1    3    3    0    0  0.15000933753E+02  0.66939341822E+01 -0.62409432464E+01  0.17572311769E+02  0.00000000000E+00 0.  1.
</event>
<event>
 7    1  0.4623443E-009  0.4614232E+02  0.7816164E-02  0.1320468E+00
        -11   -1    0    0    0    0  0.00000000000E+00  0.00000000000E+00  0.45593999997E+02  0.45594000000E+02  0.51100000000E-03 0. -1.
         11   -1    0    0    0    0 -0.00000000000E+00 -0.00000000000E+00 -0.45593999997E+02  0.45594000000E+02  0.51100000000E-03 0.  1.
    9900012    2    1    2    0    0 -0.40455653437E+02  0.62637980998E+01  0.18794105835E+02  0.46142317901E+02  0.10000001274E+02 0.  0.
        -12    1    1    2    0    0  0.40455653437E+02 -0.62637980998E+01 -0.18794105835E+02  0.45045682099E+02  0.00000000000E+00 0.  1.
         11    1    3    3    0    0 -0.43670099956E+01 -0.12386806995E+01  0.43650500971E+01  0.62975208446E+01  0.51100000000E-03 0.  1.
        -11    1    3    3    0    0 -0.28372191554E+02  0.40764514471E+01  0.10423465679E+02  0.30499956509E+02  0.51100000000E-03 0. -1.
        -12    1    3    3    0    0 -0.77164518871E+01  0.34260273521E+01  0.40055900585E+01  0.93448405476E+01  0.00000000000E+00 0.  1.
</event>
<event>
 7    1  0.4623443E-009  0.4614232E+02  0.7816164E-02  0.1320468E+00
        -11   -1    0    0    0    0  0.00000000000E+00  0.00000000000E+00  0.45593999997E+02  0.45594000000E+02  0.51100000000E-03 0. -1.
         11   -1    0    0    0    0 -0.00000000000E+00 -0.00000000000E+00 -0.45593999997E+02  0.45594000000E+02  0.51100000000E-03 0.  1.
    9900012    2    1    2    0    0 -0.20572119221E+02  0.11752601744E+02 -0.38311587660E+02  0.46142317787E+02  0.10000000237E+02 0.  0.
         12    1    1    2    0    0  0.20572119221E+02 -0.11752601744E+02  0.38311587660E+02  0.45045682213E+02  0.00000000000E+00 0. -1.
         11    1    3    3    0    0 -0.81209875105E+01  0.98974213020E+01 -0.17791328783E+02  0.21918959070E+02  0.51100000000E-03 0. -1.
        -11    1    3    3    0    0 -0.44867852501E+01 -0.62449037614E+00 -0.71113187558E+01  0.84316122312E+01  0.51100000000E-03 0.  1.
        -12    1    3    3    0    0 -0.79643464608E+01  0.24796708181E+01 -0.13408940121E+02  0.15791746486E+02  0.00000000000E+00 0.  1.
</event>
<event>
 7    1  0.4623443E-009  0.4614232E+02  0.7816164E-02  0.1320468E+00
        -11   -1    0    0    0    0  0.00000000000E+00  0.00000000000E+00  0.45593999997E+02  0.45594000000E+02  0.51100000000E-03 0.  1.
         11   -1    0    0    0    0 -0.00000000000E+00 -0.00000000000E+00 -0.45593999997E+02  0.45594000000E+02  0.51100000000E-03 0. -1.
    9900012    2    1    2    0    0  0.72040694410E+01  0.44379294293E+02 -0.27736526708E+01  0.46142317326E+02  0.99999960319E+01 0.  0.
         12    1    1    2    0    0 -0.72040694410E+01 -0.44379294293E+02  0.27736526708E+01  0.45045682674E+02  0.00000000000E+00 0. -1.
         11    1    3    3    0    0 -0.10551525121E+01  0.27914573168E+01 -0.86737587748E+00  0.31077197347E+01  0.51100000000E-03 0. -1.
        -11    1    3    3    0    0  0.83990376310E+00  0.13175318086E+02 -0.33951454105E+01  0.13631634444E+02  0.51100000000E-03 0.  1.
         12    1    3    3    0    0  0.74193181900E+01  0.28412518890E+02  0.14888686172E+01  0.29402963147E+02  0.00000000000E+00 0. -1.
</event>
<event>
 7    1  0.4623443E-009  0.4614232E+02  0.7816164E-02  0.1320468E+00
        -11   -1    0    0    0    0  0.00000000000E+00  0.00000000000E+00  0.45593999997E+02  0.45594000000E+02  0.51100000000E-03 0. -1.
         11   -1    0    0    0    0 -0.00000000000E+00 -0.00000000000E+00 -0.45593999997E+02  0.45594000000E+02  0.51100000000E-03 0.  1.
    9900012    2    1    2    0    0 -0.30829946110E+00  0.43364951784E+02 -0.12186031795E+02  0.46142318046E+02  0.10000002600E+02 0.  0.
         12    1    1    2    0    0  0.30829946110E+00 -0.43364951784E+02  0.12186031795E+02  0.45045681954E+02  0.00000000000E+00 0. -1.
         11    1    3    3    0    0 -0.34476651068E+00  0.94293910698E-02  0.25175249236E-01  0.34581341009E+00  0.51100000000E-03 0. -1.
        -11    1    3    3    0    0  0.37991551982E+01  0.20353563312E+02 -0.40226508064E+01  0.21092245956E+02  0.51100000000E-03 0.  1.
        -12    1    3    3    0    0 -0.37626881486E+01  0.23001959081E+02 -0.81885562374E+01  0.24704258680E+02  0.00000000000E+00 0.  1.
</event>
<event>
 7    1  0.4623443E-009  0.4614232E+02  0.7816164E-02  0.1320468E+00
        -11   -1    0    0    0    0  0.00000000000E+00  0.00000000000E+00  0.45593999997E+02  0.45594000000E+02  0.51100000000E-03 0.  1.
         11   -1    0    0    0    0 -0.00000000000E+00 -0.00000000000E+00 -0.45593999997E+02  0.45594000000E+02  0.51100000000E-03 0. -1.
    9900012    2    1    2    0    0  0.29407295520E+02  0.21842238153E+02 -0.26215283404E+02  0.46142317839E+02  0.10000000714E+02 0.  0.
         12    1    1    2    0    0 -0.29407295520E+02 -0.21842238153E+02  0.26215283404E+02  0.45045682161E+02  0.00000000000E+00 0. -1.
         11    1    3    3    0    0  0.41266600950E+01  0.65539646054E+01 -0.56674679933E+01  0.95970812909E+01  0.51100000000E-03 0.  1.
        -11    1    3    3    0    0  0.18642664553E+02  0.86517470197E+01 -0.16351092177E+02  0.26263280141E+02  0.51100000000E-03 0. -1.
         12    1    3    3    0    0  0.66379708725E+01  0.66365265284E+01 -0.41967232334E+01  0.10281956407E+02  0.00000000000E+00 0. -1.
</event>
<event>
 7    1  0.4623443E-009  0.4614232E+02  0.7816164E-02  0.1320468E+00
        -11   -1    0    0    0    0  0.00000000000E+00  0.00000000000E+00  0.45593999997E+02  0.45594000000E+02  0.51100000000E-03 0. -1.
         11   -1    0    0    0    0 -0.00000000000E+00 -0.00000000000E+00 -0.45593999997E+02  0.45594000000E+02  0.51100000000E-03 0.  1.
    9900012    2    1    2    0    0 -0.17756160122E+02  0.21512414201E+02  0.35370162235E+02  0.46142316926E+02  0.99999923869E+01 0.  0.
        -12    1    1    2    0    0  0.17756160122E+02 -0.21512414201E+02 -0.35370162235E+02  0.45045683074E+02  0.00000000000E+00 0.  1.
         11    1    3    3    0    0  0.21525695120E+00  0.16856981936E+01  0.24133202859E+01  0.29516146460E+01  0.51100000000E-03 0. -1.
        -11    1    3    3    0    0  0.21534901495E+00 -0.33793640258E+00 -0.97743483600E-01  0.41246849593E+00  0.51100000000E-03 0.  1.
         12    1    3    3    0    0 -0.18186766088E+02  0.20164652410E+02  0.33054585433E+02  0.42778233784E+02  0.00000000000E+00 0. -1.
</event>
<event>
 7    1  0.4623443E-009  0.4614232E+02  0.7816164E-02  0.1320468E+00
        -11   -1    0    0    0    0  0.00000000000E+00  0.00000000000E+00  0.45593999997E+02  0.45594000000E+02  0.51100000000E-03 0.  1.
         11   -1    0    0    0    0 -0.00000000000E+00 -0.00000000000E+00 -0.45593999997E+02  0.45594000000E+02  0.51100000000E-03 0. -1.
    9900012    2    1    2    0    0  0.17158631127E+02 -0.35082598945E+02  0.22447855015E+02  0.46142316903E+02  0.99999921769E+01 0.  0.
        -12    1    1    2    0    0 -0.17158631127E+02  0.35082598945E+02 -0.22447855015E+02  0.45045683097E+02  0.00000000000E+00 0.  1.
         11    1    3    3    0    0  0.70828232125E+01 -0.10068957488E+02  0.76166930423E+01  0.14476335956E+02  0.51100000000E-03 0. -1.
        -11    1    3    3    0    0  0.90318319406E+01 -0.13595603902E+02  0.10508993012E+02  0.19412711507E+02  0.51100000000E-03 0.  1.
         12    1    3    3    0    0  0.10439759735E+01 -0.11418037555E+02  0.43221689602E+01  0.12253269440E+02  0.00000000000E+00 0. -1.
</event>
<event>
 7    1  0.4623443E-009  0.4614232E+02  0.7816164E-02  0.1320468E+00
        -11   -1    0    0    0    0  0.00000000000E+00  0.00000000000E+00  0.45593999997E+02  0.45594000000E+02  0.51100000000E-03 0. -1.
         11   -1    0    0    0    0 -0.00000000000E+00 -0.00000000000E+00 -0.45593999997E+02  0.45594000000E+02  0.51100000000E-03 0.  1.
    9900012    2    1    2    0    0 -0.22551838805E+02 -0.21479454845E+02  0.32544756124E+02  0.46142316910E+02  0.99999922353E+01 0.  0.
        -12    1    1    2    0    0  0.22551838805E+02  0.21479454845E+02 -0.32544756124E+02  0.45045683090E+02  0.00000000000E+00 0.  1.
         11    1    3    3    0    0 -0.82060453383E+01 -0.61584319609E+01  0.74549388062E+01  0.12682333270E+02  0.51100000000E-03 0. -1.
        -11    1    3    3    0    0  0.59507033430E+00  0.11232021783E+00  0.11219797408E+01  0.12749758170E+01  0.51100000000E-03 0.  1.
         12    1    3    3    0    0 -0.14940863801E+02 -0.15433343102E+02  0.23967837577E+02  0.32185007822E+02  0.00000000000E+00 0. -1.
</event>
<event>
 7    1  0.4623443E-009  0.4614232E+02  0.7816164E-02  0.1320468E+00
        -11   -1    0    0    0    0  0.00000000000E+00  0.00000000000E+00  0.45593999997E+02  0.45594000000E+02  0.51100000000E-03 0. -1.
         11   -1    0    0    0    0 -0.00000000000E+00 -0.00000000000E+00 -0.45593999997E+02  0.45594000000E+02  0.51100000000E-03 0.  1.
    9900012    2    1    2    0    0  0.19516563659E+02 -0.24329468821E+02  0.32500674694E+02  0.46142321343E+02  0.10000032659E+02 0.  0.
        -12    1    1    2    0    0 -0.19516563659E+02  0.24329468821E+02 -0.32500674694E+02  0.45045678657E+02  0.00000000000E+00 0.  1.
         11    1    3    3    0    0  0.12410679714E+02 -0.12498948203E+02  0.15405145077E+02  0.23400153253E+02  0.51100000000E-03 0. -1.
        -11    1    3    3    0    0  0.46904319315E+01 -0.10148623363E+02  0.97701037495E+01  0.14847546444E+02  0.51100000000E-03 0.  1.
        -12    1    3    3    0    0  0.24154520132E+01 -0.16818972558E+01  0.73254258669E+01  0.78946216463E+01  0.00000000000E+00 0.  1.
</event>
<event>
 7    1  0.6279043E-009  0.4614232E+02  0.7816164E-02  0.1320468E+00
        -11   -1    0    0    0    0  0.00000000000E+00  0.00000000000E+00  0.45593999997E+02  0.45594000000E+02  0.51100000000E-03 0.  1.
         11   -1    0    0    0    0 -0.00000000000E+00 -0.00000000000E+00 -0.45593999997E+02  0.45594000000E+02  0.51100000000E-03 0. -1.
    9900012    2    1    2    0    0  0.14531215820E+02 -0.31163158745E+02 -0.29100080941E+02  0.46142318665E+02  0.10000008242E+02 0.  0.
         12    1    1    2    0    0 -0.14531215820E+02  0.31163158745E+02  0.29100080941E+02  0.45045681335E+02  0.00000000000E+00 0. -1.
         11    1    3    3    0    0  0.32622870966E+01 -0.80862638934E+01 -0.12451745441E+02  0.15201188955E+02  0.51100000000E-03 0. -1.
        -11    1    3    3    0    0  0.69049264781E+01 -0.16511278530E+02 -0.13643147543E+02  0.22504128587E+02  0.51100000000E-03 0.  1.
         12    1    3    3    0    0  0.43640022451E+01 -0.65656163217E+01 -0.30051879574E+01  0.84370011223E+01  0.00000000000E+00 0. -1.
</event>
<event>
 7    1  0.4623443E-009  0.4614232E+02  0.7816164E-02  0.1320468E+00
        -11   -1    0    0    0    0  0.00000000000E+00  0.00000000000E+00  0.45593999997E+02  0.45594000000E+02  0.51100000000E-03 0. -1.
         11   -1    0    0    0    0 -0.00000000000E+00 -0.00000000000E+00 -0.45593999997E+02  0.45594000000E+02  0.51100000000E-03 0.  1.
    9900012    2    1    2    0    0 -0.15162095355E+02  0.22480078984E+02  0.35970411531E+02  0.46142316607E+02  0.99999894744E+01 0.  0.
        -12    1    1    2    0    0  0.15162095355E+02 -0.22480078984E+02 -0.35970411531E+02  0.45045683393E+02  0.00000000000E+00 0.  1.
         11    1    3    3    0    0 -0.78052984504E+01  0.47865687832E+01  0.14430722871E+02  0.17090339009E+02  0.51100000000E-03 0. -1.
        -11    1    3    3    0    0 -0.31483125167E+01  0.37343448815E+01  0.47123461244E+01  0.67870029950E+01  0.51100000000E-03 0.  1.
         12    1    3    3    0    0 -0.42084843876E+01  0.13959165319E+02  0.16827342536E+02  0.22264974603E+02  0.00000000000E+00 0. -1.
</event>
<event>
 7    1  0.4623443E-009  0.4614232E+02  0.7816164E-02  0.1320468E+00
        -11   -1    0    0    0    0  0.00000000000E+00  0.00000000000E+00  0.45593999997E+02  0.45594000000E+02  0.51100000000E-03 0. -1.
         11   -1    0    0    0    0 -0.00000000000E+00 -0.00000000000E+00 -0.45593999997E+02  0.45594000000E+02  0.51100000000E-03 0.  1.
    9900012    2    1    2    0    0 -0.15379141237E+02 -0.31618341904E+02  0.28158052814E+02  0.46142317985E+02  0.10000002039E+02 0.  0.
        -12    1    1    2    0    0  0.15379141237E+02  0.31618341904E+02 -0.28158052814E+02  0.45045682015E+02  0.00000000000E+00 0.  1.
         11    1    3    3    0    0 -0.97935429806E+01 -0.23800352272E+02  0.17049954347E+02  0.30871851190E+02  0.51100000000E-03 0. -1.
        -11    1    3    3    0    0 -0.11954561520E+01 -0.50357558499E+01  0.44634174949E+01  0.68344749898E+01  0.51100000000E-03 0.  1.
        -12    1    3    3    0    0 -0.43901421047E+01 -0.27822337816E+01  0.66446809716E+01  0.84359918047E+01  0.00000000000E+00 0.  1.
</event>
<event>
 7    1  0.4623443E-009  0.4614232E+02  0.7816164E-02  0.1320468E+00
        -11   -1    0    0    0    0  0.00000000000E+00  0.00000000000E+00  0.45593999997E+02  0.45594000000E+02  0.51100000000E-03 0. -1.
         11   -1    0    0    0    0 -0.00000000000E+00 -0.00000000000E+00 -0.45593999997E+02  0.45594000000E+02  0.51100000000E-03 0.  1.
    9900012    2    1    2    0    0  0.99654510229E+01  0.14973467219E+01 -0.43903999988E+02  0.46142317895E+02  0.10000001224E+02 0.  0.
         12    1    1    2    0    0 -0.99654510229E+01 -0.14973467219E+01  0.43903999988E+02  0.45045682105E+02  0.00000000000E+00 0. -1.
         11    1    3    3    0    0 -0.83489364308E+00 -0.11997766957E+01 -0.22114869992E+01  0.26508841023E+01  0.51100000000E-03 0. -1.
        -11    1    3    3    0    0  0.24222472145E+01 -0.94151308616E+00 -0.45267477845E+01  0.52196910086E+01  0.51100000000E-03 0.  1.
        -12    1    3    3    0    0  0.83780974515E+01  0.36386365038E+01 -0.37165765205E+02  0.38271742785E+02  0.00000000000E+00 0.  1.
</event>
<event>
 7    1  0.4623443E-009  0.4614232E+02  0.7816164E-02  0.1320468E+00
        -11   -1    0    0    0    0  0.00000000000E+00  0.00000000000E+00  0.45593999997E+02  0.45594000000E+02  0.51100000000E-03 0. -1.
         11   -1    0    0    0    0 -0.00000000000E+00 -0.00000000000E+00 -0.45593999997E+02  0.45594000000E+02  0.51100000000E-03 0.  1.
    9900012    2    1    2    0    0  0.23789833998E+02  0.38034837526E+02 -0.40630392777E+01  0.46142319236E+02  0.10000013449E+02 0.  0.
         12    1    1    2    0    0 -0.23789833998E+02 -0.38034837526E+02  0.40630392777E+01  0.45045680764E+02  0.00000000000E+00 0. -1.
         11    1    3    3    0    0  0.94476961532E+01  0.22490349691E+02 -0.22029108768E+01  0.24493419697E+02  0.51100000000E-03 0. -1.
        -11    1    3    3    0    0  0.64023034768E+01  0.50994900456E+01  0.92270529955E+00  0.82368485396E+01  0.51100000000E-03 0.  1.
        -12    1    3    3    0    0  0.79398343684E+01  0.10444997789E+02 -0.27828337005E+01  0.13412051000E+02  0.00000000000E+00 0.  1.
</event>
<event>
 7    1  0.4623443E-009  0.4614232E+02  0.7816164E-02  0.1320468E+00
        -11   -1    0    0    0    0  0.00000000000E+00  0.00000000000E+00  0.45593999997E+02  0.45594000000E+02  0.51100000000E-03 0. -1.
         11   -1    0    0    0    0 -0.00000000000E+00 -0.00000000000E+00 -0.45593999997E+02  0.45594000000E+02  0.51100000000E-03 0.  1.
    9900012    2    1    2    0    0  0.30441690087E+02 -0.14027653351E+02 -0.30093877630E+02  0.46142322908E+02  0.10000046936E+02 0.  0.
         12    1    1    2    0    0 -0.30441690087E+02  0.14027653351E+02  0.30093877630E+02  0.45045677092E+02  0.00000000000E+00 0. -1.
         11    1    3    3    0    0  0.13837568454E+01  0.30994371140E+00 -0.17999736754E+01  0.22914522916E+01  0.51100000000E-03 0. -1.
        -11    1    3    3    0    0  0.74500689319E+01 -0.12171882305E+01 -0.30991801688E+01  0.81602691290E+01  0.51100000000E-03 0.  1.
        -12    1    3    3    0    0  0.21607864309E+02 -0.13120408832E+02 -0.25194723785E+02  0.35690601488E+02  0.00000000000E+00 0.  1.
</event>
<event>
 7    1  0.4623443E-009  0.4614232E+02  0.7816164E-02  0.1320468E+00
        -11   -1    0    0    0    0  0.00000000000E+00  0.00000000000E+00  0.45593999997E+02  0.45594000000E+02  0.51100000000E-03 0. -1.
         11   -1    0    0    0    0 -0.00000000000E+00 -0.00000000000E+00 -0.45593999997E+02  0.45594000000E+02  0.51100000000E-03 0.  1.
    9900012    2    1    2    0    0 -0.10292750611E+02 -0.29844932541E+01 -0.43752320528E+02  0.46142318001E+02  0.10000002190E+02 0.  0.
         12    1    1    2    0    0  0.10292750611E+02  0.29844932541E+01  0.43752320528E+02  0.45045681999E+02  0.00000000000E+00 0. -1.
         11    1    3    3    0    0  0.98967429157E+00  0.90027607790E+00 -0.31619690763E+01  0.34333658296E+01  0.51100000000E-03 0. -1.
        -11    1    3    3    0    0 -0.43833719641E+01  0.67434975168E+00 -0.87167312795E+01  0.97800870049E+01  0.51100000000E-03 0.  1.
         12    1    3    3    0    0 -0.68990529388E+01 -0.45591190837E+01 -0.31873620172E+02  0.32928865167E+02  0.00000000000E+00 0. -1.
</event>
<event>
 7    1  0.4623443E-009  0.4614232E+02  0.7816164E-02  0.1320468E+00
        -11   -1    0    0    0    0  0.00000000000E+00  0.00000000000E+00  0.45593999997E+02  0.45594000000E+02  0.51100000000E-03 0. -1.
         11   -1    0    0    0    0 -0.00000000000E+00 -0.00000000000E+00 -0.45593999997E+02  0.45594000000E+02  0.51100000000E-03 0.  1.
    9900012    2    1    2    0    0  0.30780697093E+02 -0.94102322908E+01 -0.31513645066E+02  0.46142316404E+02  0.99999876242E+01 0.  0.
         12    1    1    2    0    0 -0.30780697093E+02  0.94102322908E+01  0.31513645066E+02  0.45045683596E+02  0.00000000000E+00 0. -1.
         11    1    3    3    0    0  0.20083004292E+01 -0.22114671319E+01 -0.40224024168E+01  0.50103471889E+01  0.51100000000E-03 0. -1.
        -11    1    3    3    0    0  0.95185193483E+01  0.10281661515E+01 -0.10063931687E+02  0.13890358436E+02  0.51100000000E-03 0.  1.
        -12    1    3    3    0    0  0.19253877315E+02 -0.82269313104E+01 -0.17427310962E+02  0.27241610779E+02  0.00000000000E+00 0.  1.
</event>
<event>
 7    1  0.4623443E-009  0.4614232E+02  0.7816164E-02  0.1320468E+00
        -11   -1    0    0    0    0  0.00000000000E+00  0.00000000000E+00  0.45593999997E+02  0.45594000000E+02  0.51100000000E-03 0. -1.
         11   -1    0    0    0    0 -0.00000000000E+00 -0.00000000000E+00 -0.45593999997E+02  0.45594000000E+02  0.51100000000E-03 0.  1.
    9900012    2    1    2    0    0 -0.13896587058E+02 -0.42539678853E+02 -0.51355630482E+01  0.46142318557E+02  0.10000007261E+02 0.  0.
         12    1    1    2    0    0  0.13896587058E+02  0.42539678853E+02  0.51355630482E+01  0.45045681443E+02  0.00000000000E+00 0. -1.
         11    1    3    3    0    0 -0.21079325023E+01 -0.12350665346E+02  0.82010267203E-01  0.12529526721E+02  0.51100000000E-03 0. -1.
        -11    1    3    3    0    0 -0.45752880137E+01 -0.15256376413E+02  0.85933774073E+00  0.15950822652E+02  0.51100000000E-03 0.  1.
        -12    1    3    3    0    0 -0.72133665422E+01 -0.14932637095E+02 -0.60769110562E+01  0.17661969184E+02  0.00000000000E+00 0.  1.
</event>
<event>
 7    1  0.4623443E-009  0.4614232E+02  0.7816164E-02  0.1320468E+00
        -11   -1    0    0    0    0  0.00000000000E+00  0.00000000000E+00  0.45593999997E+02  0.45594000000E+02  0.51100000000E-03 0. -1.
         11   -1    0    0    0    0 -0.00000000000E+00 -0.00000000000E+00 -0.45593999997E+02  0.45594000000E+02  0.51100000000E-03 0.  1.
    9900012    2    1    2    0    0 -0.16360143722E+02  0.17258980653E+02 -0.38256851957E+02  0.46142318327E+02  0.10000005159E+02 0.  0.
         12    1    1    2    0    0  0.16360143722E+02 -0.17258980653E+02  0.38256851957E+02  0.45045681673E+02  0.00000000000E+00 0. -1.
         11    1    3    3    0    0  0.26336442890E+00  0.30477506620E+01 -0.30963843305E+01  0.43526705714E+01  0.51100000000E-03 0. -1.
        -11    1    3    3    0    0 -0.53188009050E+01  0.25053974764E+01 -0.60297277885E+01  0.84216552438E+01  0.51100000000E-03 0.  1.
         12    1    3    3    0    0 -0.11304707246E+02  0.11705832514E+02 -0.29130739838E+02  0.33367992512E+02  0.00000000000E+00 0. -1.
</event>
<event>
 7    1  0.4623443E-009  0.4614232E+02  0.7816164E-02  0.1320468E+00
        -11   -1    0    0    0    0  0.00000000000E+00  0.00000000000E+00  0.45593999997E+02  0.45594000000E+02  0.51100000000E-03 0. -1.
         11   -1    0    0    0    0 -0.00000000000E+00 -0.00000000000E+00 -0.45593999997E+02  0.45594000000E+02  0.51100000000E-03 0.  1.
    9900012    2    1    2    0    0  0.14923502647E+02  0.75152431288E+01  0.41832088818E+02  0.46142318016E+02  0.10000002325E+02 0.  0.
        -12    1    1    2    0    0 -0.14923502647E+02 -0.75152431288E+01 -0.41832088818E+02  0.45045681984E+02  0.00000000000E+00 0.  1.
         11    1    3    3    0    0  0.14258871587E+01 -0.24745098653E+00  0.53228670365E+01  0.55160946266E+01  0.51100000000E-03 0. -1.
        -11    1    3    3    0    0  0.20093267390E+01  0.43007862345E+01  0.49277853740E+01  0.68423113881E+01  0.51100000000E-03 0.  1.
         12    1    3    3    0    0  0.11488288749E+02  0.34619078808E+01  0.31581436407E+02  0.33783912001E+02  0.00000000000E+00 0. -1.
</event>
<event>
 7    1  0.4623443E-009  0.4614232E+02  0.7816164E-02  0.1320468E+00
        -11   -1    0    0    0    0  0.00000000000E+00  0.00000000000E+00  0.45593999997E+02  0.45594000000E+02  0.51100000000E-03 0. -1.
         11   -1    0    0    0    0 -0.00000000000E+00 -0.00000000000E+00 -0.45593999997E+02  0.45594000000E+02  0.51100000000E-03 0.  1.
    9900012    2    1    2    0    0 -0.23974280356E+02 -0.81711347823E+01 -0.37250234069E+02  0.46142317627E+02  0.99999987762E+01 0.  0.
         12    1    1    2    0    0  0.23974280356E+02  0.81711347823E+01  0.37250234069E+02  0.45045682373E+02  0.00000000000E+00 0. -1.
         11    1    3    3    0    0 -0.12362228995E+01  0.93147183211E+00 -0.22835177121E+01  0.27586845115E+01  0.51100000000E-03 0. -1.
        -11    1    3    3    0    0 -0.20270394683E+02 -0.51998719660E+01 -0.30250049967E+02  0.36783054418E+02  0.51100000000E-03 0.  1.
         12    1    3    3    0    0 -0.24676627741E+01 -0.39027346484E+01 -0.47166663902E+01  0.66005786973E+01  0.00000000000E+00 0. -1.
</event>
<event>
 7    1  0.4623443E-009  0.4614232E+02  0.7816164E-02  0.1320468E+00
        -11   -1    0    0    0    0  0.00000000000E+00  0.00000000000E+00  0.45593999997E+02  0.45594000000E+02  0.51100000000E-03 0.  1.
         11   -1    0    0    0    0 -0.00000000000E+00 -0.00000000000E+00 -0.45593999997E+02  0.45594000000E+02  0.51100000000E-03 0. -1.
    9900012    2    1    2    0    0 -0.25535404116E+02 -0.10466929797E+02  0.35601966144E+02  0.46142317898E+02  0.10000001249E+02 0.  0.
        -12    1    1    2    0    0  0.25535404116E+02  0.10466929797E+02 -0.35601966144E+02  0.45045682102E+02  0.00000000000E+00 0.  1.
         11    1    3    3    0    0 -0.20913993043E+01  0.63722325693E+00  0.24335213241E+01  0.32713958527E+01  0.51100000000E-03 0. -1.
        -11    1    3    3    0    0 -0.21827617080E+01 -0.35555685081E+01  0.83237636695E+01  0.93108301443E+01  0.51100000000E-03 0.  1.
         12    1    3    3    0    0 -0.21261243103E+02 -0.75485845463E+01  0.24844681150E+02  0.33560091901E+02  0.00000000000E+00 0. -1.
</event>
<event>
 7    1  0.4623443E-009  0.4614232E+02  0.7816164E-02  0.1320468E+00
        -11   -1    0    0    0    0  0.00000000000E+00  0.00000000000E+00  0.45593999997E+02  0.45594000000E+02  0.51100000000E-03 0. -1.
         11   -1    0    0    0    0 -0.00000000000E+00 -0.00000000000E+00 -0.45593999997E+02  0.45594000000E+02  0.51100000000E-03 0.  1.
    9900012    2    1    2    0    0  0.25585581513E+00  0.43892212070E+02 -0.10125300140E+02  0.46142318236E+02  0.10000004335E+02 0.  0.
         12    1    1    2    0    0 -0.25585581513E+00 -0.43892212070E+02  0.10125300140E+02  0.45045681764E+02  0.00000000000E+00 0. -1.
         11    1    3    3    0    0  0.31813740406E+01  0.18200716236E+02 -0.31486468962E+01  0.18743030434E+02  0.51100000000E-03 0. -1.
        -11    1    3    3    0    0 -0.18423637956E+01  0.12037871248E+02 -0.62383144569E+01  0.13682880401E+02  0.51100000000E-03 0.  1.
        -12    1    3    3    0    0 -0.10831544299E+01  0.13653624586E+02 -0.73833878650E+00  0.13716407402E+02  0.00000000000E+00 0.  1.
</event>
<event>
 7    1  0.4623443E-009  0.4614232E+02  0.7816164E-02  0.1320468E+00
        -11   -1    0    0    0    0  0.00000000000E+00  0.00000000000E+00  0.45593999997E+02  0.45594000000E+02  0.51100000000E-03 0. -1.
         11   -1    0    0    0    0 -0.00000000000E+00 -0.00000000000E+00 -0.45593999997E+02  0.45594000000E+02  0.51100000000E-03 0.  1.
    9900012    2    1    2    0    0  0.31842713525E+02 -0.36732813002E+01 -0.31649043589E+02  0.46142319183E+02  0.10000012970E+02 0.  0.
         12    1    1    2    0    0 -0.31842713525E+02  0.36732813002E+01  0.31649043589E+02  0.45045680817E+02  0.00000000000E+00 0. -1.
         11    1    3    3    0    0  0.37137249751E+00  0.11941805345E+01 -0.18925116433E+01  0.22683882521E+01  0.51100000000E-03 0. -1.
        -11    1    3    3    0    0  0.24084958763E+02 -0.38864627305E+01 -0.25508021673E+02  0.35296586253E+02  0.51100000000E-03 0.  1.
        -12    1    3    3    0    0  0.73863822645E+01 -0.98099910415E+00 -0.42485102726E+01  0.85773446786E+01  0.00000000000E+00 0.  1.
</event>
<event>
 7    1  0.4623443E-009  0.4614232E+02  0.7816164E-02  0.1320468E+00
        -11   -1    0    0    0    0  0.00000000000E+00  0.00000000000E+00  0.45593999997E+02  0.45594000000E+02  0.51100000000E-03 0. -1.
         11   -1    0    0    0    0 -0.00000000000E+00 -0.00000000000E+00 -0.45593999997E+02  0.45594000000E+02  0.51100000000E-03 0.  1.
    9900012    2    1    2    0    0 -0.33138286472E+02  0.75755938976E+01  0.29556350145E+02  0.46142317775E+02  0.10000000128E+02 0.  0.
        -12    1    1    2    0    0  0.33138286472E+02 -0.75755938976E+01 -0.29556350145E+02  0.45045682225E+02  0.00000000000E+00 0.  1.
         11    1    3    3    0    0 -0.20306413268E+02  0.36026922116E+01  0.14924096985E+02  0.25456992793E+02  0.51100000000E-03 0.  1.
        -11    1    3    3    0    0 -0.13257542562E+02  0.30896181851E+01  0.13303307645E+02  0.19033816482E+02  0.51100000000E-03 0. -1.
        -12    1    3    3    0    0  0.42566935777E+00  0.88328350097E+00  0.13289455146E+01  0.16515085002E+01  0.00000000000E+00 0.  1.
</event>
<event>
 7    1  0.4623443E-009  0.4614232E+02  0.7816164E-02  0.1320468E+00
        -11   -1    0    0    0    0  0.00000000000E+00  0.00000000000E+00  0.45593999997E+02  0.45594000000E+02  0.51100000000E-03 0. -1.
         11   -1    0    0    0    0 -0.00000000000E+00 -0.00000000000E+00 -0.45593999997E+02  0.45594000000E+02  0.51100000000E-03 0.  1.
    9900012    2    1    2    0    0 -0.42429869319E+02 -0.92820728671E+01 -0.11944153909E+02  0.46142317635E+02  0.99999988534E+01 0.  0.
         12    1    1    2    0    0  0.42429869319E+02  0.92820728671E+01  0.11944153909E+02  0.45045682365E+02  0.00000000000E+00 0. -1.
         11    1    3    3    0    0 -0.11236193285E+01 -0.65369057313E+00  0.12562413326E+01  0.18077539401E+01  0.51100000000E-03 0.  1.
        -11    1    3    3    0    0 -0.37618162864E+00 -0.36285708816E+00 -0.40678614347E+00  0.66230892474E+00  0.51100000000E-03 0. -1.
        -12    1    3    3    0    0 -0.40930068361E+02 -0.82655252058E+01 -0.12793609098E+02  0.43672254771E+02  0.00000000000E+00 0.  1.
</event>
<event>
 7    1  0.4623443E-009  0.4614232E+02  0.7816164E-02  0.1320468E+00
        -11   -1    0    0    0    0  0.00000000000E+00  0.00000000000E+00  0.45593999997E+02  0.45594000000E+02  0.51100000000E-03 0. -1.
         11   -1    0    0    0    0 -0.00000000000E+00 -0.00000000000E+00 -0.45593999997E+02  0.45594000000E+02  0.51100000000E-03 0.  1.
    9900012    2    1    2    0    0 -0.28127345059E+02  0.17361513215E+02  0.30603001019E+02  0.46142319268E+02  0.10000013744E+02 0.  0.
        -12    1    1    2    0    0  0.28127345059E+02 -0.17361513215E+02 -0.30603001019E+02  0.45045680732E+02  0.00000000000E+00 0.  1.
         11    1    3    3    0    0 -0.15350250643E+02  0.11289497916E+02  0.19986640544E+02  0.27614285406E+02  0.51100000000E-03 0. -1.
        -11    1    3    3    0    0 -0.43405241389E+01  0.34849504479E+01  0.13410354304E+01  0.57256794978E+01  0.51100000000E-03 0.  1.
         12    1    3    3    0    0 -0.84365702764E+01  0.25870648514E+01  0.92753250451E+01  0.12802354364E+02  0.00000000000E+00 0. -1.
</event>
<event>
 7    1  0.4623443E-009  0.4614231E+02  0.7816164E-02  0.1320468E+00
        -11   -1    0    0    0    0  0.00000000000E+00  0.00000000000E+00  0.45593999997E+02  0.45594000000E+02  0.51100000000E-03 0. -1.
         11   -1    0    0    0    0 -0.00000000000E+00 -0.00000000000E+00 -0.45593999997E+02  0.45594000000E+02  0.51100000000E-03 0.  1.
    9900012    2    1    2    0    0  0.31210642008E+02  0.21493452607E+02  0.24352436189E+02  0.46142313993E+02  0.99999656393E+01 0.  0.
        -12    1    1    2    0    0 -0.31210642008E+02 -0.21493452607E+02 -0.24352436189E+02  0.45045686007E+02  0.00000000000E+00 0.  1.
         11    1    3    3    0    0  0.10212817612E+02  0.60466235150E+01  0.11575644278E+02  0.16578867278E+02  0.51100000000E-03 0. -1.
        -11    1    3    3    0    0  0.97507510639E+01  0.44120882642E+01  0.69656633786E+01  0.12769656837E+02  0.51100000000E-03 0.  1.
        -12    1    3    3    0    0  0.11247073332E+02  0.11034740827E+02  0.58111285330E+01  0.16793789879E+02  0.00000000000E+00 0.  1.
</event>
<event>
 7    1  0.4623443E-009  0.4614232E+02  0.7816164E-02  0.1320468E+00
        -11   -1    0    0    0    0  0.00000000000E+00  0.00000000000E+00  0.45593999997E+02  0.45594000000E+02  0.51100000000E-03 0. -1.
         11   -1    0    0    0    0 -0.00000000000E+00 -0.00000000000E+00 -0.45593999997E+02  0.45594000000E+02  0.51100000000E-03 0.  1.
    9900012    2    1    2    0    0  0.13460626260E+02  0.20549025498E+02 -0.37757939719E+02  0.46142324069E+02  0.10000057522E+02 0.  0.
         12    1    1    2    0    0 -0.13460626260E+02 -0.20549025498E+02  0.37757939719E+02  0.45045675931E+02  0.00000000000E+00 0. -1.
         11    1    3    3    0    0  0.10950708483E+01  0.19379649082E+01 -0.14288060058E+01  0.26450661639E+01  0.51100000000E-03 0. -1.
        -11    1    3    3    0    0  0.57353495504E+01  0.14969951061E+02 -0.21161860132E+02  0.26548408497E+02  0.51100000000E-03 0.  1.
         12    1    3    3    0    0  0.66302058613E+01  0.36411095286E+01 -0.15167273581E+02  0.16948849408E+02  0.00000000000E+00 0. -1.
</event>
<event>
 7    1  0.4623443E-009  0.4614232E+02  0.7816164E-02  0.1320468E+00
        -11   -1    0    0    0    0  0.00000000000E+00  0.00000000000E+00  0.45593999997E+02  0.45594000000E+02  0.51100000000E-03 0. -1.
         11   -1    0    0    0    0 -0.00000000000E+00 -0.00000000000E+00 -0.45593999997E+02  0.45594000000E+02  0.51100000000E-03 0.  1.
    9900012    2    1    2    0    0  0.37567696151E+02 -0.72753974575E+01  0.23766578642E+02  0.46142318047E+02  0.10000002606E+02 0.  0.
        -12    1    1    2    0    0 -0.37567696151E+02  0.72753974575E+01 -0.23766578642E+02  0.45045681953E+02  0.00000000000E+00 0.  1.
         11    1    3    3    0    0  0.12562062406E+02 -0.19713866728E+01  0.56853248380E+01  0.13928915826E+02  0.51100000000E-03 0. -1.
        -11    1    3    3    0    0  0.11885839623E+01 -0.79542531578E+00 -0.65825668197E+00  0.15744000092E+01  0.51100000000E-03 0.  1.
         12    1    3    3    0    0  0.23817049783E+02 -0.45085854689E+01  0.18739510486E+02  0.30639002212E+02  0.00000000000E+00 0. -1.
</event>
<event>
 7    1  0.4623443E-009  0.4614232E+02  0.7816164E-02  0.1320468E+00
        -11   -1    0    0    0    0  0.00000000000E+00  0.00000000000E+00  0.45593999997E+02  0.45594000000E+02  0.51100000000E-03 0. -1.
         11   -1    0    0    0    0 -0.00000000000E+00 -0.00000000000E+00 -0.45593999997E+02  0.45594000000E+02  0.51100000000E-03 0.  1.
    9900012    2    1    2    0    0  0.31720395643E+02  0.31149498778E+02  0.72552551028E+01  0.46142317627E+02  0.99999987730E+01 0.  0.
         12    1    1    2    0    0 -0.31720395643E+02 -0.31149498778E+02 -0.72552551028E+01  0.45045682373E+02  0.00000000000E+00 0. -1.
         11    1    3    3    0    0  0.23494741041E+02  0.24049236918E+02  0.49324965608E+01  0.33980850129E+02  0.51100000000E-03 0. -1.
        -11    1    3    3    0    0  0.32143950200E+01  0.58385410944E+01  0.50725143894E+00  0.66841754719E+01  0.51100000000E-03 0.  1.
         12    1    3    3    0    0  0.50112595822E+01  0.12617207656E+01  0.18155071030E+01  0.54772920254E+01  0.00000000000E+00 0. -1.
</event>
<event>
 7    1  0.4623443E-009  0.4614232E+02  0.7816164E-02  0.1320468E+00
        -11   -1    0    0    0    0  0.00000000000E+00  0.00000000000E+00  0.45593999997E+02  0.45594000000E+02  0.51100000000E-03 0. -1.
         11   -1    0    0    0    0 -0.00000000000E+00 -0.00000000000E+00 -0.45593999997E+02  0.45594000000E+02  0.51100000000E-03 0.  1.
    9900012    2    1    2    0    0  0.74203292270E+01 -0.48228997260E+01 -0.44167771355E+02  0.46142315700E+02  0.99999812030E+01 0.  0.
         12    1    1    2    0    0 -0.74203292270E+01  0.48228997260E+01  0.44167771355E+02  0.45045684300E+02  0.00000000000E+00 0. -1.
         11    1    3    3    0    0  0.47537288651E+01  0.12715430542E+01 -0.19963576468E+02  0.20561107594E+02  0.51100000000E-03 0. -1.
        -11    1    3    3    0    0  0.18601902704E+01 -0.63046788842E+01 -0.15487169253E+02  0.16824437447E+02  0.51100000000E-03 0.  1.
        -12    1    3    3    0    0  0.80641009150E+00  0.21023610393E+00 -0.87170256346E+01  0.87567706587E+01  0.00000000000E+00 0.  1.
</event>
<event>
 7    1  0.4623443E-009  0.4614232E+02  0.7816164E-02  0.1320468E+00
        -11   -1    0    0    0    0  0.00000000000E+00  0.00000000000E+00  0.45593999997E+02  0.45594000000E+02  0.51100000000E-03 0. -1.
         11   -1    0    0    0    0 -0.00000000000E+00 -0.00000000000E+00 -0.45593999997E+02  0.45594000000E+02  0.51100000000E-03 0.  1.
    9900012    2    1    2    0    0  0.13310733069E+02  0.98747835197E+00  0.43022816713E+02  0.46142317784E+02  0.10000000211E+02 0.  0.
        -12    1    1    2    0    0 -0.13310733069E+02 -0.98747835197E+00 -0.43022816713E+02  0.45045682216E+02  0.00000000000E+00 0.  1.
         11    1    3    3    0    0 -0.56898977316E+00 -0.72993242593E+00  0.52671443721E+01  0.53478370213E+01  0.51100000000E-03 0. -1.
        -11    1    3    3    0    0  0.50865027033E+01  0.30753466020E+01  0.20974664337E+02  0.21800614918E+02  0.51100000000E-03 0.  1.
         12    1    3    3    0    0  0.87932201391E+01 -0.13579358241E+01  0.16781008004E+02  0.18993865845E+02  0.00000000000E+00 0. -1.
</event>
<event>
 7    1  0.4623443E-009  0.4614232E+02  0.7816164E-02  0.1320468E+00
        -11   -1    0    0    0    0  0.00000000000E+00  0.00000000000E+00  0.45593999997E+02  0.45594000000E+02  0.51100000000E-03 0.  1.
         11   -1    0    0    0    0 -0.00000000000E+00 -0.00000000000E+00 -0.45593999997E+02  0.45594000000E+02  0.51100000000E-03 0. -1.
    9900012    2    1    2    0    0  0.13521282739E+02  0.30209976168E+02  0.30555617526E+02  0.46142317528E+02  0.99999978703E+01 0.  0.
        -12    1    1    2    0    0 -0.13521282739E+02 -0.30209976168E+02 -0.30555617526E+02  0.45045682472E+02  0.00000000000E+00 0.  1.
         11    1    3    3    0    0  0.92604736618E+01  0.25305073631E+02  0.20222836056E+02  0.33690743867E+02  0.51100000000E-03 0. -1.
        -11    1    3    3    0    0  0.33431757163E+01  0.49952422766E+01  0.86615821459E+01  0.10542877918E+02  0.51100000000E-03 0.  1.
        -12    1    3    3    0    0  0.91763336105E+00 -0.90339739190E-01  0.16711993249E+01  0.19086957425E+01  0.00000000000E+00 0.  1.
</event>
<event>
 7    1  0.4623443E-009  0.4614231E+02  0.7816164E-02  0.1320468E+00
        -11   -1    0    0    0    0  0.00000000000E+00  0.00000000000E+00  0.45593999997E+02  0.45594000000E+02  0.51100000000E-03 0. -1.
         11   -1    0    0    0    0 -0.00000000000E+00 -0.00000000000E+00 -0.45593999997E+02  0.45594000000E+02  0.51100000000E-03 0.  1.
    9900012    2    1    2    0    0  0.12491819168E+02  0.26346585980E+02  0.34335486365E+02  0.46142314714E+02  0.99999722180E+01 0.  0.
        -12    1    1    2    0    0 -0.12491819168E+02 -0.26346585980E+02 -0.34335486365E+02  0.45045685286E+02  0.00000000000E+00 0.  1.
         11    1    3    3    0    0  0.84321634799E+00  0.20893039952E+01  0.63852593259E+00  0.23417772357E+01  0.51100000000E-03 0.  1.
        -11    1    3    3    0    0  0.12739519114E+02  0.21979115955E+02  0.29829832105E+02  0.39181574357E+02  0.51100000000E-03 0. -1.
        -12    1    3    3    0    0 -0.10909162939E+01  0.22781660292E+01  0.38671283274E+01  0.46189631215E+01  0.00000000000E+00 0.  1.
</event>
<event>
 7    1  0.4623443E-009  0.4614232E+02  0.7816164E-02  0.1320468E+00
        -11   -1    0    0    0    0  0.00000000000E+00  0.00000000000E+00  0.45593999997E+02  0.45594000000E+02  0.51100000000E-03 0. -1.
         11   -1    0    0    0    0 -0.00000000000E+00 -0.00000000000E+00 -0.45593999997E+02  0.45594000000E+02  0.51100000000E-03 0.  1.
    9900012    2    1    2    0    0 -0.28423921117E+02 -0.32386118690E+02 -0.13127585211E+02  0.46142317976E+02  0.10000001962E+02 0.  0.
         12    1    1    2    0    0  0.28423921117E+02  0.32386118690E+02  0.13127585211E+02  0.45045682024E+02  0.00000000000E+00 0. -1.
         11    1    3    3    0    0 -0.51538718327E+01 -0.87388388957E+01 -0.53693399911E+01  0.11478654639E+02  0.51100000000E-03 0. -1.
        -11    1    3    3    0    0 -0.40613502864E+01 -0.37266909327E+01  0.10729816615E+01  0.56155214686E+01  0.51100000000E-03 0.  1.
         12    1    3    3    0    0 -0.19208698998E+02 -0.19920588862E+02 -0.88312268819E+01  0.29048141869E+02  0.00000000000E+00 0. -1.
</event>
<event>
 7    1  0.4623443E-009  0.4614231E+02  0.7816164E-02  0.1320468E+00
        -11   -1    0    0    0    0  0.00000000000E+00  0.00000000000E+00  0.45593999997E+02  0.45594000000E+02  0.51100000000E-03 0. -1.
         11   -1    0    0    0    0 -0.00000000000E+00 -0.00000000000E+00 -0.45593999997E+02  0.45594000000E+02  0.51100000000E-03 0.  1.
    9900012    2    1    2    0    0  0.39922403450E+01 -0.10048976716E+02  0.43728642772E+02  0.46142310809E+02  0.99999366017E+01 0.  0.
        -12    1    1    2    0    0 -0.39922403450E+01  0.10048976716E+02 -0.43728642772E+02  0.45045689191E+02  0.00000000000E+00 0.  1.
         11    1    3    3    0    0  0.50171664009E+01 -0.40215813337E+01  0.13690037020E+02  0.15124886413E+02  0.51100000000E-03 0.  1.
        -11    1    3    3    0    0  0.15478297966E+01 -0.34013598273E+01  0.19530265731E+02  0.19884574562E+02  0.51100000000E-03 0. -1.
         12    1    3    3    0    0 -0.25727558525E+01 -0.26260355550E+01  0.10508340021E+02  0.11132849833E+02  0.00000000000E+00 0. -1.
</event>
<event>
 7    1  0.4623443E-009  0.4614232E+02  0.7816164E-02  0.1320468E+00
        -11   -1    0    0    0    0  0.00000000000E+00  0.00000000000E+00  0.45593999997E+02  0.45594000000E+02  0.51100000000E-03 0. -1.
         11   -1    0    0    0    0 -0.00000000000E+00 -0.00000000000E+00 -0.45593999997E+02  0.45594000000E+02  0.51100000000E-03 0.  1.
    9900012    2    1    2    0    0  0.21263473431E+02 -0.38303634617E+02 -0.10479016728E+02  0.46142317423E+02  0.99999969182E+01 0.  0.
         12    1    1    2    0    0 -0.21263473431E+02  0.38303634617E+02  0.10479016728E+02  0.45045682577E+02  0.00000000000E+00 0. -1.
         11    1    3    3    0    0  0.13898232419E+02 -0.26015405375E+02 -0.43772882229E+01  0.29818162815E+02  0.51100000000E-03 0. -1.
        -11    1    3    3    0    0  0.69811502370E+01 -0.11459926079E+02 -0.39522528393E+01  0.13988805065E+02  0.51100000000E-03 0.  1.
         12    1    3    3    0    0  0.38409077537E+00 -0.82830316292E+00 -0.21494756661E+01  0.23353495440E+01  0.00000000000E+00 0. -1.
</event>
<event>
 7    1  0.4623443E-009  0.4614232E+02  0.7816164E-02  0.1320468E+00
        -11   -1    0    0    0    0  0.00000000000E+00  0.00000000000E+00  0.45593999997E+02  0.45594000000E+02  0.51100000000E-03 0.  1.
         11   -1    0    0    0    0 -0.00000000000E+00 -0.00000000000E+00 -0.45593999997E+02  0.45594000000E+02  0.51100000000E-03 0. -1.
    9900012    2    1    2    0    0 -0.36176439842E+02 -0.24796721139E+02  0.10271381991E+02  0.46142317999E+02  0.10000002172E+02 0.  0.
        -12    1    1    2    0    0  0.36176439842E+02  0.24796721139E+02 -0.10271381991E+02  0.45045682001E+02  0.00000000000E+00 0.  1.
         11    1    3    3    0    0 -0.24304274409E+02 -0.18267907070E+02  0.99875896565E+01  0.32002595686E+02  0.51100000000E-03 0. -1.
        -11    1    3    3    0    0 -0.20120752870E+01 -0.39268237883E-01 -0.10336290472E+01  0.22623833060E+01  0.51100000000E-03 0.  1.
        -12    1    3    3    0    0 -0.98600901469E+01 -0.64895458313E+01  0.13174213813E+01  0.11877339007E+02  0.00000000000E+00 0.  1.
</event>
<event>
 7    1  0.4623443E-009  0.4614232E+02  0.7816164E-02  0.1320468E+00
        -11   -1    0    0    0    0  0.00000000000E+00  0.00000000000E+00  0.45593999997E+02  0.45594000000E+02  0.51100000000E-03 0. -1.
         11   -1    0    0    0    0 -0.00000000000E+00 -0.00000000000E+00 -0.45593999997E+02  0.45594000000E+02  0.51100000000E-03 0.  1.
    9900012    2    1    2    0    0 -0.38558860585E+02 -0.79900437479E+01  0.21874344362E+02  0.46142317965E+02  0.10000001861E+02 0.  0.
        -12    1    1    2    0    0  0.38558860585E+02  0.79900437479E+01 -0.21874344362E+02  0.45045682035E+02  0.00000000000E+00 0.  1.
         11    1    3    3    0    0 -0.98194986476E+01 -0.24649989801E+01  0.87273811497E+01  0.13366598507E+02  0.51100000000E-03 0. -1.
        -11    1    3    3    0    0 -0.12191557969E+02  0.42571652514E+00  0.33727072487E+01  0.12656637575E+02  0.51100000000E-03 0.  1.
        -12    1    3    3    0    0 -0.16547803968E+02 -0.59507612929E+01  0.97742559641E+01  0.20119081882E+02  0.00000000000E+00 0.  1.
</event>
<event>
 7    1  0.4623443E-009  0.4614232E+02  0.7816164E-02  0.1320468E+00
        -11   -1    0    0    0    0  0.00000000000E+00  0.00000000000E+00  0.45593999997E+02  0.45594000000E+02  0.51100000000E-03 0. -1.
         11   -1    0    0    0    0 -0.00000000000E+00 -0.00000000000E+00 -0.45593999997E+02  0.45594000000E+02  0.51100000000E-03 0.  1.
    9900012    2    1    2    0    0  0.28566940870E+02  0.23315246608E+02 -0.25873590293E+02  0.46142317524E+02  0.99999978381E+01 0.  0.
         12    1    1    2    0    0 -0.28566940870E+02 -0.23315246608E+02  0.25873590293E+02  0.45045682476E+02  0.00000000000E+00 0. -1.
         11    1    3    3    0    0  0.78636411792E+00 -0.81568287028E+00 -0.16872205850E+01  0.20323436310E+01  0.51100000000E-03 0. -1.
        -11    1    3    3    0    0  0.75943640463E+01  0.52176464565E+01 -0.65261391126E+01  0.11291089044E+02  0.51100000000E-03 0.  1.
         12    1    3    3    0    0  0.20186212706E+02  0.18913283022E+02 -0.17660230595E+02  0.32818884849E+02  0.00000000000E+00 0. -1.
</event>
<event>
 7    1  0.4623443E-009  0.4614232E+02  0.7816164E-02  0.1320468E+00
        -11   -1    0    0    0    0  0.00000000000E+00  0.00000000000E+00  0.45593999997E+02  0.45594000000E+02  0.51100000000E-03 0. -1.
         11   -1    0    0    0    0 -0.00000000000E+00 -0.00000000000E+00 -0.45593999997E+02  0.45594000000E+02  0.51100000000E-03 0.  1.
    9900012    2    1    2    0    0 -0.36409059761E+02  0.66278359714E+01  0.25682008382E+02  0.46142318776E+02  0.10000009259E+02 0.  0.
        -12    1    1    2    0    0  0.36409059761E+02 -0.66278359714E+01 -0.25682008382E+02  0.45045681224E+02  0.00000000000E+00 0.  1.
         11    1    3    3    0    0 -0.64890604354E+01  0.27235906257E+01  0.70039247737E+01  0.99287871227E+01  0.51100000000E-03 0. -1.
        -11    1    3    3    0    0 -0.15155402684E+01  0.99505314259E-01  0.34302832052E+01  0.37514806066E+01  0.51100000000E-03 0.  1.
         12    1    3    3    0    0 -0.28404459058E+02  0.38047400315E+01  0.15247800403E+02  0.32462051047E+02  0.00000000000E+00 0. -1.
</event>
<event>
 7    1  0.4623443E-009  0.4614232E+02  0.7816164E-02  0.1320468E+00
        -11   -1    0    0    0    0  0.00000000000E+00  0.00000000000E+00  0.45593999997E+02  0.45594000000E+02  0.51100000000E-03 0. -1.
         11   -1    0    0    0    0 -0.00000000000E+00 -0.00000000000E+00 -0.45593999997E+02  0.45594000000E+02  0.51100000000E-03 0.  1.
    9900012    2    1    2    0    0 -0.11806575152E+02 -0.11173628416E+02 -0.42010335365E+02  0.46142318006E+02  0.10000002233E+02 0.  0.
         12    1    1    2    0    0  0.11806575152E+02  0.11173628416E+02  0.42010335365E+02  0.45045681994E+02  0.00000000000E+00 0. -1.
         11    1    3    3    0    0  0.41136977225E+00 -0.41763902793E+01 -0.72108000306E+01  0.83430868507E+01  0.51100000000E-03 0. -1.
        -11    1    3    3    0    0  0.31698292128E+00 -0.32990838289E+00 -0.21194158297E+01  0.21682346353E+01  0.51100000000E-03 0.  1.
        -12    1    3    3    0    0 -0.12534927846E+02 -0.66673297533E+01 -0.32680119505E+02  0.35630996520E+02  0.00000000000E+00 0.  1.
</event>
<event>
 7    1  0.4623443E-009  0.4614232E+02  0.7816164E-02  0.1320468E+00
        -11   -1    0    0    0    0  0.00000000000E+00  0.00000000000E+00  0.45593999997E+02  0.45594000000E+02  0.51100000000E-03 0. -1.
         11   -1    0    0    0    0 -0.00000000000E+00 -0.00000000000E+00 -0.45593999997E+02  0.45594000000E+02  0.51100000000E-03 0.  1.
    9900012    2    1    2    0    0 -0.18011780197E+01  0.22410621869E+02 -0.39033745439E+02  0.46142317656E+02  0.99999990437E+01 0.  0.
         12    1    1    2    0    0  0.18011780197E+01 -0.22410621869E+02  0.39033745439E+02  0.45045682344E+02  0.00000000000E+00 0. -1.
         11    1    3    3    0    0 -0.12112113024E+00 -0.78313527858E+00 -0.15031900388E+01  0.16992797729E+01  0.51100000000E-03 0. -1.
        -11    1    3    3    0    0 -0.41855925284E-01  0.81045454323E+01 -0.17729304355E+02  0.19493938590E+02  0.51100000000E-03 0.  1.
         12    1    3    3    0    0 -0.16382009641E+01  0.15089211715E+02 -0.19801251046E+02  0.24949099293E+02  0.00000000000E+00 0. -1.
</event>
<event>
 7    1  0.4623443E-009  0.4614232E+02  0.7816164E-02  0.1320468E+00
        -11   -1    0    0    0    0  0.00000000000E+00  0.00000000000E+00  0.45593999997E+02  0.45594000000E+02  0.51100000000E-03 0. -1.
         11   -1    0    0    0    0 -0.00000000000E+00 -0.00000000000E+00 -0.45593999997E+02  0.45594000000E+02  0.51100000000E-03 0.  1.
    9900012    2    1    2    0    0 -0.12577980718E+02  0.38595455947E+02 -0.19526876300E+02  0.46142315226E+02  0.99999768866E+01 0.  0.
         12    1    1    2    0    0  0.12577980718E+02 -0.38595455947E+02  0.19526876300E+02  0.45045684774E+02  0.00000000000E+00 0. -1.
         11    1    3    3    0    0 -0.59942005020E+01  0.23686599249E+02 -0.10427221473E+02  0.26565247440E+02  0.51100000000E-03 0. -1.
        -11    1    3    3    0    0 -0.39710094484E+01  0.84470865677E+01 -0.84260251246E+01  0.12574580994E+02  0.51100000000E-03 0.  1.
         12    1    3    3    0    0 -0.26127707680E+01  0.64617701296E+01 -0.67362970274E+00  0.70024867918E+01  0.00000000000E+00 0. -1.
</event>
<event>
 7    1  0.4623443E-009  0.4614232E+02  0.7816164E-02  0.1320468E+00
        -11   -1    0    0    0    0  0.00000000000E+00  0.00000000000E+00  0.45593999997E+02  0.45594000000E+02  0.51100000000E-03 0. -1.
         11   -1    0    0    0    0 -0.00000000000E+00 -0.00000000000E+00 -0.45593999997E+02  0.45594000000E+02  0.51100000000E-03 0.  1.
    9900012    2    1    2    0    0 -0.61347100460E+01  0.38154135374E+02 -0.23146076316E+02  0.46142316940E+02  0.99999925157E+01 0.  0.
         12    1    1    2    0    0  0.61347100460E+01 -0.38154135374E+02  0.23146076316E+02  0.45045683060E+02  0.00000000000E+00 0. -1.
         11    1    3    3    0    0 -0.65782730639E+00  0.15048855367E+02 -0.79563449140E+01  0.17035381102E+02  0.51100000000E-03 0. -1.
        -11    1    3    3    0    0 -0.23701733229E+01  0.63924182967E+01 -0.83589688393E+01  0.10786709117E+02  0.51100000000E-03 0.  1.
         12    1    3    3    0    0 -0.31067094167E+01  0.16712861710E+02 -0.68307625627E+01  0.18320226722E+02  0.00000000000E+00 0. -1.
</event>
<event>
 7    1  0.4623443E-009  0.4614232E+02  0.7816164E-02  0.1320468E+00
        -11   -1    0    0    0    0  0.00000000000E+00  0.00000000000E+00  0.45593999997E+02  0.45594000000E+02  0.51100000000E-03 0. -1.
         11   -1    0    0    0    0 -0.00000000000E+00 -0.00000000000E+00 -0.45593999997E+02  0.45594000000E+02  0.51100000000E-03 0.  1.
    9900012    2    1    2    0    0  0.12076917396E+02  0.20673595131E+01  0.43347289413E+02  0.46142318647E+02  0.10000008075E+02 0.  0.
        -12    1    1    2    0    0 -0.12076917396E+02 -0.20673595131E+01 -0.43347289413E+02  0.45045681353E+02  0.00000000000E+00 0.  1.
         11    1    3    3    0    0  0.12724575887E+02  0.20152779584E+01  0.36378828557E+02  0.38592685113E+02  0.51100000000E-03 0. -1.
        -11    1    3    3    0    0  0.62275592107E-01  0.25971512505E+00 -0.20590722986E+00  0.33723618427E+00  0.51100000000E-03 0.  1.
         12    1    3    3    0    0 -0.70993408330E+00 -0.20763357039E+00  0.71743680855E+01  0.72123973495E+01  0.00000000000E+00 0. -1.
</event>
<event>
 7    1  0.4623443E-009  0.4614232E+02  0.7816164E-02  0.1320468E+00
        -11   -1    0    0    0    0  0.00000000000E+00  0.00000000000E+00  0.45593999997E+02  0.45594000000E+02  0.51100000000E-03 0. -1.
         11   -1    0    0    0    0 -0.00000000000E+00 -0.00000000000E+00 -0.45593999997E+02  0.45594000000E+02  0.51100000000E-03 0.  1.
    9900012    2    1    2    0    0  0.91391439988E+01  0.30835669526E+02  0.31539673978E+02  0.46142317601E+02  0.99999985405E+01 0.  0.
        -12    1    1    2    0    0 -0.91391439988E+01 -0.30835669526E+02 -0.31539673978E+02  0.45045682399E+02  0.00000000000E+00 0.  1.
         11    1    3    3    0    0  0.90267127592E+01  0.25108099920E+02  0.25999375145E+02  0.37254070020E+02  0.51100000000E-03 0. -1.
        -11    1    3    3    0    0  0.14515806377E+01  0.47829496609E+00  0.10884923320E+01  0.18763443821E+01  0.51100000000E-03 0.  1.
        -12    1    3    3    0    0 -0.13391493981E+01  0.52492746398E+01  0.44518065008E+01  0.70119031993E+01  0.00000000000E+00 0.  1.
</event>
<event>
 7    1  0.4623443E-009  0.4614231E+02  0.7816164E-02  0.1320468E+00
        -11   -1    0    0    0    0  0.00000000000E+00  0.00000000000E+00  0.45593999997E+02  0.45594000000E+02  0.51100000000E-03 0. -1.
         11   -1    0    0    0    0 -0.00000000000E+00 -0.00000000000E+00 -0.45593999997E+02  0.45594000000E+02  0.51100000000E-03 0.  1.
    9900012    2    1    2    0    0  0.95247744106E+00  0.17896319922E+02 -0.41327095042E+02  0.46142309144E+02  0.99999214263E+01 0.  0.
         12    1    1    2    0    0 -0.95247744106E+00 -0.17896319922E+02  0.41327095042E+02  0.45045690856E+02  0.00000000000E+00 0. -1.
         11    1    3    3    0    0  0.15702987678E+01  0.11962035126E+02 -0.20984140517E+02  0.24205170441E+02  0.51100000000E-03 0. -1.
        -11    1    3    3    0    0  0.12517423036E-01  0.21767026384E+01 -0.16051338048E+02  0.16198260538E+02  0.51100000000E-03 0.  1.
        -12    1    3    3    0    0 -0.63033874979E+00  0.37575821580E+01 -0.42916164767E+01  0.57388781653E+01  0.00000000000E+00 0.  1.
</event>
<event>
 7    1  0.4623443E-009  0.4614232E+02  0.7816164E-02  0.1320468E+00
        -11   -1    0    0    0    0  0.00000000000E+00  0.00000000000E+00  0.45593999997E+02  0.45594000000E+02  0.51100000000E-03 0. -1.
         11   -1    0    0    0    0 -0.00000000000E+00 -0.00000000000E+00 -0.45593999997E+02  0.45594000000E+02  0.51100000000E-03 0.  1.
    9900012    2    1    2    0    0 -0.35798972788E+02 -0.23737643151E+02 -0.13567289012E+02  0.46142317786E+02  0.10000000223E+02 0.  0.
         12    1    1    2    0    0  0.35798972788E+02  0.23737643151E+02  0.13567289012E+02  0.45045682214E+02  0.00000000000E+00 0. -1.
         11    1    3    3    0    0 -0.18277047316E+02 -0.84219567958E+01 -0.75798113787E+01  0.21504263662E+02  0.51100000000E-03 0. -1.
        -11    1    3    3    0    0 -0.16218893041E+02 -0.11733450591E+02 -0.57075833683E+01  0.20815928094E+02  0.51100000000E-03 0.  1.
         12    1    3    3    0    0 -0.13030324312E+01 -0.35822357640E+01 -0.27989426546E+00  0.38221260295E+01  0.00000000000E+00 0. -1.
</event>
<event>
 7    1  0.6278960E-009  0.4614232E+02  0.7816164E-02  0.1320468E+00
        -11   -1    0    0    0    0  0.00000000000E+00  0.00000000000E+00  0.45593999997E+02  0.45594000000E+02  0.51100000000E-03 0. -1.
         11   -1    0    0    0    0 -0.00000000000E+00 -0.00000000000E+00 -0.45593999997E+02  0.45594000000E+02  0.51100000000E-03 0.  1.
    9900012    2    1    2    0    0 -0.76020373267E+01 -0.20125582745E+02 -0.39576298584E+02  0.46142318055E+02  0.10000002676E+02 0.  0.
         12    1    1    2    0    0  0.76020373267E+01  0.20125582745E+02  0.39576298584E+02  0.45045681945E+02  0.00000000000E+00 0. -1.
         11    1    3    3    0    0  0.91239405433E+00 -0.17425846144E+01 -0.60032405549E+01  0.63172748452E+01  0.51100000000E-03 0. -1.
        -11    1    3    3    0    0 -0.16863028215E+01 -0.76971550016E+01 -0.18620924003E+02  0.20219510956E+02  0.51100000000E-03 0.  1.
         12    1    3    3    0    0 -0.68281285596E+01 -0.10685843129E+02 -0.14952134026E+02  0.19605532253E+02  0.00000000000E+00 0. -1.
</event>
<event>
 7    1  0.4623443E-009  0.4614232E+02  0.7816164E-02  0.1320468E+00
        -11   -1    0    0    0    0  0.00000000000E+00  0.00000000000E+00  0.45593999997E+02  0.45594000000E+02  0.51100000000E-03 0. -1.
         11   -1    0    0    0    0 -0.00000000000E+00 -0.00000000000E+00 -0.45593999997E+02  0.45594000000E+02  0.51100000000E-03 0.  1.
    9900012    2    1    2    0    0 -0.39949300316E+02 -0.52288927771E+01 -0.20145113206E+02  0.46142317615E+02  0.99999986704E+01 0.  0.
         12    1    1    2    0    0  0.39949300316E+02  0.52288927771E+01  0.20145113206E+02  0.45045682385E+02  0.00000000000E+00 0. -1.
         11    1    3    3    0    0 -0.30469803696E+01  0.48452078835E+00 -0.19455733531E+01  0.36474793626E+01  0.51100000000E-03 0. -1.
        -11    1    3    3    0    0 -0.30289877527E+01  0.20499360767E+00 -0.46112436685E+01  0.55209018844E+01  0.51100000000E-03 0.  1.
        -12    1    3    3    0    0 -0.33873332194E+02 -0.59184071732E+01 -0.13588296185E+02  0.36973936368E+02  0.00000000000E+00 0.  1.
</event>
<event>
 7    1  0.4623443E-009  0.4614231E+02  0.7816164E-02  0.1320468E+00
        -11   -1    0    0    0    0  0.00000000000E+00  0.00000000000E+00  0.45593999997E+02  0.45594000000E+02  0.51100000000E-03 0. -1.
         11   -1    0    0    0    0 -0.00000000000E+00 -0.00000000000E+00 -0.45593999997E+02  0.45594000000E+02  0.51100000000E-03 0.  1.
    9900012    2    1    2    0    0  0.29437796892E+02 -0.25281348303E+01 -0.34002042907E+02  0.46142309047E+02  0.99999205370E+01 0.  0.
         12    1    1    2    0    0 -0.29437796892E+02  0.25281348303E+01  0.34002042907E+02  0.45045690953E+02  0.00000000000E+00 0. -1.
         11    1    3    3    0    0  0.27901773915E+00  0.14073881680E+01 -0.14886902192E+01  0.20675568152E+01  0.51100000000E-03 0. -1.
        -11    1    3    3    0    0  0.26506508807E+02 -0.24924222537E+01 -0.27929674514E+02  0.38585928738E+02  0.51100000000E-03 0.  1.
        -12    1    3    3    0    0  0.26522703455E+01 -0.14431007446E+01 -0.45836781741E+01  0.54888234941E+01  0.00000000000E+00 0.  1.
</event>
<event>
 7    1  0.4623443E-009  0.4614232E+02  0.7816164E-02  0.1320468E+00
        -11   -1    0    0    0    0  0.00000000000E+00  0.00000000000E+00  0.45593999997E+02  0.45594000000E+02  0.51100000000E-03 0. -1.
         11   -1    0    0    0    0 -0.00000000000E+00 -0.00000000000E+00 -0.45593999997E+02  0.45594000000E+02  0.51100000000E-03 0.  1.
    9900012    2    1    2    0    0 -0.31780716388E+02 -0.50054808413E+01 -0.31528475820E+02  0.46142316965E+02  0.99999927384E+01 0.  0.
         12    1    1    2    0    0  0.31780716388E+02  0.50054808413E+01  0.31528475820E+02  0.45045683035E+02  0.00000000000E+00 0. -1.
         11    1    3    3    0    0 -0.64217419182E+00 -0.75161770387E+00  0.32095301770E+00  0.10393882653E+01  0.51100000000E-03 0. -1.
        -11    1    3    3    0    0 -0.15077232796E+02  0.39488592248E-01 -0.12441539688E+02  0.19547798295E+02  0.51100000000E-03 0.  1.
         12    1    3    3    0    0 -0.16061309401E+02 -0.42933517296E+01 -0.19407889149E+02  0.25555130404E+02  0.00000000000E+00 0. -1.
</event>
<event>
 7    1  0.4623443E-009  0.4614232E+02  0.7816164E-02  0.1320468E+00
        -11   -1    0    0    0    0  0.00000000000E+00  0.00000000000E+00  0.45593999997E+02  0.45594000000E+02  0.51100000000E-03 0.  1.
         11   -1    0    0    0    0 -0.00000000000E+00 -0.00000000000E+00 -0.45593999997E+02  0.45594000000E+02  0.51100000000E-03 0. -1.
    9900012    2    1    2    0    0  0.39697187330E+02  0.60346711666E+01  0.20416405607E+02  0.46142317012E+02  0.99999931677E+01 0.  0.
        -12    1    1    2    0    0 -0.39697187330E+02 -0.60346711666E+01 -0.20416405607E+02  0.45045682988E+02  0.00000000000E+00 0.  1.
         11    1    3    3    0    0  0.20149057438E+02 -0.18173888801E+00  0.69506139939E+01  0.21314984866E+02  0.51100000000E-03 0. -1.
        -11    1    3    3    0    0  0.57487716207E+01  0.21067342225E+01  0.61458273630E+01  0.86751310346E+01  0.51100000000E-03 0.  1.
         12    1    3    3    0    0  0.13799358271E+02  0.41096758321E+01  0.73199642497E+01  0.16152201111E+02  0.00000000000E+00 0. -1.
</event>
<event>
 7    1  0.4623443E-009  0.4614232E+02  0.7816164E-02  0.1320468E+00
        -11   -1    0    0    0    0  0.00000000000E+00  0.00000000000E+00  0.45593999997E+02  0.45594000000E+02  0.51100000000E-03 0. -1.
         11   -1    0    0    0    0 -0.00000000000E+00 -0.00000000000E+00 -0.45593999997E+02  0.45594000000E+02  0.51100000000E-03 0.  1.
    9900012    2    1    2    0    0  0.15140395715E+02  0.14011825666E+02 -0.40044357968E+02  0.46142318232E+02  0.10000004292E+02 0.  0.
         12    1    1    2    0    0 -0.15140395715E+02 -0.14011825666E+02  0.40044357968E+02  0.45045681768E+02  0.00000000000E+00 0. -1.
         11    1    3    3    0    0  0.26933391149E+01 -0.29584156601E+00 -0.16160687424E+01  0.31548813387E+01  0.51100000000E-03 0. -1.
        -11    1    3    3    0    0  0.24804657547E+00  0.17039837103E+01 -0.31988251486E+01  0.36328460167E+01  0.51100000000E-03 0.  1.
        -12    1    3    3    0    0  0.12199010025E+02  0.12603683522E+02 -0.35229464077E+02  0.39354590876E+02  0.00000000000E+00 0.  1.
</event>
<event>
 7    1  0.4623443E-009  0.4614232E+02  0.7816164E-02  0.1320468E+00
        -11   -1    0    0    0    0  0.00000000000E+00  0.00000000000E+00  0.45593999997E+02  0.45594000000E+02  0.51100000000E-03 0. -1.
         11   -1    0    0    0    0 -0.00000000000E+00 -0.00000000000E+00 -0.45593999997E+02  0.45594000000E+02  0.51100000000E-03 0.  1.
    9900012    2    1    2    0    0 -0.51487995951E+01 -0.87776423128E+01  0.43881162011E+02  0.46142317396E+02  0.99999966733E+01 0.  0.
        -12    1    1    2    0    0  0.51487995951E+01  0.87776423128E+01 -0.43881162011E+02  0.45045682604E+02  0.00000000000E+00 0.  1.
         11    1    3    3    0    0  0.22726120837E+00  0.85330297721E+00  0.56200483070E+01  0.56889996363E+01  0.51100000000E-03 0. -1.
        -11    1    3    3    0    0  0.10080044049E+01 -0.10784901711E+01  0.12505167477E+01  0.19346850717E+01  0.51100000000E-03 0.  1.
         12    1    3    3    0    0 -0.63840652083E+01 -0.85524551189E+01  0.37010596956E+02  0.38518632688E+02  0.00000000000E+00 0. -1.
</event>
<event>
 7    1  0.4623443E-009  0.4614232E+02  0.7816164E-02  0.1320468E+00
        -11   -1    0    0    0    0  0.00000000000E+00  0.00000000000E+00  0.45593999997E+02  0.45594000000E+02  0.51100000000E-03 0. -1.
         11   -1    0    0    0    0 -0.00000000000E+00 -0.00000000000E+00 -0.45593999997E+02  0.45594000000E+02  0.51100000000E-03 0.  1.
    9900012    2    1    2    0    0 -0.35251021106E+02  0.12910855540E+02 -0.24895559901E+02  0.46142316716E+02  0.99999904685E+01 0.  0.
         12    1    1    2    0    0  0.35251021106E+02 -0.12910855540E+02  0.24895559901E+02  0.45045683284E+02  0.00000000000E+00 0. -1.
         11    1    3    3    0    0 -0.92541056275E+01  0.74475526074E+01 -0.69501765571E+01  0.13762611135E+02  0.51100000000E-03 0. -1.
        -11    1    3    3    0    0 -0.34220461845E+01  0.19041527375E+01 -0.13738234888E+01  0.41501311998E+01  0.51100000000E-03 0.  1.
        -12    1    3    3    0    0 -0.22574869294E+02  0.35591501953E+01 -0.16571559855E+02  0.28229574381E+02  0.00000000000E+00 0.  1.
</event>
<event>
 7    1  0.4623443E-009  0.4614232E+02  0.7816164E-02  0.1320468E+00
        -11   -1    0    0    0    0  0.00000000000E+00  0.00000000000E+00  0.45593999997E+02  0.45594000000E+02  0.51100000000E-03 0. -1.
         11   -1    0    0    0    0 -0.00000000000E+00 -0.00000000000E+00 -0.45593999997E+02  0.45594000000E+02  0.51100000000E-03 0.  1.
    9900012    2    1    2    0    0 -0.70103507867E+00 -0.25165073379E+02  0.37354265716E+02  0.46142317237E+02  0.99999952249E+01 0.  0.
        -12    1    1    2    0    0  0.70103507867E+00  0.25165073379E+02 -0.37354265716E+02  0.45045682763E+02  0.00000000000E+00 0.  1.
         11    1    3    3    0    0 -0.13528192239E+01 -0.75845170702E+01  0.14868805456E+02  0.16746235248E+02  0.51100000000E-03 0. -1.
        -11    1    3    3    0    0  0.45513109329E+00 -0.16147621630E+02  0.22773759219E+02  0.27921263185E+02  0.51100000000E-03 0.  1.
        -12    1    3    3    0    0  0.19665305190E+00 -0.14329346792E+01 -0.28829895843E+00  0.14748188048E+01  0.00000000000E+00 0.  1.
</event>
<event>
 7    1  0.4623443E-009  0.4614232E+02  0.7816164E-02  0.1320468E+00
        -11   -1    0    0    0    0  0.00000000000E+00  0.00000000000E+00  0.45593999997E+02  0.45594000000E+02  0.51100000000E-03 0. -1.
         11   -1    0    0    0    0 -0.00000000000E+00 -0.00000000000E+00 -0.45593999997E+02  0.45594000000E+02  0.51100000000E-03 0.  1.
    9900012    2    1    2    0    0 -0.44877451570E+01  0.43230356218E+02 -0.11836804400E+02  0.46142317701E+02  0.99999994550E+01 0.  0.
         12    1    1    2    0    0  0.44877451570E+01 -0.43230356218E+02  0.11836804400E+02  0.45045682299E+02  0.00000000000E+00 0. -1.
         11    1    3    3    0    0 -0.12747952384E+01  0.62333081040E+00 -0.44336064858E+00  0.14866785547E+01  0.51100000000E-03 0. -1.
        -11    1    3    3    0    0  0.14905307124E+01  0.37473653752E+01 -0.11738817914E+01  0.42002890116E+01  0.51100000000E-03 0.  1.
        -12    1    3    3    0    0 -0.47034806309E+01  0.38859660033E+02 -0.10219561960E+02  0.40455350135E+02  0.00000000000E+00 0.  1.
</event>
<event>
 7    1  0.4623443E-009  0.4614232E+02  0.7816164E-02  0.1320468E+00
        -11   -1    0    0    0    0  0.00000000000E+00  0.00000000000E+00  0.45593999997E+02  0.45594000000E+02  0.51100000000E-03 0. -1.
         11   -1    0    0    0    0 -0.00000000000E+00 -0.00000000000E+00 -0.45593999997E+02  0.45594000000E+02  0.51100000000E-03 0.  1.
    9900012    2    1    2    0    0 -0.21680637418E+01  0.39223383866E+02 -0.22044026823E+02  0.46142318066E+02  0.10000002782E+02 0.  0.
         12    1    1    2    0    0  0.21680637418E+01 -0.39223383866E+02  0.22044026823E+02  0.45045681934E+02  0.00000000000E+00 0. -1.
         11    1    3    3    0    0  0.20018837837E+00  0.15115928903E+02 -0.49109532533E+01  0.15894931396E+02  0.51100000000E-03 0. -1.
        -11    1    3    3    0    0  0.20908658605E+00  0.73985940664E+00 -0.23592037789E+01  0.24813205906E+01  0.51100000000E-03 0.  1.
        -12    1    3    3    0    0 -0.25773387063E+01  0.23367595557E+02 -0.14773869791E+02  0.27766066079E+02  0.00000000000E+00 0.  1.
</event>
<event>
 7    1  0.4623443E-009  0.4614232E+02  0.7816164E-02  0.1320468E+00
        -11   -1    0    0    0    0  0.00000000000E+00  0.00000000000E+00  0.45593999997E+02  0.45594000000E+02  0.51100000000E-03 0.  1.
         11   -1    0    0    0    0 -0.00000000000E+00 -0.00000000000E+00 -0.45593999997E+02  0.45594000000E+02  0.51100000000E-03 0. -1.
    9900012    2    1    2    0    0 -0.35771674011E+02 -0.94911556554E+01  0.25679151788E+02  0.46142317257E+02  0.99999954045E+01 0.  0.
        -12    1    1    2    0    0  0.35771674011E+02  0.94911556554E+01 -0.25679151788E+02  0.45045682743E+02  0.00000000000E+00 0.  1.
         11    1    3    3    0    0 -0.13580947767E+02 -0.40124066015E+01  0.88985300295E+01  0.16724992853E+02  0.51100000000E-03 0. -1.
        -11    1    3    3    0    0 -0.16114756975E+02 -0.61187723435E+01  0.87621211543E+01  0.19336481964E+02  0.51100000000E-03 0.  1.
        -12    1    3    3    0    0 -0.60759692690E+01  0.64002328956E+00  0.80185006040E+01  0.10080842440E+02  0.00000000000E+00 0.  1.
</event>
<event>
 7    1  0.4623443E-009  0.4614232E+02  0.7816164E-02  0.1320468E+00
        -11   -1    0    0    0    0  0.00000000000E+00  0.00000000000E+00  0.45593999997E+02  0.45594000000E+02  0.51100000000E-03 0. -1.
         11   -1    0    0    0    0 -0.00000000000E+00 -0.00000000000E+00 -0.45593999997E+02  0.45594000000E+02  0.51100000000E-03 0.  1.
    9900012    2    1    2    0    0 -0.21924661777E+02 -0.17756157450E+02  0.35116117388E+02  0.46142316280E+02  0.99999864921E+01 0.  0.
        -12    1    1    2    0    0  0.21924661777E+02  0.17756157450E+02 -0.35116117388E+02  0.45045683720E+02  0.00000000000E+00 0.  1.
         11    1    3    3    0    0 -0.40418524858E+01 -0.63907032708E+01  0.10730137831E+02  0.13126824367E+02  0.51100000000E-03 0. -1.
        -11    1    3    3    0    0 -0.17033476616E+02 -0.93898928098E+01  0.23893844448E+02  0.30809498785E+02  0.51100000000E-03 0.  1.
        -12    1    3    3    0    0 -0.84933267466E+00 -0.19755613691E+01  0.49213510854E+00  0.22059931279E+01  0.00000000000E+00 0.  1.
</event>
<event>
 7    1  0.4623443E-009  0.4614232E+02  0.7816164E-02  0.1320468E+00
        -11   -1    0    0    0    0  0.00000000000E+00  0.00000000000E+00  0.45593999997E+02  0.45594000000E+02  0.51100000000E-03 0. -1.
         11   -1    0    0    0    0 -0.00000000000E+00 -0.00000000000E+00 -0.45593999997E+02  0.45594000000E+02  0.51100000000E-03 0.  1.
    9900012    2    1    2    0    0  0.43127760320E+02  0.95941473751E+01 -0.87785008723E+01  0.46142318169E+02  0.10000003721E+02 0.  0.
         12    1    1    2    0    0 -0.43127760320E+02 -0.95941473751E+01  0.87785008723E+01  0.45045681831E+02  0.00000000000E+00 0. -1.
         11    1    3    3    0    0  0.21941448526E+02  0.44264472631E+01 -0.20901585978E+01  0.22480866576E+02  0.51100000000E-03 0. -1.
        -11    1    3    3    0    0  0.20128228003E+02  0.32068073819E+01 -0.53903923725E+01  0.21082824913E+02  0.51100000000E-03 0.  1.
         12    1    3    3    0    0  0.10580837908E+01  0.19608927301E+01 -0.12979499020E+01  0.25786266801E+01  0.00000000000E+00 0. -1.
</event>
<event>
 7    1  0.4623443E-009  0.4614232E+02  0.7816164E-02  0.1320468E+00
        -11   -1    0    0    0    0  0.00000000000E+00  0.00000000000E+00  0.45593999997E+02  0.45594000000E+02  0.51100000000E-03 0. -1.
         11   -1    0    0    0    0 -0.00000000000E+00 -0.00000000000E+00 -0.45593999997E+02  0.45594000000E+02  0.51100000000E-03 0.  1.
    9900012    2    1    2    0    0 -0.11950687253E+02  0.11160758329E+02  0.41972990719E+02  0.46142318718E+02  0.10000008722E+02 0.  0.
        -12    1    1    2    0    0  0.11950687253E+02 -0.11160758329E+02 -0.41972990719E+02  0.45045681282E+02  0.00000000000E+00 0.  1.
         11    1    3    3    0    0 -0.43853571695E+01  0.37275032641E+01  0.23342798704E+02  0.24041877832E+02  0.51100000000E-03 0. -1.
        -11    1    3    3    0    0 -0.12869813811E+01  0.12080553372E+01  0.35728566634E+00  0.18009364457E+01  0.51100000000E-03 0.  1.
         12    1    3    3    0    0 -0.62783487023E+01  0.62251997282E+01  0.18272906348E+02  0.20299504440E+02  0.00000000000E+00 0. -1.
</event>
<event>
 7    1  0.4623443E-009  0.4614231E+02  0.7816164E-02  0.1320468E+00
        -11   -1    0    0    0    0  0.00000000000E+00  0.00000000000E+00  0.45593999997E+02  0.45594000000E+02  0.51100000000E-03 0. -1.
         11   -1    0    0    0    0 -0.00000000000E+00 -0.00000000000E+00 -0.45593999997E+02  0.45594000000E+02  0.51100000000E-03 0.  1.
    9900012    2    1    2    0    0  0.16995969452E+02 -0.66344005198E+01 -0.41185385164E+02  0.46142309873E+02  0.99999280720E+01 0.  0.
         12    1    1    2    0    0 -0.16995969452E+02  0.66344005198E+01  0.41185385164E+02  0.45045690127E+02  0.00000000000E+00 0. -1.
         11    1    3    3    0    0  0.22776484786E+01  0.68454592545E+00 -0.98098738183E+00  0.25726683076E+01  0.51100000000E-03 0. -1.
        -11    1    3    3    0    0  0.33974541629E+01 -0.82161257283E+00 -0.57933211930E+01  0.67661150386E+01  0.51100000000E-03 0.  1.
        -12    1    3    3    0    0  0.11320866810E+02 -0.64973338724E+01 -0.34411076590E+02  0.36803526527E+02  0.00000000000E+00 0.  1.
</event>
<event>
 7    1  0.4623443E-009  0.4614232E+02  0.7816164E-02  0.1320468E+00
        -11   -1    0    0    0    0  0.00000000000E+00  0.00000000000E+00  0.45593999997E+02  0.45594000000E+02  0.51100000000E-03 0. -1.
         11   -1    0    0    0    0 -0.00000000000E+00 -0.00000000000E+00 -0.45593999997E+02  0.45594000000E+02  0.51100000000E-03 0.  1.
    9900012    2    1    2    0    0 -0.11817414294E+02  0.32259542919E+02  0.29133899605E+02  0.46142317675E+02  0.99999992164E+01 0.  0.
        -12    1    1    2    0    0  0.11817414294E+02 -0.32259542919E+02 -0.29133899605E+02  0.45045682325E+02  0.00000000000E+00 0.  1.
         11    1    3    3    0    0 -0.51183556582E+01  0.15211032256E+02  0.12309161026E+02  0.20225936626E+02  0.51100000000E-03 0. -1.
        -11    1    3    3    0    0  0.89694137494E+00 -0.10412469404E-01  0.20996947423E+00  0.92124898416E+00  0.51100000000E-03 0.  1.
        -12    1    3    3    0    0 -0.75960000109E+01  0.17058923132E+02  0.16614769104E+02  0.24995132065E+02  0.00000000000E+00 0.  1.
</event>
<event>
 7    1  0.4623443E-009  0.4614232E+02  0.7816164E-02  0.1320468E+00
        -11   -1    0    0    0    0  0.00000000000E+00  0.00000000000E+00  0.45593999997E+02  0.45594000000E+02  0.51100000000E-03 0. -1.
         11   -1    0    0    0    0 -0.00000000000E+00 -0.00000000000E+00 -0.45593999997E+02  0.45594000000E+02  0.51100000000E-03 0.  1.
    9900012    2    1    2    0    0 -0.29049345356E+02  0.54642947576E+01 -0.33991035907E+02  0.46142317578E+02  0.99999983302E+01 0.  0.
         12    1    1    2    0    0  0.29049345356E+02 -0.54642947576E+01  0.33991035907E+02  0.45045682422E+02  0.00000000000E+00 0. -1.
         11    1    3    3    0    0 -0.12168265393E+02  0.19417822931E+01 -0.19822098698E+02  0.23339939979E+02  0.51100000000E-03 0. -1.
        -11    1    3    3    0    0 -0.37957168428E+01 -0.79011853510E+00 -0.46594336274E+01  0.60615242010E+01  0.51100000000E-03 0.  1.
         12    1    3    3    0    0 -0.13085363121E+02  0.43126309995E+01 -0.95095035815E+01  0.16740853398E+02  0.00000000000E+00 0. -1.
</event>
<event>
 7    1  0.4623443E-009  0.4614232E+02  0.7816164E-02  0.1320468E+00
        -11   -1    0    0    0    0  0.00000000000E+00  0.00000000000E+00  0.45593999997E+02  0.45594000000E+02  0.51100000000E-03 0. -1.
         11   -1    0    0    0    0 -0.00000000000E+00 -0.00000000000E+00 -0.45593999997E+02  0.45594000000E+02  0.51100000000E-03 0.  1.
    9900012    2    1    2    0    0 -0.26465359791E+02 -0.22488078067E+02 -0.28687704680E+02  0.46142319587E+02  0.10000016652E+02 0.  0.
         12    1    1    2    0    0  0.26465359791E+02  0.22488078067E+02  0.28687704680E+02  0.45045680413E+02  0.00000000000E+00 0. -1.
         11    1    3    3    0    0 -0.17371865808E+01 -0.17687697141E+01 -0.41613425082E+01  0.48438760564E+01  0.51100000000E-03 0.  1.
        -11    1    3    3    0    0 -0.27767907578E+01  0.28690416114E+00 -0.27408640100E+01  0.39121882231E+01  0.51100000000E-03 0. -1.
        -12    1    3    3    0    0 -0.21951382452E+02 -0.21006212514E+02 -0.21785498162E+02  0.37386255308E+02  0.00000000000E+00 0.  1.
</event>
<event>
 7    1  0.4623443E-009  0.4614232E+02  0.7816164E-02  0.1320468E+00
        -11   -1    0    0    0    0  0.00000000000E+00  0.00000000000E+00  0.45593999997E+02  0.45594000000E+02  0.51100000000E-03 0. -1.
         11   -1    0    0    0    0 -0.00000000000E+00 -0.00000000000E+00 -0.45593999997E+02  0.45594000000E+02  0.51100000000E-03 0.  1.
    9900012    2    1    2    0    0 -0.32645747449E+02 -0.13750789393E+02 -0.27825967727E+02  0.46142317461E+02  0.99999972643E+01 0.  0.
         12    1    1    2    0    0  0.32645747449E+02  0.13750789393E+02  0.27825967727E+02  0.45045682539E+02  0.00000000000E+00 0. -1.
         11    1    3    3    0    0 -0.57122907112E+01 -0.40927943736E+01 -0.38903095998E+01  0.80321690718E+01  0.51100000000E-03 0. -1.
        -11    1    3    3    0    0 -0.13782470743E+02 -0.38918051029E+01 -0.71074333959E+01  0.15988066064E+02  0.51100000000E-03 0.  1.
         12    1    3    3    0    0 -0.13150985996E+02 -0.57661899168E+01 -0.16828224731E+02  0.22122082325E+02  0.00000000000E+00 0. -1.
</event>
<event>
 7    1  0.4623443E-009  0.4614232E+02  0.7816164E-02  0.1320468E+00
        -11   -1    0    0    0    0  0.00000000000E+00  0.00000000000E+00  0.45593999997E+02  0.45594000000E+02  0.51100000000E-03 0. -1.
         11   -1    0    0    0    0 -0.00000000000E+00 -0.00000000000E+00 -0.45593999997E+02  0.45594000000E+02  0.51100000000E-03 0.  1.
    9900012    2    1    2    0    0  0.24792595107E+02 -0.32045930040E+02  0.19684997196E+02  0.46142317422E+02  0.99999969103E+01 0.  0.
        -12    1    1    2    0    0 -0.24792595107E+02  0.32045930040E+02 -0.19684997196E+02  0.45045682578E+02  0.00000000000E+00 0.  1.
         11    1    3    3    0    0  0.72016731520E+01 -0.10736389964E+02  0.63634155697E+01  0.14409275611E+02  0.51100000000E-03 0. -1.
        -11    1    3    3    0    0  0.12391178716E+02 -0.93957902970E+01  0.51606979071E+01  0.16384596072E+02  0.51100000000E-03 0.  1.
        -12    1    3    3    0    0  0.51997432384E+01 -0.11913749779E+02  0.81608837197E+01  0.15348445740E+02  0.00000000000E+00 0.  1.
</event>
<event>
 7    1  0.4623443E-009  0.4614232E+02  0.7816164E-02  0.1320468E+00
        -11   -1    0    0    0    0  0.00000000000E+00  0.00000000000E+00  0.45593999997E+02  0.45594000000E+02  0.51100000000E-03 0. -1.
         11   -1    0    0    0    0 -0.00000000000E+00 -0.00000000000E+00 -0.45593999997E+02  0.45594000000E+02  0.51100000000E-03 0.  1.
    9900012    2    1    2    0    0  0.20111978058E+02 -0.18550126600E+02 -0.35784280109E+02  0.46142316953E+02  0.99999926302E+01 0.  0.
         12    1    1    2    0    0 -0.20111978058E+02  0.18550126600E+02  0.35784280109E+02  0.45045683047E+02  0.00000000000E+00 0. -1.
         11    1    3    3    0    0  0.98945573694E+01 -0.67650294313E+01 -0.10255141529E+02  0.15774530636E+02  0.51100000000E-03 0. -1.
        -11    1    3    3    0    0  0.74002978962E+01 -0.63300868553E+01 -0.11600990907E+02  0.15146530918E+02  0.51100000000E-03 0.  1.
        -12    1    3    3    0    0  0.28171227925E+01 -0.54550103134E+01 -0.13928147673E+02  0.15221255399E+02  0.00000000000E+00 0.  1.
</event>
<event>
 7    1  0.4623443E-009  0.4614232E+02  0.7816164E-02  0.1320468E+00
        -11   -1    0    0    0    0  0.00000000000E+00  0.00000000000E+00  0.45593999997E+02  0.45594000000E+02  0.51100000000E-03 0. -1.
         11   -1    0    0    0    0 -0.00000000000E+00 -0.00000000000E+00 -0.45593999997E+02  0.45594000000E+02  0.51100000000E-03 0.  1.
    9900012    2    1    2    0    0  0.35121909207E+02 -0.14228995513E+02 -0.24353658911E+02  0.46142317387E+02  0.99999965931E+01 0.  0.
         12    1    1    2    0    0 -0.35121909207E+02  0.14228995513E+02  0.24353658911E+02  0.45045682613E+02  0.00000000000E+00 0. -1.
         11    1    3    3    0    0  0.96512486730E+01 -0.10438093476E+01 -0.92046016024E+01  0.13377624222E+02  0.51100000000E-03 0. -1.
        -11    1    3    3    0    0  0.27196114661E+01 -0.21587041278E+01 -0.34918630961E+01  0.49243677951E+01  0.51100000000E-03 0.  1.
         12    1    3    3    0    0  0.22751049068E+02 -0.11026482038E+02 -0.11657194212E+02  0.27840325371E+02  0.00000000000E+00 0. -1.
</event>
<event>
 7    1  0.4623443E-009  0.4614232E+02  0.7816164E-02  0.1320468E+00
        -11   -1    0    0    0    0  0.00000000000E+00  0.00000000000E+00  0.45593999997E+02  0.45594000000E+02  0.51100000000E-03 0. -1.
         11   -1    0    0    0    0 -0.00000000000E+00 -0.00000000000E+00 -0.45593999997E+02  0.45594000000E+02  0.51100000000E-03 0.  1.
    9900012    2    1    2    0    0  0.97582189448E+01  0.22129581093E+02  0.38002266581E+02  0.46142318058E+02  0.10000002706E+02 0.  0.
        -12    1    1    2    0    0 -0.97582189448E+01 -0.22129581093E+02 -0.38002266581E+02  0.45045681942E+02  0.00000000000E+00 0.  1.
         11    1    3    3    0    0  0.49763088591E+01  0.14929600586E+02  0.26912704748E+02  0.31176117472E+02  0.51100000000E-03 0. -1.
        -11    1    3    3    0    0  0.81064774888E+00  0.50950495181E+01  0.79736490561E+01  0.94971447760E+01  0.51100000000E-03 0.  1.
        -12    1    3    3    0    0  0.39712623368E+01  0.21049309895E+01  0.31159127764E+01  0.54690558096E+01  0.00000000000E+00 0.  1.
</event>
<event>
 7    1  0.4623443E-009  0.4614232E+02  0.7816164E-02  0.1320468E+00
        -11   -1    0    0    0    0  0.00000000000E+00  0.00000000000E+00  0.45593999997E+02  0.45594000000E+02  0.51100000000E-03 0. -1.
         11   -1    0    0    0    0 -0.00000000000E+00 -0.00000000000E+00 -0.45593999997E+02  0.45594000000E+02  0.51100000000E-03 0.  1.
    9900012    2    1    2    0    0 -0.13783166142E+02  0.25111706603E+02  0.34764062412E+02  0.46142317490E+02  0.99999975238E+01 0.  0.
        -12    1    1    2    0    0  0.13783166142E+02 -0.25111706603E+02 -0.34764062412E+02  0.45045682510E+02  0.00000000000E+00 0.  1.
         11    1    3    3    0    0 -0.41572542520E+01  0.86181550830E+01  0.14540626442E+02  0.17406469416E+02  0.51100000000E-03 0. -1.
        -11    1    3    3    0    0 -0.40005195199E+01  0.13275364433E+02  0.12657932732E+02  0.18773990481E+02  0.51100000000E-03 0.  1.
         12    1    3    3    0    0 -0.56253923701E+01  0.32181870868E+01  0.75655032386E+01  0.99618575927E+01  0.00000000000E+00 0. -1.
</event>
<event>
 7    1  0.4623443E-009  0.4614232E+02  0.7816164E-02  0.1320468E+00
        -11   -1    0    0    0    0  0.00000000000E+00  0.00000000000E+00  0.45593999997E+02  0.45594000000E+02  0.51100000000E-03 0. -1.
         11   -1    0    0    0    0 -0.00000000000E+00 -0.00000000000E+00 -0.45593999997E+02  0.45594000000E+02  0.51100000000E-03 0.  1.
    9900012    2    1    2    0    0  0.24019882672E+02  0.11780023111E+02  0.36240718748E+02  0.46142318703E+02  0.10000008590E+02 0.  0.
        -12    1    1    2    0    0 -0.24019882672E+02 -0.11780023111E+02 -0.36240718748E+02  0.45045681297E+02  0.00000000000E+00 0.  1.
         11    1    3    3    0    0  0.17325570302E+02  0.85792693897E+01  0.27882453045E+02  0.33929492151E+02  0.51100000000E-03 0. -1.
        -11    1    3    3    0    0  0.15482297789E+01  0.34012656267E+01  0.38960610731E+01  0.53986031025E+01  0.51100000000E-03 0.  1.
        -12    1    3    3    0    0  0.51460825913E+01 -0.20051190494E+00  0.44622046306E+01  0.68142234499E+01  0.00000000000E+00 0.  1.
</event>
<event>
 7    1  0.4623443E-009  0.4614232E+02  0.7816164E-02  0.1320468E+00
        -11   -1    0    0    0    0  0.00000000000E+00  0.00000000000E+00  0.45593999997E+02  0.45594000000E+02  0.51100000000E-03 0. -1.
         11   -1    0    0    0    0 -0.00000000000E+00 -0.00000000000E+00 -0.45593999997E+02  0.45594000000E+02  0.51100000000E-03 0.  1.
    9900012    2    1    2    0    0 -0.29512668605E+02  0.14706094575E+02 -0.30689522661E+02  0.46142316222E+02  0.99999859692E+01 0.  0.
         12    1    1    2    0    0  0.29512668605E+02 -0.14706094575E+02  0.30689522661E+02  0.45045683778E+02  0.00000000000E+00 0. -1.
         11    1    3    3    0    0 -0.19653710849E+01  0.11433860382E+01 -0.45902563394E+01  0.51225451346E+01  0.51100000000E-03 0. -1.
        -11    1    3    3    0    0 -0.26739883543E+02  0.11002183131E+02 -0.23231741426E+02  0.37091551807E+02  0.51100000000E-03 0.  1.
         12    1    3    3    0    0 -0.80741397658E+00  0.25605254065E+01 -0.28675248958E+01  0.39282192804E+01  0.00000000000E+00 0. -1.
</event>
<event>
 7    1  0.4623443E-009  0.4614232E+02  0.7816164E-02  0.1320468E+00
        -11   -1    0    0    0    0  0.00000000000E+00  0.00000000000E+00  0.45593999997E+02  0.45594000000E+02  0.51100000000E-03 0. -1.
         11   -1    0    0    0    0 -0.00000000000E+00 -0.00000000000E+00 -0.45593999997E+02  0.45594000000E+02  0.51100000000E-03 0.  1.
    9900012    2    1    2    0    0  0.22501423648E+02  0.47471431463E+01  0.38733238976E+02  0.46142320564E+02  0.10000025562E+02 0.  0.
        -12    1    1    2    0    0 -0.22501423648E+02 -0.47471431463E+01 -0.38733238976E+02  0.45045679436E+02  0.00000000000E+00 0.  1.
         11    1    3    3    0    0  0.11317269039E+02  0.54931541610E+01  0.18435540005E+02  0.22318701949E+02  0.51100000000E-03 0. -1.
        -11    1    3    3    0    0  0.66281555140E+01 -0.23110972606E+01  0.15545188344E+02  0.17056567562E+02  0.51100000000E-03 0.  1.
        -12    1    3    3    0    0  0.45559990944E+01  0.15650862458E+01  0.47525106269E+01  0.67670510538E+01  0.00000000000E+00 0.  1.
</event>
<event>
 7    1  0.4623443E-009  0.4614232E+02  0.7816164E-02  0.1320468E+00
        -11   -1    0    0    0    0  0.00000000000E+00  0.00000000000E+00  0.45593999997E+02  0.45594000000E+02  0.51100000000E-03 0. -1.
         11   -1    0    0    0    0 -0.00000000000E+00 -0.00000000000E+00 -0.45593999997E+02  0.45594000000E+02  0.51100000000E-03 0.  1.
    9900012    2    1    2    0    0 -0.13922902425E+02  0.37902509046E+02  0.19966622865E+02  0.46142318381E+02  0.10000005649E+02 0.  0.
        -12    1    1    2    0    0  0.13922902425E+02 -0.37902509046E+02 -0.19966622865E+02  0.45045681619E+02  0.00000000000E+00 0.  1.
         11    1    3    3    0    0 -0.28917688587E+01  0.86416369504E+01  0.50656067200E+01  0.10425957415E+02  0.51100000000E-03 0. -1.
        -11    1    3    3    0    0 -0.28020303344E+01  0.82409620340E+01  0.65812558301E-01  0.87045482820E+01  0.51100000000E-03 0.  1.
        -12    1    3    3    0    0 -0.82291032319E+01  0.21019910062E+02  0.14835203587E+02  0.27011812684E+02  0.00000000000E+00 0.  1.
</event>
<event>
 7    1  0.4623443E-009  0.4614232E+02  0.7816164E-02  0.1320468E+00
        -11   -1    0    0    0    0  0.00000000000E+00  0.00000000000E+00  0.45593999997E+02  0.45594000000E+02  0.51100000000E-03 0. -1.
         11   -1    0    0    0    0 -0.00000000000E+00 -0.00000000000E+00 -0.45593999997E+02  0.45594000000E+02  0.51100000000E-03 0.  1.
    9900012    2    1    2    0    0 -0.35229380743E+01 -0.11526138300E+02 -0.43403347309E+02  0.46142317472E+02  0.99999973609E+01 0.  0.
         12    1    1    2    0    0  0.35229380743E+01  0.11526138300E+02  0.43403347309E+02  0.45045682528E+02  0.00000000000E+00 0. -1.
         11    1    3    3    0    0 -0.16077139996E+01 -0.36604772562E+01 -0.30287036048E+02  0.30549769081E+02  0.51100000000E-03 0. -1.
        -11    1    3    3    0    0  0.48209141208E+00 -0.17569207847E+01 -0.22095430460E+01  0.28637848220E+01  0.51100000000E-03 0.  1.
         12    1    3    3    0    0 -0.23973154867E+01 -0.61087402589E+01 -0.10906768215E+02  0.12728763569E+02  0.00000000000E+00 0. -1.
</event>
<event>
 7    1  0.4623443E-009  0.4614232E+02  0.7816164E-02  0.1320468E+00
        -11   -1    0    0    0    0  0.00000000000E+00  0.00000000000E+00  0.45593999997E+02  0.45594000000E+02  0.51100000000E-03 0. -1.
         11   -1    0    0    0    0 -0.00000000000E+00 -0.00000000000E+00 -0.45593999997E+02  0.45594000000E+02  0.51100000000E-03 0.  1.
    9900012    2    1    2    0    0  0.34596527561E+01 -0.41234211780E+02  0.17801237682E+02  0.46142317839E+02  0.10000000715E+02 0.  0.
        -12    1    1    2    0    0 -0.34596527561E+01  0.41234211780E+02 -0.17801237682E+02  0.45045682161E+02  0.00000000000E+00 0.  1.
         11    1    3    3    0    0  0.10448696866E+00 -0.62577611116E+01  0.42597491550E+01  0.75707301352E+01  0.51100000000E-03 0. -1.
        -11    1    3    3    0    0 -0.20089382465E+01 -0.85238101842E+01  0.10167682318E+01  0.88161777904E+01  0.51100000000E-03 0.  1.
         12    1    3    3    0    0  0.53641040339E+01 -0.26452640484E+02  0.12524720296E+02  0.29755409914E+02  0.00000000000E+00 0. -1.
</event>
<event>
 7    1  0.4623443E-009  0.4614232E+02  0.7816164E-02  0.1320468E+00
        -11   -1    0    0    0    0  0.00000000000E+00  0.00000000000E+00  0.45593999997E+02  0.45594000000E+02  0.51100000000E-03 0. -1.
         11   -1    0    0    0    0 -0.00000000000E+00 -0.00000000000E+00 -0.45593999997E+02  0.45594000000E+02  0.51100000000E-03 0.  1.
    9900012    2    1    2    0    0  0.30563373188E+02  0.30015897073E+02  0.13929809021E+02  0.46142318330E+02  0.10000005191E+02 0.  0.
        -12    1    1    2    0    0 -0.30563373188E+02 -0.30015897073E+02 -0.13929809021E+02  0.45045681670E+02  0.00000000000E+00 0.  1.
         11    1    3    3    0    0  0.16942704719E+02  0.12952391300E+02  0.10672613708E+02  0.23847942620E+02  0.51100000000E-03 0. -1.
        -11    1    3    3    0    0  0.57648658460E+00  0.13368170399E+01  0.93572323769E+00  0.17306053332E+01  0.51100000000E-03 0.  1.
         12    1    3    3    0    0  0.13044181884E+02  0.15726688733E+02  0.23214720757E+01  0.20563770377E+02  0.00000000000E+00 0. -1.
</event>
<event>
 7    1  0.4623443E-009  0.4614232E+02  0.7816164E-02  0.1320468E+00
        -11   -1    0    0    0    0  0.00000000000E+00  0.00000000000E+00  0.45593999997E+02  0.45594000000E+02  0.51100000000E-03 0. -1.
         11   -1    0    0    0    0 -0.00000000000E+00 -0.00000000000E+00 -0.45593999997E+02  0.45594000000E+02  0.51100000000E-03 0.  1.
    9900012    2    1    2    0    0  0.10731589226E+02 -0.27254989385E+02 -0.34221514572E+02  0.46142317485E+02  0.99999974778E+01 0.  0.
         12    1    1    2    0    0 -0.10731589226E+02  0.27254989385E+02  0.34221514572E+02  0.45045682515E+02  0.00000000000E+00 0. -1.
         11    1    3    3    0    0  0.65916509865E+01 -0.16747324331E+02 -0.14298178110E+02  0.22986096504E+02  0.51100000000E-03 0. -1.
        -11    1    3    3    0    0  0.40751493594E+01 -0.10182623020E+02 -0.17110487838E+02  0.20323913210E+02  0.51100000000E-03 0.  1.
         12    1    3    3    0    0  0.64788880387E-01 -0.32504203396E+00 -0.28128486242E+01  0.28323077703E+01  0.00000000000E+00 0. -1.
</event>
<event>
 7    1  0.4623443E-009  0.4614231E+02  0.7816164E-02  0.1320468E+00
        -11   -1    0    0    0    0  0.00000000000E+00  0.00000000000E+00  0.45593999997E+02  0.45594000000E+02  0.51100000000E-03 0. -1.
         11   -1    0    0    0    0 -0.00000000000E+00 -0.00000000000E+00 -0.45593999997E+02  0.45594000000E+02  0.51100000000E-03 0.  1.
    9900012    2    1    2    0    0  0.17664843011E+02 -0.32305417824E+02 -0.25950482618E+02  0.46142309335E+02  0.99999231618E+01 0.  0.
         12    1    1    2    0    0 -0.17664843011E+02  0.32305417824E+02  0.25950482618E+02  0.45045690665E+02  0.00000000000E+00 0. -1.
         11    1    3    3    0    0  0.26590719796E+01 -0.10020829816E+02 -0.73573037794E+01  0.12712891613E+02  0.51100000000E-03 0. -1.
        -11    1    3    3    0    0  0.11111012669E+02 -0.12302327426E+02 -0.81706403741E+01  0.18481375138E+02  0.51100000000E-03 0.  1.
         12    1    3    3    0    0  0.38947583621E+01 -0.99822605822E+01 -0.10422538465E+02  0.14948042584E+02  0.00000000000E+00 0. -1.
</event>
<event>
 7    1  0.4623443E-009  0.4614232E+02  0.7816164E-02  0.1320468E+00
        -11   -1    0    0    0    0  0.00000000000E+00  0.00000000000E+00  0.45593999997E+02  0.45594000000E+02  0.51100000000E-03 0. -1.
         11   -1    0    0    0    0 -0.00000000000E+00 -0.00000000000E+00 -0.45593999997E+02  0.45594000000E+02  0.51100000000E-03 0.  1.
    9900012    2    1    2    0    0  0.24031946054E+02  0.28775834204E+02  0.24970591867E+02  0.46142317372E+02  0.99999964524E+01 0.  0.
        -12    1    1    2    0    0 -0.24031946054E+02 -0.28775834204E+02 -0.24970591867E+02  0.45045682628E+02  0.00000000000E+00 0.  1.
         11    1    3    3    0    0  0.23926750575E+01  0.41646715176E+01  0.73886046177E+00  0.48595573690E+01  0.51100000000E-03 0.  1.
        -11    1    3    3    0    0  0.19250075881E+02  0.18582200827E+02  0.17712826278E+02  0.32087502614E+02  0.51100000000E-03 0. -1.
         12    1    3    3    0    0  0.23891951155E+01  0.60289618589E+01  0.65189051263E+01  0.91952573885E+01  0.00000000000E+00 0. -1.
</event>
<event>
 7    1  0.4623443E-009  0.4614232E+02  0.7816164E-02  0.1320468E+00
        -11   -1    0    0    0    0  0.00000000000E+00  0.00000000000E+00  0.45593999997E+02  0.45594000000E+02  0.51100000000E-03 0. -1.
         11   -1    0    0    0    0 -0.00000000000E+00 -0.00000000000E+00 -0.45593999997E+02  0.45594000000E+02  0.51100000000E-03 0.  1.
    9900012    2    1    2    0    0 -0.16233095531E+02 -0.33461350266E+02 -0.25415312547E+02  0.46142318031E+02  0.10000002465E+02 0.  0.
         12    1    1    2    0    0  0.16233095531E+02  0.33461350266E+02  0.25415312547E+02  0.45045681969E+02  0.00000000000E+00 0. -1.
         11    1    3    3    0    0 -0.20034952193E+00 -0.81919615138E+00  0.50105536552E+00  0.98095820799E+00  0.51100000000E-03 0. -1.
        -11    1    3    3    0    0 -0.79763320694E+01 -0.10521656717E+02 -0.11824125957E+02  0.17723912894E+02  0.51100000000E-03 0.  1.
         12    1    3    3    0    0 -0.80564139400E+01 -0.22120497398E+02 -0.14092241955E+02  0.27437446930E+02  0.00000000000E+00 0. -1.
</event>
<event>
 7    1  0.4623443E-009  0.4614232E+02  0.7816164E-02  0.1320468E+00
        -11   -1    0    0    0    0  0.00000000000E+00  0.00000000000E+00  0.45593999997E+02  0.45594000000E+02  0.51100000000E-03 0.  1.
         11   -1    0    0    0    0 -0.00000000000E+00 -0.00000000000E+00 -0.45593999997E+02  0.45594000000E+02  0.51100000000E-03 0. -1.
    9900012    2    1    2    0    0 -0.42859250292E+02  0.13834848246E+02 -0.89174352801E+00  0.46142316876E+02  0.99999919310E+01 0.  0.
        -12    1    1    2    0    0  0.42859250292E+02 -0.13834848246E+02  0.89174352801E+00  0.45045683124E+02  0.00000000000E+00 0.  1.
         11    1    3    3    0    0 -0.12264626680E+02  0.85799949155E+01 -0.16917031310E+01  0.15063174967E+02  0.51100000000E-03 0. -1.
        -11    1    3    3    0    0 -0.81526175582E+00  0.30990691429E+00  0.15021451477E+00  0.88501903234E+00  0.51100000000E-03 0.  1.
         12    1    3    3    0    0 -0.29779361856E+02  0.49449464159E+01  0.64974508824E+00  0.30194122876E+02  0.00000000000E+00 0. -1.
</event>
<event>
 7    1  0.4623443E-009  0.4614232E+02  0.7816164E-02  0.1320468E+00
        -11   -1    0    0    0    0  0.00000000000E+00  0.00000000000E+00  0.45593999997E+02  0.45594000000E+02  0.51100000000E-03 0. -1.
         11   -1    0    0    0    0 -0.00000000000E+00 -0.00000000000E+00 -0.45593999997E+02  0.45594000000E+02  0.51100000000E-03 0.  1.
    9900012    2    1    2    0    0 -0.40101673391E+02 -0.17240719918E+02  0.11123257748E+02  0.46142317688E+02  0.99999993339E+01 0.  0.
        -12    1    1    2    0    0  0.40101673391E+02  0.17240719918E+02 -0.11123257748E+02  0.45045682312E+02  0.00000000000E+00 0.  1.
         11    1    3    3    0    0 -0.21645753108E+01 -0.32231937773E+01  0.48707387181E+00  0.39130046792E+01  0.51100000000E-03 0. -1.
        -11    1    3    3    0    0 -0.10949004077E+02 -0.67727454087E+01  0.43291981221E+01  0.13582809993E+02  0.51100000000E-03 0.  1.
         12    1    3    3    0    0 -0.26988094003E+02 -0.72447807316E+01  0.63069857538E+01  0.28646503016E+02  0.00000000000E+00 0. -1.
</event>
<event>
 7    1  0.4623443E-009  0.4614232E+02  0.7816164E-02  0.1320468E+00
        -11   -1    0    0    0    0  0.00000000000E+00  0.00000000000E+00  0.45593999997E+02  0.45594000000E+02  0.51100000000E-03 0. -1.
         11   -1    0    0    0    0 -0.00000000000E+00 -0.00000000000E+00 -0.45593999997E+02  0.45594000000E+02  0.51100000000E-03 0.  1.
    9900012    2    1    2    0    0  0.20780867067E+02  0.58220159178E+01 -0.39539515747E+02  0.46142316401E+02  0.99999875955E+01 0.  0.
         12    1    1    2    0    0 -0.20780867067E+02 -0.58220159178E+01  0.39539515747E+02  0.45045683599E+02  0.00000000000E+00 0. -1.
         11    1    3    3    0    0  0.22065069276E+01  0.17016384189E+01 -0.84083630571E+01  0.88580367854E+01  0.51100000000E-03 0. -1.
        -11    1    3    3    0    0  0.86486744753E+01  0.56883970843E+01 -0.17782386565E+02  0.20575973945E+02  0.51100000000E-03 0.  1.
         12    1    3    3    0    0  0.99256856638E+01 -0.15680195854E+01 -0.13348766125E+02  0.16708305670E+02  0.00000000000E+00 0. -1.
</event>
<event>
 7    1  0.4623443E-009  0.4614232E+02  0.7816164E-02  0.1320468E+00
        -11   -1    0    0    0    0  0.00000000000E+00  0.00000000000E+00  0.45593999997E+02  0.45594000000E+02  0.51100000000E-03 0. -1.
         11   -1    0    0    0    0 -0.00000000000E+00 -0.00000000000E+00 -0.45593999997E+02  0.45594000000E+02  0.51100000000E-03 0.  1.
    9900012    2    1    2    0    0 -0.98688066695E+01 -0.12169184574E+02  0.42233056159E+02  0.46142318400E+02  0.10000005826E+02 0.  0.
        -12    1    1    2    0    0  0.98688066695E+01  0.12169184574E+02 -0.42233056159E+02  0.45045681600E+02  0.00000000000E+00 0.  1.
         11    1    3    3    0    0 -0.34990177847E+01 -0.29334964104E+00  0.75957258939E+01  0.83680482543E+01  0.51100000000E-03 0. -1.
        -11    1    3    3    0    0 -0.47578481298E+01 -0.12248353434E+02  0.32608359116E+02  0.35156284860E+02  0.51100000000E-03 0.  1.
        -12    1    3    3    0    0 -0.16119407550E+01  0.37251850097E+00  0.20289711488E+01  0.26179852853E+01  0.00000000000E+00 0.  1.
</event>
<event>
 7    1  0.4623443E-009  0.4614232E+02  0.7816164E-02  0.1320468E+00
        -11   -1    0    0    0    0  0.00000000000E+00  0.00000000000E+00  0.45593999997E+02  0.45594000000E+02  0.51100000000E-03 0. -1.
         11   -1    0    0    0    0 -0.00000000000E+00 -0.00000000000E+00 -0.45593999997E+02  0.45594000000E+02  0.51100000000E-03 0.  1.
    9900012    2    1    2    0    0 -0.44815785123E+02  0.38199767644E+01  0.24629971232E+01  0.46142321257E+02  0.10000031874E+02 0.  0.
         12    1    1    2    0    0  0.44815785123E+02 -0.38199767644E+01 -0.24629971232E+01  0.45045678743E+02  0.00000000000E+00 0. -1.
         11    1    3    3    0    0 -0.13265472592E+02  0.10921813546E+01  0.44659650855E+01  0.14039603542E+02  0.51100000000E-03 0. -1.
        -11    1    3    3    0    0 -0.43486840637E+01  0.14821988085E+01  0.10172332139E+01  0.47056062379E+01  0.51100000000E-03 0.  1.
         12    1    3    3    0    0 -0.27201628467E+02  0.12455966013E+01 -0.30202011762E+01  0.27397111477E+02  0.00000000000E+00 0. -1.
</event>
<event>
 7    1  0.4623443E-009  0.4614232E+02  0.7816164E-02  0.1320468E+00
        -11   -1    0    0    0    0  0.00000000000E+00  0.00000000000E+00  0.45593999997E+02  0.45594000000E+02  0.51100000000E-03 0. -1.
         11   -1    0    0    0    0 -0.00000000000E+00 -0.00000000000E+00 -0.45593999997E+02  0.45594000000E+02  0.51100000000E-03 0.  1.
    9900012    2    1    2    0    0 -0.15324274012E+02 -0.27101372780E+02  0.32554504179E+02  0.46142317378E+02  0.99999965058E+01 0.  0.
        -12    1    1    2    0    0  0.15324274012E+02  0.27101372780E+02 -0.32554504179E+02  0.45045682622E+02  0.00000000000E+00 0.  1.
         11    1    3    3    0    0 -0.83127572591E+00 -0.39682647954E+01  0.56568628234E+01  0.69597587662E+01  0.51100000000E-03 0. -1.
        -11    1    3    3    0    0 -0.32952601407E+01 -0.80812641780E+01  0.13705632218E+02  0.16248382223E+02  0.51100000000E-03 0.  1.
         12    1    3    3    0    0 -0.11197738145E+02 -0.15051843806E+02  0.13192009138E+02  0.22934176389E+02  0.00000000000E+00 0. -1.
</event>
<event>
 7    1  0.4623443E-009  0.4614232E+02  0.7816164E-02  0.1320468E+00
        -11   -1    0    0    0    0  0.00000000000E+00  0.00000000000E+00  0.45593999997E+02  0.45594000000E+02  0.51100000000E-03 0. -1.
         11   -1    0    0    0    0 -0.00000000000E+00 -0.00000000000E+00 -0.45593999997E+02  0.45594000000E+02  0.51100000000E-03 0.  1.
    9900012    2    1    2    0    0  0.19735051354E+01  0.31479188315E+02  0.32160215281E+02  0.46142318005E+02  0.10000002223E+02 0.  0.
        -12    1    1    2    0    0 -0.19735051354E+01 -0.31479188315E+02 -0.32160215281E+02  0.45045681995E+02  0.00000000000E+00 0.  1.
         11    1    3    3    0    0 -0.15065385603E+00  0.37721167020E+01  0.66821522882E+01  0.76748107769E+01  0.51100000000E-03 0. -1.
        -11    1    3    3    0    0  0.24448345495E+01  0.34115249018E+01  0.60209620518E+01  0.73394619981E+01  0.51100000000E-03 0.  1.
         12    1    3    3    0    0 -0.32067555810E+00  0.24295546711E+02  0.19457100941E+02  0.31128045230E+02  0.00000000000E+00 0. -1.
</event>
<event>
 7    1  0.4623443E-009  0.4614232E+02  0.7816164E-02  0.1320468E+00
        -11   -1    0    0    0    0  0.00000000000E+00  0.00000000000E+00  0.45593999997E+02  0.45594000000E+02  0.51100000000E-03 0. -1.
         11   -1    0    0    0    0 -0.00000000000E+00 -0.00000000000E+00 -0.45593999997E+02  0.45594000000E+02  0.51100000000E-03 0.  1.
    9900012    2    1    2    0    0  0.18697663757E+02  0.13420972408E+02 -0.38721935618E+02  0.46142318427E+02  0.10000006070E+02 0.  0.
         12    1    1    2    0    0 -0.18697663757E+02 -0.13420972408E+02  0.38721935618E+02  0.45045681573E+02  0.00000000000E+00 0. -1.
         11    1    3    3    0    0  0.41244460664E+00  0.41680395167E+00 -0.36305797583E+01  0.36776277313E+01  0.51100000000E-03 0. -1.
        -11    1    3    3    0    0  0.11214720099E+02  0.58207116323E+01 -0.25926796991E+02  0.28841800105E+02  0.51100000000E-03 0.  1.
         12    1    3    3    0    0  0.70704990513E+01  0.71834568244E+01 -0.91645588692E+01  0.13622890591E+02  0.00000000000E+00 0. -1.
</event>
<event>
 7    1  0.4623443E-009  0.4614232E+02  0.7816164E-02  0.1320468E+00
        -11   -1    0    0    0    0  0.00000000000E+00  0.00000000000E+00  0.45593999997E+02  0.45594000000E+02  0.51100000000E-03 0. -1.
         11   -1    0    0    0    0 -0.00000000000E+00 -0.00000000000E+00 -0.45593999997E+02  0.45594000000E+02  0.51100000000E-03 0.  1.
    9900012    2    1    2    0    0 -0.22791572295E+02 -0.18998174370E+02 -0.33892875660E+02  0.46142318547E+02  0.10000007169E+02 0.  0.
         12    1    1    2    0    0  0.22791572295E+02  0.18998174370E+02  0.33892875660E+02  0.45045681453E+02  0.00000000000E+00 0. -1.
         11    1    3    3    0    0 -0.31188593614E+01 -0.48243182166E+01 -0.46375572191E+01  0.73829714338E+01  0.51100000000E-03 0. -1.
        -11    1    3    3    0    0 -0.14724259308E+02 -0.64070275098E+01 -0.16468921632E+02  0.23001721537E+02  0.51100000000E-03 0.  1.
         12    1    3    3    0    0 -0.49484536252E+01 -0.77668286440E+01 -0.12786396808E+02  0.15757625576E+02  0.00000000000E+00 0. -1.
</event>
<event>
 7    1  0.4623443E-009  0.4614232E+02  0.7816164E-02  0.1320468E+00
        -11   -1    0    0    0    0  0.00000000000E+00  0.00000000000E+00  0.45593999997E+02  0.45594000000E+02  0.51100000000E-03 0. -1.
         11   -1    0    0    0    0 -0.00000000000E+00 -0.00000000000E+00 -0.45593999997E+02  0.45594000000E+02  0.51100000000E-03 0.  1.
    9900012    2    1    2    0    0  0.10974620279E+02 -0.27645801594E+02 -0.33828697993E+02  0.46142318254E+02  0.10000004495E+02 0.  0.
         12    1    1    2    0    0 -0.10974620279E+02  0.27645801594E+02  0.33828697993E+02  0.45045681746E+02  0.00000000000E+00 0. -1.
         11    1    3    3    0    0  0.92537744075E+01 -0.13235905479E+02 -0.14057676647E+02  0.21411207523E+02  0.51100000000E-03 0. -1.
        -11    1    3    3    0    0  0.26689275694E+00 -0.13885083829E+00  0.42011621042E-02  0.30088072369E+00  0.51100000000E-03 0.  1.
         12    1    3    3    0    0  0.14539531142E+01 -0.14271045277E+02 -0.19775222508E+02  0.24430230007E+02  0.00000000000E+00 0. -1.
</event>
<event>
 7    1  0.4623443E-009  0.4614232E+02  0.7816164E-02  0.1320468E+00
        -11   -1    0    0    0    0  0.00000000000E+00  0.00000000000E+00  0.45593999997E+02  0.45594000000E+02  0.51100000000E-03 0. -1.
         11   -1    0    0    0    0 -0.00000000000E+00 -0.00000000000E+00 -0.45593999997E+02  0.45594000000E+02  0.51100000000E-03 0.  1.
    9900012    2    1    2    0    0  0.19503413004E+02 -0.24735037940E+02 -0.32201060551E+02  0.46142317395E+02  0.99999966660E+01 0.  0.
         12    1    1    2    0    0 -0.19503413004E+02  0.24735037940E+02  0.32201060551E+02  0.45045682605E+02  0.00000000000E+00 0. -1.
         11    1    3    3    0    0  0.19435200161E+00 -0.23181243134E+01 -0.49886036956E+01  0.55043292167E+01  0.51100000000E-03 0. -1.
        -11    1    3    3    0    0  0.18830063347E+02 -0.19094898987E+02 -0.24466410417E+02  0.36301400688E+02  0.51100000000E-03 0.  1.
        -12    1    3    3    0    0  0.47899765536E+00 -0.33220146403E+01 -0.27460464379E+01  0.43365874905E+01  0.00000000000E+00 0.  1.
</event>
<event>
 7    1  0.4623443E-009  0.4614232E+02  0.7816164E-02  0.1320468E+00
        -11   -1    0    0    0    0  0.00000000000E+00  0.00000000000E+00  0.45593999997E+02  0.45594000000E+02  0.51100000000E-03 0. -1.
         11   -1    0    0    0    0 -0.00000000000E+00 -0.00000000000E+00 -0.45593999997E+02  0.45594000000E+02  0.51100000000E-03 0.  1.
    9900012    2    1    2    0    0 -0.19377600136E+02 -0.38572316273E+02  0.12876278318E+02  0.46142317488E+02  0.99999975057E+01 0.  0.
        -12    1    1    2    0    0  0.19377600136E+02  0.38572316273E+02 -0.12876278318E+02  0.45045682512E+02  0.00000000000E+00 0.  1.
         11    1    3    3    0    0 -0.92856218624E+01 -0.18582421317E+02  0.71748901754E+01  0.21977447637E+02  0.51100000000E-03 0. -1.
        -11    1    3    3    0    0 -0.10615131025E+02 -0.15933958534E+02  0.33178616878E+01  0.19431424231E+02  0.51100000000E-03 0.  1.
         12    1    3    3    0    0  0.52315275108E+00 -0.40559364227E+01  0.23835264548E+01  0.47334456189E+01  0.00000000000E+00 0. -1.
</event>
<event>
 7    1  0.4623443E-009  0.4614232E+02  0.7816164E-02  0.1320468E+00
        -11   -1    0    0    0    0  0.00000000000E+00  0.00000000000E+00  0.45593999997E+02  0.45594000000E+02  0.51100000000E-03 0. -1.
         11   -1    0    0    0    0 -0.00000000000E+00 -0.00000000000E+00 -0.45593999997E+02  0.45594000000E+02  0.51100000000E-03 0.  1.
    9900012    2    1    2    0    0  0.89710735824E+01 -0.40218540165E+02  0.18196217548E+02  0.46142317995E+02  0.10000002135E+02 0.  0.
        -12    1    1    2    0    0 -0.89710735824E+01  0.40218540165E+02 -0.18196217548E+02  0.45045682005E+02  0.00000000000E+00 0.  1.
         11    1    3    3    0    0  0.38071095122E+00 -0.65394814846E+01  0.26724480924E+01  0.70747252938E+01  0.51100000000E-03 0. -1.
        -11    1    3    3    0    0 -0.40091604929E+00 -0.13396231525E+02  0.35872489180E+01  0.13874008354E+02  0.51100000000E-03 0.  1.
         12    1    3    3    0    0  0.89912786804E+01 -0.20282827156E+02  0.11936520538E+02  0.25193584348E+02  0.00000000000E+00 0. -1.
</event>
<event>
 7    1  0.4623443E-009  0.4614231E+02  0.7816164E-02  0.1320468E+00
        -11   -1    0    0    0    0  0.00000000000E+00  0.00000000000E+00  0.45593999997E+02  0.45594000000E+02  0.51100000000E-03 0. -1.
         11   -1    0    0    0    0 -0.00000000000E+00 -0.00000000000E+00 -0.45593999997E+02  0.45594000000E+02  0.51100000000E-03 0.  1.
    9900012    2    1    2    0    0  0.40741676541E+02  0.96636888043E+01 -0.16608520934E+02  0.46142311457E+02  0.99999425166E+01 0.  0.
         12    1    1    2    0    0 -0.40741676541E+02 -0.96636888043E+01  0.16608520934E+02  0.45045688543E+02  0.00000000000E+00 0. -1.
         11    1    3    3    0    0  0.50578674146E+00  0.12509576602E+01 -0.10451815071E+01  0.17067864364E+01  0.51100000000E-03 0. -1.
        -11    1    3    3    0    0  0.12813157095E+02  0.56499868605E+01 -0.63374590619E+01  0.15370840377E+02  0.51100000000E-03 0.  1.
         12    1    3    3    0    0  0.27422732705E+02  0.27627442836E+01 -0.92258803648E+01  0.29064684644E+02  0.00000000000E+00 0. -1.
</event>
<event>
 7    1  0.4623443E-009  0.4614232E+02  0.7816164E-02  0.1320468E+00
        -11   -1    0    0    0    0  0.00000000000E+00  0.00000000000E+00  0.45593999997E+02  0.45594000000E+02  0.51100000000E-03 0. -1.
         11   -1    0    0    0    0 -0.00000000000E+00 -0.00000000000E+00 -0.45593999997E+02  0.45594000000E+02  0.51100000000E-03 0.  1.
    9900012    2    1    2    0    0  0.11202436584E+02 -0.58089899842E+01  0.43242039078E+02  0.46142324362E+02  0.10000060195E+02 0.  0.
        -12    1    1    2    0    0 -0.11202436584E+02  0.58089899842E+01 -0.43242039078E+02  0.45045675638E+02  0.00000000000E+00 0.  1.
         11    1    3    3    0    0  0.92024178800E+01 -0.46478152633E+01  0.30809508012E+02  0.32488651338E+02  0.51100000000E-03 0. -1.
        -11    1    3    3    0    0  0.25242419892E+01  0.10431715927E+01  0.98328948468E+01  0.10205186227E+02  0.51100000000E-03 0.  1.
        -12    1    3    3    0    0 -0.52422328516E+00 -0.22043463136E+01  0.25996362193E+01  0.34484867979E+01  0.00000000000E+00 0.  1.
</event>
<event>
 7    1  0.4623443E-009  0.4614232E+02  0.7816164E-02  0.1320468E+00
        -11   -1    0    0    0    0  0.00000000000E+00  0.00000000000E+00  0.45593999997E+02  0.45594000000E+02  0.51100000000E-03 0. -1.
         11   -1    0    0    0    0 -0.00000000000E+00 -0.00000000000E+00 -0.45593999997E+02  0.45594000000E+02  0.51100000000E-03 0.  1.
    9900012    2    1    2    0    0  0.18137414575E+02  0.41231829415E+02 -0.28989800974E+00  0.46142316464E+02  0.99999881748E+01 0.  0.
        -12    1    1    2    0    0 -0.18137414575E+02 -0.41231829415E+02  0.28989800974E+00  0.45045683536E+02  0.00000000000E+00 0.  1.
         11    1    3    3    0    0  0.80806395661E+00 -0.21305041200E+00  0.23102277679E+00  0.86702342560E+00  0.51100000000E-03 0.  1.
        -11    1    3    3    0    0  0.12978784032E+02  0.34474869113E+02  0.12985535477E+01  0.36859892524E+02  0.51100000000E-03 0. -1.
         12    1    3    3    0    0  0.43505665860E+01  0.69700107136E+01 -0.18194743342E+01  0.84154005145E+01  0.00000000000E+00 0. -1.
</event>
<event>
 7    1  0.4623443E-009  0.4614232E+02  0.7816164E-02  0.1320468E+00
        -11   -1    0    0    0    0  0.00000000000E+00  0.00000000000E+00  0.45593999997E+02  0.45594000000E+02  0.51100000000E-03 0.  1.
         11   -1    0    0    0    0 -0.00000000000E+00 -0.00000000000E+00 -0.45593999997E+02  0.45594000000E+02  0.51100000000E-03 0. -1.
    9900012    2    1    2    0    0 -0.25123479838E+02 -0.36894266101E+02 -0.60611223970E+01  0.46142319685E+02  0.10000017548E+02 0.  0.
         12    1    1    2    0    0  0.25123479838E+02  0.36894266101E+02  0.60611223970E+01  0.45045680315E+02  0.00000000000E+00 0. -1.
         11    1    3    3    0    0 -0.15578182169E+02 -0.23222929475E+02 -0.69251226019E+01  0.28808705913E+02  0.51100000000E-03 0. -1.
        -11    1    3    3    0    0 -0.10637082807E+01 -0.52503669881E+01  0.11727689870E+00  0.53583190413E+01  0.51100000000E-03 0.  1.
         12    1    3    3    0    0 -0.84815893889E+01 -0.84209696374E+01  0.74672330616E+00  0.11975294731E+02  0.00000000000E+00 0. -1.
</event>
<event>
 7    1  0.4623443E-009  0.4614232E+02  0.7816164E-02  0.1320468E+00
        -11   -1    0    0    0    0  0.00000000000E+00  0.00000000000E+00  0.45593999997E+02  0.45594000000E+02  0.51100000000E-03 0. -1.
         11   -1    0    0    0    0 -0.00000000000E+00 -0.00000000000E+00 -0.45593999997E+02  0.45594000000E+02  0.51100000000E-03 0.  1.
    9900012    2    1    2    0    0  0.19889439900E+02 -0.13965765971E+02  0.37927311371E+02  0.46142318891E+02  0.10000010306E+02 0.  0.
        -12    1    1    2    0    0 -0.19889439900E+02  0.13965765971E+02 -0.37927311371E+02  0.45045681109E+02  0.00000000000E+00 0.  1.
         11    1    3    3    0    0  0.43007357316E+01 -0.32106711480E+01  0.71829007899E+01  0.89665378532E+01  0.51100000000E-03 0. -1.
        -11    1    3    3    0    0  0.54277346677E+01  0.78433144562E-01  0.46378729898E+01  0.71397704103E+01  0.51100000000E-03 0.  1.
        -12    1    3    3    0    0  0.10160969501E+02 -0.10833527968E+02  0.26106537591E+02  0.30036010628E+02  0.00000000000E+00 0.  1.
</event>
<event>
 7    1  0.4623443E-009  0.4614232E+02  0.7816164E-02  0.1320468E+00
        -11   -1    0    0    0    0  0.00000000000E+00  0.00000000000E+00  0.45593999997E+02  0.45594000000E+02  0.51100000000E-03 0. -1.
         11   -1    0    0    0    0 -0.00000000000E+00 -0.00000000000E+00 -0.45593999997E+02  0.45594000000E+02  0.51100000000E-03 0.  1.
    9900012    2    1    2    0    0  0.64134315477E+01  0.93516757211E+01 -0.43595040597E+02  0.46142317547E+02  0.99999980490E+01 0.  0.
         12    1    1    2    0    0 -0.64134315477E+01 -0.93516757211E+01  0.43595040597E+02  0.45045682453E+02  0.00000000000E+00 0. -1.
         11    1    3    3    0    0  0.10724170381E+01  0.42761094074E+01 -0.11499892701E+02  0.12315953977E+02  0.51100000000E-03 0. -1.
        -11    1    3    3    0    0  0.57130791632E+00  0.14867156127E+01 -0.22292678299E+02  0.22349501606E+02  0.51100000000E-03 0.  1.
         12    1    3    3    0    0  0.47697065933E+01  0.35888507010E+01 -0.98024695964E+01  0.11476861963E+02  0.00000000000E+00 0. -1.
</event>
<event>
 7    1  0.4623443E-009  0.4614232E+02  0.7816164E-02  0.1320468E+00
        -11   -1    0    0    0    0  0.00000000000E+00  0.00000000000E+00  0.45593999997E+02  0.45594000000E+02  0.51100000000E-03 0. -1.
         11   -1    0    0    0    0 -0.00000000000E+00 -0.00000000000E+00 -0.45593999997E+02  0.45594000000E+02  0.51100000000E-03 0.  1.
    9900012    2    1    2    0    0 -0.21315092313E+02  0.31875906034E+02  0.23636983423E+02  0.46142317286E+02  0.99999956689E+01 0.  0.
        -12    1    1    2    0    0  0.21315092313E+02 -0.31875906034E+02 -0.23636983423E+02  0.45045682714E+02  0.00000000000E+00 0.  1.
         11    1    3    3    0    0 -0.97038184653E+01  0.78512925459E+01  0.72409418244E+01  0.14430458282E+02  0.51100000000E-03 0. -1.
        -11    1    3    3    0    0 -0.10599866695E+02  0.20396458917E+02  0.12024428735E+02  0.25941464819E+02  0.51100000000E-03 0.  1.
         12    1    3    3    0    0 -0.10114071526E+01  0.36281545708E+01  0.43716128642E+01  0.57703941852E+01  0.00000000000E+00 0. -1.
</event>
<event>
 7    1  0.4623443E-009  0.4614232E+02  0.7816164E-02  0.1320468E+00
        -11   -1    0    0    0    0  0.00000000000E+00  0.00000000000E+00  0.45593999997E+02  0.45594000000E+02  0.51100000000E-03 0. -1.
         11   -1    0    0    0    0 -0.00000000000E+00 -0.00000000000E+00 -0.45593999997E+02  0.45594000000E+02  0.51100000000E-03 0.  1.
    9900012    2    1    2    0    0 -0.28689883132E+02 -0.17378346176E+02 -0.30066540707E+02  0.46142321184E+02  0.10000031210E+02 0.  0.
         12    1    1    2    0    0  0.28689883132E+02  0.17378346176E+02  0.30066540707E+02  0.45045678816E+02  0.00000000000E+00 0. -1.
         11    1    3    3    0    0 -0.53198878725E+01 -0.58246454350E+01 -0.48998531355E+01  0.92863481752E+01  0.51100000000E-03 0. -1.
        -11    1    3    3    0    0 -0.17959657014E+02 -0.54846864941E+01 -0.18155661251E+02  0.26120090002E+02  0.51100000000E-03 0.  1.
        -12    1    3    3    0    0 -0.54103382452E+01 -0.60690142471E+01 -0.70110263207E+01  0.10735883006E+02  0.00000000000E+00 0.  1.
</event>
<event>
 7    1  0.4623443E-009  0.4614232E+02  0.7816164E-02  0.1320468E+00
        -11   -1    0    0    0    0  0.00000000000E+00  0.00000000000E+00  0.45593999997E+02  0.45594000000E+02  0.51100000000E-03 0.  1.
         11   -1    0    0    0    0 -0.00000000000E+00 -0.00000000000E+00 -0.45593999997E+02  0.45594000000E+02  0.51100000000E-03 0. -1.
    9900012    2    1    2    0    0 -0.62038124248E+01  0.40270295895E+02  0.19207539904E+02  0.46142316419E+02  0.99999877660E+01 0.  0.
        -12    1    1    2    0    0  0.62038124248E+01 -0.40270295895E+02 -0.19207539904E+02  0.45045683581E+02  0.00000000000E+00 0.  1.
         11    1    3    3    0    0  0.50142840570E+00  0.11370032512E+02  0.52745460193E+01  0.12543919075E+02  0.51100000000E-03 0. -1.
        -11    1    3    3    0    0 -0.41169324366E+01  0.20986134224E+02  0.13436852443E+02  0.25256998360E+02  0.51100000000E-03 0.  1.
        -12    1    3    3    0    0 -0.25883083939E+01  0.79141291591E+01  0.49614144142E+00  0.83413989845E+01  0.00000000000E+00 0.  1.
</event>
<event>
 7    1  0.4623443E-009  0.4614232E+02  0.7816164E-02  0.1320468E+00
        -11   -1    0    0    0    0  0.00000000000E+00  0.00000000000E+00  0.45593999997E+02  0.45594000000E+02  0.51100000000E-03 0. -1.
         11   -1    0    0    0    0 -0.00000000000E+00 -0.00000000000E+00 -0.45593999997E+02  0.45594000000E+02  0.51100000000E-03 0.  1.
    9900012    2    1    2    0    0  0.13471041890E+02  0.60271305759E+01  0.42559584635E+02  0.46142317445E+02  0.99999971147E+01 0.  0.
        -12    1    1    2    0    0 -0.13471041890E+02 -0.60271305759E+01 -0.42559584635E+02  0.45045682555E+02  0.00000000000E+00 0.  1.
         11    1    3    3    0    0  0.70801312134E+01  0.64876122875E+00  0.12811332493E+02  0.14651941497E+02  0.51100000000E-03 0. -1.
        -11    1    3    3    0    0  0.31885890814E+01  0.57120228886E+00  0.42372332693E+01  0.53336215112E+01  0.51100000000E-03 0.  1.
        -12    1    3    3    0    0  0.32023215954E+01  0.48071670583E+01  0.25511018873E+02  0.26156754437E+02  0.00000000000E+00 0.  1.
</event>
<event>
 7    1  0.4623443E-009  0.4614232E+02  0.7816164E-02  0.1320468E+00
        -11   -1    0    0    0    0  0.00000000000E+00  0.00000000000E+00  0.45593999997E+02  0.45594000000E+02  0.51100000000E-03 0. -1.
         11   -1    0    0    0    0 -0.00000000000E+00 -0.00000000000E+00 -0.45593999997E+02  0.45594000000E+02  0.51100000000E-03 0.  1.
    9900012    2    1    2    0    0 -0.26973303471E+02  0.62324806992E+00  0.36071678600E+02  0.46142317240E+02  0.99999952501E+01 0.  0.
        -12    1    1    2    0    0  0.26973303471E+02 -0.62324806992E+00 -0.36071678600E+02  0.45045682760E+02  0.00000000000E+00 0.  1.
         11    1    3    3    0    0 -0.29378573602E+01  0.16298148927E+01  0.34222149686E+01  0.47957124607E+01  0.51100000000E-03 0. -1.
        -11    1    3    3    0    0 -0.44497474586E+00  0.13555134934E+01  0.34552416029E+01  0.37381966442E+01  0.51100000000E-03 0.  1.
         12    1    3    3    0    0 -0.23590471365E+02 -0.23620803162E+01  0.29194222028E+02  0.37608408135E+02  0.00000000000E+00 0. -1.
</event>
<event>
 7    1  0.4623443E-009  0.4614232E+02  0.7816164E-02  0.1320468E+00
        -11   -1    0    0    0    0  0.00000000000E+00  0.00000000000E+00  0.45593999997E+02  0.45594000000E+02  0.51100000000E-03 0. -1.
         11   -1    0    0    0    0 -0.00000000000E+00 -0.00000000000E+00 -0.45593999997E+02  0.45594000000E+02  0.51100000000E-03 0.  1.
    9900012    2    1    2    0    0  0.12936572325E+02 -0.79879958625E+01  0.42402247713E+02  0.46142316604E+02  0.99999894527E+01 0.  0.
        -12    1    1    2    0    0 -0.12936572325E+02  0.79879958625E+01 -0.42402247713E+02  0.45045683396E+02  0.00000000000E+00 0.  1.
         11    1    3    3    0    0  0.39270375878E+01 -0.46402319178E+01  0.18282349526E+02  0.19266491142E+02  0.51100000000E-03 0. -1.
        -11    1    3    3    0    0  0.81826876924E+01 -0.30926189519E+01  0.24436020936E+02  0.25954571645E+02  0.51100000000E-03 0.  1.
        -12    1    3    3    0    0  0.82684704468E+00 -0.25514499278E+00 -0.31612274889E+00  0.92125381682E+00  0.00000000000E+00 0.  1.
</event>
<event>
 7    1  0.4623443E-009  0.4614232E+02  0.7816164E-02  0.1320468E+00
        -11   -1    0    0    0    0  0.00000000000E+00  0.00000000000E+00  0.45593999997E+02  0.45594000000E+02  0.51100000000E-03 0. -1.
         11   -1    0    0    0    0 -0.00000000000E+00 -0.00000000000E+00 -0.45593999997E+02  0.45594000000E+02  0.51100000000E-03 0.  1.
    9900012    2    1    2    0    0  0.22328538808E+02  0.19760618865E+02  0.33764889941E+02  0.46142317677E+02  0.99999992320E+01 0.  0.
        -12    1    1    2    0    0 -0.22328538808E+02 -0.19760618865E+02 -0.33764889941E+02  0.45045682323E+02  0.00000000000E+00 0.  1.
         11    1    3    3    0    0  0.21644694726E+00 -0.14458172714E+00  0.18348506665E+01  0.18532216236E+01  0.51100000000E-03 0. -1.
        -11    1    3    3    0    0  0.18750769733E+01 -0.11807113325E+00  0.39412962490E+01  0.43661963804E+01  0.51100000000E-03 0.  1.
         12    1    3    3    0    0  0.20237014888E+02  0.20023271726E+02  0.27988743025E+02  0.39922899673E+02  0.00000000000E+00 0. -1.
</event>
<event>
 7    1  0.4623443E-009  0.4614232E+02  0.7816164E-02  0.1320468E+00
        -11   -1    0    0    0    0  0.00000000000E+00  0.00000000000E+00  0.45593999997E+02  0.45594000000E+02  0.51100000000E-03 0. -1.
         11   -1    0    0    0    0 -0.00000000000E+00 -0.00000000000E+00 -0.45593999997E+02  0.45594000000E+02  0.51100000000E-03 0.  1.
    9900012    2    1    2    0    0 -0.19524461508E+02 -0.28335188894E+02 -0.29069329715E+02  0.46142318110E+02  0.10000003183E+02 0.  0.
         12    1    1    2    0    0  0.19524461508E+02  0.28335188894E+02  0.29069329715E+02  0.45045681890E+02  0.00000000000E+00 0. -1.
         11    1    3    3    0    0 -0.11505996167E+01 -0.70001920569E+01 -0.60873461749E+01  0.93478528029E+01  0.51100000000E-03 0.  1.
        -11    1    3    3    0    0  0.30968206019E+00 -0.12605024852E+01 -0.12747306919E+01  0.18192603144E+01  0.51100000000E-03 0. -1.
         12    1    3    3    0    0 -0.18683543952E+02 -0.20074494352E+02 -0.21707252848E+02  0.34975204993E+02  0.00000000000E+00 0. -1.
</event>
<event>
 7    1  0.4623443E-009  0.4614232E+02  0.7816164E-02  0.1320468E+00
        -11   -1    0    0    0    0  0.00000000000E+00  0.00000000000E+00  0.45593999997E+02  0.45594000000E+02  0.51100000000E-03 0. -1.
         11   -1    0    0    0    0 -0.00000000000E+00 -0.00000000000E+00 -0.45593999997E+02  0.45594000000E+02  0.51100000000E-03 0.  1.
    9900012    2    1    2    0    0 -0.91255548592E+01  0.33535756879E+02 -0.28656426120E+02  0.46142317644E+02  0.99999989286E+01 0.  0.
         12    1    1    2    0    0  0.91255548592E+01 -0.33535756879E+02  0.28656426120E+02  0.45045682356E+02  0.00000000000E+00 0. -1.
         11    1    3    3    0    0 -0.30506578786E+00  0.87917263348E+01 -0.68841714140E+01  0.11170467018E+02  0.51100000000E-03 0. -1.
        -11    1    3    3    0    0 -0.25263168838E+01  0.14048936182E+02 -0.77338265329E+01  0.16234745392E+02  0.51100000000E-03 0.  1.
         12    1    3    3    0    0 -0.62941721876E+01  0.10695094362E+02 -0.14038428174E+02  0.18737105234E+02  0.00000000000E+00 0. -1.
</event>
<event>
 7    1  0.5074867E-009  0.4614232E+02  0.7816164E-02  0.1320468E+00
        -11   -1    0    0    0    0  0.00000000000E+00  0.00000000000E+00  0.45593999997E+02  0.45594000000E+02  0.51100000000E-03 0. -1.
         11   -1    0    0    0    0 -0.00000000000E+00 -0.00000000000E+00 -0.45593999997E+02  0.45594000000E+02  0.51100000000E-03 0.  1.
    9900012    2    1    2    0    0 -0.12921265794E+02 -0.20873272751E+02 -0.37768516244E+02  0.46142318250E+02  0.10000004454E+02 0.  0.
         12    1    1    2    0    0  0.12921265794E+02  0.20873272751E+02  0.37768516244E+02  0.45045681750E+02  0.00000000000E+00 0. -1.
         11    1    3    3    0    0 -0.16421042814E+01 -0.47062753214E+01 -0.45362721197E+01  0.67396809181E+01  0.51100000000E-03 0. -1.
        -11    1    3    3    0    0 -0.57362178094E+01 -0.12090570186E+02 -0.16069568166E+02  0.20912128143E+02  0.51100000000E-03 0.  1.
         12    1    3    3    0    0 -0.55429437034E+01 -0.40764272436E+01 -0.17162675959E+02  0.18490509188E+02  0.00000000000E+00 0. -1.
</event>
<event>
 7    1  0.4623443E-009  0.4614232E+02  0.7816164E-02  0.1320468E+00
        -11   -1    0    0    0    0  0.00000000000E+00  0.00000000000E+00  0.45593999997E+02  0.45594000000E+02  0.51100000000E-03 0. -1.
         11   -1    0    0    0    0 -0.00000000000E+00 -0.00000000000E+00 -0.45593999997E+02  0.45594000000E+02  0.51100000000E-03 0.  1.
    9900012    2    1    2    0    0  0.18571293931E+01 -0.37870262641E+02  0.24320932560E+02  0.46142317825E+02  0.10000000583E+02 0.  0.
        -12    1    1    2    0    0 -0.18571293931E+01  0.37870262641E+02 -0.24320932560E+02  0.45045682175E+02  0.00000000000E+00 0.  1.
         11    1    3    3    0    0  0.40598074181E+01 -0.13232108039E+02  0.87251989006E+01  0.16361534633E+02  0.51100000000E-03 0. -1.
        -11    1    3    3    0    0  0.68973446274E+00 -0.27960894298E+01  0.17027233598E+00  0.28849337354E+01  0.51100000000E-03 0.  1.
        -12    1    3    3    0    0 -0.28924124878E+01 -0.21842065171E+02  0.15425461323E+02  0.26895849456E+02  0.00000000000E+00 0.  1.
</event>
<event>
 7    1  0.4623443E-009  0.4614232E+02  0.7816164E-02  0.1320468E+00
        -11   -1    0    0    0    0  0.00000000000E+00  0.00000000000E+00  0.45593999997E+02  0.45594000000E+02  0.51100000000E-03 0. -1.
         11   -1    0    0    0    0 -0.00000000000E+00 -0.00000000000E+00 -0.45593999997E+02  0.45594000000E+02  0.51100000000E-03 0.  1.
    9900012    2    1    2    0    0 -0.18005753894E+02 -0.54467039421E+01  0.40929692481E+02  0.46142317813E+02  0.10000000474E+02 0.  0.
        -12    1    1    2    0    0  0.18005753894E+02  0.54467039421E+01 -0.40929692481E+02  0.45045682187E+02  0.00000000000E+00 0.  1.
         11    1    3    3    0    0  0.76910940624E-01 -0.99615817751E+00  0.60808164298E+01  0.61623514279E+01  0.51100000000E-03 0.  1.
        -11    1    3    3    0    0 -0.20792618819E+01  0.14400321571E+01  0.49949301060E+01  0.55987810827E+01  0.51100000000E-03 0. -1.
         12    1    3    3    0    0 -0.16003402953E+02 -0.58905779217E+01  0.29853945945E+02  0.34381185302E+02  0.00000000000E+00 0. -1.
</event>
<event>
 7    1  0.4623443E-009  0.4614232E+02  0.7816164E-02  0.1320468E+00
        -11   -1    0    0    0    0  0.00000000000E+00  0.00000000000E+00  0.45593999997E+02  0.45594000000E+02  0.51100000000E-03 0. -1.
         11   -1    0    0    0    0 -0.00000000000E+00 -0.00000000000E+00 -0.45593999997E+02  0.45594000000E+02  0.51100000000E-03 0.  1.
    9900012    2    1    2    0    0 -0.97226380949E+01  0.14507882976E+02 -0.41522345478E+02  0.46142317255E+02  0.99999953808E+01 0.  0.
         12    1    1    2    0    0  0.97226380949E+01 -0.14507882976E+02  0.41522345478E+02  0.45045682745E+02  0.00000000000E+00 0. -1.
         11    1    3    3    0    0 -0.47406210276E+01  0.61510557598E+01 -0.14445126258E+02  0.16400324617E+02  0.51100000000E-03 0. -1.
        -11    1    3    3    0    0 -0.52488133265E+01  0.15410671965E+01 -0.12747499051E+02  0.13871685613E+02  0.51100000000E-03 0.  1.
         12    1    3    3    0    0  0.26679625912E+00  0.68157600201E+01 -0.14329720170E+02  0.15870307024E+02  0.00000000000E+00 0. -1.
</event>
<event>
 7    1  0.4623443E-009  0.4614232E+02  0.7816164E-02  0.1320468E+00
        -11   -1    0    0    0    0  0.00000000000E+00  0.00000000000E+00  0.45593999997E+02  0.45594000000E+02  0.51100000000E-03 0. -1.
         11   -1    0    0    0    0 -0.00000000000E+00 -0.00000000000E+00 -0.45593999997E+02  0.45594000000E+02  0.51100000000E-03 0.  1.
    9900012    2    1    2    0    0 -0.87360620617E+00  0.11233389466E+02  0.43613773539E+02  0.46142317976E+02  0.10000001957E+02 0.  0.
        -12    1    1    2    0    0  0.87360620617E+00 -0.11233389466E+02 -0.43613773539E+02  0.45045682024E+02  0.00000000000E+00 0.  1.
         11    1    3    3    0    0  0.22012282867E+01  0.30264314314E+01  0.73314150408E+01  0.82313024450E+01  0.51100000000E-03 0. -1.
        -11    1    3    3    0    0  0.17210487742E+01  0.31190192812E+01  0.76725998849E+01  0.84592599803E+01  0.51100000000E-03 0.  1.
         12    1    3    3    0    0 -0.47958832671E+01  0.50879387534E+01  0.28609758614E+02  0.29451755550E+02  0.00000000000E+00 0. -1.
</event>
<event>
 7    1  0.4623443E-009  0.4614232E+02  0.7816164E-02  0.1320468E+00
        -11   -1    0    0    0    0  0.00000000000E+00  0.00000000000E+00  0.45593999997E+02  0.45594000000E+02  0.51100000000E-03 0. -1.
         11   -1    0    0    0    0 -0.00000000000E+00 -0.00000000000E+00 -0.45593999997E+02  0.45594000000E+02  0.51100000000E-03 0.  1.
    9900012    2    1    2    0    0 -0.19019294393E+02 -0.34160488850E+02 -0.22370535083E+02  0.46142318769E+02  0.10000009190E+02 0.  0.
         12    1    1    2    0    0  0.19019294393E+02  0.34160488850E+02  0.22370535083E+02  0.45045681231E+02  0.00000000000E+00 0. -1.
         11    1    3    3    0    0 -0.75417297100E-01 -0.11572010934E+00 -0.10735742852E+01  0.10824236321E+01  0.51100000000E-03 0. -1.
        -11    1    3    3    0    0 -0.10331027158E+02 -0.17081101507E+02 -0.66193238135E+01  0.21031157811E+02  0.51100000000E-03 0.  1.
         12    1    3    3    0    0 -0.86128499377E+01 -0.16963667233E+02 -0.14677636984E+02  0.24028737326E+02  0.00000000000E+00 0. -1.
</event>
<event>
 7    1  0.4623443E-009  0.4614232E+02  0.7816164E-02  0.1320468E+00
        -11   -1    0    0    0    0  0.00000000000E+00  0.00000000000E+00  0.45593999997E+02  0.45594000000E+02  0.51100000000E-03 0. -1.
         11   -1    0    0    0    0 -0.00000000000E+00 -0.00000000000E+00 -0.45593999997E+02  0.45594000000E+02  0.51100000000E-03 0.  1.
    9900012    2    1    2    0    0  0.84084869624E+00  0.13102244742E+02 -0.43089877486E+02  0.46142318902E+02  0.10000010405E+02 0.  0.
         12    1    1    2    0    0 -0.84084869624E+00 -0.13102244742E+02  0.43089877486E+02  0.45045681098E+02  0.00000000000E+00 0. -1.
         11    1    3    3    0    0 -0.46342439147E+00 -0.11345559707E-01 -0.64578524634E+01  0.64744690584E+01  0.51100000000E-03 0. -1.
        -11    1    3    3    0    0 -0.13481576334E-01  0.61238594337E+00  0.28042679390E+00  0.67367480612E+00  0.51100000000E-03 0.  1.
        -12    1    3    3    0    0  0.13177546640E+01  0.12501204358E+02 -0.36912451817E+02  0.38994175038E+02  0.00000000000E+00 0.  1.
</event>
<event>
 7    1  0.4623443E-009  0.4614232E+02  0.7816164E-02  0.1320468E+00
        -11   -1    0    0    0    0  0.00000000000E+00  0.00000000000E+00  0.45593999997E+02  0.45594000000E+02  0.51100000000E-03 0. -1.
         11   -1    0    0    0    0 -0.00000000000E+00 -0.00000000000E+00 -0.45593999997E+02  0.45594000000E+02  0.51100000000E-03 0.  1.
    9900012    2    1    2    0    0 -0.31721080329E+02  0.53418645598E+01  0.31533332931E+02  0.46142317188E+02  0.99999947757E+01 0.  0.
        -12    1    1    2    0    0  0.31721080329E+02 -0.53418645598E+01 -0.31533332931E+02  0.45045682812E+02  0.00000000000E+00 0.  1.
         11    1    3    3    0    0 -0.24168835761E+02  0.43377824626E+01  0.22567390083E+02  0.33350203510E+02  0.51100000000E-03 0. -1.
        -11    1    3    3    0    0 -0.56468527225E+01  0.23396140308E+01  0.39910050959E+01  0.72999220146E+01  0.51100000000E-03 0.  1.
         12    1    3    3    0    0 -0.19053918457E+01 -0.13355319336E+01  0.49749377519E+01  0.54921916633E+01  0.00000000000E+00 0. -1.
</event>
<event>
 7    1  0.4623443E-009  0.4614232E+02  0.7816164E-02  0.1320468E+00
        -11   -1    0    0    0    0  0.00000000000E+00  0.00000000000E+00  0.45593999997E+02  0.45594000000E+02  0.51100000000E-03 0. -1.
         11   -1    0    0    0    0 -0.00000000000E+00 -0.00000000000E+00 -0.45593999997E+02  0.45594000000E+02  0.51100000000E-03 0.  1.
    9900012    2    1    2    0    0  0.28909569968E+01  0.14545122607E+01  0.44929281388E+02  0.46142316918E+02  0.99999923115E+01 0.  0.
        -12    1    1    2    0    0 -0.28909569968E+01 -0.14545122607E+01 -0.44929281388E+02  0.45045683082E+02  0.00000000000E+00 0.  1.
         11    1    3    3    0    0  0.15763113322E+01  0.19973616942E+01  0.11213525219E+02  0.11498580749E+02  0.51100000000E-03 0. -1.
        -11    1    3    3    0    0  0.26493256788E+01  0.16395263942E+01  0.55715271254E+01  0.63834855777E+01  0.51100000000E-03 0.  1.
         12    1    3    3    0    0 -0.13346800142E+01 -0.21823758277E+01  0.28144229044E+02  0.28260250591E+02  0.00000000000E+00 0. -1.
</event>
<event>
 7    1  0.4623443E-009  0.4614232E+02  0.7816164E-02  0.1320468E+00
        -11   -1    0    0    0    0  0.00000000000E+00  0.00000000000E+00  0.45593999997E+02  0.45594000000E+02  0.51100000000E-03 0. -1.
         11   -1    0    0    0    0 -0.00000000000E+00 -0.00000000000E+00 -0.45593999997E+02  0.45594000000E+02  0.51100000000E-03 0.  1.
    9900012    2    1    2    0    0 -0.26294681053E+02 -0.22921721765E+02 -0.28500839261E+02  0.46142318532E+02  0.10000007032E+02 0.  0.
         12    1    1    2    0    0  0.26294681053E+02  0.22921721765E+02  0.28500839261E+02  0.45045681468E+02  0.00000000000E+00 0. -1.
         11    1    3    3    0    0 -0.15259825362E+02 -0.15521948560E+02 -0.15807462403E+02  0.26901097097E+02  0.51100000000E-03 0. -1.
        -11    1    3    3    0    0 -0.26935051507E+01 -0.46729074868E+01 -0.67592668627E+01  0.86474691766E+01  0.51100000000E-03 0.  1.
         12    1    3    3    0    0 -0.83413505397E+01 -0.27268657184E+01 -0.59341099953E+01  0.10593752258E+02  0.00000000000E+00 0. -1.
</event>
<event>
 7    1  0.4623443E-009  0.4614232E+02  0.7816164E-02  0.1320468E+00
        -11   -1    0    0    0    0  0.00000000000E+00  0.00000000000E+00  0.45593999997E+02  0.45594000000E+02  0.51100000000E-03 0. -1.
         11   -1    0    0    0    0 -0.00000000000E+00 -0.00000000000E+00 -0.45593999997E+02  0.45594000000E+02  0.51100000000E-03 0.  1.
    9900012    2    1    2    0    0  0.17915816078E+02  0.38317532233E+02 -0.15488822790E+02  0.46142319035E+02  0.10000011614E+02 0.  0.
         12    1    1    2    0    0 -0.17915816078E+02 -0.38317532233E+02  0.15488822790E+02  0.45045680965E+02  0.00000000000E+00 0. -1.
         11    1    3    3    0    0  0.42799993975E+01  0.12488409310E+02 -0.39235007757E+01  0.13772168331E+02  0.51100000000E-03 0. -1.
        -11    1    3    3    0    0  0.94121321610E+01  0.22768511902E+02 -0.11411878890E+02  0.27151875554E+02  0.51100000000E-03 0.  1.
        -12    1    3    3    0    0  0.42236845198E+01  0.30606110209E+01 -0.15344312470E+00  0.52182751496E+01  0.00000000000E+00 0.  1.
</event>
<event>
 7    1  0.4623443E-009  0.4614232E+02  0.7816164E-02  0.1320468E+00
        -11   -1    0    0    0    0  0.00000000000E+00  0.00000000000E+00  0.45593999997E+02  0.45594000000E+02  0.51100000000E-03 0. -1.
         11   -1    0    0    0    0 -0.00000000000E+00 -0.00000000000E+00 -0.45593999997E+02  0.45594000000E+02  0.51100000000E-03 0.  1.
    9900012    2    1    2    0    0 -0.11801539530E+02 -0.71362927098E+01  0.42882519245E+02  0.46142318012E+02  0.10000002292E+02 0.  0.
        -12    1    1    2    0    0  0.11801539530E+02  0.71362927098E+01 -0.42882519245E+02  0.45045681988E+02  0.00000000000E+00 0.  1.
         11    1    3    3    0    0 -0.70114033648E+01 -0.51783961535E+01  0.31217589619E+02  0.32411625473E+02  0.51100000000E-03 0.  1.
        -11    1    3    3    0    0 -0.27738402836E+01 -0.13024612914E+01  0.11129922402E+02  0.11544079360E+02  0.51100000000E-03 0. -1.
        -12    1    3    3    0    0 -0.20162958814E+01 -0.65543526484E+00  0.53500722324E+00  0.21866131795E+01  0.00000000000E+00 0.  1.
</event>
<event>
 7    1  0.4623443E-009  0.4614232E+02  0.7816164E-02  0.1320468E+00
        -11   -1    0    0    0    0  0.00000000000E+00  0.00000000000E+00  0.45593999997E+02  0.45594000000E+02  0.51100000000E-03 0. -1.
         11   -1    0    0    0    0 -0.00000000000E+00 -0.00000000000E+00 -0.45593999997E+02  0.45594000000E+02  0.51100000000E-03 0.  1.
    9900012    2    1    2    0    0  0.11361700878E+02 -0.18759785335E+02 -0.39345847275E+02  0.46142317738E+02  0.99999997893E+01 0.  0.
         12    1    1    2    0    0 -0.11361700878E+02  0.18759785335E+02  0.39345847275E+02  0.45045682262E+02  0.00000000000E+00 0. -1.
         11    1    3    3    0    0  0.15374026781E+01 -0.27153598089E+01 -0.24823657269E+01  0.39873457023E+01  0.51100000000E-03 0. -1.
        -11    1    3    3    0    0  0.55713772801E+01 -0.34387788672E+01 -0.17292024908E+02  0.18489985683E+02  0.51100000000E-03 0.  1.
        -12    1    3    3    0    0  0.42529209202E+01 -0.12605646658E+02 -0.19571456640E+02  0.23664986352E+02  0.00000000000E+00 0.  1.
</event>
<event>
 7    1  0.4623443E-009  0.4614232E+02  0.7816164E-02  0.1320468E+00
        -11   -1    0    0    0    0  0.00000000000E+00  0.00000000000E+00  0.45593999997E+02  0.45594000000E+02  0.51100000000E-03 0. -1.
         11   -1    0    0    0    0 -0.00000000000E+00 -0.00000000000E+00 -0.45593999997E+02  0.45594000000E+02  0.51100000000E-03 0.  1.
    9900012    2    1    2    0    0 -0.25295838447E+01 -0.20178668919E+02  0.40193731331E+02  0.46142317498E+02  0.99999975996E+01 0.  0.
        -12    1    1    2    0    0  0.25295838447E+01  0.20178668919E+02 -0.40193731331E+02  0.45045682502E+02  0.00000000000E+00 0.  1.
         11    1    3    3    0    0  0.11170244279E+01 -0.28376618451E+01  0.64699296513E+01  0.71526259704E+01  0.51100000000E-03 0. -1.
        -11    1    3    3    0    0 -0.88903880011E-01  0.44769554025E+00 -0.21668122385E+00  0.50525855810E+00  0.51100000000E-03 0.  1.
         12    1    3    3    0    0 -0.35577043926E+01 -0.17788702614E+02  0.33940482904E+02  0.38484432969E+02  0.00000000000E+00 0. -1.
</event>
<event>
 7    1  0.4623443E-009  0.4614232E+02  0.7816164E-02  0.1320468E+00
        -11   -1    0    0    0    0  0.00000000000E+00  0.00000000000E+00  0.45593999997E+02  0.45594000000E+02  0.51100000000E-03 0. -1.
         11   -1    0    0    0    0 -0.00000000000E+00 -0.00000000000E+00 -0.45593999997E+02  0.45594000000E+02  0.51100000000E-03 0.  1.
    9900012    2    1    2    0    0  0.21039607467E+02  0.19997452970E+02  0.34446338276E+02  0.46142318428E+02  0.10000006081E+02 0.  0.
        -12    1    1    2    0    0 -0.21039607467E+02 -0.19997452970E+02 -0.34446338276E+02  0.45045681572E+02  0.00000000000E+00 0.  1.
         11    1    3    3    0    0  0.40857920841E+01  0.10331562921E+01  0.17878727962E+01  0.45779469498E+01  0.51100000000E-03 0. -1.
        -11    1    3    3    0    0  0.18237556817E+01  0.35822666289E+01  0.37971722830E+01  0.55296687600E+01  0.51100000000E-03 0.  1.
         12    1    3    3    0    0  0.15130059701E+02  0.15382030049E+02  0.28861293197E+02  0.36034702718E+02  0.00000000000E+00 0. -1.
</event>
<event>
 7    1  0.4623443E-009  0.4614232E+02  0.7816164E-02  0.1320468E+00
        -11   -1    0    0    0    0  0.00000000000E+00  0.00000000000E+00  0.45593999997E+02  0.45594000000E+02  0.51100000000E-03 0. -1.
         11   -1    0    0    0    0 -0.00000000000E+00 -0.00000000000E+00 -0.45593999997E+02  0.45594000000E+02  0.51100000000E-03 0.  1.
    9900012    2    1    2    0    0  0.24271485033E+01 -0.33370172144E+02  0.30160471966E+02  0.46142317544E+02  0.99999980163E+01 0.  0.
        -12    1    1    2    0    0 -0.24271485033E+01  0.33370172144E+02 -0.30160471966E+02  0.45045682456E+02  0.00000000000E+00 0.  1.
         11    1    3    3    0    0  0.25693625889E+01 -0.20764799650E+02  0.15036048380E+02  0.25765505618E+02  0.51100000000E-03 0. -1.
        -11    1    3    3    0    0 -0.14993151202E+01 -0.90081047248E+01  0.74205638793E+01  0.11766846014E+02  0.51100000000E-03 0.  1.
         12    1    3    3    0    0  0.13571010346E+01 -0.35972677691E+01  0.77038597068E+01  0.86099659119E+01  0.00000000000E+00 0. -1.
</event>
<event>
 7    1  0.4623443E-009  0.4614232E+02  0.7816164E-02  0.1320468E+00
        -11   -1    0    0    0    0  0.00000000000E+00  0.00000000000E+00  0.45593999997E+02  0.45594000000E+02  0.51100000000E-03 0. -1.
         11   -1    0    0    0    0 -0.00000000000E+00 -0.00000000000E+00 -0.45593999997E+02  0.45594000000E+02  0.51100000000E-03 0.  1.
    9900012    2    1    2    0    0 -0.78522862104E+01  0.17001644395E+02 -0.40968270519E+02  0.46142317630E+02  0.99999988009E+01 0.  0.
         12    1    1    2    0    0  0.78522862104E+01 -0.17001644395E+02  0.40968270519E+02  0.45045682370E+02  0.00000000000E+00 0. -1.
         11    1    3    3    0    0 -0.59650726936E+01  0.77910835165E+01 -0.14639422519E+02  0.17623727374E+02  0.51100000000E-03 0. -1.
        -11    1    3    3    0    0 -0.13889404712E+01 -0.13220998936E+00 -0.18835108126E+01  0.23439813045E+01  0.51100000000E-03 0.  1.
        -12    1    3    3    0    0 -0.49827304556E+00  0.93427708679E+01 -0.24445337188E+02  0.26174608951E+02  0.00000000000E+00 0.  1.
</event>
<event>
 7    1  0.4623443E-009  0.4614232E+02  0.7816164E-02  0.1320468E+00
        -11   -1    0    0    0    0  0.00000000000E+00  0.00000000000E+00  0.45593999997E+02  0.45594000000E+02  0.51100000000E-03 0. -1.
         11   -1    0    0    0    0 -0.00000000000E+00 -0.00000000000E+00 -0.45593999997E+02  0.45594000000E+02  0.51100000000E-03 0.  1.
    9900012    2    1    2    0    0 -0.90451580969E+01 -0.55574106894E+01 -0.43776863009E+02  0.46142318370E+02  0.10000005553E+02 0.  0.
         12    1    1    2    0    0  0.90451580969E+01  0.55574106894E+01  0.43776863009E+02  0.45045681630E+02  0.00000000000E+00 0. -1.
         11    1    3    3    0    0 -0.10541781500E+01  0.55390841529E+00 -0.52075442220E+01  0.53419681008E+01  0.51100000000E-03 0. -1.
        -11    1    3    3    0    0 -0.49586732400E+01  0.14408871202E+01 -0.15520553824E+02  0.16357022567E+02  0.51100000000E-03 0.  1.
        -12    1    3    3    0    0 -0.30323067068E+01 -0.75522062249E+01 -0.23048764963E+02  0.24443327702E+02  0.00000000000E+00 0.  1.
</event>
<event>
 7    1  0.4623443E-009  0.4614232E+02  0.7816164E-02  0.1320468E+00
        -11   -1    0    0    0    0  0.00000000000E+00  0.00000000000E+00  0.45593999997E+02  0.45594000000E+02  0.51100000000E-03 0. -1.
         11   -1    0    0    0    0 -0.00000000000E+00 -0.00000000000E+00 -0.45593999997E+02  0.45594000000E+02  0.51100000000E-03 0.  1.
    9900012    2    1    2    0    0 -0.13041330561E+02  0.29170826843E+02 -0.31750589701E+02  0.46142318877E+02  0.10000010173E+02 0.  0.
         12    1    1    2    0    0  0.13041330561E+02 -0.29170826843E+02  0.31750589701E+02  0.45045681123E+02  0.00000000000E+00 0. -1.
         11    1    3    3    0    0 -0.45531381460E+00  0.11248519078E+02 -0.96054045870E+01  0.14798658373E+02  0.51100000000E-03 0. -1.
        -11    1    3    3    0    0 -0.39268468211E+01  0.65494016639E+01 -0.55449777012E+01  0.94372435637E+01  0.51100000000E-03 0.  1.
        -12    1    3    3    0    0 -0.86591699255E+01  0.11372906101E+02 -0.16600207413E+02  0.21906416940E+02  0.00000000000E+00 0.  1.
</event>
<event>
 7    1  0.4623443E-009  0.4614232E+02  0.7816164E-02  0.1320468E+00
        -11   -1    0    0    0    0  0.00000000000E+00  0.00000000000E+00  0.45593999997E+02  0.45594000000E+02  0.51100000000E-03 0. -1.
         11   -1    0    0    0    0 -0.00000000000E+00 -0.00000000000E+00 -0.45593999997E+02  0.45594000000E+02  0.51100000000E-03 0.  1.
    9900012    2    1    2    0    0 -0.36032842767E+02 -0.82479480622E+01 -0.25743332072E+02  0.46142317063E+02  0.99999936332E+01 0.  0.
         12    1    1    2    0    0  0.36032842767E+02  0.82479480622E+01  0.25743332072E+02  0.45045682937E+02  0.00000000000E+00 0. -1.
         11    1    3    3    0    0 -0.96084572938E+01 -0.17739652124E+01 -0.42902822189E+01  0.10671266369E+02  0.51100000000E-03 0. -1.
        -11    1    3    3    0    0 -0.19971670711E+02 -0.66500724350E+01 -0.12661910708E+02  0.24564508492E+02  0.51100000000E-03 0.  1.
         12    1    3    3    0    0 -0.64527147616E+01  0.17608958521E+00 -0.87911391453E+01  0.10906542202E+02  0.00000000000E+00 0. -1.
</event>
<event>
 7    1  0.4623443E-009  0.4614232E+02  0.7816164E-02  0.1320468E+00
        -11   -1    0    0    0    0  0.00000000000E+00  0.00000000000E+00  0.45593999997E+02  0.45594000000E+02  0.51100000000E-03 0. -1.
         11   -1    0    0    0    0 -0.00000000000E+00 -0.00000000000E+00 -0.45593999997E+02  0.45594000000E+02  0.51100000000E-03 0.  1.
    9900012    2    1    2    0    0 -0.14219148206E+02 -0.38995658105E+02 -0.17500514553E+02  0.46142317228E+02  0.99999951427E+01 0.  0.
         12    1    1    2    0    0  0.14219148206E+02  0.38995658105E+02  0.17500514553E+02  0.45045682772E+02  0.00000000000E+00 0. -1.
         11    1    3    3    0    0 -0.59047837270E+01 -0.64380114003E+01 -0.22693732981E+01  0.90257696115E+01  0.51100000000E-03 0. -1.
        -11    1    3    3    0    0 -0.26477643146E+01 -0.17275588228E+02 -0.90835277244E+01  0.19696879973E+02  0.51100000000E-03 0.  1.
        -12    1    3    3    0    0 -0.56666001648E+01 -0.15282058476E+02 -0.61476135305E+01  0.17419667644E+02  0.00000000000E+00 0.  1.
</event>
<event>
 7    1  0.5596951E-009  0.4614231E+02  0.7816164E-02  0.1320468E+00
        -11   -1    0    0    0    0  0.00000000000E+00  0.00000000000E+00  0.45593999997E+02  0.45594000000E+02  0.51100000000E-03 0. -1.
         11   -1    0    0    0    0 -0.00000000000E+00 -0.00000000000E+00 -0.45593999997E+02  0.45594000000E+02  0.51100000000E-03 0.  1.
    9900012    2    1    2    0    0  0.26911785379E+02  0.19409336509E+02 -0.30465511456E+02  0.46142312922E+02  0.99999558776E+01 0.  0.
         12    1    1    2    0    0 -0.26911785379E+02 -0.19409336509E+02  0.30465511456E+02  0.45045687078E+02  0.00000000000E+00 0. -1.
         11    1    3    3    0    0  0.77366603311E+01  0.34864784999E+01 -0.87688021234E+01  0.12202595476E+02  0.51100000000E-03 0. -1.
        -11    1    3    3    0    0  0.14033377849E+02  0.86288696815E+01 -0.17641540758E+02  0.24137461474E+02  0.51100000000E-03 0.  1.
         12    1    3    3    0    0  0.51417471982E+01  0.72939883280E+01 -0.40551685750E+01  0.98022559726E+01  0.00000000000E+00 0. -1.
</event>
<event>
 7    1  0.4623443E-009  0.4614232E+02  0.7816164E-02  0.1320468E+00
        -11   -1    0    0    0    0  0.00000000000E+00  0.00000000000E+00  0.45593999997E+02  0.45594000000E+02  0.51100000000E-03 0.  1.
         11   -1    0    0    0    0 -0.00000000000E+00 -0.00000000000E+00 -0.45593999997E+02  0.45594000000E+02  0.51100000000E-03 0. -1.
    9900012    2    1    2    0    0  0.46519553964E+01  0.44497185827E+02  0.52414927231E+01  0.46142317837E+02  0.10000000692E+02 0.  0.
        -12    1    1    2    0    0 -0.46519553964E+01 -0.44497185827E+02 -0.52414927231E+01  0.45045682163E+02  0.00000000000E+00 0.  1.
         11    1    3    3    0    0  0.11123314867E+01  0.10551023863E+02  0.29807010926E+01  0.11020252500E+02  0.51100000000E-03 0. -1.
        -11    1    3    3    0    0 -0.16584001003E+01  0.17566061845E+01 -0.19202071115E+00  0.24233919193E+01  0.51100000000E-03 0.  1.
         12    1    3    3    0    0  0.51980240100E+01  0.32189555780E+02  0.24528123417E+01  0.32698673418E+02  0.00000000000E+00 0. -1.
</event>
<event>
 7    1  0.4623443E-009  0.4614232E+02  0.7816164E-02  0.1320468E+00
        -11   -1    0    0    0    0  0.00000000000E+00  0.00000000000E+00  0.45593999997E+02  0.45594000000E+02  0.51100000000E-03 0. -1.
         11   -1    0    0    0    0 -0.00000000000E+00 -0.00000000000E+00 -0.45593999997E+02  0.45594000000E+02  0.51100000000E-03 0.  1.
    9900012    2    1    2    0    0  0.55728303136E+01  0.50208078372E+01 -0.44416759551E+02  0.46142317876E+02  0.10000001045E+02 0.  0.
         12    1    1    2    0    0 -0.55728303136E+01 -0.50208078372E+01  0.44416759551E+02  0.45045682124E+02  0.00000000000E+00 0. -1.
         11    1    3    3    0    0 -0.25365018538E+00 -0.57936600364E+00 -0.14746657118E+01  0.16045692897E+01  0.51100000000E-03 0.  1.
        -11    1    3    3    0    0  0.29290544061E+00 -0.22152168506E+01 -0.85974000589E+01  0.88830325524E+01  0.51100000000E-03 0. -1.
        -12    1    3    3    0    0  0.55335750584E+01  0.78153906915E+01 -0.34344693780E+02  0.35654716034E+02  0.00000000000E+00 0.  1.
</event>
<event>
 7    1  0.4623443E-009  0.4614232E+02  0.7816164E-02  0.1320468E+00
        -11   -1    0    0    0    0  0.00000000000E+00  0.00000000000E+00  0.45593999997E+02  0.45594000000E+02  0.51100000000E-03 0. -1.
         11   -1    0    0    0    0 -0.00000000000E+00 -0.00000000000E+00 -0.45593999997E+02  0.45594000000E+02  0.51100000000E-03 0.  1.
    9900012    2    1    2    0    0 -0.28110245149E+02  0.32867486392E+02  0.12595870027E+02  0.46142317790E+02  0.10000000263E+02 0.  0.
        -12    1    1    2    0    0  0.28110245149E+02 -0.32867486392E+02 -0.12595870027E+02  0.45045682210E+02  0.00000000000E+00 0.  1.
         11    1    3    3    0    0 -0.18598296154E+02  0.20918347124E+02  0.86967292634E+01  0.29310526545E+02  0.51100000000E-03 0. -1.
        -11    1    3    3    0    0 -0.87769318160E+01  0.12104823888E+02  0.47579302082E+01  0.15690735916E+02  0.51100000000E-03 0.  1.
        -12    1    3    3    0    0 -0.73501717903E+00 -0.15568461967E+00 -0.85878944432E+00  0.11410553290E+01  0.00000000000E+00 0.  1.
</event>
<event>
 7    1  0.4623443E-009  0.4614232E+02  0.7816164E-02  0.1320468E+00
        -11   -1    0    0    0    0  0.00000000000E+00  0.00000000000E+00  0.45593999997E+02  0.45594000000E+02  0.51100000000E-03 0. -1.
         11   -1    0    0    0    0 -0.00000000000E+00 -0.00000000000E+00 -0.45593999997E+02  0.45594000000E+02  0.51100000000E-03 0.  1.
    9900012    2    1    2    0    0 -0.37755998139E+01  0.40512872839E+02 -0.19327839955E+02  0.46142318554E+02  0.10000007228E+02 0.  0.
         12    1    1    2    0    0  0.37755998139E+01 -0.40512872839E+02  0.19327839955E+02  0.45045681446E+02  0.00000000000E+00 0. -1.
         11    1    3    3    0    0  0.20482418951E+01  0.16587744710E+02 -0.10169539476E+02  0.19564460198E+02  0.51100000000E-03 0. -1.
        -11    1    3    3    0    0  0.23774718557E+00  0.37338703063E+01 -0.44938989606E+00  0.37683235966E+01  0.51100000000E-03 0.  1.
        -12    1    3    3    0    0 -0.60615888946E+01  0.20191257823E+02 -0.87089105834E+01  0.22809534759E+02  0.00000000000E+00 0.  1.
</event>
<event>
 7    1  0.4623443E-009  0.4614232E+02  0.7816164E-02  0.1320468E+00
        -11   -1    0    0    0    0  0.00000000000E+00  0.00000000000E+00  0.45593999997E+02  0.45594000000E+02  0.51100000000E-03 0.  1.
         11   -1    0    0    0    0 -0.00000000000E+00 -0.00000000000E+00 -0.45593999997E+02  0.45594000000E+02  0.51100000000E-03 0. -1.
    9900012    2    1    2    0    0 -0.19857274526E+02 -0.38752981060E+02 -0.11532933248E+02  0.46142318276E+02  0.10000004695E+02 0.  0.
         12    1    1    2    0    0  0.19857274526E+02  0.38752981060E+02  0.11532933248E+02  0.45045681724E+02  0.00000000000E+00 0. -1.
         11    1    3    3    0    0  0.44842437300E+00 -0.39739560581E+01 -0.10416417070E+01  0.41326055796E+01  0.51100000000E-03 0. -1.
        -11    1    3    3    0    0 -0.11824552615E+02 -0.25495119250E+02 -0.73147345259E+01  0.29040084221E+02  0.51100000000E-03 0.  1.
         12    1    3    3    0    0 -0.84811462848E+01 -0.92839057521E+01 -0.31765570149E+01  0.12969628475E+02  0.00000000000E+00 0. -1.
</event>
<event>
 7    1  0.4623443E-009  0.4614232E+02  0.7816164E-02  0.1320468E+00
        -11   -1    0    0    0    0  0.00000000000E+00  0.00000000000E+00  0.45593999997E+02  0.45594000000E+02  0.51100000000E-03 0. -1.
         11   -1    0    0    0    0 -0.00000000000E+00 -0.00000000000E+00 -0.45593999997E+02  0.45594000000E+02  0.51100000000E-03 0.  1.
    9900012    2    1    2    0    0  0.10876462333E+02  0.36914054049E+02  0.23413001599E+02  0.46142318041E+02  0.10000002555E+02 0.  0.
        -12    1    1    2    0    0 -0.10876462333E+02 -0.36914054049E+02 -0.23413001599E+02  0.45045681959E+02  0.00000000000E+00 0.  1.
         11    1    3    3    0    0  0.34294923267E+00  0.30357996054E+01  0.29545897884E+01  0.42500934695E+01  0.51100000000E-03 0. -1.
        -11    1    3    3    0    0  0.11636294521E+02  0.32880482874E+02  0.18653456171E+02  0.39553519838E+02  0.51100000000E-03 0.  1.
         12    1    3    3    0    0 -0.11027814209E+01  0.99777156957E+00  0.18049556400E+01  0.23387047334E+01  0.00000000000E+00 0. -1.
</event>
<event>
 7    1  0.4623443E-009  0.4614232E+02  0.7816164E-02  0.1320468E+00
        -11   -1    0    0    0    0  0.00000000000E+00  0.00000000000E+00  0.45593999997E+02  0.45594000000E+02  0.51100000000E-03 0. -1.
         11   -1    0    0    0    0 -0.00000000000E+00 -0.00000000000E+00 -0.45593999997E+02  0.45594000000E+02  0.51100000000E-03 0.  1.
    9900012    2    1    2    0    0 -0.37081569804E+02  0.22831475545E+02 -0.11523644692E+02  0.46142317835E+02  0.10000000673E+02 0.  0.
         12    1    1    2    0    0  0.37081569804E+02 -0.22831475545E+02  0.11523644692E+02  0.45045682165E+02  0.00000000000E+00 0. -1.
         11    1    3    3    0    0 -0.15269707234E+02  0.42872106296E+01 -0.48024407201E+01  0.16571287552E+02  0.51100000000E-03 0. -1.
        -11    1    3    3    0    0 -0.13656811066E+01  0.10372886064E+01  0.32794104580E+00  0.17460235189E+01  0.51100000000E-03 0.  1.
        -12    1    3    3    0    0 -0.20446181464E+02  0.17506976309E+02 -0.70491450174E+01  0.27825006764E+02  0.00000000000E+00 0.  1.
</event>
<event>
 7    1  0.4623443E-009  0.4614232E+02  0.7816164E-02  0.1320468E+00
        -11   -1    0    0    0    0  0.00000000000E+00  0.00000000000E+00  0.45593999997E+02  0.45594000000E+02  0.51100000000E-03 0. -1.
         11   -1    0    0    0    0 -0.00000000000E+00 -0.00000000000E+00 -0.45593999997E+02  0.45594000000E+02  0.51100000000E-03 0.  1.
    9900012    2    1    2    0    0  0.35329996752E+02 -0.12482433224E+02 -0.25001869068E+02  0.46142320224E+02  0.10000022455E+02 0.  0.
         12    1    1    2    0    0 -0.35329996752E+02  0.12482433224E+02  0.25001869068E+02  0.45045679776E+02  0.00000000000E+00 0. -1.
         11    1    3    3    0    0  0.56344967135E+01  0.97460420508E+00 -0.25470970664E+01  0.62598011388E+01  0.51100000000E-03 0. -1.
        -11    1    3    3    0    0  0.12501210799E+02 -0.81999201125E+01 -0.93494271113E+01  0.17633228543E+02  0.51100000000E-03 0.  1.
        -12    1    3    3    0    0  0.17194289239E+02 -0.52571173161E+01 -0.13105344890E+02  0.22249290542E+02  0.00000000000E+00 0.  1.
</event>
<event>
 7    1  0.4623443E-009  0.4614232E+02  0.7816164E-02  0.1320468E+00
        -11   -1    0    0    0    0  0.00000000000E+00  0.00000000000E+00  0.45593999997E+02  0.45594000000E+02  0.51100000000E-03 0. -1.
         11   -1    0    0    0    0 -0.00000000000E+00 -0.00000000000E+00 -0.45593999997E+02  0.45594000000E+02  0.51100000000E-03 0.  1.
    9900012    2    1    2    0    0 -0.63322622646E+01  0.31846914888E+02  0.31221625329E+02  0.46142318504E+02  0.10000006774E+02 0.  0.
        -12    1    1    2    0    0  0.63322622646E+01 -0.31846914888E+02 -0.31221625329E+02  0.45045681496E+02  0.00000000000E+00 0.  1.
         11    1    3    3    0    0 -0.32727429840E+01  0.28694303500E+01  0.47155166847E+01  0.64172092874E+01  0.51100000000E-03 0. -1.
        -11    1    3    3    0    0 -0.29982553801E+01  0.71581523606E+01  0.73864988690E+01  0.10713965015E+02  0.51100000000E-03 0.  1.
        -12    1    3    3    0    0 -0.61263900468E-01  0.21819332177E+02  0.19119609775E+02  0.29011144201E+02  0.00000000000E+00 0.  1.
</event>
<event>
 7    1  0.4623443E-009  0.4614232E+02  0.7816164E-02  0.1320468E+00
        -11   -1    0    0    0    0  0.00000000000E+00  0.00000000000E+00  0.45593999997E+02  0.45594000000E+02  0.51100000000E-03 0. -1.
         11   -1    0    0    0    0 -0.00000000000E+00 -0.00000000000E+00 -0.45593999997E+02  0.45594000000E+02  0.51100000000E-03 0.  1.
    9900012    2    1    2    0    0 -0.30532207382E+02 -0.37277927194E+00  0.33117344922E+02  0.46142321110E+02  0.10000030541E+02 0.  0.
        -12    1    1    2    0    0  0.30532207382E+02  0.37277927194E+00 -0.33117344922E+02  0.45045678890E+02  0.00000000000E+00 0.  1.
         11    1    3    3    0    0 -0.11241918671E+02 -0.12794357565E+01  0.12111340456E+02  0.16574144297E+02  0.51100000000E-03 0. -1.
        -11    1    3    3    0    0 -0.65790490114E+01 -0.20741061396E+01  0.11528990179E+02  0.13435156008E+02  0.51100000000E-03 0.  1.
        -12    1    3    3    0    0 -0.12711239699E+02  0.29807626241E+01  0.94770142874E+01  0.16133020805E+02  0.00000000000E+00 0.  1.
</event>
<event>
 7    1  0.4623443E-009  0.4614232E+02  0.7816164E-02  0.1320468E+00
        -11   -1    0    0    0    0  0.00000000000E+00  0.00000000000E+00  0.45593999997E+02  0.45594000000E+02  0.51100000000E-03 0. -1.
         11   -1    0    0    0    0 -0.00000000000E+00 -0.00000000000E+00 -0.45593999997E+02  0.45594000000E+02  0.51100000000E-03 0.  1.
    9900012    2    1    2    0    0 -0.10719836866E+02  0.21411322345E+01 -0.43699128523E+02  0.46142321146E+02  0.10000030871E+02 0.  0.
         12    1    1    2    0    0  0.10719836866E+02 -0.21411322345E+01  0.43699128523E+02  0.45045678854E+02  0.00000000000E+00 0. -1.
         11    1    3    3    0    0 -0.26544671107E+01 -0.33194590919E+00 -0.47070969434E+01  0.54141615809E+01  0.51100000000E-03 0. -1.
        -11    1    3    3    0    0  0.14610733033E+01  0.16420761689E+01 -0.77062803810E+01  0.80136076092E+01  0.51100000000E-03 0.  1.
        -12    1    3    3    0    0 -0.95264430582E+01  0.83100197477E+00 -0.31285751199E+02  0.32714551956E+02  0.00000000000E+00 0.  1.
</event>
<event>
 7    1  0.4623443E-009  0.4614232E+02  0.7816164E-02  0.1320468E+00
        -11   -1    0    0    0    0  0.00000000000E+00  0.00000000000E+00  0.45593999997E+02  0.45594000000E+02  0.51100000000E-03 0. -1.
         11   -1    0    0    0    0 -0.00000000000E+00 -0.00000000000E+00 -0.45593999997E+02  0.45594000000E+02  0.51100000000E-03 0.  1.
    9900012    2    1    2    0    0  0.32475833863E+02  0.16048909717E+02 -0.26774355962E+02  0.46142318460E+02  0.10000006374E+02 0.  0.
         12    1    1    2    0    0 -0.32475833863E+02 -0.16048909717E+02  0.26774355962E+02  0.45045681540E+02  0.00000000000E+00 0. -1.
         11    1    3    3    0    0  0.19482898670E+02  0.80795720902E+01 -0.16427350632E+02  0.26734260318E+02  0.51100000000E-03 0. -1.
        -11    1    3    3    0    0  0.13327120712E+02  0.65281582467E+01 -0.99800715286E+01  0.17883814597E+02  0.51100000000E-03 0.  1.
         12    1    3    3    0    0 -0.33418551918E+00  0.14411793803E+01 -0.36693380188E+00  0.15242435443E+01  0.00000000000E+00 0. -1.
</event>
<event>
 7    1  0.4623443E-009  0.4614232E+02  0.7816164E-02  0.1320468E+00
        -11   -1    0    0    0    0  0.00000000000E+00  0.00000000000E+00  0.45593999997E+02  0.45594000000E+02  0.51100000000E-03 0. -1.
         11   -1    0    0    0    0 -0.00000000000E+00 -0.00000000000E+00 -0.45593999997E+02  0.45594000000E+02  0.51100000000E-03 0.  1.
    9900012    2    1    2    0    0  0.31742464428E+01 -0.40345489306E+02  0.19780777714E+02  0.46142317467E+02  0.99999973223E+01 0.  0.
        -12    1    1    2    0    0 -0.31742464428E+01  0.40345489306E+02 -0.19780777714E+02  0.45045682533E+02  0.00000000000E+00 0.  1.
         11    1    3    3    0    0  0.24015180831E+01 -0.11864987532E+02  0.69694564340E+01  0.13968483865E+02  0.51100000000E-03 0. -1.
        -11    1    3    3    0    0  0.22797654462E+01 -0.41162153852E+01  0.41436977097E+01  0.62698317806E+01  0.51100000000E-03 0.  1.
        -12    1    3    3    0    0 -0.15070370865E+01 -0.24364286389E+02  0.86676235706E+01  0.25904001822E+02  0.00000000000E+00 0.  1.
</event>
<event>
 7    1  0.4623443E-009  0.4614231E+02  0.7816164E-02  0.1320468E+00
        -11   -1    0    0    0    0  0.00000000000E+00  0.00000000000E+00  0.45593999997E+02  0.45594000000E+02  0.51100000000E-03 0.  1.
         11   -1    0    0    0    0 -0.00000000000E+00 -0.00000000000E+00 -0.45593999997E+02  0.45594000000E+02  0.51100000000E-03 0. -1.
    9900012    2    1    2    0    0 -0.20157768479E+02 -0.39465336268E+02  0.80787143399E+01  0.46142311836E+02  0.99999459680E+01 0.  0.
         12    1    1    2    0    0  0.20157768479E+02  0.39465336268E+02 -0.80787143399E+01  0.45045688164E+02  0.00000000000E+00 0. -1.
         11    1    3    3    0    0 -0.10564210213E+02 -0.18534199084E+02 -0.41076263923E+00  0.21337474061E+02  0.51100000000E-03 0.  1.
        -11    1    3    3    0    0 -0.96534110758E+01 -0.18541361447E+02  0.78611479087E+01  0.22333116137E+02  0.51100000000E-03 0. -1.
         12    1    3    3    0    0  0.59852809050E-01 -0.23897757365E+01  0.62832907048E+00  0.24717216369E+01  0.00000000000E+00 0. -1.
</event>
<event>
 7    1  0.4623443E-009  0.4614232E+02  0.7816164E-02  0.1320468E+00
        -11   -1    0    0    0    0  0.00000000000E+00  0.00000000000E+00  0.45593999997E+02  0.45594000000E+02  0.51100000000E-03 0. -1.
         11   -1    0    0    0    0 -0.00000000000E+00 -0.00000000000E+00 -0.45593999997E+02  0.45594000000E+02  0.51100000000E-03 0.  1.
    9900012    2    1    2    0    0  0.21574324282E+02 -0.33127750461E+02  0.21591991127E+02  0.46142318745E+02  0.10000008976E+02 0.  0.
        -12    1    1    2    0    0 -0.21574324282E+02  0.33127750461E+02 -0.21591991127E+02  0.45045681255E+02  0.00000000000E+00 0.  1.
         11    1    3    3    0    0  0.11616410893E+02 -0.15552090596E+02  0.62466175120E+01  0.20391879623E+02  0.51100000000E-03 0.  1.
        -11    1    3    3    0    0 -0.41931718268E-01 -0.26672636430E+01  0.13606347082E+01  0.29945585118E+01  0.51100000000E-03 0. -1.
         12    1    3    3    0    0  0.99998451075E+01 -0.14908396222E+02  0.13984738906E+02  0.22755880611E+02  0.00000000000E+00 0. -1.
</event>
<event>
 7    1  0.4623443E-009  0.4614232E+02  0.7816164E-02  0.1320468E+00
        -11   -1    0    0    0    0  0.00000000000E+00  0.00000000000E+00  0.45593999997E+02  0.45594000000E+02  0.51100000000E-03 0. -1.
         11   -1    0    0    0    0 -0.00000000000E+00 -0.00000000000E+00 -0.45593999997E+02  0.45594000000E+02  0.51100000000E-03 0.  1.
    9900012    2    1    2    0    0 -0.18888582223E+02  0.28665536469E+02  0.29165424234E+02  0.46142317741E+02  0.99999998126E+01 0.  0.
        -12    1    1    2    0    0  0.18888582223E+02 -0.28665536469E+02 -0.29165424234E+02  0.45045682259E+02  0.00000000000E+00 0.  1.
         11    1    3    3    0    0 -0.65168204275E+01  0.15777548735E+02  0.14433934756E+02  0.22354830918E+02  0.51100000000E-03 0. -1.
        -11    1    3    3    0    0 -0.13642899096E+01 -0.40019753212E+00  0.11246848218E+01  0.18128323783E+01  0.51100000000E-03 0.  1.
        -12    1    3    3    0    0 -0.11007471886E+02  0.13288185266E+02  0.13606804657E+02  0.21974654444E+02  0.00000000000E+00 0.  1.
</event>
<event>
 7    1  0.4623443E-009  0.4614232E+02  0.7816164E-02  0.1320468E+00
        -11   -1    0    0    0    0  0.00000000000E+00  0.00000000000E+00  0.45593999997E+02  0.45594000000E+02  0.51100000000E-03 0. -1.
         11   -1    0    0    0    0 -0.00000000000E+00 -0.00000000000E+00 -0.45593999997E+02  0.45594000000E+02  0.51100000000E-03 0.  1.
    9900012    2    1    2    0    0 -0.90091943554E+01  0.39548610980E+02 -0.19592218168E+02  0.46142320672E+02  0.10000026540E+02 0.  0.
         12    1    1    2    0    0  0.90091943554E+01 -0.39548610980E+02  0.19592218168E+02  0.45045679328E+02  0.00000000000E+00 0. -1.
         11    1    3    3    0    0 -0.94033139942E+01  0.27980887032E+02 -0.12140729695E+02  0.31917858182E+02  0.51100000000E-03 0. -1.
        -11    1    3    3    0    0 -0.65274476103E+00  0.60328603617E+01 -0.20096251556E+01  0.63921884667E+01  0.51100000000E-03 0.  1.
        -12    1    3    3    0    0  0.10468643998E+01  0.55348635868E+01 -0.54418633175E+01  0.78322740225E+01  0.00000000000E+00 0.  1.
</event>
<event>
 7    1  0.4623443E-009  0.4614232E+02  0.7816164E-02  0.1320468E+00
        -11   -1    0    0    0    0  0.00000000000E+00  0.00000000000E+00  0.45593999997E+02  0.45594000000E+02  0.51100000000E-03 0. -1.
         11   -1    0    0    0    0 -0.00000000000E+00 -0.00000000000E+00 -0.45593999997E+02  0.45594000000E+02  0.51100000000E-03 0.  1.
    9900012    2    1    2    0    0  0.49375193524E+01 -0.30646953211E+01  0.44669254027E+02  0.46142315300E+02  0.99999775573E+01 0.  0.
        -12    1    1    2    0    0 -0.49375193524E+01  0.30646953211E+01 -0.44669254027E+02  0.45045684700E+02  0.00000000000E+00 0.  1.
         11    1    3    3    0    0  0.17305150250E+01 -0.25230203774E+01  0.17448643370E+02  0.17714837561E+02  0.51100000000E-03 0. -1.
        -11    1    3    3    0    0  0.37059036571E+01  0.29020567366E+01  0.16284480936E+02  0.16951105416E+02  0.51100000000E-03 0.  1.
        -12    1    3    3    0    0 -0.49889932972E+00 -0.34437316804E+01  0.10936129721E+02  0.11476372323E+02  0.00000000000E+00 0.  1.
</event>
<event>
 7    1  0.4623443E-009  0.4614232E+02  0.7816164E-02  0.1320468E+00
        -11   -1    0    0    0    0  0.00000000000E+00  0.00000000000E+00  0.45593999997E+02  0.45594000000E+02  0.51100000000E-03 0. -1.
         11   -1    0    0    0    0 -0.00000000000E+00 -0.00000000000E+00 -0.45593999997E+02  0.45594000000E+02  0.51100000000E-03 0.  1.
    9900012    2    1    2    0    0 -0.24234747803E+01 -0.24882008678E+02  0.37471667558E+02  0.46142318127E+02  0.10000003336E+02 0.  0.
        -12    1    1    2    0    0  0.24234747803E+01  0.24882008678E+02 -0.37471667558E+02  0.45045681873E+02  0.00000000000E+00 0.  1.
         11    1    3    3    0    0  0.14596560599E+01 -0.10159652787E+02  0.20230302033E+02  0.22685111002E+02  0.51100000000E-03 0. -1.
        -11    1    3    3    0    0 -0.24202454288E+00 -0.12419343765E+01 -0.68408681079E-02  0.12653157446E+01  0.51100000000E-03 0.  1.
         12    1    3    3    0    0 -0.36411062974E+01 -0.13480421514E+02  0.17248206392E+02  0.22191891380E+02  0.00000000000E+00 0. -1.
</event>
<event>
 7    1  0.4623443E-009  0.4614232E+02  0.7816164E-02  0.1320468E+00
        -11   -1    0    0    0    0  0.00000000000E+00  0.00000000000E+00  0.45593999997E+02  0.45594000000E+02  0.51100000000E-03 0. -1.
         11   -1    0    0    0    0 -0.00000000000E+00 -0.00000000000E+00 -0.45593999997E+02  0.45594000000E+02  0.51100000000E-03 0.  1.
    9900012    2    1    2    0    0  0.37140156901E+02  0.11863055333E+02  0.22560812030E+02  0.46142316790E+02  0.99999911403E+01 0.  0.
        -12    1    1    2    0    0 -0.37140156901E+02 -0.11863055333E+02 -0.22560812030E+02  0.45045683210E+02  0.00000000000E+00 0.  1.
         11    1    3    3    0    0  0.21861707684E+02  0.52922706128E+01  0.16344143238E+02  0.27804197696E+02  0.51100000000E-03 0. -1.
        -11    1    3    3    0    0  0.96739070969E+01  0.55806701167E+01  0.59172587679E+01  0.12638920407E+02  0.51100000000E-03 0.  1.
        -12    1    3    3    0    0  0.56045421196E+01  0.99011460352E+00  0.29941002439E+00  0.56991986859E+01  0.00000000000E+00 0.  1.
</event>
<event>
 7    1  0.4623443E-009  0.4614232E+02  0.7816164E-02  0.1320468E+00
        -11   -1    0    0    0    0  0.00000000000E+00  0.00000000000E+00  0.45593999997E+02  0.45594000000E+02  0.51100000000E-03 0. -1.
         11   -1    0    0    0    0 -0.00000000000E+00 -0.00000000000E+00 -0.45593999997E+02  0.45594000000E+02  0.51100000000E-03 0.  1.
    9900012    2    1    2    0    0 -0.32079575795E+02  0.11578875667E+02 -0.29426924917E+02  0.46142318132E+02  0.10000003383E+02 0.  0.
         12    1    1    2    0    0  0.32079575795E+02 -0.11578875667E+02  0.29426924917E+02  0.45045681868E+02  0.00000000000E+00 0. -1.
         11    1    3    3    0    0 -0.38050091275E+01 -0.69717269026E+00 -0.59931250012E+01  0.71331403857E+01  0.51100000000E-03 0. -1.
        -11    1    3    3    0    0 -0.28230539261E+02  0.12048489295E+02 -0.23604918945E+02  0.38721074880E+02  0.51100000000E-03 0.  1.
        -12    1    3    3    0    0 -0.44027406400E-01  0.22755906230E+00  0.17111902889E+00  0.28810286600E+00  0.00000000000E+00 0.  1.
</event>
<event>
 7    1  0.4623443E-009  0.4614232E+02  0.7816164E-02  0.1320468E+00
        -11   -1    0    0    0    0  0.00000000000E+00  0.00000000000E+00  0.45593999997E+02  0.45594000000E+02  0.51100000000E-03 0. -1.
         11   -1    0    0    0    0 -0.00000000000E+00 -0.00000000000E+00 -0.45593999997E+02  0.45594000000E+02  0.51100000000E-03 0.  1.
    9900012    2    1    2    0    0 -0.14762505093E+01 -0.12820619003E+02 -0.43157454641E+02  0.46142317873E+02  0.10000001021E+02 0.  0.
         12    1    1    2    0    0  0.14762505093E+01  0.12820619003E+02  0.43157454641E+02  0.45045682127E+02  0.00000000000E+00 0. -1.
         11    1    3    3    0    0 -0.65526036874E-01 -0.21190698861E+01 -0.14015471388E+01  0.25414730940E+01  0.51100000000E-03 0. -1.
        -11    1    3    3    0    0 -0.68091378345E+00 -0.10377766519E+02 -0.28798656850E+02  0.30619018896E+02  0.51100000000E-03 0.  1.
         12    1    3    3    0    0 -0.72981068902E+00 -0.32378259832E+00 -0.12957250652E+02  0.12981825883E+02  0.00000000000E+00 0. -1.
</event>
<event>
 7    1  0.4623443E-009  0.4614232E+02  0.7816164E-02  0.1320468E+00
        -11   -1    0    0    0    0  0.00000000000E+00  0.00000000000E+00  0.45593999997E+02  0.45594000000E+02  0.51100000000E-03 0. -1.
         11   -1    0    0    0    0 -0.00000000000E+00 -0.00000000000E+00 -0.45593999997E+02  0.45594000000E+02  0.51100000000E-03 0.  1.
    9900012    2    1    2    0    0  0.11986478413E+02  0.65371327678E+01 -0.42926725609E+02  0.46142317176E+02  0.99999946672E+01 0.  0.
         12    1    1    2    0    0 -0.11986478413E+02 -0.65371327678E+01  0.42926725609E+02  0.45045682824E+02  0.00000000000E+00 0. -1.
         11    1    3    3    0    0  0.19895316615E+01 -0.18255424033E+01 -0.32668002600E+01  0.42382573657E+01  0.51100000000E-03 0. -1.
        -11    1    3    3    0    0  0.35337079574E+01  0.28337681809E+01 -0.88519417425E+01  0.99435510208E+01  0.51100000000E-03 0.  1.
        -12    1    3    3    0    0  0.64632387939E+01  0.55289069901E+01 -0.30807983606E+02  0.31960508790E+02  0.00000000000E+00 0.  1.
</event>
<event>
 7    1  0.4623443E-009  0.4614232E+02  0.7816164E-02  0.1320468E+00
        -11   -1    0    0    0    0  0.00000000000E+00  0.00000000000E+00  0.45593999997E+02  0.45594000000E+02  0.51100000000E-03 0. -1.
         11   -1    0    0    0    0 -0.00000000000E+00 -0.00000000000E+00 -0.45593999997E+02  0.45594000000E+02  0.51100000000E-03 0.  1.
    9900012    2    1    2    0    0  0.42622201497E+01  0.57606839053E+01  0.44472029775E+02  0.46142318387E+02  0.10000005704E+02 0.  0.
        -12    1    1    2    0    0 -0.42622201497E+01 -0.57606839053E+01 -0.44472029775E+02  0.45045681613E+02  0.00000000000E+00 0.  1.
         11    1    3    3    0    0  0.36415680147E+01  0.18430772640E+01  0.73641653767E+01  0.84195536320E+01  0.51100000000E-03 0. -1.
        -11    1    3    3    0    0  0.19939826423E+01 -0.11394520983E+00  0.59759133924E+01  0.63008325976E+01  0.51100000000E-03 0.  1.
        -12    1    3    3    0    0 -0.13733305074E+01  0.40315518511E+01  0.31131951006E+02  0.31421932157E+02  0.00000000000E+00 0.  1.
</event>
<event>
 7    1  0.4623443E-009  0.4614232E+02  0.7816164E-02  0.1320468E+00
        -11   -1    0    0    0    0  0.00000000000E+00  0.00000000000E+00  0.45593999997E+02  0.45594000000E+02  0.51100000000E-03 0. -1.
         11   -1    0    0    0    0 -0.00000000000E+00 -0.00000000000E+00 -0.45593999997E+02  0.45594000000E+02  0.51100000000E-03 0.  1.
    9900012    2    1    2    0    0 -0.29050019527E+02  0.20137301030E+02  0.27923090845E+02  0.46142317304E+02  0.99999958287E+01 0.  0.
        -12    1    1    2    0    0  0.29050019527E+02 -0.20137301030E+02 -0.27923090845E+02  0.45045682696E+02  0.00000000000E+00 0.  1.
         11    1    3    3    0    0 -0.12963036679E+02  0.14576254312E+02  0.14627285702E+02  0.24381652876E+02  0.51100000000E-03 0. -1.
        -11    1    3    3    0    0 -0.16521460120E+01  0.82153163636E+00  0.53904652905E+00  0.19222570318E+01  0.51100000000E-03 0.  1.
        -12    1    3    3    0    0 -0.14434836835E+02  0.47395150817E+01  0.12756758614E+02  0.19838407396E+02  0.00000000000E+00 0.  1.
</event>
<event>
 7    1  0.4623443E-009  0.4614232E+02  0.7816164E-02  0.1320468E+00
        -11   -1    0    0    0    0  0.00000000000E+00  0.00000000000E+00  0.45593999997E+02  0.45594000000E+02  0.51100000000E-03 0. -1.
         11   -1    0    0    0    0 -0.00000000000E+00 -0.00000000000E+00 -0.45593999997E+02  0.45594000000E+02  0.51100000000E-03 0.  1.
    9900012    2    1    2    0    0 -0.27327667655E+01  0.23260561679E+02 -0.38478457089E+02  0.46142318700E+02  0.10000008565E+02 0.  0.
         12    1    1    2    0    0  0.27327667655E+01 -0.23260561679E+02  0.38478457089E+02  0.45045681300E+02  0.00000000000E+00 0. -1.
         11    1    3    3    0    0  0.11576310108E+01  0.54226581301E+00 -0.31405643391E+01  0.33907678184E+01  0.51100000000E-03 0. -1.
        -11    1    3    3    0    0 -0.50639607086E+01  0.22104625390E+02 -0.32619098519E+02  0.39727367773E+02  0.51100000000E-03 0.  1.
        -12    1    3    3    0    0  0.11735629323E+01  0.61367047523E+00 -0.27187942308E+01  0.30241831091E+01  0.00000000000E+00 0.  1.
</event>
<event>
 7    1  0.6748620E-009  0.4614232E+02  0.7816164E-02  0.1320468E+00
        -11   -1    0    0    0    0  0.00000000000E+00  0.00000000000E+00  0.45593999997E+02  0.45594000000E+02  0.51100000000E-03 0. -1.
         11   -1    0    0    0    0 -0.00000000000E+00 -0.00000000000E+00 -0.45593999997E+02  0.45594000000E+02  0.51100000000E-03 0.  1.
    9900012    2    1    2    0    0 -0.91990203578E+01 -0.30166480216E+02 -0.32163254037E+02  0.46142318582E+02  0.10000007486E+02 0.  0.
         12    1    1    2    0    0  0.91990203578E+01  0.30166480216E+02  0.32163254037E+02  0.45045681418E+02  0.00000000000E+00 0. -1.
         11    1    3    3    0    0 -0.13977130789E+01 -0.10197714372E+02 -0.87902611242E+01  0.13535718347E+02  0.51100000000E-03 0.  1.
        -11    1    3    3    0    0 -0.32709439255E+01 -0.16991200217E+02 -0.17361740223E+02  0.24511833526E+02  0.51100000000E-03 0. -1.
         12    1    3    3    0    0 -0.45303633534E+01 -0.29775656263E+01 -0.60112526901E+01  0.80947667092E+01  0.00000000000E+00 0. -1.
</event>
<event>
 7    1  0.4623443E-009  0.4614232E+02  0.7816164E-02  0.1320468E+00
        -11   -1    0    0    0    0  0.00000000000E+00  0.00000000000E+00  0.45593999997E+02  0.45594000000E+02  0.51100000000E-03 0. -1.
         11   -1    0    0    0    0 -0.00000000000E+00 -0.00000000000E+00 -0.45593999997E+02  0.45594000000E+02  0.51100000000E-03 0.  1.
    9900012    2    1    2    0    0 -0.47274407808E+00 -0.23679912178E+02 -0.38316468773E+02  0.46142317555E+02  0.99999981186E+01 0.  0.
         12    1    1    2    0    0  0.47274407808E+00  0.23679912178E+02  0.38316468773E+02  0.45045682445E+02  0.00000000000E+00 0. -1.
         11    1    3    3    0    0 -0.33669196216E+01 -0.20338459143E+02 -0.33481201263E+02  0.39318950982E+02  0.51100000000E-03 0.  1.
        -11    1    3    3    0    0  0.81368525127E+00 -0.17388315223E+00 -0.17456908773E+01  0.19338448591E+01  0.51100000000E-03 0. -1.
        -12    1    3    3    0    0  0.20804902923E+01 -0.31675698832E+01 -0.30895766326E+01  0.48895217139E+01  0.00000000000E+00 0.  1.
</event>
<event>
 7    1  0.4623443E-009  0.4614232E+02  0.7816164E-02  0.1320468E+00
        -11   -1    0    0    0    0  0.00000000000E+00  0.00000000000E+00  0.45593999997E+02  0.45594000000E+02  0.51100000000E-03 0. -1.
         11   -1    0    0    0    0 -0.00000000000E+00 -0.00000000000E+00 -0.45593999997E+02  0.45594000000E+02  0.51100000000E-03 0.  1.
    9900012    2    1    2    0    0 -0.24906805639E+02 -0.26185121398E+02 -0.26890590771E+02  0.46142318500E+02  0.10000006740E+02 0.  0.
         12    1    1    2    0    0  0.24906805639E+02  0.26185121398E+02  0.26890590771E+02  0.45045681500E+02  0.00000000000E+00 0. -1.
         11    1    3    3    0    0  0.46541127761E+00 -0.57816975328E+00 -0.19517211650E+00  0.76745054376E+00  0.51100000000E-03 0. -1.
        -11    1    3    3    0    0 -0.65144587368E+01 -0.10243422923E+02 -0.65622606029E+01  0.13799606889E+02  0.51100000000E-03 0.  1.
        -12    1    3    3    0    0 -0.18857758180E+02 -0.15363528722E+02 -0.20133158051E+02  0.31575261068E+02  0.00000000000E+00 0.  1.
</event>
<event>
 7    1  0.4623443E-009  0.4614232E+02  0.7816164E-02  0.1320468E+00
        -11   -1    0    0    0    0  0.00000000000E+00  0.00000000000E+00  0.45593999997E+02  0.45594000000E+02  0.51100000000E-03 0. -1.
         11   -1    0    0    0    0 -0.00000000000E+00 -0.00000000000E+00 -0.45593999997E+02  0.45594000000E+02  0.51100000000E-03 0.  1.
    9900012    2    1    2    0    0  0.34846159382E+02  0.21073323635E+02  0.19255485644E+02  0.46142317409E+02  0.99999967892E+01 0.  0.
        -12    1    1    2    0    0 -0.34846159382E+02 -0.21073323635E+02 -0.19255485644E+02  0.45045682591E+02  0.00000000000E+00 0.  1.
         11    1    3    3    0    0  0.82718895097E+01  0.54534729337E+01  0.84736766813E+01  0.13037166865E+02  0.51100000000E-03 0. -1.
        -11    1    3    3    0    0  0.13490761545E+02  0.59703117019E+01  0.73810160127E+01  0.16496201578E+02  0.51100000000E-03 0.  1.
        -12    1    3    3    0    0  0.13083508328E+02  0.96495389998E+01  0.34007929500E+01  0.16608948966E+02  0.00000000000E+00 0.  1.
</event>
<event>
 7    1  0.4623443E-009  0.4614232E+02  0.7816164E-02  0.1320468E+00
        -11   -1    0    0    0    0  0.00000000000E+00  0.00000000000E+00  0.45593999997E+02  0.45594000000E+02  0.51100000000E-03 0. -1.
         11   -1    0    0    0    0 -0.00000000000E+00 -0.00000000000E+00 -0.45593999997E+02  0.45594000000E+02  0.51100000000E-03 0.  1.
    9900012    2    1    2    0    0 -0.20685557491E+02 -0.18718476324E+02  0.35367217297E+02  0.46142315369E+02  0.99999781838E+01 0.  0.
        -12    1    1    2    0    0  0.20685557491E+02  0.18718476324E+02 -0.35367217297E+02  0.45045684631E+02  0.00000000000E+00 0.  1.
         11    1    3    3    0    0 -0.89483249189E+01 -0.31428849699E+01  0.11279282317E+02  0.14736772192E+02  0.51100000000E-03 0. -1.
        -11    1    3    3    0    0 -0.74836971356E+01 -0.10879721342E+02  0.12419176156E+02  0.18127603150E+02  0.51100000000E-03 0.  1.
         12    1    3    3    0    0 -0.42535354361E+01 -0.46958700119E+01  0.11668758824E+02  0.13277940027E+02  0.00000000000E+00 0. -1.
</event>
<event>
 7    1  0.4623443E-009  0.4614232E+02  0.7816164E-02  0.1320468E+00
        -11   -1    0    0    0    0  0.00000000000E+00  0.00000000000E+00  0.45593999997E+02  0.45594000000E+02  0.51100000000E-03 0. -1.
         11   -1    0    0    0    0 -0.00000000000E+00 -0.00000000000E+00 -0.45593999997E+02  0.45594000000E+02  0.51100000000E-03 0.  1.
    9900012    2    1    2    0    0  0.11675510100E+02 -0.74790760428E+01 -0.42858596538E+02  0.46142318612E+02  0.10000007756E+02 0.  0.
         12    1    1    2    0    0 -0.11675510100E+02  0.74790760428E+01  0.42858596538E+02  0.45045681388E+02  0.00000000000E+00 0. -1.
         11    1    3    3    0    0 -0.11760791707E+01  0.24049580983E+00 -0.51239821748E+01  0.52627173627E+01  0.51100000000E-03 0. -1.
        -11    1    3    3    0    0  0.96519019951E+00 -0.11789845222E+01 -0.13066639091E+01  0.20072288004E+01  0.51100000000E-03 0.  1.
        -12    1    3    3    0    0  0.11886399071E+02 -0.65405873305E+01 -0.36427950454E+02  0.38872372449E+02  0.00000000000E+00 0.  1.
</event>
<event>
 7    1  0.4623443E-009  0.4614232E+02  0.7816164E-02  0.1320468E+00
        -11   -1    0    0    0    0  0.00000000000E+00  0.00000000000E+00  0.45593999997E+02  0.45594000000E+02  0.51100000000E-03 0. -1.
         11   -1    0    0    0    0 -0.00000000000E+00 -0.00000000000E+00 -0.45593999997E+02  0.45594000000E+02  0.51100000000E-03 0.  1.
    9900012    2    1    2    0    0 -0.37487492010E+02 -0.24673880339E+02  0.38731241246E+01  0.46142317425E+02  0.99999969322E+01 0.  0.
         12    1    1    2    0    0  0.37487492010E+02  0.24673880339E+02 -0.38731241246E+01  0.45045682575E+02  0.00000000000E+00 0. -1.
         11    1    3    3    0    0 -0.24344737035E+02 -0.16870652358E+02  0.37549350539E+01  0.29856065880E+02  0.51100000000E-03 0. -1.
        -11    1    3    3    0    0 -0.75431116694E+01 -0.72290532416E+01 -0.11656967172E+01  0.10512687265E+02  0.51100000000E-03 0.  1.
        -12    1    3    3    0    0 -0.55996433053E+01 -0.57417473910E+00  0.12838857879E+01  0.57735642799E+01  0.00000000000E+00 0.  1.
</event>
<event>
 7    1  0.4623443E-009  0.4614232E+02  0.7816164E-02  0.1320468E+00
        -11   -1    0    0    0    0  0.00000000000E+00  0.00000000000E+00  0.45593999997E+02  0.45594000000E+02  0.51100000000E-03 0. -1.
         11   -1    0    0    0    0 -0.00000000000E+00 -0.00000000000E+00 -0.45593999997E+02  0.45594000000E+02  0.51100000000E-03 0.  1.
    9900012    2    1    2    0    0 -0.13766131845E+02  0.12233039304E+02  0.41109120965E+02  0.46142318041E+02  0.10000002554E+02 0.  0.
        -12    1    1    2    0    0  0.13766131845E+02 -0.12233039304E+02 -0.41109120965E+02  0.45045681959E+02  0.00000000000E+00 0.  1.
         11    1    3    3    0    0 -0.19286555623E+01  0.12541821674E+01  0.14069892929E+02  0.14256737792E+02  0.51100000000E-03 0. -1.
        -11    1    3    3    0    0 -0.62213149489E+00 -0.43884799259E+00  0.22816736149E+01  0.24053419515E+01  0.51100000000E-03 0.  1.
        -12    1    3    3    0    0 -0.11215344788E+02  0.11417705129E+02  0.24757554422E+02  0.29480238297E+02  0.00000000000E+00 0.  1.
</event>
<event>
 7    1  0.4623443E-009  0.4614232E+02  0.7816164E-02  0.1320468E+00
        -11   -1    0    0    0    0  0.00000000000E+00  0.00000000000E+00  0.45593999997E+02  0.45594000000E+02  0.51100000000E-03 0. -1.
         11   -1    0    0    0    0 -0.00000000000E+00 -0.00000000000E+00 -0.45593999997E+02  0.45594000000E+02  0.51100000000E-03 0.  1.
    9900012    2    1    2    0    0 -0.11846758110E+02  0.15864966587E+02 -0.40460731677E+02  0.46142315963E+02  0.99999836043E+01 0.  0.
         12    1    1    2    0    0  0.11846758110E+02 -0.15864966587E+02  0.40460731677E+02  0.45045684037E+02  0.00000000000E+00 0. -1.
         11    1    3    3    0    0 -0.26096142597E+01 -0.36988514738E+00 -0.91320824094E+01  0.95048319817E+01  0.51100000000E-03 0. -1.
        -11    1    3    3    0    0 -0.33165833777E+01  0.41955663356E+01 -0.11669460037E+02  0.12836619492E+02  0.51100000000E-03 0.  1.
        -12    1    3    3    0    0 -0.59205604728E+01  0.12039285399E+02 -0.19659189230E+02  0.23800864489E+02  0.00000000000E+00 0.  1.
</event>
<event>
 7    1  0.4623443E-009  0.4614232E+02  0.7816164E-02  0.1320468E+00
        -11   -1    0    0    0    0  0.00000000000E+00  0.00000000000E+00  0.45593999997E+02  0.45594000000E+02  0.51100000000E-03 0.  1.
         11   -1    0    0    0    0 -0.00000000000E+00 -0.00000000000E+00 -0.45593999997E+02  0.45594000000E+02  0.51100000000E-03 0. -1.
    9900012    2    1    2    0    0 -0.76354606771E+01 -0.42582312535E+02 -0.12552289413E+02  0.46142316854E+02  0.99999917309E+01 0.  0.
        -12    1    1    2    0    0  0.76354606771E+01  0.42582312535E+02  0.12552289413E+02  0.45045683146E+02  0.00000000000E+00 0.  1.
         11    1    3    3    0    0 -0.43347022910E+01 -0.24533083488E+02 -0.95918285829E+01  0.26695786282E+02  0.51100000000E-03 0. -1.
        -11    1    3    3    0    0 -0.75344762846E-03 -0.90641473146E+01 -0.38197376299E+01  0.98361152357E+01  0.51100000000E-03 0.  1.
        -12    1    3    3    0    0 -0.33000049384E+01 -0.89850817324E+01  0.85927679961E+00  0.96104153370E+01  0.00000000000E+00 0.  1.
</event>
<event>
 7    1  0.4623443E-009  0.4614232E+02  0.7816164E-02  0.1320468E+00
        -11   -1    0    0    0    0  0.00000000000E+00  0.00000000000E+00  0.45593999997E+02  0.45594000000E+02  0.51100000000E-03 0. -1.
         11   -1    0    0    0    0 -0.00000000000E+00 -0.00000000000E+00 -0.45593999997E+02  0.45594000000E+02  0.51100000000E-03 0.  1.
    9900012    2    1    2    0    0 -0.15342293067E+02  0.35360933890E+02  0.23309479960E+02  0.46142318096E+02  0.10000003058E+02 0.  0.
        -12    1    1    2    0    0  0.15342293067E+02 -0.35360933890E+02 -0.23309479960E+02  0.45045681904E+02  0.00000000000E+00 0.  1.
         11    1    3    3    0    0  0.69846114569E+00  0.54012492115E+01  0.34075683310E+01  0.64243959412E+01  0.51100000000E-03 0.  1.
        -11    1    3    3    0    0 -0.31383204310E+01  0.91522959876E+01  0.76846934941E+01  0.12355892980E+02  0.51100000000E-03 0. -1.
         12    1    3    3    0    0 -0.12902433782E+02  0.20807388691E+02  0.12217218135E+02  0.27362029175E+02  0.00000000000E+00 0. -1.
</event>
<event>
 7    1  0.4623443E-009  0.4614232E+02  0.7816164E-02  0.1320468E+00
        -11   -1    0    0    0    0  0.00000000000E+00  0.00000000000E+00  0.45593999997E+02  0.45594000000E+02  0.51100000000E-03 0. -1.
         11   -1    0    0    0    0 -0.00000000000E+00 -0.00000000000E+00 -0.45593999997E+02  0.45594000000E+02  0.51100000000E-03 0.  1.
    9900012    2    1    2    0    0  0.10192221944E+02 -0.18305937183E+01 -0.43839263063E+02  0.46142318215E+02  0.10000004142E+02 0.  0.
         12    1    1    2    0    0 -0.10192221944E+02  0.18305937183E+01  0.43839263063E+02  0.45045681785E+02  0.00000000000E+00 0. -1.
         11    1    3    3    0    0  0.39492824770E+01 -0.22080727904E+01 -0.28663930007E+02  0.29018843899E+02  0.51100000000E-03 0. -1.
        -11    1    3    3    0    0  0.16487302821E+01 -0.20386934348E+01 -0.65688748379E+01  0.70728141048E+01  0.51100000000E-03 0.  1.
         12    1    3    3    0    0  0.45942091854E+01  0.24161725069E+01 -0.86064582180E+01  0.10050660211E+02  0.00000000000E+00 0. -1.
</event>
<event>
 7    1  0.4623443E-009  0.4614232E+02  0.7816164E-02  0.1320468E+00
        -11   -1    0    0    0    0  0.00000000000E+00  0.00000000000E+00  0.45593999997E+02  0.45594000000E+02  0.51100000000E-03 0. -1.
         11   -1    0    0    0    0 -0.00000000000E+00 -0.00000000000E+00 -0.45593999997E+02  0.45594000000E+02  0.51100000000E-03 0.  1.
    9900012    2    1    2    0    0  0.26261566734E+02  0.36267455140E+02 -0.49107358734E+01  0.46142317450E+02  0.99999971587E+01 0.  0.
         12    1    1    2    0    0 -0.26261566734E+02 -0.36267455140E+02  0.49107358734E+01  0.45045682550E+02  0.00000000000E+00 0. -1.
         11    1    3    3    0    0  0.11647488033E+02  0.17546443257E+02  0.25774956622E+01  0.21217566604E+02  0.51100000000E-03 0. -1.
        -11    1    3    3    0    0  0.18987016173E+01  0.26243603081E+01 -0.66526317474E+00  0.33067975764E+01  0.51100000000E-03 0.  1.
         12    1    3    3    0    0  0.12715377084E+02  0.16096651574E+02 -0.68229683609E+01  0.21617953269E+02  0.00000000000E+00 0. -1.
</event>
<event>
 7    1  0.4623443E-009  0.4614232E+02  0.7816164E-02  0.1320468E+00
        -11   -1    0    0    0    0  0.00000000000E+00  0.00000000000E+00  0.45593999997E+02  0.45594000000E+02  0.51100000000E-03 0. -1.
         11   -1    0    0    0    0 -0.00000000000E+00 -0.00000000000E+00 -0.45593999997E+02  0.45594000000E+02  0.51100000000E-03 0.  1.
    9900012    2    1    2    0    0  0.44059506122E+02  0.80938647627E+01 -0.47289427045E+01  0.46142316238E+02  0.99999861095E+01 0.  0.
         12    1    1    2    0    0 -0.44059506122E+02 -0.80938647627E+01  0.47289427045E+01  0.45045683762E+02  0.00000000000E+00 0. -1.
         11    1    3    3    0    0  0.14237189306E+02  0.52897352234E+00 -0.37720997096E+01  0.14737913991E+02  0.51100000000E-03 0.  1.
        -11    1    3    3    0    0  0.18229315210E+02  0.19437045747E+01 -0.21834909582E+01  0.18462219626E+02  0.51100000000E-03 0. -1.
         12    1    3    3    0    0  0.11593001606E+02  0.56211866656E+01  0.12266479633E+01  0.12942182621E+02  0.00000000000E+00 0. -1.
</event>
<event>
 7    1  0.4623443E-009  0.4614232E+02  0.7816164E-02  0.1320468E+00
        -11   -1    0    0    0    0  0.00000000000E+00  0.00000000000E+00  0.45593999997E+02  0.45594000000E+02  0.51100000000E-03 0. -1.
         11   -1    0    0    0    0 -0.00000000000E+00 -0.00000000000E+00 -0.45593999997E+02  0.45594000000E+02  0.51100000000E-03 0.  1.
    9900012    2    1    2    0    0  0.21028366077E+01  0.38571232678E+02  0.23172216183E+02  0.46142317466E+02  0.99999973105E+01 0.  0.
        -12    1    1    2    0    0 -0.21028366077E+01 -0.38571232678E+02 -0.23172216183E+02  0.45045682534E+02  0.00000000000E+00 0.  1.
         11    1    3    3    0    0  0.35724661576E+01  0.15605695907E+02  0.12917803980E+02  0.20571094261E+02  0.51100000000E-03 0. -1.
        -11    1    3    3    0    0 -0.38366400522E+00  0.23869183623E+01  0.26968906043E+01  0.36218498768E+01  0.51100000000E-03 0.  1.
         12    1    3    3    0    0 -0.10859655447E+01  0.20578618409E+02  0.75575215996E+01  0.21949373328E+02  0.00000000000E+00 0. -1.
</event>
<event>
 7    1  0.4623443E-009  0.4614232E+02  0.7816164E-02  0.1320468E+00
        -11   -1    0    0    0    0  0.00000000000E+00  0.00000000000E+00  0.45593999997E+02  0.45594000000E+02  0.51100000000E-03 0. -1.
         11   -1    0    0    0    0 -0.00000000000E+00 -0.00000000000E+00 -0.45593999997E+02  0.45594000000E+02  0.51100000000E-03 0.  1.
    9900012    2    1    2    0    0 -0.44620665919E+02 -0.46039463955E+01 -0.41125816699E+01  0.46142317882E+02  0.10000001100E+02 0.  0.
         12    1    1    2    0    0  0.44620665919E+02  0.46039463955E+01  0.41125816699E+01  0.45045682118E+02  0.00000000000E+00 0. -1.
         11    1    3    3    0    0 -0.28046832814E+02 -0.24261426975E+01 -0.11755421044E+01  0.28176105104E+02  0.51100000000E-03 0. -1.
        -11    1    3    3    0    0 -0.14339632261E+02  0.16602143463E+00 -0.14843720355E+01  0.14417211142E+02  0.51100000000E-03 0.  1.
         12    1    3    3    0    0 -0.22342008437E+01 -0.23438251326E+01 -0.14526675300E+01  0.35490016363E+01  0.00000000000E+00 0. -1.
</event>
<event>
 7    1  0.4623443E-009  0.4614231E+02  0.7816164E-02  0.1320468E+00
        -11   -1    0    0    0    0  0.00000000000E+00  0.00000000000E+00  0.45593999997E+02  0.45594000000E+02  0.51100000000E-03 0. -1.
         11   -1    0    0    0    0 -0.00000000000E+00 -0.00000000000E+00 -0.45593999997E+02  0.45594000000E+02  0.51100000000E-03 0.  1.
    9900012    2    1    2    0    0 -0.14335047347E+02  0.23652324756E+02  0.35555419183E+02  0.46142313391E+02  0.99999601496E+01 0.  0.
        -12    1    1    2    0    0  0.14335047347E+02 -0.23652324756E+02 -0.35555419183E+02  0.45045686609E+02  0.00000000000E+00 0.  1.
         11    1    3    3    0    0 -0.40546717903E+01  0.85312525350E+01  0.12494467861E+02  0.15663152957E+02  0.51100000000E-03 0. -1.
        -11    1    3    3    0    0 -0.18888825756E+01  0.87300420893E+01  0.74103976758E+01  0.11605839316E+02  0.51100000000E-03 0.  1.
         12    1    3    3    0    0 -0.83914929811E+01  0.63910301314E+01  0.15650553646E+02  0.18873321118E+02  0.00000000000E+00 0. -1.
</event>
<event>
 7    1  0.4623443E-009  0.4614232E+02  0.7816164E-02  0.1320468E+00
        -11   -1    0    0    0    0  0.00000000000E+00  0.00000000000E+00  0.45593999997E+02  0.45594000000E+02  0.51100000000E-03 0. -1.
         11   -1    0    0    0    0 -0.00000000000E+00 -0.00000000000E+00 -0.45593999997E+02  0.45594000000E+02  0.51100000000E-03 0.  1.
    9900012    2    1    2    0    0 -0.18570272327E+02  0.39796599737E+02 -0.10024425719E+02  0.46142317899E+02  0.10000001261E+02 0.  0.
         12    1    1    2    0    0  0.18570272327E+02 -0.39796599737E+02  0.10024425719E+02  0.45045682101E+02  0.00000000000E+00 0. -1.
         11    1    3    3    0    0 -0.59708737545E+01  0.93588218219E+01 -0.22621163013E+01  0.11329432894E+02  0.51100000000E-03 0. -1.
        -11    1    3    3    0    0 -0.10739468161E+02  0.26861724863E+02 -0.38296171074E+01  0.29181405148E+02  0.51100000000E-03 0.  1.
         12    1    3    3    0    0 -0.18599304117E+01  0.35760530523E+01 -0.39326923106E+01  0.56314798569E+01  0.00000000000E+00 0. -1.
</event>
<event>
 7    1  0.4623443E-009  0.4614232E+02  0.7816164E-02  0.1320468E+00
        -11   -1    0    0    0    0  0.00000000000E+00  0.00000000000E+00  0.45593999997E+02  0.45594000000E+02  0.51100000000E-03 0. -1.
         11   -1    0    0    0    0 -0.00000000000E+00 -0.00000000000E+00 -0.45593999997E+02  0.45594000000E+02  0.51100000000E-03 0.  1.
    9900012    2    1    2    0    0 -0.28120756978E+02  0.31343758828E+02  0.15997041573E+02  0.46142317303E+02  0.99999958268E+01 0.  0.
        -12    1    1    2    0    0  0.28120756978E+02 -0.31343758828E+02 -0.15997041573E+02  0.45045682697E+02  0.00000000000E+00 0.  1.
         11    1    3    3    0    0 -0.16632510146E+01  0.34503720856E+01  0.96323148469E+00  0.39495932222E+01  0.51100000000E-03 0. -1.
        -11    1    3    3    0    0 -0.75284263518E+01  0.11870692268E+02  0.20682273119E+01  0.14208029516E+02  0.51100000000E-03 0.  1.
        -12    1    3    3    0    0 -0.18929079612E+02  0.16022694475E+02  0.12965582777E+02  0.27984694566E+02  0.00000000000E+00 0.  1.
</event>
<event>
 7    1  0.4623443E-009  0.4614232E+02  0.7816164E-02  0.1320468E+00
        -11   -1    0    0    0    0  0.00000000000E+00  0.00000000000E+00  0.45593999997E+02  0.45594000000E+02  0.51100000000E-03 0. -1.
         11   -1    0    0    0    0 -0.00000000000E+00 -0.00000000000E+00 -0.45593999997E+02  0.45594000000E+02  0.51100000000E-03 0.  1.
    9900012    2    1    2    0    0  0.56661686464E+01 -0.16541166228E+02  0.41513826932E+02  0.46142317922E+02  0.10000001471E+02 0.  0.
        -12    1    1    2    0    0 -0.56661686464E+01  0.16541166228E+02 -0.41513826932E+02  0.45045682078E+02  0.00000000000E+00 0.  1.
         11    1    3    3    0    0  0.64932857873E+00 -0.95511739314E+01  0.30823229658E+02  0.32275657048E+02  0.51100000000E-03 0. -1.
        -11    1    3    3    0    0  0.51736520850E+00 -0.20066787133E+01  0.19546363925E+01  0.28486891556E+01  0.51100000000E-03 0.  1.
        -12    1    3    3    0    0  0.44994748591E+01 -0.49833135836E+01  0.87359608812E+01  0.11017971719E+02  0.00000000000E+00 0.  1.
</event>
<event>
 7    1  0.4623443E-009  0.4614232E+02  0.7816164E-02  0.1320468E+00
        -11   -1    0    0    0    0  0.00000000000E+00  0.00000000000E+00  0.45593999997E+02  0.45594000000E+02  0.51100000000E-03 0. -1.
         11   -1    0    0    0    0 -0.00000000000E+00 -0.00000000000E+00 -0.45593999997E+02  0.45594000000E+02  0.51100000000E-03 0.  1.
    9900012    2    1    2    0    0 -0.28824186706E+02  0.45306979102E+01 -0.34318399274E+02  0.46142317726E+02  0.99999996801E+01 0.  0.
         12    1    1    2    0    0  0.28824186706E+02 -0.45306979102E+01  0.34318399274E+02  0.45045682274E+02  0.00000000000E+00 0. -1.
         11    1    3    3    0    0 -0.58879298431E+00 -0.81295973748E-01 -0.19562401012E+01  0.20445444012E+01  0.51100000000E-03 0. -1.
        -11    1    3    3    0    0 -0.15476950036E+02  0.62990292697E+01 -0.14776347868E+02  0.22305923176E+02  0.51100000000E-03 0.  1.
         12    1    3    3    0    0 -0.12758443686E+02 -0.16870353857E+01 -0.17585811304E+02  0.21791850149E+02  0.00000000000E+00 0. -1.
</event>
<event>
 7    1  0.4623443E-009  0.4614232E+02  0.7816164E-02  0.1320468E+00
        -11   -1    0    0    0    0  0.00000000000E+00  0.00000000000E+00  0.45593999997E+02  0.45594000000E+02  0.51100000000E-03 0. -1.
         11   -1    0    0    0    0 -0.00000000000E+00 -0.00000000000E+00 -0.45593999997E+02  0.45594000000E+02  0.51100000000E-03 0.  1.
    9900012    2    1    2    0    0  0.93853577094E+01  0.91344655984E+01  0.43099768926E+02  0.46142317825E+02  0.10000000585E+02 0.  0.
        -12    1    1    2    0    0 -0.93853577094E+01 -0.91344655984E+01 -0.43099768926E+02  0.45045682175E+02  0.00000000000E+00 0.  1.
         11    1    3    3    0    0  0.80410541529E+01  0.17044707207E+01  0.20862767017E+02  0.22423621924E+02  0.51100000000E-03 0. -1.
        -11    1    3    3    0    0  0.15574475571E+01  0.24886578788E+01  0.51257029583E+01  0.59069359239E+01  0.51100000000E-03 0.  1.
         12    1    3    3    0    0 -0.21314400069E+00  0.49413369990E+01  0.17111298950E+02  0.17811759977E+02  0.00000000000E+00 0. -1.
</event>
<event>
 7    1  0.4623443E-009  0.4614232E+02  0.7816164E-02  0.1320468E+00
        -11   -1    0    0    0    0  0.00000000000E+00  0.00000000000E+00  0.45593999997E+02  0.45594000000E+02  0.51100000000E-03 0. -1.
         11   -1    0    0    0    0 -0.00000000000E+00 -0.00000000000E+00 -0.45593999997E+02  0.45594000000E+02  0.51100000000E-03 0.  1.
    9900012    2    1    2    0    0  0.36261423947E+02 -0.14310390030E+02 -0.22570665863E+02  0.46142322216E+02  0.10000040625E+02 0.  0.
         12    1    1    2    0    0 -0.36261423947E+02  0.14310390030E+02  0.22570665863E+02  0.45045677784E+02  0.00000000000E+00 0. -1.
         11    1    3    3    0    0  0.79589932256E+01 -0.25526339584E+01 -0.46902337914E+01  0.95843521727E+01  0.51100000000E-03 0. -1.
        -11    1    3    3    0    0  0.19341604041E+02 -0.62347399627E+01 -0.71925992290E+01  0.21556973656E+02  0.51100000000E-03 0.  1.
         12    1    3    3    0    0  0.89608266805E+01 -0.55230161092E+01 -0.10687832843E+02  0.15000996387E+02  0.00000000000E+00 0. -1.
</event>
<event>
 7    1  0.4623443E-009  0.4614232E+02  0.7816164E-02  0.1320468E+00
        -11   -1    0    0    0    0  0.00000000000E+00  0.00000000000E+00  0.45593999997E+02  0.45594000000E+02  0.51100000000E-03 0. -1.
         11   -1    0    0    0    0 -0.00000000000E+00 -0.00000000000E+00 -0.45593999997E+02  0.45594000000E+02  0.51100000000E-03 0.  1.
    9900012    2    1    2    0    0  0.24656458884E+02 -0.69885339451E+01  0.37045010138E+02  0.46142319325E+02  0.10000014257E+02 0.  0.
        -12    1    1    2    0    0 -0.24656458884E+02  0.69885339451E+01 -0.37045010138E+02  0.45045680675E+02  0.00000000000E+00 0.  1.
         11    1    3    3    0    0  0.72260603833E+01 -0.42005898635E+01  0.97320393190E+01  0.12828620091E+02  0.51100000000E-03 0.  1.
        -11    1    3    3    0    0  0.13661503486E+02 -0.44670299987E+01  0.24194144141E+02  0.28141564375E+02  0.51100000000E-03 0. -1.
         12    1    3    3    0    0  0.37688950152E+01  0.16790859171E+01  0.31188266778E+01  0.51721348589E+01  0.00000000000E+00 0. -1.
</event>
<event>
 7    1  0.4623443E-009  0.4614232E+02  0.7816164E-02  0.1320468E+00
        -11   -1    0    0    0    0  0.00000000000E+00  0.00000000000E+00  0.45593999997E+02  0.45594000000E+02  0.51100000000E-03 0. -1.
         11   -1    0    0    0    0 -0.00000000000E+00 -0.00000000000E+00 -0.45593999997E+02  0.45594000000E+02  0.51100000000E-03 0.  1.
    9900012    2    1    2    0    0 -0.16608682715E+02 -0.33456447919E+02 -0.25177991027E+02  0.46142317842E+02  0.10000000740E+02 0.  0.
         12    1    1    2    0    0  0.16608682715E+02  0.33456447919E+02  0.25177991027E+02  0.45045682158E+02  0.00000000000E+00 0. -1.
         11    1    3    3    0    0 -0.59014143865E+01 -0.11821559485E+02 -0.65329218791E+01  0.14739573568E+02  0.51100000000E-03 0. -1.
        -11    1    3    3    0    0 -0.55042767670E+01 -0.80197800029E+01 -0.11822310380E+02  0.15309505446E+02  0.51100000000E-03 0.  1.
         12    1    3    3    0    0 -0.52029915618E+01 -0.13615108431E+02 -0.68227587679E+01  0.16093238829E+02  0.00000000000E+00 0. -1.
</event>
<event>
 7    1  0.4623443E-009  0.4614232E+02  0.7816164E-02  0.1320468E+00
        -11   -1    0    0    0    0  0.00000000000E+00  0.00000000000E+00  0.45593999997E+02  0.45594000000E+02  0.51100000000E-03 0.  1.
         11   -1    0    0    0    0 -0.00000000000E+00 -0.00000000000E+00 -0.45593999997E+02  0.45594000000E+02  0.51100000000E-03 0. -1.
    9900012    2    1    2    0    0  0.34409805763E+02  0.26112598733E+02  0.12775406138E+02  0.46142317108E+02  0.99999940449E+01 0.  0.
         12    1    1    2    0    0 -0.34409805763E+02 -0.26112598733E+02 -0.12775406138E+02  0.45045682892E+02  0.00000000000E+00 0. -1.
         11    1    3    3    0    0  0.25502061481E+01  0.15424269224E+01 -0.13858073528E+01  0.32868061228E+01  0.51100000000E-03 0. -1.
        -11    1    3    3    0    0  0.51833116355E+01  0.34809179599E+01  0.37881926846E+01  0.73030071498E+01  0.51100000000E-03 0.  1.
        -12    1    3    3    0    0  0.26676287979E+02  0.21089253851E+02  0.10373020807E+02  0.35552503835E+02  0.00000000000E+00 0.  1.
</event>
<event>
 7    1  0.4623443E-009  0.4614232E+02  0.7816164E-02  0.1320468E+00
        -11   -1    0    0    0    0  0.00000000000E+00  0.00000000000E+00  0.45593999997E+02  0.45594000000E+02  0.51100000000E-03 0.  1.
         11   -1    0    0    0    0 -0.00000000000E+00 -0.00000000000E+00 -0.45593999997E+02  0.45594000000E+02  0.51100000000E-03 0. -1.
    9900012    2    1    2    0    0  0.23972953003E+02 -0.37032468258E+02 -0.91108348351E+01  0.46142317717E+02  0.99999995944E+01 0.  0.
         12    1    1    2    0    0 -0.23972953003E+02  0.37032468258E+02  0.91108348351E+01  0.45045682283E+02  0.00000000000E+00 0. -1.
         11    1    3    3    0    0  0.12072613297E+02 -0.23766923284E+02 -0.80535172164E+01  0.27847329746E+02  0.51100000000E-03 0. -1.
        -11    1    3    3    0    0  0.49484486764E+01 -0.78900477812E+01 -0.17634138944E+01  0.94789043205E+01  0.51100000000E-03 0.  1.
        -12    1    3    3    0    0  0.69518910302E+01 -0.53754971931E+01  0.70609627573E+00  0.88160836497E+01  0.00000000000E+00 0.  1.
</event>
<event>
 7    1  0.4623443E-009  0.4614232E+02  0.7816164E-02  0.1320468E+00
        -11   -1    0    0    0    0  0.00000000000E+00  0.00000000000E+00  0.45593999997E+02  0.45594000000E+02  0.51100000000E-03 0. -1.
         11   -1    0    0    0    0 -0.00000000000E+00 -0.00000000000E+00 -0.45593999997E+02  0.45594000000E+02  0.51100000000E-03 0.  1.
    9900012    2    1    2    0    0  0.13578106537E+02  0.39056121231E+02  0.17870865927E+02  0.46142318390E+02  0.10000005734E+02 0.  0.
        -12    1    1    2    0    0 -0.13578106537E+02 -0.39056121231E+02 -0.17870865927E+02  0.45045681610E+02  0.00000000000E+00 0.  1.
         11    1    3    3    0    0  0.12949332411E+01  0.17500652757E+01  0.73948184680E-01  0.21783133758E+01  0.51100000000E-03 0. -1.
        -11    1    3    3    0    0  0.96791590680E-01  0.44689442959E+01  0.49177644473E+01  0.66456932785E+01  0.51100000000E-03 0.  1.
        -12    1    3    3    0    0  0.12186381705E+02  0.32837111659E+02  0.12879153295E+02  0.37318311736E+02  0.00000000000E+00 0.  1.
</event>
<event>
 7    1  0.4623443E-009  0.4614232E+02  0.7816164E-02  0.1320468E+00
        -11   -1    0    0    0    0  0.00000000000E+00  0.00000000000E+00  0.45593999997E+02  0.45594000000E+02  0.51100000000E-03 0. -1.
         11   -1    0    0    0    0 -0.00000000000E+00 -0.00000000000E+00 -0.45593999997E+02  0.45594000000E+02  0.51100000000E-03 0.  1.
    9900012    2    1    2    0    0  0.15999510192E+02  0.59510061509E+01 -0.41685905528E+02  0.46142317407E+02  0.99999967718E+01 0.  0.
         12    1    1    2    0    0 -0.15999510192E+02 -0.59510061509E+01  0.41685905528E+02  0.45045682593E+02  0.00000000000E+00 0. -1.
         11    1    3    3    0    0  0.30146659442E+01  0.11401116518E+01 -0.12941150743E+02  0.13336470603E+02  0.51100000000E-03 0. -1.
        -11    1    3    3    0    0 -0.18472935791E+00  0.16401542874E+00  0.41013538880E+00  0.47878731688E+00  0.51100000000E-03 0.  1.
        -12    1    3    3    0    0  0.13169573605E+02  0.46468790704E+01 -0.29154890174E+02  0.32327059487E+02  0.00000000000E+00 0.  1.
</event>
<event>
 7    1  0.4623443E-009  0.4614232E+02  0.7816164E-02  0.1320468E+00
        -11   -1    0    0    0    0  0.00000000000E+00  0.00000000000E+00  0.45593999997E+02  0.45594000000E+02  0.51100000000E-03 0. -1.
         11   -1    0    0    0    0 -0.00000000000E+00 -0.00000000000E+00 -0.45593999997E+02  0.45594000000E+02  0.51100000000E-03 0.  1.
    9900012    2    1    2    0    0 -0.28641453056E+01  0.43858258432E+02 -0.98672839623E+01  0.46142318145E+02  0.10000003500E+02 0.  0.
        -12    1    1    2    0    0  0.28641453056E+01 -0.43858258432E+02  0.98672839623E+01  0.45045681855E+02  0.00000000000E+00 0.  1.
         11    1    3    3    0    0  0.77429701363E+00  0.13080598285E+02 -0.47765795246E+01  0.13946945887E+02  0.51100000000E-03 0.  1.
        -11    1    3    3    0    0 -0.23546483615E+01  0.57928423833E+01  0.12719826598E+01  0.63811701068E+01  0.51100000000E-03 0. -1.
        -12    1    3    3    0    0 -0.12837939577E+01  0.24984817763E+02 -0.63626870974E+01  0.25814202151E+02  0.00000000000E+00 0.  1.
</event>
<event>
 7    1  0.4623443E-009  0.4614232E+02  0.7816164E-02  0.1320468E+00
        -11   -1    0    0    0    0  0.00000000000E+00  0.00000000000E+00  0.45593999997E+02  0.45594000000E+02  0.51100000000E-03 0. -1.
         11   -1    0    0    0    0 -0.00000000000E+00 -0.00000000000E+00 -0.45593999997E+02  0.45594000000E+02  0.51100000000E-03 0.  1.
    9900012    2    1    2    0    0 -0.23150006048E+02 -0.63407532220E+01 -0.38118047963E+02  0.46142317499E+02  0.99999976094E+01 0.  0.
         12    1    1    2    0    0  0.23150006048E+02  0.63407532220E+01  0.38118047963E+02  0.45045682501E+02  0.00000000000E+00 0. -1.
         11    1    3    3    0    0 -0.14369591941E+02 -0.45987073158E+01 -0.18244406671E+02  0.23674704995E+02  0.51100000000E-03 0. -1.
        -11    1    3    3    0    0 -0.65094051773E+01 -0.36919627965E+01 -0.13938420219E+02  0.15820319324E+02  0.51100000000E-03 0.  1.
         12    1    3    3    0    0 -0.22710089294E+01  0.19499168903E+01 -0.59352210733E+01  0.66472931803E+01  0.00000000000E+00 0. -1.
</event>
<event>
 7    1  0.4623443E-009  0.4614232E+02  0.7816164E-02  0.1320468E+00
        -11   -1    0    0    0    0  0.00000000000E+00  0.00000000000E+00  0.45593999997E+02  0.45594000000E+02  0.51100000000E-03 0. -1.
         11   -1    0    0    0    0 -0.00000000000E+00 -0.00000000000E+00 -0.45593999997E+02  0.45594000000E+02  0.51100000000E-03 0.  1.
    9900012    2    1    2    0    0  0.19515608571E+02 -0.31878726408E+02  0.25139636796E+02  0.46142317482E+02  0.99999974518E+01 0.  0.
        -12    1    1    2    0    0 -0.19515608571E+02  0.31878726408E+02 -0.25139636796E+02  0.45045682518E+02  0.00000000000E+00 0.  1.
         11    1    3    3    0    0  0.17260806990E+01 -0.68853907792E+01  0.51267945669E+01  0.87562539681E+01  0.51100000000E-03 0. -1.
        -11    1    3    3    0    0  0.88387070496E+01 -0.12772209381E+02  0.14550144322E+02  0.21282828168E+02  0.51100000000E-03 0.  1.
         12    1    3    3    0    0  0.89508208223E+01 -0.12221126248E+02  0.54626979068E+01  0.16103235345E+02  0.00000000000E+00 0. -1.
</event>
<event>
 7    1  0.4623443E-009  0.4614232E+02  0.7816164E-02  0.1320468E+00
        -11   -1    0    0    0    0  0.00000000000E+00  0.00000000000E+00  0.45593999997E+02  0.45594000000E+02  0.51100000000E-03 0. -1.
         11   -1    0    0    0    0 -0.00000000000E+00 -0.00000000000E+00 -0.45593999997E+02  0.45594000000E+02  0.51100000000E-03 0.  1.
    9900012    2    1    2    0    0 -0.83769900490E+01  0.12503049755E+02 -0.42457192810E+02  0.46142318334E+02  0.10000005221E+02 0.  0.
         12    1    1    2    0    0  0.83769900490E+01 -0.12503049755E+02  0.42457192810E+02  0.45045681666E+02  0.00000000000E+00 0. -1.
         11    1    3    3    0    0 -0.35131132412E+01  0.42631498362E+01 -0.61243539678E+01  0.82476737905E+01  0.51100000000E-03 0. -1.
        -11    1    3    3    0    0 -0.54813347248E+01  0.49168158551E+01 -0.26038423548E+02  0.27059556715E+02  0.51100000000E-03 0.  1.
        -12    1    3    3    0    0  0.61745791698E+00  0.33230840632E+01 -0.10294415295E+02  0.10835087828E+02  0.00000000000E+00 0.  1.
</event>
<event>
 7    1  0.4623443E-009  0.4614232E+02  0.7816164E-02  0.1320468E+00
        -11   -1    0    0    0    0  0.00000000000E+00  0.00000000000E+00  0.45593999997E+02  0.45594000000E+02  0.51100000000E-03 0. -1.
         11   -1    0    0    0    0 -0.00000000000E+00 -0.00000000000E+00 -0.45593999997E+02  0.45594000000E+02  0.51100000000E-03 0.  1.
    9900012    2    1    2    0    0  0.24594964038E+02 -0.22824402838E+02  0.30054084846E+02  0.46142316113E+02  0.99999849681E+01 0.  0.
        -12    1    1    2    0    0 -0.24594964038E+02  0.22824402838E+02 -0.30054084846E+02  0.45045683887E+02  0.00000000000E+00 0.  1.
         11    1    3    3    0    0  0.68833611424E+01 -0.59886706441E+01  0.79083118846E+01  0.12074197026E+02  0.51100000000E-03 0. -1.
        -11    1    3    3    0    0  0.10924258207E+02 -0.84707914091E+01  0.17590671867E+02  0.22372426365E+02  0.51100000000E-03 0.  1.
        -12    1    3    3    0    0  0.67873446887E+01 -0.83649407844E+01  0.45551010946E+01  0.11695692721E+02  0.00000000000E+00 0.  1.
</event>
<event>
 7    1  0.4623443E-009  0.4614232E+02  0.7816164E-02  0.1320468E+00
        -11   -1    0    0    0    0  0.00000000000E+00  0.00000000000E+00  0.45593999997E+02  0.45594000000E+02  0.51100000000E-03 0. -1.
         11   -1    0    0    0    0 -0.00000000000E+00 -0.00000000000E+00 -0.45593999997E+02  0.45594000000E+02  0.51100000000E-03 0.  1.
    9900012    2    1    2    0    0 -0.41412539466E+02  0.69425825437E+01 -0.16306899674E+02  0.46142324799E+02  0.10000064173E+02 0.  0.
         12    1    1    2    0    0  0.41412539466E+02 -0.69425825437E+01  0.16306899674E+02  0.45045675201E+02  0.00000000000E+00 0. -1.
         11    1    3    3    0    0 -0.47117662623E+01  0.33547527675E+01 -0.20273535598E+01  0.61290513262E+01  0.51100000000E-03 0. -1.
        -11    1    3    3    0    0 -0.26918670190E+02  0.34895870117E+01 -0.76687306295E+01  0.28206407996E+02  0.51100000000E-03 0.  1.
         12    1    3    3    0    0 -0.97821030136E+01  0.98242764483E-01 -0.66108154845E+01  0.11806865477E+02  0.00000000000E+00 0. -1.
</event>
<event>
 7    1  0.4623443E-009  0.4614232E+02  0.7816164E-02  0.1320468E+00
        -11   -1    0    0    0    0  0.00000000000E+00  0.00000000000E+00  0.45593999997E+02  0.45594000000E+02  0.51100000000E-03 0. -1.
         11   -1    0    0    0    0 -0.00000000000E+00 -0.00000000000E+00 -0.45593999997E+02  0.45594000000E+02  0.51100000000E-03 0.  1.
    9900012    2    1    2    0    0  0.11637576643E+02  0.27555657717E+02  0.33680350307E+02  0.46142318085E+02  0.10000002952E+02 0.  0.
        -12    1    1    2    0    0 -0.11637576643E+02 -0.27555657717E+02 -0.33680350307E+02  0.45045681915E+02  0.00000000000E+00 0.  1.
         11    1    3    3    0    0  0.11530612519E+01  0.37793553905E+01  0.52470911974E+01  0.65684886932E+01  0.51100000000E-03 0.  1.
        -11    1    3    3    0    0  0.47752237041E+01  0.26928604439E+01  0.77438602062E+01  0.94879729105E+01  0.51100000000E-03 0. -1.
         12    1    3    3    0    0  0.57092916871E+01  0.21083441883E+02  0.20689398904E+02  0.30085856481E+02  0.00000000000E+00 0. -1.
</event>
<event>
 7    1  0.4623443E-009  0.4614232E+02  0.7816164E-02  0.1320468E+00
        -11   -1    0    0    0    0  0.00000000000E+00  0.00000000000E+00  0.45593999997E+02  0.45594000000E+02  0.51100000000E-03 0. -1.
         11   -1    0    0    0    0 -0.00000000000E+00 -0.00000000000E+00 -0.45593999997E+02  0.45594000000E+02  0.51100000000E-03 0.  1.
    9900012    2    1    2    0    0 -0.24536564258E+02  0.10006739119E+01 -0.37763323640E+02  0.46142323779E+02  0.10000054878E+02 0.  0.
         12    1    1    2    0    0  0.24536564258E+02 -0.10006739119E+01  0.37763323640E+02  0.45045676221E+02  0.00000000000E+00 0. -1.
         11    1    3    3    0    0 -0.95480214562E+01  0.17487156665E+01 -0.81781079723E+01  0.12692681769E+02  0.51100000000E-03 0. -1.
        -11    1    3    3    0    0 -0.30861805511E+01  0.96900321500E+00 -0.95446868474E+01  0.10077922648E+02  0.51100000000E-03 0.  1.
        -12    1    3    3    0    0 -0.11902362250E+02 -0.17170449697E+01 -0.20040528820E+02  0.23371719363E+02  0.00000000000E+00 0.  1.
</event>
<event>
 7    1  0.4623443E-009  0.4614232E+02  0.7816164E-02  0.1320468E+00
        -11   -1    0    0    0    0  0.00000000000E+00  0.00000000000E+00  0.45593999997E+02  0.45594000000E+02  0.51100000000E-03 0. -1.
         11   -1    0    0    0    0 -0.00000000000E+00 -0.00000000000E+00 -0.45593999997E+02  0.45594000000E+02  0.51100000000E-03 0.  1.
    9900012    2    1    2    0    0  0.20495858708E+01 -0.37995721074E+02 -0.24108875568E+02  0.46142317595E+02  0.99999984840E+01 0.  0.
         12    1    1    2    0    0 -0.20495858708E+01  0.37995721074E+02  0.24108875568E+02  0.45045682405E+02  0.00000000000E+00 0. -1.
         11    1    3    3    0    0  0.23872805419E+01 -0.70907341334E+01 -0.77273543668E+01  0.10755911152E+02  0.51100000000E-03 0.  1.
        -11    1    3    3    0    0 -0.77819368870E+00 -0.45162275441E+01 -0.56484122079E+00  0.46174606130E+01  0.51100000000E-03 0. -1.
        -12    1    3    3    0    0  0.44049901759E+00 -0.26388759396E+02 -0.15816679981E+02  0.30768945830E+02  0.00000000000E+00 0.  1.
</event>
<event>
 7    1  0.4623443E-009  0.4614232E+02  0.7816164E-02  0.1320468E+00
        -11   -1    0    0    0    0  0.00000000000E+00  0.00000000000E+00  0.45593999997E+02  0.45594000000E+02  0.51100000000E-03 0.  1.
         11   -1    0    0    0    0 -0.00000000000E+00 -0.00000000000E+00 -0.45593999997E+02  0.45594000000E+02  0.51100000000E-03 0. -1.
    9900012    2    1    2    0    0 -0.21802622228E+02 -0.32311058278E+02  0.22577746473E+02  0.46142318089E+02  0.10000002989E+02 0.  0.
        -12    1    1    2    0    0  0.21802622228E+02  0.32311058278E+02 -0.22577746473E+02  0.45045681911E+02  0.00000000000E+00 0.  1.
         11    1    3    3    0    0 -0.83893963677E+01 -0.99511839053E+01  0.36493367289E+01  0.13517606717E+02  0.51100000000E-03 0. -1.
        -11    1    3    3    0    0 -0.33266114240E+01 -0.46628884768E+01  0.17808075562E+01  0.59983454658E+01  0.51100000000E-03 0.  1.
        -12    1    3    3    0    0 -0.10086614436E+02 -0.17696985896E+02  0.17147602188E+02  0.26626365906E+02  0.00000000000E+00 0.  1.
</event>
<event>
 7    1  0.4623443E-009  0.4614232E+02  0.7816164E-02  0.1320468E+00
        -11   -1    0    0    0    0  0.00000000000E+00  0.00000000000E+00  0.45593999997E+02  0.45594000000E+02  0.51100000000E-03 0. -1.
         11   -1    0    0    0    0 -0.00000000000E+00 -0.00000000000E+00 -0.45593999997E+02  0.45594000000E+02  0.51100000000E-03 0.  1.
    9900012    2    1    2    0    0  0.58782820087E+00  0.39787840930E+02 -0.21111503806E+02  0.46142318511E+02  0.10000006839E+02 0.  0.
         12    1    1    2    0    0 -0.58782820087E+00 -0.39787840930E+02  0.21111503806E+02  0.45045681489E+02  0.00000000000E+00 0. -1.
         11    1    3    3    0    0 -0.39773322086E+00 -0.73798354038E-01  0.16657243913E+00  0.43747520002E+00  0.51100000000E-03 0. -1.
        -11    1    3    3    0    0  0.20349050914E+01  0.23062491979E+02 -0.15697458182E+02  0.27971942526E+02  0.51100000000E-03 0.  1.
         12    1    3    3    0    0 -0.10493436696E+01  0.16799147304E+02 -0.55806180635E+01  0.17732900785E+02  0.00000000000E+00 0. -1.
</event>
<event>
 7    1  0.4623443E-009  0.4614232E+02  0.7816164E-02  0.1320468E+00
        -11   -1    0    0    0    0  0.00000000000E+00  0.00000000000E+00  0.45593999997E+02  0.45594000000E+02  0.51100000000E-03 0. -1.
         11   -1    0    0    0    0 -0.00000000000E+00 -0.00000000000E+00 -0.45593999997E+02  0.45594000000E+02  0.51100000000E-03 0.  1.
    9900012    2    1    2    0    0 -0.42206365229E+02  0.34849522414E+01 -0.15348982989E+02  0.46142318333E+02  0.10000005219E+02 0.  0.
         12    1    1    2    0    0  0.42206365229E+02 -0.34849522414E+01  0.15348982989E+02  0.45045681667E+02  0.00000000000E+00 0. -1.
         11    1    3    3    0    0 -0.11907173219E+02 -0.10900747471E+01 -0.26833554294E+01  0.12254363862E+02  0.51100000000E-03 0. -1.
        -11    1    3    3    0    0 -0.14232858166E+02 -0.10892935104E+01 -0.42930397240E+01  0.14906072664E+02  0.51100000000E-03 0.  1.
         12    1    3    3    0    0 -0.16066333844E+02  0.56643204990E+01 -0.83725878360E+01  0.18981881808E+02  0.00000000000E+00 0. -1.
</event>
<event>
 7    1  0.4623443E-009  0.4614232E+02  0.7816164E-02  0.1320468E+00
        -11   -1    0    0    0    0  0.00000000000E+00  0.00000000000E+00  0.45593999997E+02  0.45594000000E+02  0.51100000000E-03 0. -1.
         11   -1    0    0    0    0 -0.00000000000E+00 -0.00000000000E+00 -0.45593999997E+02  0.45594000000E+02  0.51100000000E-03 0.  1.
    9900012    2    1    2    0    0 -0.16947883729E+02 -0.20485848524E+02 -0.36362240180E+02  0.46142320257E+02  0.10000022756E+02 0.  0.
         12    1    1    2    0    0  0.16947883729E+02  0.20485848524E+02  0.36362240180E+02  0.45045679743E+02  0.00000000000E+00 0. -1.
         11    1    3    3    0    0 -0.12456749449E+02 -0.10617053375E+02 -0.18668196824E+02  0.24827283422E+02  0.51100000000E-03 0.  1.
        -11    1    3    3    0    0 -0.38695622268E+01 -0.30184173827E+01 -0.60395015748E+01  0.77820263978E+01  0.51100000000E-03 0. -1.
         12    1    3    3    0    0 -0.62157205352E+00 -0.68503777659E+01 -0.11654541781E+02  0.13533010436E+02  0.00000000000E+00 0. -1.
</event>
<event>
 7    1  0.4623443E-009  0.4614232E+02  0.7816164E-02  0.1320468E+00
        -11   -1    0    0    0    0  0.00000000000E+00  0.00000000000E+00  0.45593999997E+02  0.45594000000E+02  0.51100000000E-03 0. -1.
         11   -1    0    0    0    0 -0.00000000000E+00 -0.00000000000E+00 -0.45593999997E+02  0.45594000000E+02  0.51100000000E-03 0.  1.
    9900012    2    1    2    0    0  0.18805844970E+02  0.27928644146E+02  0.29923980874E+02  0.46142316520E+02  0.99999886794E+01 0.  0.
        -12    1    1    2    0    0 -0.18805844970E+02 -0.27928644146E+02 -0.29923980874E+02  0.45045683480E+02  0.00000000000E+00 0.  1.
         11    1    3    3    0    0  0.47413879368E+00  0.33284783480E+01  0.48652516711E+01  0.59139030929E+01  0.51100000000E-03 0. -1.
        -11    1    3    3    0    0  0.22585035512E+01  0.68455695370E+01  0.35362488033E+01  0.80291790637E+01  0.51100000000E-03 0.  1.
         12    1    3    3    0    0  0.16073202625E+02  0.17754596261E+02  0.21522480400E+02  0.32199234363E+02  0.00000000000E+00 0. -1.
</event>
<event>
 7    1  0.4623443E-009  0.4614232E+02  0.7816164E-02  0.1320468E+00
        -11   -1    0    0    0    0  0.00000000000E+00  0.00000000000E+00  0.45593999997E+02  0.45594000000E+02  0.51100000000E-03 0. -1.
         11   -1    0    0    0    0 -0.00000000000E+00 -0.00000000000E+00 -0.45593999997E+02  0.45594000000E+02  0.51100000000E-03 0.  1.
    9900012    2    1    2    0    0  0.44137279840E+01  0.14010877774E+02  0.42583186381E+02  0.46142318153E+02  0.10000003570E+02 0.  0.
        -12    1    1    2    0    0 -0.44137279840E+01 -0.14010877774E+02 -0.42583186381E+02  0.45045681847E+02  0.00000000000E+00 0.  1.
         11    1    3    3    0    0 -0.10255096792E+01  0.10498461498E+02  0.20172222899E+02  0.22763741803E+02  0.51100000000E-03 0. -1.
        -11    1    3    3    0    0  0.14875379406E+01  0.63787387126E+00  0.36708367376E+01  0.40118193897E+01  0.51100000000E-03 0.  1.
         12    1    3    3    0    0  0.39516997225E+01  0.28745424047E+01  0.18740126745E+02  0.19366756960E+02  0.00000000000E+00 0. -1.
</event>
<event>
 7    1  0.4623443E-009  0.4614232E+02  0.7816164E-02  0.1320468E+00
        -11   -1    0    0    0    0  0.00000000000E+00  0.00000000000E+00  0.45593999997E+02  0.45594000000E+02  0.51100000000E-03 0.  1.
         11   -1    0    0    0    0 -0.00000000000E+00 -0.00000000000E+00 -0.45593999997E+02  0.45594000000E+02  0.51100000000E-03 0. -1.
    9900012    2    1    2    0    0  0.40872803428E+02 -0.14547435830E+02  0.12120210638E+02  0.46142318129E+02  0.10000003354E+02 0.  0.
        -12    1    1    2    0    0 -0.40872803428E+02  0.14547435830E+02 -0.12120210638E+02  0.45045681871E+02  0.00000000000E+00 0.  1.
         11    1    3    3    0    0  0.97350914166E+01 -0.16437864239E+01  0.20362715026E+01  0.10080696434E+02  0.51100000000E-03 0. -1.
        -11    1    3    3    0    0  0.14167407297E+02 -0.21458518497E+01  0.61215271459E+01  0.15581822889E+02  0.51100000000E-03 0.  1.
         12    1    3    3    0    0  0.16970304715E+02 -0.10757797556E+02  0.39624119892E+01  0.20479798806E+02  0.00000000000E+00 0. -1.
</event>
<event>
 7    1  0.4623443E-009  0.4614232E+02  0.7816164E-02  0.1320468E+00
        -11   -1    0    0    0    0  0.00000000000E+00  0.00000000000E+00  0.45593999997E+02  0.45594000000E+02  0.51100000000E-03 0. -1.
         11   -1    0    0    0    0 -0.00000000000E+00 -0.00000000000E+00 -0.45593999997E+02  0.45594000000E+02  0.51100000000E-03 0.  1.
    9900012    2    1    2    0    0 -0.15332588368E+00  0.31598979131E+01  0.44934452345E+02  0.46142317951E+02  0.10000001735E+02 0.  0.
        -12    1    1    2    0    0  0.15332588368E+00 -0.31598979131E+01 -0.44934452345E+02  0.45045682049E+02  0.00000000000E+00 0.  1.
         11    1    3    3    0    0  0.51613891156E+00 -0.46245901634E+00  0.15063713604E+01  0.16581383098E+01  0.51100000000E-03 0. -1.
        -11    1    3    3    0    0 -0.33003167290E+01  0.31840081977E+01  0.10619382950E+02  0.11567250893E+02  0.51100000000E-03 0.  1.
         12    1    3    3    0    0  0.26308519338E+01  0.43834873178E+00  0.32808698035E+02  0.32916928749E+02  0.00000000000E+00 0. -1.
</event>
<event>
 7    1  0.6089876E-009  0.4614232E+02  0.7816164E-02  0.1320468E+00
        -11   -1    0    0    0    0  0.00000000000E+00  0.00000000000E+00  0.45593999997E+02  0.45594000000E+02  0.51100000000E-03 0. -1.
         11   -1    0    0    0    0 -0.00000000000E+00 -0.00000000000E+00 -0.45593999997E+02  0.45594000000E+02  0.51100000000E-03 0.  1.
    9900012    2    1    2    0    0  0.24533719668E+01 -0.16528088058E+02 -0.41832005363E+02  0.46142318724E+02  0.10000008785E+02 0.  0.
         12    1    1    2    0    0 -0.24533719668E+01  0.16528088058E+02  0.41832005363E+02  0.45045681276E+02  0.00000000000E+00 0. -1.
         11    1    3    3    0    0  0.26341503387E+01 -0.79287309475E+01 -0.23492451349E+02  0.24933888447E+02  0.51100000000E-03 0. -1.
        -11    1    3    3    0    0  0.23347499667E+01 -0.73779434228E+01 -0.14764762950E+02  0.16669832986E+02  0.51100000000E-03 0.  1.
         12    1    3    3    0    0 -0.25155283385E+01 -0.12214136874E+01 -0.35747910646E+01  0.45385972914E+01  0.00000000000E+00 0. -1.
</event>
<event>
 7    1  0.4623443E-009  0.4614232E+02  0.7816164E-02  0.1320468E+00
        -11   -1    0    0    0    0  0.00000000000E+00  0.00000000000E+00  0.45593999997E+02  0.45594000000E+02  0.51100000000E-03 0. -1.
         11   -1    0    0    0    0 -0.00000000000E+00 -0.00000000000E+00 -0.45593999997E+02  0.45594000000E+02  0.51100000000E-03 0.  1.
    9900012    2    1    2    0    0 -0.18232509362E+02 -0.23827803772E+02 -0.33599477779E+02  0.46142317219E+02  0.99999950560E+01 0.  0.
         12    1    1    2    0    0  0.18232509362E+02  0.23827803772E+02  0.33599477779E+02  0.45045682781E+02  0.00000000000E+00 0. -1.
         11    1    3    3    0    0 -0.16783826468E+01 -0.15928931287E+01 -0.47582810360E+00  0.23623482965E+01  0.51100000000E-03 0. -1.
        -11    1    3    3    0    0 -0.55606772662E+01 -0.26334454784E+01 -0.72261940017E+01  0.94907347849E+01  0.51100000000E-03 0.  1.
         12    1    3    3    0    0 -0.10993449449E+02 -0.19601465165E+02 -0.25897455673E+02  0.34289234138E+02  0.00000000000E+00 0. -1.
</event>
<event>
 7    1  0.4623443E-009  0.4614232E+02  0.7816164E-02  0.1320468E+00
        -11   -1    0    0    0    0  0.00000000000E+00  0.00000000000E+00  0.45593999997E+02  0.45594000000E+02  0.51100000000E-03 0. -1.
         11   -1    0    0    0    0 -0.00000000000E+00 -0.00000000000E+00 -0.45593999997E+02  0.45594000000E+02  0.51100000000E-03 0.  1.
    9900012    2    1    2    0    0 -0.21345406661E+02 -0.13059252146E+02  0.37455881504E+02  0.46142317506E+02  0.99999976722E+01 0.  0.
        -12    1    1    2    0    0  0.21345406661E+02  0.13059252146E+02 -0.37455881504E+02  0.45045682494E+02  0.00000000000E+00 0.  1.
         11    1    3    3    0    0 -0.13961076010E+02 -0.82221230589E+01  0.20698659339E+02  0.26285917325E+02  0.51100000000E-03 0. -1.
        -11    1    3    3    0    0 -0.38425351919E+01  0.86515043105E+00  0.60718684046E+01  0.72374821694E+01  0.51100000000E-03 0.  1.
         12    1    3    3    0    0 -0.35417954584E+01 -0.57022795184E+01  0.10685353761E+02  0.12618918011E+02  0.00000000000E+00 0. -1.
</event>
<event>
 7    1  0.4623443E-009  0.4614232E+02  0.7816164E-02  0.1320468E+00
        -11   -1    0    0    0    0  0.00000000000E+00  0.00000000000E+00  0.45593999997E+02  0.45594000000E+02  0.51100000000E-03 0. -1.
         11   -1    0    0    0    0 -0.00000000000E+00 -0.00000000000E+00 -0.45593999997E+02  0.45594000000E+02  0.51100000000E-03 0.  1.
    9900012    2    1    2    0    0  0.19358855198E+02  0.19470165616E+02 -0.35710796585E+02  0.46142316340E+02  0.99999870415E+01 0.  0.
         12    1    1    2    0    0 -0.19358855198E+02 -0.19470165616E+02  0.35710796585E+02  0.45045683660E+02  0.00000000000E+00 0. -1.
         11    1    3    3    0    0  0.43436754297E+01  0.94517227541E+01 -0.13390308932E+02  0.16955912031E+02  0.51100000000E-03 0. -1.
        -11    1    3    3    0    0  0.19723478965E+01  0.30810357950E+01 -0.70314023265E+01  0.79261312589E+01  0.51100000000E-03 0.  1.
        -12    1    3    3    0    0  0.13042831872E+02  0.69374070669E+01 -0.15289085327E+02  0.21260273050E+02  0.00000000000E+00 0.  1.
</event>
<event>
 7    1  0.4623443E-009  0.4614232E+02  0.7816164E-02  0.1320468E+00
        -11   -1    0    0    0    0  0.00000000000E+00  0.00000000000E+00  0.45593999997E+02  0.45594000000E+02  0.51100000000E-03 0. -1.
         11   -1    0    0    0    0 -0.00000000000E+00 -0.00000000000E+00 -0.45593999997E+02  0.45594000000E+02  0.51100000000E-03 0.  1.
    9900012    2    1    2    0    0 -0.18195051102E+02 -0.79771249534E+00 -0.41199722670E+02  0.46142318987E+02  0.10000011177E+02 0.  0.
         12    1    1    2    0    0  0.18195051102E+02  0.79771249534E+00  0.41199722670E+02  0.45045681013E+02  0.00000000000E+00 0. -1.
         11    1    3    3    0    0 -0.19265744804E+01 -0.26941007787E+01 -0.74072326934E+01  0.81139980694E+01  0.51100000000E-03 0. -1.
        -11    1    3    3    0    0 -0.62397799231E+01 -0.19760253188E+01 -0.15242458988E+02  0.16588311722E+02  0.51100000000E-03 0.  1.
        -12    1    3    3    0    0 -0.10028696699E+02  0.38724136022E+01 -0.18550030989E+02  0.21440009195E+02  0.00000000000E+00 0.  1.
</event>
<event>
 7    1  0.4623443E-009  0.4614232E+02  0.7816164E-02  0.1320468E+00
        -11   -1    0    0    0    0  0.00000000000E+00  0.00000000000E+00  0.45593999997E+02  0.45594000000E+02  0.51100000000E-03 0. -1.
         11   -1    0    0    0    0 -0.00000000000E+00 -0.00000000000E+00 -0.45593999997E+02  0.45594000000E+02  0.51100000000E-03 0.  1.
    9900012    2    1    2    0    0 -0.20406291806E+01  0.56025585382E+01  0.44649306773E+02  0.46142318465E+02  0.10000006416E+02 0.  0.
        -12    1    1    2    0    0  0.20406291806E+01 -0.56025585382E+01 -0.44649306773E+02  0.45045681535E+02  0.00000000000E+00 0.  1.
         11    1    3    3    0    0 -0.31435814373E+00  0.33374009704E+01  0.37749462466E+01  0.50484934095E+01  0.51100000000E-03 0. -1.
        -11    1    3    3    0    0 -0.62350289706E+00 -0.77786211790E+00  0.86086094270E+01  0.86661399634E+01  0.51100000000E-03 0.  1.
         12    1    3    3    0    0 -0.11027681398E+01  0.30430196857E+01  0.32265751100E+02  0.32427685092E+02  0.00000000000E+00 0. -1.
</event>
<event>
 7    1  0.4623443E-009  0.4614232E+02  0.7816164E-02  0.1320468E+00
        -11   -1    0    0    0    0  0.00000000000E+00  0.00000000000E+00  0.45593999997E+02  0.45594000000E+02  0.51100000000E-03 0. -1.
         11   -1    0    0    0    0 -0.00000000000E+00 -0.00000000000E+00 -0.45593999997E+02  0.45594000000E+02  0.51100000000E-03 0.  1.
    9900012    2    1    2    0    0  0.15367531813E+02 -0.23605487353E+02  0.35153000282E+02  0.46142317676E+02  0.99999992208E+01 0.  0.
        -12    1    1    2    0    0 -0.15367531813E+02  0.23605487353E+02 -0.35153000282E+02  0.45045682324E+02  0.00000000000E+00 0.  1.
         11    1    3    3    0    0 -0.39954373769E+00 -0.22470289403E+01  0.53718487870E+01  0.58365686759E+01  0.51100000000E-03 0. -1.
        -11    1    3    3    0    0  0.75392809999E+01 -0.11099184430E+02  0.19214014559E+02  0.23435251411E+02  0.51100000000E-03 0.  1.
         12    1    3    3    0    0  0.82277945508E+01 -0.10259273983E+02  0.10567136937E+02  0.16870497588E+02  0.00000000000E+00 0. -1.
</event>
<event>
 7    1  0.4623443E-009  0.4614232E+02  0.7816164E-02  0.1320468E+00
        -11   -1    0    0    0    0  0.00000000000E+00  0.00000000000E+00  0.45593999997E+02  0.45594000000E+02  0.51100000000E-03 0. -1.
         11   -1    0    0    0    0 -0.00000000000E+00 -0.00000000000E+00 -0.45593999997E+02  0.45594000000E+02  0.51100000000E-03 0.  1.
    9900012    2    1    2    0    0 -0.19306208247E+02  0.69618679717E+01 -0.40098829867E+02  0.46142318306E+02  0.10000004972E+02 0.  0.
         12    1    1    2    0    0  0.19306208247E+02 -0.69618679717E+01  0.40098829867E+02  0.45045681694E+02  0.00000000000E+00 0. -1.
         11    1    3    3    0    0 -0.49457423430E+01  0.47546344862E+00 -0.35630962488E+01  0.61140892988E+01  0.51100000000E-03 0. -1.
        -11    1    3    3    0    0 -0.20307089482E+01  0.27399977787E+01 -0.63751519257E+01  0.72300711612E+01  0.51100000000E-03 0.  1.
         12    1    3    3    0    0 -0.12329756956E+02  0.37464067444E+01 -0.30160581693E+02  0.32798157846E+02  0.00000000000E+00 0. -1.
</event>
<event>
 7    1  0.4623443E-009  0.4614232E+02  0.7816164E-02  0.1320468E+00
        -11   -1    0    0    0    0  0.00000000000E+00  0.00000000000E+00  0.45593999997E+02  0.45594000000E+02  0.51100000000E-03 0. -1.
         11   -1    0    0    0    0 -0.00000000000E+00 -0.00000000000E+00 -0.45593999997E+02  0.45594000000E+02  0.51100000000E-03 0.  1.
    9900012    2    1    2    0    0  0.21620351205E+02  0.11590280118E+02  0.37780142980E+02  0.46142318930E+02  0.10000010661E+02 0.  0.
        -12    1    1    2    0    0 -0.21620351205E+02 -0.11590280118E+02 -0.37780142980E+02  0.45045681070E+02  0.00000000000E+00 0.  1.
         11    1    3    3    0    0  0.97710403349E+01  0.42785056590E+01  0.21998990742E+02  0.24448608014E+02  0.51100000000E-03 0.  1.
        -11    1    3    3    0    0  0.74540351807E+01  0.72720968932E+01  0.12066449110E+02  0.15938796318E+02  0.51100000000E-03 0. -1.
        -12    1    3    3    0    0  0.43952756892E+01  0.39677565583E-01  0.37147031288E+01  0.57549145979E+01  0.00000000000E+00 0.  1.
</event>
<event>
 7    1  0.4623443E-009  0.4614232E+02  0.7816164E-02  0.1320468E+00
        -11   -1    0    0    0    0  0.00000000000E+00  0.00000000000E+00  0.45593999997E+02  0.45594000000E+02  0.51100000000E-03 0. -1.
         11   -1    0    0    0    0 -0.00000000000E+00 -0.00000000000E+00 -0.45593999997E+02  0.45594000000E+02  0.51100000000E-03 0.  1.
    9900012    2    1    2    0    0 -0.18736326900E+02 -0.30076899625E+02  0.27810855708E+02  0.46142317277E+02  0.99999955836E+01 0.  0.
        -12    1    1    2    0    0  0.18736326900E+02  0.30076899625E+02 -0.27810855708E+02  0.45045682723E+02  0.00000000000E+00 0.  1.
         11    1    3    3    0    0 -0.57198806250E+01 -0.10734112978E+02  0.11536376775E+02  0.16763836230E+02  0.51100000000E-03 0. -1.
        -11    1    3    3    0    0 -0.44828285599E+00 -0.56942863733E+01  0.23301911312E+01  0.61689258213E+01  0.51100000000E-03 0.  1.
        -12    1    3    3    0    0 -0.12568163419E+02 -0.13648500273E+02  0.13944287803E+02  0.23209555226E+02  0.00000000000E+00 0.  1.
</event>
<event>
 7    1  0.4623443E-009  0.4614232E+02  0.7816164E-02  0.1320468E+00
        -11   -1    0    0    0    0  0.00000000000E+00  0.00000000000E+00  0.45593999997E+02  0.45594000000E+02  0.51100000000E-03 0. -1.
         11   -1    0    0    0    0 -0.00000000000E+00 -0.00000000000E+00 -0.45593999997E+02  0.45594000000E+02  0.51100000000E-03 0.  1.
    9900012    2    1    2    0    0  0.78170415274E+01 -0.20931142052E+02 -0.39113867255E+02  0.46142318104E+02  0.10000003129E+02 0.  0.
         12    1    1    2    0    0 -0.78170415274E+01  0.20931142052E+02  0.39113867255E+02  0.45045681896E+02  0.00000000000E+00 0. -1.
         11    1    3    3    0    0  0.12571471514E+01 -0.13143842810E+01 -0.20148246555E+01  0.27143219507E+01  0.51100000000E-03 0. -1.
        -11    1    3    3    0    0  0.53624794075E+01 -0.34908159716E+01 -0.10051533225E+02  0.11915338937E+02  0.51100000000E-03 0.  1.
        -12    1    3    3    0    0  0.11974149685E+01 -0.16125941799E+02 -0.27047509374E+02  0.31512657217E+02  0.00000000000E+00 0.  1.
</event>
<event>
 7    1  0.4623443E-009  0.4614232E+02  0.7816164E-02  0.1320468E+00
        -11   -1    0    0    0    0  0.00000000000E+00  0.00000000000E+00  0.45593999997E+02  0.45594000000E+02  0.51100000000E-03 0. -1.
         11   -1    0    0    0    0 -0.00000000000E+00 -0.00000000000E+00 -0.45593999997E+02  0.45594000000E+02  0.51100000000E-03 0.  1.
    9900012    2    1    2    0    0 -0.34886439678E+01  0.22709505550E+02 -0.38745595038E+02  0.46142318588E+02  0.10000007537E+02 0.  0.
         12    1    1    2    0    0  0.34886439678E+01 -0.22709505550E+02  0.38745595038E+02  0.45045681412E+02  0.00000000000E+00 0. -1.
         11    1    3    3    0    0  0.14470305242E+01  0.15501233408E+01 -0.10810123021E+01  0.23802032619E+01  0.51100000000E-03 0. -1.
        -11    1    3    3    0    0  0.18723831650E-01  0.99531020449E+01 -0.18698373942E+02  0.21182393142E+02  0.51100000000E-03 0.  1.
        -12    1    3    3    0    0 -0.49543983237E+01  0.11206280165E+02 -0.18966208794E+02  0.22579722184E+02  0.00000000000E+00 0.  1.
</event>
<event>
 7    1  0.4623443E-009  0.4614232E+02  0.7816164E-02  0.1320468E+00
        -11   -1    0    0    0    0  0.00000000000E+00  0.00000000000E+00  0.45593999997E+02  0.45594000000E+02  0.51100000000E-03 0. -1.
         11   -1    0    0    0    0 -0.00000000000E+00 -0.00000000000E+00 -0.45593999997E+02  0.45594000000E+02  0.51100000000E-03 0.  1.
    9900012    2    1    2    0    0  0.29982113598E+02 -0.30182706569E+02 -0.14805086728E+02  0.46142317581E+02  0.99999983568E+01 0.  0.
         12    1    1    2    0    0 -0.29982113598E+02  0.30182706569E+02  0.14805086728E+02  0.45045682419E+02  0.00000000000E+00 0. -1.
         11    1    3    3    0    0  0.41675135693E+01 -0.53311243675E+01  0.84391556690E+00  0.68191825109E+01  0.51100000000E-03 0. -1.
        -11    1    3    3    0    0  0.12054090336E+02 -0.14487394983E+02 -0.83741110677E+01  0.20623080363E+02  0.51100000000E-03 0.  1.
        -12    1    3    3    0    0  0.13760509692E+02 -0.10364187218E+02 -0.72748912267E+01  0.18700054707E+02  0.00000000000E+00 0.  1.
</event>
<event>
 7    1  0.4623443E-009  0.4614232E+02  0.7816164E-02  0.1320468E+00
        -11   -1    0    0    0    0  0.00000000000E+00  0.00000000000E+00  0.45593999997E+02  0.45594000000E+02  0.51100000000E-03 0. -1.
         11   -1    0    0    0    0 -0.00000000000E+00 -0.00000000000E+00 -0.45593999997E+02  0.45594000000E+02  0.51100000000E-03 0.  1.
    9900012    2    1    2    0    0 -0.31963395410E+02 -0.16618268309E+02 -0.27042337138E+02  0.46142317792E+02  0.10000000279E+02 0.  0.
         12    1    1    2    0    0  0.31963395410E+02  0.16618268309E+02  0.27042337138E+02  0.45045682208E+02  0.00000000000E+00 0. -1.
         11    1    3    3    0    0 -0.15911616886E+01  0.88617169348E+00 -0.22821298460E+01  0.29197966855E+01  0.51100000000E-03 0. -1.
        -11    1    3    3    0    0 -0.61911948570E+01 -0.14699137660E+01 -0.35928037509E+01  0.73075152611E+01  0.51100000000E-03 0.  1.
        -12    1    3    3    0    0 -0.24181038864E+02 -0.16034526237E+02 -0.21167403541E+02  0.35915005845E+02  0.00000000000E+00 0.  1.
</event>
<event>
 7    1  0.4623443E-009  0.4614232E+02  0.7816164E-02  0.1320468E+00
        -11   -1    0    0    0    0  0.00000000000E+00  0.00000000000E+00  0.45593999997E+02  0.45594000000E+02  0.51100000000E-03 0. -1.
         11   -1    0    0    0    0 -0.00000000000E+00 -0.00000000000E+00 -0.45593999997E+02  0.45594000000E+02  0.51100000000E-03 0.  1.
    9900012    2    1    2    0    0  0.52193337712E+01  0.94031707944E+01 -0.43743026556E+02  0.46142318317E+02  0.10000005070E+02 0.  0.
         12    1    1    2    0    0 -0.52193337712E+01 -0.94031707944E+01  0.43743026556E+02  0.45045681683E+02  0.00000000000E+00 0. -1.
         11    1    3    3    0    0  0.23394777625E+00 -0.49916140620E+00 -0.15549525942E+02  0.15559294680E+02  0.51100000000E-03 0. -1.
        -11    1    3    3    0    0  0.54725256149E+01  0.73094461213E+01 -0.23266550267E+02  0.24994177338E+02  0.51100000000E-03 0.  1.
        -12    1    3    3    0    0 -0.48713962001E+00  0.25928860794E+01 -0.49269503469E+01  0.55888462987E+01  0.00000000000E+00 0.  1.
</event>
<event>
 7    1  0.4623443E-009  0.4614232E+02  0.7816164E-02  0.1320468E+00
        -11   -1    0    0    0    0  0.00000000000E+00  0.00000000000E+00  0.45593999997E+02  0.45594000000E+02  0.51100000000E-03 0. -1.
         11   -1    0    0    0    0 -0.00000000000E+00 -0.00000000000E+00 -0.45593999997E+02  0.45594000000E+02  0.51100000000E-03 0.  1.
    9900012    2    1    2    0    0 -0.13335446480E+02  0.30331651716E+02 -0.30516721229E+02  0.46142317597E+02  0.99999984994E+01 0.  0.
         12    1    1    2    0    0  0.13335446480E+02 -0.30331651716E+02  0.30516721229E+02  0.45045682403E+02  0.00000000000E+00 0. -1.
         11    1    3    3    0    0 -0.46024596241E+01  0.99499243034E+01 -0.10795747203E+02  0.15386090672E+02  0.51100000000E-03 0.  1.
        -11    1    3    3    0    0 -0.49995476153E+01  0.16722914710E+02 -0.11133329668E+02  0.20702714376E+02  0.51100000000E-03 0. -1.
         12    1    3    3    0    0 -0.37334392405E+01  0.36588127021E+01 -0.85876443577E+01  0.10053512549E+02  0.00000000000E+00 0. -1.
</event>
<event>
 7    1  0.4623443E-009  0.4614232E+02  0.7816164E-02  0.1320468E+00
        -11   -1    0    0    0    0  0.00000000000E+00  0.00000000000E+00  0.45593999997E+02  0.45594000000E+02  0.51100000000E-03 0. -1.
         11   -1    0    0    0    0 -0.00000000000E+00 -0.00000000000E+00 -0.45593999997E+02  0.45594000000E+02  0.51100000000E-03 0.  1.
    9900012    2    1    2    0    0 -0.24479767473E+02  0.27478820547E+02  0.25976316760E+02  0.46142316227E+02  0.99999860104E+01 0.  0.
        -12    1    1    2    0    0  0.24479767473E+02 -0.27478820547E+02 -0.25976316760E+02  0.45045683773E+02  0.00000000000E+00 0.  1.
         11    1    3    3    0    0 -0.21210811095E+01  0.11502459607E+01 -0.22908543570E+00  0.24237432292E+01  0.51100000000E-03 0. -1.
        -11    1    3    3    0    0 -0.11068882966E+02  0.87878714680E+01  0.10417540368E+02  0.17557676459E+02  0.51100000000E-03 0.  1.
         12    1    3    3    0    0 -0.11289803397E+02  0.17540703118E+02  0.15787861827E+02  0.26160896538E+02  0.00000000000E+00 0. -1.
</event>
<event>
 7    1  0.4623443E-009  0.4614232E+02  0.7816164E-02  0.1320468E+00
        -11   -1    0    0    0    0  0.00000000000E+00  0.00000000000E+00  0.45593999997E+02  0.45594000000E+02  0.51100000000E-03 0. -1.
         11   -1    0    0    0    0 -0.00000000000E+00 -0.00000000000E+00 -0.45593999997E+02  0.45594000000E+02  0.51100000000E-03 0.  1.
    9900012    2    1    2    0    0 -0.99766721521E+01  0.19667927927E+02 -0.39277883389E+02  0.46142317635E+02  0.99999988518E+01 0.  0.
         12    1    1    2    0    0  0.99766721521E+01 -0.19667927927E+02  0.39277883389E+02  0.45045682365E+02  0.00000000000E+00 0. -1.
         11    1    3    3    0    0 -0.36477519566E+01  0.14022872754E+01 -0.10592351566E+02  0.11290279708E+02  0.51100000000E-03 0. -1.
        -11    1    3    3    0    0 -0.54714983294E+01  0.13031727692E+02 -0.17678641941E+02  0.22633992175E+02  0.51100000000E-03 0.  1.
         12    1    3    3    0    0 -0.85742186617E+00  0.52339129591E+01 -0.11006889882E+02  0.12218045752E+02  0.00000000000E+00 0. -1.
</event>
<event>
 7    1  0.5717590E-009  0.4614232E+02  0.7816164E-02  0.1320468E+00
        -11   -1    0    0    0    0  0.00000000000E+00  0.00000000000E+00  0.45593999997E+02  0.45594000000E+02  0.51100000000E-03 0. -1.
         11   -1    0    0    0    0 -0.00000000000E+00 -0.00000000000E+00 -0.45593999997E+02  0.45594000000E+02  0.51100000000E-03 0.  1.
    9900012    2    1    2    0    0  0.18601110034E+02 -0.17611548283E+02 -0.37053280372E+02  0.46142317480E+02  0.99999974349E+01 0.  0.
         12    1    1    2    0    0 -0.18601110034E+02  0.17611548283E+02  0.37053280372E+02  0.45045682520E+02  0.00000000000E+00 0. -1.
         11    1    3    3    0    0  0.11014644546E+02 -0.74263855961E+01 -0.15681606148E+02  0.20552040510E+02  0.51100000000E-03 0. -1.
        -11    1    3    3    0    0  0.86116219610E+01 -0.87664627420E+01 -0.18056933065E+02  0.21841788704E+02  0.51100000000E-03 0.  1.
         12    1    3    3    0    0 -0.10251564734E+01 -0.14186999451E+01 -0.33147411590E+01  0.37484882660E+01  0.00000000000E+00 0. -1.
</event>
<event>
 7    1  0.4623443E-009  0.4614232E+02  0.7816164E-02  0.1320468E+00
        -11   -1    0    0    0    0  0.00000000000E+00  0.00000000000E+00  0.45593999997E+02  0.45594000000E+02  0.51100000000E-03 0. -1.
         11   -1    0    0    0    0 -0.00000000000E+00 -0.00000000000E+00 -0.45593999997E+02  0.45594000000E+02  0.51100000000E-03 0.  1.
    9900012    2    1    2    0    0 -0.23224577502E+02  0.73629238565E+01 -0.37888254372E+02  0.46142317996E+02  0.10000002140E+02 0.  0.
         12    1    1    2    0    0  0.23224577502E+02 -0.73629238565E+01  0.37888254372E+02  0.45045682004E+02  0.00000000000E+00 0. -1.
         11    1    3    3    0    0 -0.11449013798E+02  0.85183517710E+01 -0.18940616360E+02  0.23714746092E+02  0.51100000000E-03 0. -1.
        -11    1    3    3    0    0 -0.87888220371E+01 -0.74760351533E+00 -0.15613465560E+02  0.17932724580E+02  0.51100000000E-03 0.  1.
         12    1    3    3    0    0 -0.29867416664E+01 -0.40782439907E+00 -0.33341724522E+01  0.44948473237E+01  0.00000000000E+00 0. -1.
</event>
<event>
 7    1  0.4623443E-009  0.4614232E+02  0.7816164E-02  0.1320468E+00
        -11   -1    0    0    0    0  0.00000000000E+00  0.00000000000E+00  0.45593999997E+02  0.45594000000E+02  0.51100000000E-03 0. -1.
         11   -1    0    0    0    0 -0.00000000000E+00 -0.00000000000E+00 -0.45593999997E+02  0.45594000000E+02  0.51100000000E-03 0.  1.
    9900012    2    1    2    0    0  0.29962878234E+02 -0.17494319172E+02  0.28727828301E+02  0.46142318806E+02  0.10000009527E+02 0.  0.
        -12    1    1    2    0    0 -0.29962878234E+02  0.17494319172E+02 -0.28727828301E+02  0.45045681194E+02  0.00000000000E+00 0.  1.
         11    1    3    3    0    0  0.10630846344E+02 -0.55100886957E+01  0.10803806965E+02  0.16127560777E+02  0.51100000000E-03 0. -1.
        -11    1    3    3    0    0  0.45994776895E+01  0.33923386979E+00  0.18506843600E+01  0.49694373420E+01  0.51100000000E-03 0.  1.
        -12    1    3    3    0    0  0.14732554200E+02 -0.12323464346E+02  0.16073336976E+02  0.25045320686E+02  0.00000000000E+00 0.  1.
</event>
<event>
 7    1  0.4623443E-009  0.4614232E+02  0.7816164E-02  0.1320468E+00
        -11   -1    0    0    0    0  0.00000000000E+00  0.00000000000E+00  0.45593999997E+02  0.45594000000E+02  0.51100000000E-03 0. -1.
         11   -1    0    0    0    0 -0.00000000000E+00 -0.00000000000E+00 -0.45593999997E+02  0.45594000000E+02  0.51100000000E-03 0.  1.
    9900012    2    1    2    0    0  0.15075604664E+02 -0.44601414473E+01 -0.42213110816E+02  0.46142318271E+02  0.10000004646E+02 0.  0.
         12    1    1    2    0    0 -0.15075604664E+02  0.44601414473E+01  0.42213110816E+02  0.45045681729E+02  0.00000000000E+00 0. -1.
         11    1    3    3    0    0  0.60239182488E+01 -0.62313338569E+01 -0.14803548169E+02  0.17154070985E+02  0.51100000000E-03 0. -1.
        -11    1    3    3    0    0  0.74121397923E+01  0.74823189726E+00 -0.20422602845E+02  0.21738959830E+02  0.51100000000E-03 0.  1.
         12    1    3    3    0    0  0.16395466226E+01  0.10229605123E+01 -0.69869598021E+01  0.72492874556E+01  0.00000000000E+00 0. -1.
</event>
<event>
 7    1  0.4623443E-009  0.4614232E+02  0.7816164E-02  0.1320468E+00
        -11   -1    0    0    0    0  0.00000000000E+00  0.00000000000E+00  0.45593999997E+02  0.45594000000E+02  0.51100000000E-03 0. -1.
         11   -1    0    0    0    0 -0.00000000000E+00 -0.00000000000E+00 -0.45593999997E+02  0.45594000000E+02  0.51100000000E-03 0.  1.
    9900012    2    1    2    0    0 -0.18705333190E+02 -0.28088861628E+02 -0.29836886339E+02  0.46142318479E+02  0.10000006544E+02 0.  0.
         12    1    1    2    0    0  0.18705333190E+02  0.28088861628E+02  0.29836886339E+02  0.45045681521E+02  0.00000000000E+00 0. -1.
         11    1    3    3    0    0 -0.43932897145E+00 -0.60944991254E+00 -0.19155947079E+01  0.20576546083E+01  0.51100000000E-03 0. -1.
        -11    1    3    3    0    0 -0.15120843817E+02 -0.24145909496E+02 -0.19586880243E+02  0.34573266276E+02  0.51100000000E-03 0.  1.
        -12    1    3    3    0    0 -0.31451604019E+01 -0.33335022198E+01 -0.83344113885E+01  0.95113975942E+01  0.00000000000E+00 0.  1.
</event>
<event>
 7    1  0.4623443E-009  0.4614232E+02  0.7816164E-02  0.1320468E+00
        -11   -1    0    0    0    0  0.00000000000E+00  0.00000000000E+00  0.45593999997E+02  0.45594000000E+02  0.51100000000E-03 0. -1.
         11   -1    0    0    0    0 -0.00000000000E+00 -0.00000000000E+00 -0.45593999997E+02  0.45594000000E+02  0.51100000000E-03 0.  1.
    9900012    2    1    2    0    0  0.15842415393E+02  0.12134744633E+02 -0.40384148210E+02  0.46142316751E+02  0.99999907865E+01 0.  0.
         12    1    1    2    0    0 -0.15842415393E+02 -0.12134744633E+02  0.40384148210E+02  0.45045683249E+02  0.00000000000E+00 0. -1.
         11    1    3    3    0    0  0.15871360017E+01 -0.76677573852E+00 -0.79321861515E+01  0.81256706261E+01  0.51100000000E-03 0. -1.
        -11    1    3    3    0    0  0.34083759592E+01  0.60160357858E+01 -0.12528867096E+02  0.14310213982E+02  0.51100000000E-03 0.  1.
         12    1    3    3    0    0  0.10846903432E+02  0.68854845856E+01 -0.19923094962E+02  0.23706432142E+02  0.00000000000E+00 0. -1.
</event>
<event>
 7    1  0.4623443E-009  0.4614231E+02  0.7816164E-02  0.1320468E+00
        -11   -1    0    0    0    0  0.00000000000E+00  0.00000000000E+00  0.45593999997E+02  0.45594000000E+02  0.51100000000E-03 0. -1.
         11   -1    0    0    0    0 -0.00000000000E+00 -0.00000000000E+00 -0.45593999997E+02  0.45594000000E+02  0.51100000000E-03 0.  1.
    9900012    2    1    2    0    0 -0.22577731483E+02 -0.29851600064E+02 -0.25064752692E+02  0.46142314160E+02  0.99999671665E+01 0.  0.
         12    1    1    2    0    0  0.22577731483E+02  0.29851600064E+02  0.25064752692E+02  0.45045685840E+02  0.00000000000E+00 0. -1.
         11    1    3    3    0    0 -0.32629148262E+01 -0.21254873420E+01 -0.30259605441E+01  0.49316069470E+01  0.51100000000E-03 0. -1.
        -11    1    3    3    0    0 -0.73459970005E+01 -0.50438287601E+01 -0.79901775578E+01  0.11968576280E+02  0.51100000000E-03 0.  1.
         12    1    3    3    0    0 -0.11968819656E+02 -0.22682283961E+02 -0.14048614590E+02  0.29242130934E+02  0.00000000000E+00 0. -1.
</event>
<event>
 7    1  0.4623443E-009  0.4614232E+02  0.7816164E-02  0.1320468E+00
        -11   -1    0    0    0    0  0.00000000000E+00  0.00000000000E+00  0.45593999997E+02  0.45594000000E+02  0.51100000000E-03 0.  1.
         11   -1    0    0    0    0 -0.00000000000E+00 -0.00000000000E+00 -0.45593999997E+02  0.45594000000E+02  0.51100000000E-03 0. -1.
    9900012    2    1    2    0    0 -0.17809743076E+01  0.44635195117E+02  0.58000870154E+01  0.46142317388E+02  0.99999965985E+01 0.  0.
        -12    1    1    2    0    0  0.17809743076E+01 -0.44635195117E+02 -0.58000870154E+01  0.45045682612E+02  0.00000000000E+00 0.  1.
         11    1    3    3    0    0 -0.20548241843E+01  0.35182402817E+02  0.28748331296E+01  0.35359417928E+02  0.51100000000E-03 0. -1.
        -11    1    3    3    0    0 -0.57487390936E+00  0.94842620532E+01  0.24619483477E+01  0.98154417442E+01  0.51100000000E-03 0.  1.
        -12    1    3    3    0    0  0.84872378609E+00 -0.31469753773E-01  0.46330553804E+00  0.96745771590E+00  0.00000000000E+00 0.  1.
</event>
<event>
 7    1  0.4623443E-009  0.4614232E+02  0.7816164E-02  0.1320468E+00
        -11   -1    0    0    0    0  0.00000000000E+00  0.00000000000E+00  0.45593999997E+02  0.45594000000E+02  0.51100000000E-03 0.  1.
         11   -1    0    0    0    0 -0.00000000000E+00 -0.00000000000E+00 -0.45593999997E+02  0.45594000000E+02  0.51100000000E-03 0. -1.
    9900012    2    1    2    0    0 -0.29783069061E+02 -0.21933415187E+01  0.33723456468E+02  0.46142318011E+02  0.10000002278E+02 0.  0.
        -12    1    1    2    0    0  0.29783069061E+02  0.21933415187E+01 -0.33723456468E+02  0.45045681989E+02  0.00000000000E+00 0.  1.
         11    1    3    3    0    0 -0.95033357297E+01  0.25236816134E+01  0.83015186495E+01  0.12868471977E+02  0.51100000000E-03 0. -1.
        -11    1    3    3    0    0 -0.33160274696E+01 -0.27769165943E+01  0.62548191022E+01  0.76046082222E+01  0.51100000000E-03 0.  1.
        -12    1    3    3    0    0 -0.16963705862E+02 -0.19401065378E+01  0.19167118716E+02  0.25669237812E+02  0.00000000000E+00 0.  1.
</event>
<event>
 7    1  0.4623443E-009  0.4614232E+02  0.7816164E-02  0.1320468E+00
        -11   -1    0    0    0    0  0.00000000000E+00  0.00000000000E+00  0.45593999997E+02  0.45594000000E+02  0.51100000000E-03 0. -1.
         11   -1    0    0    0    0 -0.00000000000E+00 -0.00000000000E+00 -0.45593999997E+02  0.45594000000E+02  0.51100000000E-03 0.  1.
    9900012    2    1    2    0    0  0.43211359787E+01  0.43827618704E+02 -0.94647414418E+01  0.46142315324E+02  0.99999777768E+01 0.  0.
         12    1    1    2    0    0 -0.43211359787E+01 -0.43827618704E+02  0.94647414418E+01  0.45045684676E+02  0.00000000000E+00 0. -1.
         11    1    3    3    0    0  0.17385633841E+01  0.38653587381E+02 -0.64816632952E+01  0.39231803163E+02  0.51100000000E-03 0. -1.
        -11    1    3    3    0    0  0.13120024754E+01  0.26147795669E+01 -0.21675773389E+00  0.29334973760E+01  0.51100000000E-03 0.  1.
        -12    1    3    3    0    0  0.12705701193E+01  0.25592517554E+01 -0.27663204127E+01  0.39770147852E+01  0.00000000000E+00 0.  1.
</event>
<event>
 7    1  0.4623443E-009  0.4614232E+02  0.7816164E-02  0.1320468E+00
        -11   -1    0    0    0    0  0.00000000000E+00  0.00000000000E+00  0.45593999997E+02  0.45594000000E+02  0.51100000000E-03 0. -1.
         11   -1    0    0    0    0 -0.00000000000E+00 -0.00000000000E+00 -0.45593999997E+02  0.45594000000E+02  0.51100000000E-03 0.  1.
    9900012    2    1    2    0    0  0.40551440120E+02 -0.11241866133E+02  0.16072169369E+02  0.46142317874E+02  0.10000001026E+02 0.  0.
        -12    1    1    2    0    0 -0.40551440120E+02  0.11241866133E+02 -0.16072169369E+02  0.45045682126E+02  0.00000000000E+00 0.  1.
         11    1    3    3    0    0  0.63534669934E+01  0.14987005732E-01 -0.64459827783E-01  0.63538116731E+01  0.51100000000E-03 0.  1.
        -11    1    3    3    0    0  0.10075481614E+02 -0.57964471185E+01  0.46694710343E+01  0.12526695053E+02  0.51100000000E-03 0. -1.
         12    1    3    3    0    0  0.24122491513E+02 -0.54604060206E+01  0.11467158163E+02  0.27261811148E+02  0.00000000000E+00 0. -1.
</event>
<event>
 7    1  0.4623443E-009  0.4614232E+02  0.7816164E-02  0.1320468E+00
        -11   -1    0    0    0    0  0.00000000000E+00  0.00000000000E+00  0.45593999997E+02  0.45594000000E+02  0.51100000000E-03 0. -1.
         11   -1    0    0    0    0 -0.00000000000E+00 -0.00000000000E+00 -0.45593999997E+02  0.45594000000E+02  0.51100000000E-03 0.  1.
    9900012    2    1    2    0    0  0.18540090767E+02  0.14061361435E+02  0.38570151351E+02  0.46142318450E+02  0.10000006282E+02 0.  0.
        -12    1    1    2    0    0 -0.18540090767E+02 -0.14061361435E+02 -0.38570151351E+02  0.45045681550E+02  0.00000000000E+00 0.  1.
         11    1    3    3    0    0  0.97610290987E+01  0.24305048506E+01  0.13499844653E+02  0.16835404623E+02  0.51100000000E-03 0. -1.
        -11    1    3    3    0    0  0.71534915320E+01  0.62491933361E+01  0.14491513117E+02  0.17327112025E+02  0.51100000000E-03 0.  1.
        -12    1    3    3    0    0  0.16255701361E+01  0.53816632483E+01  0.10578793581E+02  0.11979801802E+02  0.00000000000E+00 0.  1.
</event>
<event>
 7    1  0.4623443E-009  0.4614232E+02  0.7816164E-02  0.1320468E+00
        -11   -1    0    0    0    0  0.00000000000E+00  0.00000000000E+00  0.45593999997E+02  0.45594000000E+02  0.51100000000E-03 0.  1.
         11   -1    0    0    0    0 -0.00000000000E+00 -0.00000000000E+00 -0.45593999997E+02  0.45594000000E+02  0.51100000000E-03 0. -1.
    9900012    2    1    2    0    0  0.23978435759E+02 -0.35688213059E+02 -0.13435010791E+02  0.46142318212E+02  0.10000004116E+02 0.  0.
         12    1    1    2    0    0 -0.23978435759E+02  0.35688213059E+02  0.13435010791E+02  0.45045681788E+02  0.00000000000E+00 0. -1.
         11    1    3    3    0    0 -0.60549652146E+00 -0.29267530296E+01 -0.73881145179E-01  0.29896434601E+01  0.51100000000E-03 0. -1.
        -11    1    3    3    0    0  0.47144413917E+01 -0.47911016358E+01 -0.20768368673E+01  0.70351875707E+01  0.51100000000E-03 0.  1.
         12    1    3    3    0    0  0.19869490888E+02 -0.27970358393E+02 -0.11284292778E+02  0.36117487182E+02  0.00000000000E+00 0. -1.
</event>
<event>
 7    1  0.4623443E-009  0.4614232E+02  0.7816164E-02  0.1320468E+00
        -11   -1    0    0    0    0  0.00000000000E+00  0.00000000000E+00  0.45593999997E+02  0.45594000000E+02  0.51100000000E-03 0. -1.
         11   -1    0    0    0    0 -0.00000000000E+00 -0.00000000000E+00 -0.45593999997E+02  0.45594000000E+02  0.51100000000E-03 0.  1.
    9900012    2    1    2    0    0  0.16875851974E+02 -0.74364069224E+01 -0.41097675066E+02  0.46142318481E+02  0.10000006560E+02 0.  0.
         12    1    1    2    0    0 -0.16875851974E+02  0.74364069224E+01  0.41097675066E+02  0.45045681519E+02  0.00000000000E+00 0. -1.
         11    1    3    3    0    0  0.12221968467E+02 -0.73435124940E+01 -0.28866972955E+02  0.32196363409E+02  0.51100000000E-03 0. -1.
        -11    1    3    3    0    0  0.35002647601E+01  0.11449455047E+01 -0.11548583415E+02  0.12121573031E+02  0.51100000000E-03 0.  1.
         12    1    3    3    0    0  0.11536187463E+01 -0.12378399331E+01 -0.68211869600E+00  0.18243820399E+01  0.00000000000E+00 0. -1.
</event>
<event>
 7    1  0.4623443E-009  0.4614232E+02  0.7816164E-02  0.1320468E+00
        -11   -1    0    0    0    0  0.00000000000E+00  0.00000000000E+00  0.45593999997E+02  0.45594000000E+02  0.51100000000E-03 0. -1.
         11   -1    0    0    0    0 -0.00000000000E+00 -0.00000000000E+00 -0.45593999997E+02  0.45594000000E+02  0.51100000000E-03 0.  1.
    9900012    2    1    2    0    0 -0.20892072218E+02  0.27834869209E+02 -0.28598165735E+02  0.46142315314E+02  0.99999776873E+01 0.  0.
         12    1    1    2    0    0  0.20892072218E+02 -0.27834869209E+02  0.28598165735E+02  0.45045684686E+02  0.00000000000E+00 0. -1.
         11    1    3    3    0    0 -0.66453426098E+01  0.56482600589E+01 -0.84318523795E+01  0.12130933802E+02  0.51100000000E-03 0. -1.
        -11    1    3    3    0    0 -0.14917523870E+02  0.21659762651E+02 -0.18549113418E+02  0.32183030394E+02  0.51100000000E-03 0.  1.
         12    1    3    3    0    0  0.67079426127E+00  0.52684649844E+00 -0.16171999373E+01  0.18283511181E+01  0.00000000000E+00 0. -1.
</event>
<event>
 7    1  0.4623443E-009  0.4614232E+02  0.7816164E-02  0.1320468E+00
        -11   -1    0    0    0    0  0.00000000000E+00  0.00000000000E+00  0.45593999997E+02  0.45594000000E+02  0.51100000000E-03 0. -1.
         11   -1    0    0    0    0 -0.00000000000E+00 -0.00000000000E+00 -0.45593999997E+02  0.45594000000E+02  0.51100000000E-03 0.  1.
    9900012    2    1    2    0    0  0.30678516196E+02 -0.21693631402E+02  0.24846097460E+02  0.46142316984E+02  0.99999929124E+01 0.  0.
        -12    1    1    2    0    0 -0.30678516196E+02  0.21693631402E+02 -0.24846097460E+02  0.45045683016E+02  0.00000000000E+00 0.  1.
         11    1    3    3    0    0  0.14049229173E+02 -0.78301271700E+01  0.11305710425E+02  0.19659878441E+02  0.51100000000E-03 0. -1.
        -11    1    3    3    0    0  0.12751637734E+02 -0.11271036667E+02  0.13650197541E+02  0.21816700613E+02  0.51100000000E-03 0.  1.
        -12    1    3    3    0    0  0.38776492891E+01 -0.25924675645E+01 -0.10981050594E+00  0.46657379298E+01  0.00000000000E+00 0.  1.
</event>
<event>
 7    1  0.4623443E-009  0.4614232E+02  0.7816164E-02  0.1320468E+00
        -11   -1    0    0    0    0  0.00000000000E+00  0.00000000000E+00  0.45593999997E+02  0.45594000000E+02  0.51100000000E-03 0. -1.
         11   -1    0    0    0    0 -0.00000000000E+00 -0.00000000000E+00 -0.45593999997E+02  0.45594000000E+02  0.51100000000E-03 0.  1.
    9900012    2    1    2    0    0  0.13713588002E+02  0.20269460151E+02 -0.37817984682E+02  0.46142317897E+02  0.10000001239E+02 0.  0.
         12    1    1    2    0    0 -0.13713588002E+02 -0.20269460151E+02  0.37817984682E+02  0.45045682103E+02  0.00000000000E+00 0. -1.
         11    1    3    3    0    0  0.27791186584E+01  0.19122336460E+01 -0.22493334845E+01  0.40545825210E+01  0.51100000000E-03 0. -1.
        -11    1    3    3    0    0  0.11364679712E+02  0.16516601762E+02 -0.34536670713E+02  0.39934142071E+02  0.51100000000E-03 0.  1.
        -12    1    3    3    0    0 -0.43021036761E+00  0.18406247428E+01 -0.10319804845E+01  0.21535933053E+01  0.00000000000E+00 0.  1.
</event>
<event>
 7    1  0.4623443E-009  0.4614232E+02  0.7816164E-02  0.1320468E+00
        -11   -1    0    0    0    0  0.00000000000E+00  0.00000000000E+00  0.45593999997E+02  0.45594000000E+02  0.51100000000E-03 0. -1.
         11   -1    0    0    0    0 -0.00000000000E+00 -0.00000000000E+00 -0.45593999997E+02  0.45594000000E+02  0.51100000000E-03 0.  1.
    9900012    2    1    2    0    0  0.34112578086E+02 -0.23082529052E+02  0.18238485756E+02  0.46142317701E+02  0.99999994528E+01 0.  0.
        -12    1    1    2    0    0 -0.34112578086E+02  0.23082529052E+02 -0.18238485756E+02  0.45045682299E+02  0.00000000000E+00 0.  1.
         11    1    3    3    0    0  0.11932703748E+01 -0.22704793225E+01  0.12933061678E+01  0.28725618611E+01  0.51100000000E-03 0. -1.
        -11    1    3    3    0    0  0.66432547078E+01 -0.13860969987E+01  0.83614860024E+00  0.68376342945E+01  0.51100000000E-03 0.  1.
         12    1    3    3    0    0  0.26276053003E+02 -0.19425952731E+02  0.16109030988E+02  0.36432121545E+02  0.00000000000E+00 0. -1.
</event>
<event>
 7    1  0.4623443E-009  0.4614232E+02  0.7816164E-02  0.1320468E+00
        -11   -1    0    0    0    0  0.00000000000E+00  0.00000000000E+00  0.45593999997E+02  0.45594000000E+02  0.51100000000E-03 0.  1.
         11   -1    0    0    0    0 -0.00000000000E+00 -0.00000000000E+00 -0.45593999997E+02  0.45594000000E+02  0.51100000000E-03 0. -1.
    9900012    2    1    2    0    0  0.19497657580E+02  0.16481755484E+02 -0.37112082620E+02  0.46142316618E+02  0.99999895768E+01 0.  0.
         12    1    1    2    0    0 -0.19497657580E+02 -0.16481755484E+02  0.37112082620E+02  0.45045683382E+02  0.00000000000E+00 0. -1.
         11    1    3    3    0    0  0.89608733763E+00  0.91991519102E+00  0.44752311774E+00  0.13599609102E+01  0.51100000000E-03 0. -1.
        -11    1    3    3    0    0  0.37487490477E+01  0.18906038096E+01 -0.66759280340E+01  0.78864134791E+01  0.51100000000E-03 0.  1.
        -12    1    3    3    0    0  0.14852821194E+02  0.13671236484E+02 -0.30883677704E+02  0.36895942229E+02  0.00000000000E+00 0.  1.
</event>
<event>
 7    1  0.5817839E-009  0.4614232E+02  0.7816164E-02  0.1320468E+00
        -11   -1    0    0    0    0  0.00000000000E+00  0.00000000000E+00  0.45593999997E+02  0.45594000000E+02  0.51100000000E-03 0. -1.
         11   -1    0    0    0    0 -0.00000000000E+00 -0.00000000000E+00 -0.45593999997E+02  0.45594000000E+02  0.51100000000E-03 0.  1.
    9900012    2    1    2    0    0 -0.19028681127E+02  0.54172799803E+01 -0.40468208495E+02  0.46142317336E+02  0.99999961275E+01 0.  0.
         12    1    1    2    0    0  0.19028681127E+02 -0.54172799803E+01  0.40468208495E+02  0.45045682664E+02  0.00000000000E+00 0. -1.
         11    1    3    3    0    0 -0.76797487068E+01  0.25185311304E+00 -0.10823264967E+02  0.13273471098E+02  0.51100000000E-03 0. -1.
        -11    1    3    3    0    0 -0.10749319683E+02  0.19491415736E+01 -0.22868249337E+02  0.25343714300E+02  0.51100000000E-03 0.  1.
         12    1    3    3    0    0 -0.59961273718E+00  0.32162852936E+01 -0.67766941914E+01  0.75251319382E+01  0.00000000000E+00 0. -1.
</event>
<event>
 7    1  0.4623443E-009  0.4614232E+02  0.7816164E-02  0.1320468E+00
        -11   -1    0    0    0    0  0.00000000000E+00  0.00000000000E+00  0.45593999997E+02  0.45594000000E+02  0.51100000000E-03 0. -1.
         11   -1    0    0    0    0 -0.00000000000E+00 -0.00000000000E+00 -0.45593999997E+02  0.45594000000E+02  0.51100000000E-03 0.  1.
    9900012    2    1    2    0    0  0.25410610589E+02 -0.17218047145E+02 -0.32968973558E+02  0.46142317683E+02  0.99999992832E+01 0.  0.
         12    1    1    2    0    0 -0.25410610589E+02  0.17218047145E+02  0.32968973558E+02  0.45045682317E+02  0.00000000000E+00 0. -1.
         11    1    3    3    0    0  0.12456149259E+02 -0.88515705717E+01 -0.14068958951E+02  0.20771171420E+02  0.51100000000E-03 0. -1.
        -11    1    3    3    0    0  0.88287454392E+01 -0.18593902729E+01 -0.82450922225E+01  0.12222341193E+02  0.51100000000E-03 0.  1.
        -12    1    3    3    0    0  0.41257158908E+01 -0.65070863000E+01 -0.10654922385E+02  0.13148805070E+02  0.00000000000E+00 0.  1.
</event>
<event>
 7    1  0.4623443E-009  0.4614232E+02  0.7816164E-02  0.1320468E+00
        -11   -1    0    0    0    0  0.00000000000E+00  0.00000000000E+00  0.45593999997E+02  0.45594000000E+02  0.51100000000E-03 0. -1.
         11   -1    0    0    0    0 -0.00000000000E+00 -0.00000000000E+00 -0.45593999997E+02  0.45594000000E+02  0.51100000000E-03 0.  1.
    9900012    2    1    2    0    0  0.10900084953E+02 -0.44891759327E+01 -0.43475844298E+02  0.46142316634E+02  0.99999897194E+01 0.  0.
         12    1    1    2    0    0 -0.10900084953E+02  0.44891759327E+01  0.43475844298E+02  0.45045683366E+02  0.00000000000E+00 0. -1.
         11    1    3    3    0    0  0.24913344624E+01  0.74749396804E+00 -0.35884532642E+01  0.44319850774E+01  0.51100000000E-03 0. -1.
        -11    1    3    3    0    0  0.28057806887E+01 -0.23177238424E+01 -0.46183539291E+01  0.58799185673E+01  0.51100000000E-03 0.  1.
        -12    1    3    3    0    0  0.56029698022E+01 -0.29189460583E+01 -0.35269037104E+02  0.35830412989E+02  0.00000000000E+00 0.  1.
</event>
<event>
 7    1  0.4623443E-009  0.4614232E+02  0.7816164E-02  0.1320468E+00
        -11   -1    0    0    0    0  0.00000000000E+00  0.00000000000E+00  0.45593999997E+02  0.45594000000E+02  0.51100000000E-03 0. -1.
         11   -1    0    0    0    0 -0.00000000000E+00 -0.00000000000E+00 -0.45593999997E+02  0.45594000000E+02  0.51100000000E-03 0.  1.
    9900012    2    1    2    0    0 -0.70295610136E+00  0.10383959456E+02  0.43826848571E+02  0.46142318554E+02  0.10000007235E+02 0.  0.
        -12    1    1    2    0    0  0.70295610136E+00 -0.10383959456E+02 -0.43826848571E+02  0.45045681446E+02  0.00000000000E+00 0.  1.
         11    1    3    3    0    0  0.30096957084E+01  0.62218057287E+01  0.18473224775E+02  0.19723822364E+02  0.51100000000E-03 0. -1.
        -11    1    3    3    0    0  0.74983685560E+00  0.23313937271E+01  0.11230301941E+02  0.11494230465E+02  0.51100000000E-03 0.  1.
         12    1    3    3    0    0 -0.44624886654E+01  0.18307600002E+01  0.14123321854E+02  0.14924265726E+02  0.00000000000E+00 0. -1.
</event>
<event>
 7    1  0.4800411E-009  0.4614232E+02  0.7816164E-02  0.1320468E+00
        -11   -1    0    0    0    0  0.00000000000E+00  0.00000000000E+00  0.45593999997E+02  0.45594000000E+02  0.51100000000E-03 0.  1.
         11   -1    0    0    0    0 -0.00000000000E+00 -0.00000000000E+00 -0.45593999997E+02  0.45594000000E+02  0.51100000000E-03 0. -1.
    9900012    2    1    2    0    0  0.38150883085E+02  0.20312353343E+01 -0.23864144491E+02  0.46142321080E+02  0.10000030261E+02 0.  0.
         12    1    1    2    0    0 -0.38150883085E+02 -0.20312353343E+01  0.23864144491E+02  0.45045678920E+02  0.00000000000E+00 0. -1.
         11    1    3    3    0    0  0.22569741964E+01 -0.16384577484E+00 -0.23109638550E+01  0.32343982688E+01  0.51100000000E-03 0. -1.
        -11    1    3    3    0    0  0.18194188296E+02  0.10514049180E+01 -0.16192464682E+02  0.24378881287E+02  0.51100000000E-03 0.  1.
         12    1    3    3    0    0  0.17699720592E+02  0.11436761911E+01 -0.53607159541E+01  0.18529041524E+02  0.00000000000E+00 0. -1.
</event>
<event>
 7    1  0.4623443E-009  0.4614232E+02  0.7816164E-02  0.1320468E+00
        -11   -1    0    0    0    0  0.00000000000E+00  0.00000000000E+00  0.45593999997E+02  0.45594000000E+02  0.51100000000E-03 0.  1.
         11   -1    0    0    0    0 -0.00000000000E+00 -0.00000000000E+00 -0.45593999997E+02  0.45594000000E+02  0.51100000000E-03 0. -1.
    9900012    2    1    2    0    0  0.17587929786E+02  0.41168394284E+02  0.49941506602E+01  0.46142317600E+02  0.99999985271E+01 0.  0.
        -12    1    1    2    0    0 -0.17587929786E+02 -0.41168394284E+02 -0.49941506602E+01  0.45045682400E+02  0.00000000000E+00 0.  1.
         11    1    3    3    0    0  0.46657129332E+01  0.12875660032E+02 -0.41458127417E+00  0.13701218060E+02  0.51100000000E-03 0. -1.
        -11    1    3    3    0    0  0.11899588250E+02  0.27321087676E+02  0.66829259589E+01  0.30540195349E+02  0.51100000000E-03 0.  1.
        -12    1    3    3    0    0  0.10226286030E+01  0.97164657555E+00 -0.12741940245E+01  0.19009041900E+01  0.00000000000E+00 0.  1.
</event>
<event>
 7    1  0.4623443E-009  0.4614232E+02  0.7816164E-02  0.1320468E+00
        -11   -1    0    0    0    0  0.00000000000E+00  0.00000000000E+00  0.45593999997E+02  0.45594000000E+02  0.51100000000E-03 0. -1.
         11   -1    0    0    0    0 -0.00000000000E+00 -0.00000000000E+00 -0.45593999997E+02  0.45594000000E+02  0.51100000000E-03 0.  1.
    9900012    2    1    2    0    0 -0.10988866603E+02 -0.41244657583E+02  0.14395701621E+02  0.46142321034E+02  0.10000029848E+02 0.  0.
        -12    1    1    2    0    0  0.10988866603E+02  0.41244657583E+02 -0.14395701621E+02  0.45045678966E+02  0.00000000000E+00 0.  1.
         11    1    3    3    0    0 -0.63392356977E+01 -0.23080139036E+02  0.78795429261E+01  0.25198530198E+02  0.51100000000E-03 0. -1.
        -11    1    3    3    0    0 -0.39380128142E+01 -0.94030130778E+01  0.66157122746E+01  0.12152869991E+02  0.51100000000E-03 0.  1.
        -12    1    3    3    0    0 -0.71161809129E+00 -0.87615054690E+01 -0.99553580125E-01  0.87909208452E+01  0.00000000000E+00 0.  1.
</event>
<event>
 7    1  0.4623443E-009  0.4614232E+02  0.7816164E-02  0.1320468E+00
        -11   -1    0    0    0    0  0.00000000000E+00  0.00000000000E+00  0.45593999997E+02  0.45594000000E+02  0.51100000000E-03 0. -1.
         11   -1    0    0    0    0 -0.00000000000E+00 -0.00000000000E+00 -0.45593999997E+02  0.45594000000E+02  0.51100000000E-03 0.  1.
    9900012    2    1    2    0    0  0.31962685105E+02 -0.21336857605E+02  0.23499759476E+02  0.46142318442E+02  0.10000006209E+02 0.  0.
        -12    1    1    2    0    0 -0.31962685105E+02  0.21336857605E+02 -0.23499759476E+02  0.45045681558E+02  0.00000000000E+00 0.  1.
         11    1    3    3    0    0  0.17698907831E+02 -0.14208153823E+02  0.96360795081E+01  0.24657189662E+02  0.51100000000E-03 0. -1.
        -11    1    3    3    0    0  0.23105932894E+01 -0.52996927479E-01  0.88496874751E+00  0.24748373621E+01  0.51100000000E-03 0.  1.
        -12    1    3    3    0    0  0.11953183985E+02 -0.70757068550E+01  0.12978711220E+02  0.19010291418E+02  0.00000000000E+00 0.  1.
</event>
<event>
 7    1  0.4623443E-009  0.4614232E+02  0.7816164E-02  0.1320468E+00
        -11   -1    0    0    0    0  0.00000000000E+00  0.00000000000E+00  0.45593999997E+02  0.45594000000E+02  0.51100000000E-03 0. -1.
         11   -1    0    0    0    0 -0.00000000000E+00 -0.00000000000E+00 -0.45593999997E+02  0.45594000000E+02  0.51100000000E-03 0.  1.
    9900012    2    1    2    0    0 -0.11437871854E+02 -0.28563157174E+02 -0.32900374354E+02  0.46142317711E+02  0.99999995394E+01 0.  0.
         12    1    1    2    0    0  0.11437871854E+02  0.28563157174E+02  0.32900374354E+02  0.45045682289E+02  0.00000000000E+00 0. -1.
         11    1    3    3    0    0 -0.38638338090E+00 -0.98521592277E-01 -0.17740822795E+01  0.18183417766E+01  0.51100000000E-03 0. -1.
        -11    1    3    3    0    0 -0.76752834524E+01 -0.25585325980E+02 -0.28919656874E+02  0.39368330362E+02  0.51100000000E-03 0.  1.
        -12    1    3    3    0    0 -0.33762050203E+01 -0.28793096018E+01 -0.22066352012E+01  0.49556455718E+01  0.00000000000E+00 0.  1.
</event>
<event>
 7    1  0.4623443E-009  0.4614232E+02  0.7816164E-02  0.1320468E+00
        -11   -1    0    0    0    0  0.00000000000E+00  0.00000000000E+00  0.45593999997E+02  0.45594000000E+02  0.51100000000E-03 0.  1.
         11   -1    0    0    0    0 -0.00000000000E+00 -0.00000000000E+00 -0.45593999997E+02  0.45594000000E+02  0.51100000000E-03 0. -1.
    9900012    2    1    2    0    0 -0.31382528363E+02  0.32142801495E+02 -0.33302780497E+01  0.46142317340E+02  0.99999961616E+01 0.  0.
         12    1    1    2    0    0  0.31382528363E+02 -0.32142801495E+02  0.33302780497E+01  0.45045682660E+02  0.00000000000E+00 0. -1.
         11    1    3    3    0    0 -0.20656775881E+00  0.32769522306E+01  0.14390468519E+00  0.32866084312E+01  0.51100000000E-03 0. -1.
        -11    1    3    3    0    0 -0.24835391292E+02  0.24503084802E+02 -0.15524185487E+01  0.34922884031E+02  0.51100000000E-03 0.  1.
         12    1    3    3    0    0 -0.63405693121E+01  0.43627644632E+01 -0.19217641862E+01  0.79328248783E+01  0.00000000000E+00 0. -1.
</event>
<event>
 7    1  0.4623443E-009  0.4614232E+02  0.7816164E-02  0.1320468E+00
        -11   -1    0    0    0    0  0.00000000000E+00  0.00000000000E+00  0.45593999997E+02  0.45594000000E+02  0.51100000000E-03 0.  1.
         11   -1    0    0    0    0 -0.00000000000E+00 -0.00000000000E+00 -0.45593999997E+02  0.45594000000E+02  0.51100000000E-03 0. -1.
    9900012    2    1    2    0    0 -0.43997198341E+02  0.56990923123E+01  0.78025869076E+01  0.46142317882E+02  0.10000001103E+02 0.  0.
         12    1    1    2    0    0  0.43997198341E+02 -0.56990923123E+01 -0.78025869076E+01  0.45045682118E+02  0.00000000000E+00 0. -1.
         11    1    3    3    0    0 -0.16040711436E+02  0.15967073314E+01  0.54441411973E+01  0.17014481224E+02  0.51100000000E-03 0. -1.
        -11    1    3    3    0    0 -0.62125493210E+00  0.65431910259E-01  0.13387310051E+01  0.14773083600E+01  0.51100000000E-03 0.  1.
        -12    1    3    3    0    0 -0.27335231973E+02  0.40369530707E+01  0.10197147053E+01  0.27650528298E+02  0.00000000000E+00 0.  1.
</event>
<event>
 7    1  0.4623443E-009  0.4614232E+02  0.7816164E-02  0.1320468E+00
        -11   -1    0    0    0    0  0.00000000000E+00  0.00000000000E+00  0.45593999997E+02  0.45594000000E+02  0.51100000000E-03 0. -1.
         11   -1    0    0    0    0 -0.00000000000E+00 -0.00000000000E+00 -0.45593999997E+02  0.45594000000E+02  0.51100000000E-03 0.  1.
    9900012    2    1    2    0    0  0.38345816933E+02 -0.79965452960E+01 -0.22243362849E+02  0.46142316480E+02  0.99999883191E+01 0.  0.
         12    1    1    2    0    0 -0.38345816933E+02  0.79965452960E+01  0.22243362849E+02  0.45045683520E+02  0.00000000000E+00 0. -1.
         11    1    3    3    0    0  0.43293337723E+01 -0.57007788346E+00 -0.14419667523E+01  0.45986289349E+01  0.51100000000E-03 0. -1.
        -11    1    3    3    0    0  0.25399548891E+02 -0.54191334764E+01 -0.10629449816E+02  0.28062239668E+02  0.51100000000E-03 0.  1.
         12    1    3    3    0    0  0.86169342693E+01 -0.20073339361E+01 -0.10171946281E+02  0.13481447877E+02  0.00000000000E+00 0. -1.
</event>
<event>
 7    1  0.4623443E-009  0.4614232E+02  0.7816164E-02  0.1320468E+00
        -11   -1    0    0    0    0  0.00000000000E+00  0.00000000000E+00  0.45593999997E+02  0.45594000000E+02  0.51100000000E-03 0.  1.
         11   -1    0    0    0    0 -0.00000000000E+00 -0.00000000000E+00 -0.45593999997E+02  0.45594000000E+02  0.51100000000E-03 0. -1.
    9900012    2    1    2    0    0  0.33235605998E+02 -0.22528392438E+02 -0.20420078436E+02  0.46142316797E+02  0.99999912047E+01 0.  0.
         12    1    1    2    0    0 -0.33235605998E+02  0.22528392438E+02  0.20420078436E+02  0.45045683203E+02  0.00000000000E+00 0. -1.
         11    1    3    3    0    0  0.36328360003E+00 -0.11434249647E+01  0.49134355299E+00  0.12964622525E+01  0.51100000000E-03 0. -1.
        -11    1    3    3    0    0  0.16578715740E+02 -0.14321890324E+02 -0.11191829928E+02  0.24601370194E+02  0.51100000000E-03 0.  1.
         12    1    3    3    0    0  0.16293606658E+02 -0.70630771496E+01 -0.97195920615E+01  0.20244484350E+02  0.00000000000E+00 0. -1.
</event>
<event>
 7    1  0.4623443E-009  0.4614232E+02  0.7816164E-02  0.1320468E+00
        -11   -1    0    0    0    0  0.00000000000E+00  0.00000000000E+00  0.45593999997E+02  0.45594000000E+02  0.51100000000E-03 0. -1.
         11   -1    0    0    0    0 -0.00000000000E+00 -0.00000000000E+00 -0.45593999997E+02  0.45594000000E+02  0.51100000000E-03 0.  1.
    9900012    2    1    2    0    0 -0.29812852370E+02 -0.21916895213E+02  0.25689628897E+02  0.46142317686E+02  0.99999993190E+01 0.  0.
        -12    1    1    2    0    0  0.29812852370E+02  0.21916895213E+02 -0.25689628897E+02  0.45045682314E+02  0.00000000000E+00 0.  1.
         11    1    3    3    0    0 -0.13067527145E+00 -0.12224160178E+01  0.92089285498E+00  0.15360406436E+01  0.51100000000E-03 0. -1.
        -11    1    3    3    0    0 -0.12132597230E+02 -0.47201644069E+01  0.59237915613E+01  0.14302837980E+02  0.51100000000E-03 0.  1.
         12    1    3    3    0    0 -0.17549579869E+02 -0.15974314788E+02  0.18844944481E+02  0.30303439062E+02  0.00000000000E+00 0. -1.
</event>
<event>
 7    1  0.4623443E-009  0.4614232E+02  0.7816164E-02  0.1320468E+00
        -11   -1    0    0    0    0  0.00000000000E+00  0.00000000000E+00  0.45593999997E+02  0.45594000000E+02  0.51100000000E-03 0. -1.
         11   -1    0    0    0    0 -0.00000000000E+00 -0.00000000000E+00 -0.45593999997E+02  0.45594000000E+02  0.51100000000E-03 0.  1.
    9900012    2    1    2    0    0 -0.40493330820E+02 -0.18023422456E+02  0.80349168523E+01  0.46142317779E+02  0.10000000161E+02 0.  0.
        -12    1    1    2    0    0  0.40493330820E+02  0.18023422456E+02 -0.80349168523E+01  0.45045682221E+02  0.00000000000E+00 0.  1.
         11    1    3    3    0    0 -0.18622677478E+01 -0.27240786650E+01  0.19966049437E+01  0.38568221763E+01  0.51100000000E-03 0. -1.
        -11    1    3    3    0    0 -0.13344447926E+02 -0.29890588051E+01  0.29772896557E+01  0.13995464156E+02  0.51100000000E-03 0.  1.
        -12    1    3    3    0    0 -0.25286615146E+02 -0.12310284986E+02  0.30610222529E+01  0.28290031446E+02  0.00000000000E+00 0.  1.
</event>
<event>
 7    1  0.4623443E-009  0.4614231E+02  0.7816164E-02  0.1320468E+00
        -11   -1    0    0    0    0  0.00000000000E+00  0.00000000000E+00  0.45593999997E+02  0.45594000000E+02  0.51100000000E-03 0. -1.
         11   -1    0    0    0    0 -0.00000000000E+00 -0.00000000000E+00 -0.45593999997E+02  0.45594000000E+02  0.51100000000E-03 0.  1.
    9900012    2    1    2    0    0  0.27428745166E+02 -0.31672259086E+02  0.16542242859E+02  0.46142313682E+02  0.99999628060E+01 0.  0.
        -12    1    1    2    0    0 -0.27428745166E+02  0.31672259086E+02 -0.16542242859E+02  0.45045686318E+02  0.00000000000E+00 0.  1.
         11    1    3    3    0    0  0.11938496970E+01 -0.53050302552E+01  0.34944102461E+01  0.64637084044E+01  0.51100000000E-03 0. -1.
        -11    1    3    3    0    0  0.14653832356E+02 -0.16932862421E+02  0.95034988612E+01  0.24326387388E+02  0.51100000000E-03 0.  1.
        -12    1    3    3    0    0  0.11581063114E+02 -0.94343664099E+01  0.35443337518E+01  0.15352217890E+02  0.00000000000E+00 0.  1.
</event>
<event>
 7    1  0.4623443E-009  0.4614233E+02  0.7816164E-02  0.1320468E+00
        -11   -1    0    0    0    0  0.00000000000E+00  0.00000000000E+00  0.45593999997E+02  0.45594000000E+02  0.51100000000E-03 0. -1.
         11   -1    0    0    0    0 -0.00000000000E+00 -0.00000000000E+00 -0.45593999997E+02  0.45594000000E+02  0.51100000000E-03 0.  1.
    9900012    2    1    2    0    0  0.29530072935E+02 -0.25078414512E+02  0.22981746457E+02  0.46142325932E+02  0.10000074511E+02 0.  0.
        -12    1    1    2    0    0 -0.29530072935E+02  0.25078414512E+02 -0.22981746457E+02  0.45045674068E+02  0.00000000000E+00 0.  1.
         11    1    3    3    0    0  0.10086465904E+02 -0.80412300438E+01  0.61311525826E+01  0.14282479032E+02  0.51100000000E-03 0. -1.
        -11    1    3    3    0    0  0.99885360172E+01 -0.58674971821E+01  0.36344405121E+01  0.12141150400E+02  0.51100000000E-03 0.  1.
        -12    1    3    3    0    0  0.94550710142E+01 -0.11169687286E+02  0.13216153363E+02  0.19718696500E+02  0.00000000000E+00 0.  1.
</event>
<event>
 7    1  0.4623443E-009  0.4614232E+02  0.7816164E-02  0.1320468E+00
        -11   -1    0    0    0    0  0.00000000000E+00  0.00000000000E+00  0.45593999997E+02  0.45594000000E+02  0.51100000000E-03 0. -1.
         11   -1    0    0    0    0 -0.00000000000E+00 -0.00000000000E+00 -0.45593999997E+02  0.45594000000E+02  0.51100000000E-03 0.  1.
    9900012    2    1    2    0    0  0.34307689306E+02 -0.58775513681E+01  0.28592837261E+02  0.46142317651E+02  0.99999989971E+01 0.  0.
        -12    1    1    2    0    0 -0.34307689306E+02  0.58775513681E+01 -0.28592837261E+02  0.45045682349E+02  0.00000000000E+00 0.  1.
         11    1    3    3    0    0  0.12308348339E+02 -0.83900716842E+00  0.99660786608E+01  0.15859448162E+02  0.51100000000E-03 0. -1.
        -11    1    3    3    0    0  0.71043916875E+00 -0.95006271997E-01 -0.77679608291E+00  0.10569590436E+01  0.51100000000E-03 0.  1.
        -12    1    3    3    0    0  0.21288901799E+02 -0.49435379277E+01  0.19403554683E+02  0.29225910446E+02  0.00000000000E+00 0.  1.
</event>
<event>
 7    1  0.4623443E-009  0.4614232E+02  0.7816164E-02  0.1320468E+00
        -11   -1    0    0    0    0  0.00000000000E+00  0.00000000000E+00  0.45593999997E+02  0.45594000000E+02  0.51100000000E-03 0. -1.
         11   -1    0    0    0    0 -0.00000000000E+00 -0.00000000000E+00 -0.45593999997E+02  0.45594000000E+02  0.51100000000E-03 0.  1.
    9900012    2    1    2    0    0  0.43457777500E+01 -0.13208026476E+01  0.44816104929E+02  0.46142316912E+02  0.99999922558E+01 0.  0.
        -12    1    1    2    0    0 -0.43457777500E+01  0.13208026476E+01 -0.44816104929E+02  0.45045683088E+02  0.00000000000E+00 0.  1.
         11    1    3    3    0    0  0.17080606916E+01 -0.19433596874E+01  0.29429378933E+02  0.29542891917E+02  0.51100000000E-03 0. -1.
        -11    1    3    3    0    0 -0.31211666841E+00  0.80416165906E+00  0.12284562438E+02  0.12314810894E+02  0.51100000000E-03 0.  1.
         12    1    3    3    0    0  0.29498337267E+01 -0.18160461923E+00  0.31021635573E+01  0.42846141004E+01  0.00000000000E+00 0. -1.
</event>
<event>
 7    1  0.4623443E-009  0.4614232E+02  0.7816164E-02  0.1320468E+00
        -11   -1    0    0    0    0  0.00000000000E+00  0.00000000000E+00  0.45593999997E+02  0.45594000000E+02  0.51100000000E-03 0. -1.
         11   -1    0    0    0    0 -0.00000000000E+00 -0.00000000000E+00 -0.45593999997E+02  0.45594000000E+02  0.51100000000E-03 0.  1.
    9900012    2    1    2    0    0  0.42201979687E+02  0.62629135890E+01  0.14452758769E+02  0.46142318608E+02  0.10000007719E+02 0.  0.
        -12    1    1    2    0    0 -0.42201979687E+02 -0.62629135890E+01 -0.14452758769E+02  0.45045681392E+02  0.00000000000E+00 0.  1.
         11    1    3    3    0    0  0.17489633966E+02  0.23179679541E+01  0.14193881797E+01  0.17699574423E+02  0.51100000000E-03 0. -1.
        -11    1    3    3    0    0  0.16012456877E+02  0.91782726993E+00  0.76007653336E+01  0.17748600397E+02  0.51100000000E-03 0.  1.
         12    1    3    3    0    0  0.86998888442E+01  0.30271183649E+01  0.54326052553E+01  0.10694143788E+02  0.00000000000E+00 0. -1.
</event>
<event>
 7    1  0.4623443E-009  0.4614232E+02  0.7816164E-02  0.1320468E+00
        -11   -1    0    0    0    0  0.00000000000E+00  0.00000000000E+00  0.45593999997E+02  0.45594000000E+02  0.51100000000E-03 0.  1.
         11   -1    0    0    0    0 -0.00000000000E+00 -0.00000000000E+00 -0.45593999997E+02  0.45594000000E+02  0.51100000000E-03 0. -1.
    9900012    2    1    2    0    0  0.43971779597E+02 -0.91656927433E+01  0.34038445454E+01  0.46142317830E+02  0.10000000632E+02 0.  0.
        -12    1    1    2    0    0 -0.43971779597E+02  0.91656927433E+01 -0.34038445454E+01  0.45045682170E+02  0.00000000000E+00 0.  1.
         11    1    3    3    0    0  0.18693040076E+02 -0.25901933918E+01  0.26431970471E+01  0.19055847921E+02  0.51100000000E-03 0. -1.
        -11    1    3    3    0    0  0.21536480134E+02 -0.46707801129E+01 -0.18943496031E+01  0.22118424991E+02  0.51100000000E-03 0.  1.
         12    1    3    3    0    0  0.37422593876E+01 -0.19047192386E+01  0.26549971014E+01  0.49680449183E+01  0.00000000000E+00 0. -1.
</event>
<event>
 7    1  0.4623443E-009  0.4614232E+02  0.7816164E-02  0.1320468E+00
        -11   -1    0    0    0    0  0.00000000000E+00  0.00000000000E+00  0.45593999997E+02  0.45594000000E+02  0.51100000000E-03 0. -1.
         11   -1    0    0    0    0 -0.00000000000E+00 -0.00000000000E+00 -0.45593999997E+02  0.45594000000E+02  0.51100000000E-03 0.  1.
    9900012    2    1    2    0    0  0.27654249675E+02  0.62107021784E+01  0.35011185312E+02  0.46142318258E+02  0.10000004531E+02 0.  0.
        -12    1    1    2    0    0 -0.27654249675E+02 -0.62107021784E+01 -0.35011185312E+02  0.45045681742E+02  0.00000000000E+00 0.  1.
         11    1    3    3    0    0  0.88675906525E+01  0.13089003649E+00  0.55938731360E+01  0.10485357080E+02  0.51100000000E-03 0. -1.
        -11    1    3    3    0    0  0.39394465545E+01 -0.25170604657E+00  0.47221697213E+01  0.61547934350E+01  0.51100000000E-03 0.  1.
        -12    1    3    3    0    0  0.14847212468E+02  0.63315181885E+01  0.24695142455E+02  0.29502167742E+02  0.00000000000E+00 0.  1.
</event>
<event>
 7    1  0.4623443E-009  0.4614232E+02  0.7816164E-02  0.1320468E+00
        -11   -1    0    0    0    0  0.00000000000E+00  0.00000000000E+00  0.45593999997E+02  0.45594000000E+02  0.51100000000E-03 0. -1.
         11   -1    0    0    0    0 -0.00000000000E+00 -0.00000000000E+00 -0.45593999997E+02  0.45594000000E+02  0.51100000000E-03 0.  1.
    9900012    2    1    2    0    0 -0.11280553766E+02 -0.17953679638E+01 -0.43573378739E+02  0.46142316809E+02  0.99999913156E+01 0.  0.
         12    1    1    2    0    0  0.11280553766E+02  0.17953679638E+01  0.43573378739E+02  0.45045683191E+02  0.00000000000E+00 0. -1.
         11    1    3    3    0    0 -0.10673315291E+01 -0.14130496983E+01 -0.17762513723E+02  0.17850568620E+02  0.51100000000E-03 0. -1.
        -11    1    3    3    0    0 -0.31089569775E+01 -0.20452304600E+01 -0.49577015162E+01  0.61989826349E+01  0.51100000000E-03 0.  1.
         12    1    3    3    0    0 -0.71042652593E+01  0.16629121945E+01 -0.20853163500E+02  0.22092765554E+02  0.00000000000E+00 0. -1.
</event>
<event>
 7    1  0.4623443E-009  0.4614232E+02  0.7816164E-02  0.1320468E+00
        -11   -1    0    0    0    0  0.00000000000E+00  0.00000000000E+00  0.45593999997E+02  0.45594000000E+02  0.51100000000E-03 0. -1.
         11   -1    0    0    0    0 -0.00000000000E+00 -0.00000000000E+00 -0.45593999997E+02  0.45594000000E+02  0.51100000000E-03 0.  1.
    9900012    2    1    2    0    0 -0.18763922928E+02 -0.40928715735E+02  0.13670925268E+01  0.46142317440E+02  0.99999970676E+01 0.  0.
         12    1    1    2    0    0  0.18763922928E+02  0.40928715735E+02 -0.13670925268E+01  0.45045682560E+02  0.00000000000E+00 0. -1.
         11    1    3    3    0    0 -0.11381913326E+02 -0.17260615880E+02  0.13458683395E+01  0.20719270579E+02  0.51100000000E-03 0. -1.
        -11    1    3    3    0    0 -0.24127900916E+01 -0.16404909321E+02  0.70288314355E+00  0.16596284247E+02  0.51100000000E-03 0.  1.
        -12    1    3    3    0    0 -0.49692195105E+01 -0.72631905347E+01 -0.68165895621E+00  0.88267626127E+01  0.00000000000E+00 0.  1.
</event>
<event>
 7    1  0.4623443E-009  0.4614232E+02  0.7816164E-02  0.1320468E+00
        -11   -1    0    0    0    0  0.00000000000E+00  0.00000000000E+00  0.45593999997E+02  0.45594000000E+02  0.51100000000E-03 0. -1.
         11   -1    0    0    0    0 -0.00000000000E+00 -0.00000000000E+00 -0.45593999997E+02  0.45594000000E+02  0.51100000000E-03 0.  1.
    9900012    2    1    2    0    0 -0.30639381147E+02  0.72461908452E+01 -0.32215439197E+02  0.46142317838E+02  0.10000000699E+02 0.  0.
         12    1    1    2    0    0  0.30639381147E+02 -0.72461908452E+01  0.32215439197E+02  0.45045682162E+02  0.00000000000E+00 0. -1.
         11    1    3    3    0    0 -0.26991166554E+02  0.61058947164E+01 -0.23300831961E+02  0.36176425923E+02  0.51100000000E-03 0. -1.
        -11    1    3    3    0    0 -0.32023289867E+01  0.80322543674E+00 -0.48747662599E+01  0.58875655743E+01  0.51100000000E-03 0.  1.
         12    1    3    3    0    0 -0.44588560539E+00  0.33707069207E+00 -0.40398409762E+01  0.40783263403E+01  0.00000000000E+00 0. -1.
</event>
<event>
 7    1  0.4623443E-009  0.4614232E+02  0.7816164E-02  0.1320468E+00
        -11   -1    0    0    0    0  0.00000000000E+00  0.00000000000E+00  0.45593999997E+02  0.45594000000E+02  0.51100000000E-03 0. -1.
         11   -1    0    0    0    0 -0.00000000000E+00 -0.00000000000E+00 -0.45593999997E+02  0.45594000000E+02  0.51100000000E-03 0.  1.
    9900012    2    1    2    0    0  0.54141685166E+01  0.13666267284E+02  0.42579730158E+02  0.46142317604E+02  0.99999985636E+01 0.  0.
        -12    1    1    2    0    0 -0.54141685166E+01 -0.13666267284E+02 -0.42579730158E+02  0.45045682396E+02  0.00000000000E+00 0.  1.
         11    1    3    3    0    0  0.74800356774E+01  0.66784327537E+01  0.25969536385E+02  0.27838268949E+02  0.51100000000E-03 0. -1.
        -11    1    3    3    0    0 -0.11654756884E+01  0.41725859964E+01  0.12587803237E+02  0.13312460256E+02  0.51100000000E-03 0.  1.
        -12    1    3    3    0    0 -0.90039147233E+00  0.28152485335E+01  0.40223905367E+01  0.49915883984E+01  0.00000000000E+00 0.  1.
</event>
<event>
 7    1  0.4623443E-009  0.4614232E+02  0.7816164E-02  0.1320468E+00
        -11   -1    0    0    0    0  0.00000000000E+00  0.00000000000E+00  0.45593999997E+02  0.45594000000E+02  0.51100000000E-03 0. -1.
         11   -1    0    0    0    0 -0.00000000000E+00 -0.00000000000E+00 -0.45593999997E+02  0.45594000000E+02  0.51100000000E-03 0.  1.
    9900012    2    1    2    0    0 -0.12410182974E+02 -0.37929780465E+02 -0.20890972464E+02  0.46142316321E+02  0.99999868710E+01 0.  0.
         12    1    1    2    0    0  0.12410182974E+02  0.37929780465E+02  0.20890972464E+02  0.45045683679E+02  0.00000000000E+00 0. -1.
         11    1    3    3    0    0 -0.35528616311E+01 -0.85239514875E+01 -0.20180660715E+01  0.94526803427E+01  0.51100000000E-03 0. -1.
        -11    1    3    3    0    0 -0.44475034379E+01 -0.68297316960E+01 -0.27597299456E+01  0.86047447088E+01  0.51100000000E-03 0.  1.
        -12    1    3    3    0    0 -0.44098179048E+01 -0.22576097282E+02 -0.16113176447E+02  0.28084891270E+02  0.00000000000E+00 0.  1.
</event>
<event>
 7    1  0.4623443E-009  0.4614232E+02  0.7816164E-02  0.1320468E+00
        -11   -1    0    0    0    0  0.00000000000E+00  0.00000000000E+00  0.45593999997E+02  0.45594000000E+02  0.51100000000E-03 0. -1.
         11   -1    0    0    0    0 -0.00000000000E+00 -0.00000000000E+00 -0.45593999997E+02  0.45594000000E+02  0.51100000000E-03 0.  1.
    9900012    2    1    2    0    0 -0.56119022329E+01  0.16837363317E+02  0.41401971535E+02  0.46142317664E+02  0.99999991146E+01 0.  0.
        -12    1    1    2    0    0  0.56119022329E+01 -0.16837363317E+02 -0.41401971535E+02  0.45045682336E+02  0.00000000000E+00 0.  1.
         11    1    3    3    0    0 -0.11436536264E+01  0.55327311556E+01  0.14766137886E+02  0.15810056483E+02  0.51100000000E-03 0. -1.
        -11    1    3    3    0    0  0.83412838539E-01  0.15352328116E+01 -0.64391595503E-01  0.15388450299E+01  0.51100000000E-03 0.  1.
        -12    1    3    3    0    0 -0.45516614450E+01  0.97693993495E+01  0.26700225244E+02  0.28793416151E+02  0.00000000000E+00 0.  1.
</event>
<event>
 7    1  0.8918882E-009  0.4614232E+02  0.7816164E-02  0.1320468E+00
        -11   -1    0    0    0    0  0.00000000000E+00  0.00000000000E+00  0.45593999997E+02  0.45594000000E+02  0.51100000000E-03 0. -1.
         11   -1    0    0    0    0 -0.00000000000E+00 -0.00000000000E+00 -0.45593999997E+02  0.45594000000E+02  0.51100000000E-03 0.  1.
    9900012    2    1    2    0    0 -0.20501569465E+02 -0.24769486497E+02 -0.31547926116E+02  0.46142318142E+02  0.10000003469E+02 0.  0.
         12    1    1    2    0    0  0.20501569465E+02  0.24769486497E+02  0.31547926116E+02  0.45045681858E+02  0.00000000000E+00 0. -1.
         11    1    3    3    0    0 -0.34320740221E+01 -0.67207935208E+01 -0.10143058821E+02  0.12642382693E+02  0.51100000000E-03 0. -1.
        -11    1    3    3    0    0 -0.14812569261E+02 -0.16439345435E+02 -0.21318097223E+02  0.30726626172E+02  0.51100000000E-03 0.  1.
         12    1    3    3    0    0 -0.22569261821E+01 -0.16093475410E+01 -0.86770072368E-01  0.27733092768E+01  0.00000000000E+00 0. -1.
</event>
<event>
 7    1  0.4623443E-009  0.4614232E+02  0.7816164E-02  0.1320468E+00
        -11   -1    0    0    0    0  0.00000000000E+00  0.00000000000E+00  0.45593999997E+02  0.45594000000E+02  0.51100000000E-03 0. -1.
         11   -1    0    0    0    0 -0.00000000000E+00 -0.00000000000E+00 -0.45593999997E+02  0.45594000000E+02  0.51100000000E-03 0.  1.
    9900012    2    1    2    0    0 -0.23065109590E+02  0.28334319608E+02 -0.26349202610E+02  0.46142318451E+02  0.10000006287E+02 0.  0.
         12    1    1    2    0    0  0.23065109590E+02 -0.28334319608E+02  0.26349202610E+02  0.45045681549E+02  0.00000000000E+00 0. -1.
         11    1    3    3    0    0 -0.43842289440E+01  0.10360284182E+02 -0.52711306576E+01  0.12423436338E+02  0.51100000000E-03 0. -1.
        -11    1    3    3    0    0 -0.47384255029E+01  0.61865068860E+01 -0.41869432729E+01  0.88462442838E+01  0.51100000000E-03 0.  1.
         12    1    3    3    0    0 -0.13942455143E+02  0.11787528541E+02 -0.16891128679E+02  0.24872637829E+02  0.00000000000E+00 0. -1.
</event>
<event>
 7    1  0.4623443E-009  0.4614232E+02  0.7816164E-02  0.1320468E+00
        -11   -1    0    0    0    0  0.00000000000E+00  0.00000000000E+00  0.45593999997E+02  0.45594000000E+02  0.51100000000E-03 0. -1.
         11   -1    0    0    0    0 -0.00000000000E+00 -0.00000000000E+00 -0.45593999997E+02  0.45594000000E+02  0.51100000000E-03 0.  1.
    9900012    2    1    2    0    0  0.16627865204E+02 -0.24594834700E+02  0.33878043605E+02  0.46142316148E+02  0.99999852904E+01 0.  0.
        -12    1    1    2    0    0 -0.16627865204E+02  0.24594834700E+02 -0.33878043605E+02  0.45045683852E+02  0.00000000000E+00 0.  1.
         11    1    3    3    0    0  0.32643014254E+01 -0.42987313389E+01  0.11333884182E+02  0.12553552718E+02  0.51100000000E-03 0. -1.
        -11    1    3    3    0    0 -0.28996406607E+00 -0.45070201578E+00 -0.79754361811E-01  0.54182329775E+00  0.51100000000E-03 0.  1.
        -12    1    3    3    0    0  0.13653527845E+02 -0.19845401346E+02  0.22623913784E+02  0.33046940132E+02  0.00000000000E+00 0.  1.
</event>
<event>
 7    1  0.4623443E-009  0.4614232E+02  0.7816164E-02  0.1320468E+00
        -11   -1    0    0    0    0  0.00000000000E+00  0.00000000000E+00  0.45593999997E+02  0.45594000000E+02  0.51100000000E-03 0. -1.
         11   -1    0    0    0    0 -0.00000000000E+00 -0.00000000000E+00 -0.45593999997E+02  0.45594000000E+02  0.51100000000E-03 0.  1.
    9900012    2    1    2    0    0 -0.15307526314E+02 -0.14419814069E+02 -0.39835437985E+02  0.46142317420E+02  0.99999968850E+01 0.  0.
         12    1    1    2    0    0  0.15307526314E+02  0.14419814069E+02  0.39835437985E+02  0.45045682580E+02  0.00000000000E+00 0. -1.
         11    1    3    3    0    0 -0.58936616405E+01 -0.19989295778E+01 -0.19186905794E+02  0.20170977200E+02  0.51100000000E-03 0. -1.
        -11    1    3    3    0    0 -0.47026278017E+01 -0.54982474722E+01 -0.11332228213E+02  0.13444881183E+02  0.51100000000E-03 0.  1.
         12    1    3    3    0    0 -0.47112368722E+01 -0.69226370189E+01 -0.93163039783E+01  0.12526459036E+02  0.00000000000E+00 0. -1.
</event>
<event>
 7    1  0.4623443E-009  0.4614231E+02  0.7816164E-02  0.1320468E+00
        -11   -1    0    0    0    0  0.00000000000E+00  0.00000000000E+00  0.45593999997E+02  0.45594000000E+02  0.51100000000E-03 0.  1.
         11   -1    0    0    0    0 -0.00000000000E+00 -0.00000000000E+00 -0.45593999997E+02  0.45594000000E+02  0.51100000000E-03 0. -1.
    9900012    2    1    2    0    0 -0.38659371192E+02  0.19659016085E+02  0.12169224213E+02  0.46142313056E+02  0.99999570910E+01 0.  0.
        -12    1    1    2    0    0  0.38659371192E+02 -0.19659016085E+02 -0.12169224213E+02  0.45045686944E+02  0.00000000000E+00 0.  1.
         11    1    3    3    0    0 -0.31075871634E+02  0.13928933958E+02  0.75693195612E+01  0.34885807972E+02  0.51100000000E-03 0. -1.
        -11    1    3    3    0    0 -0.61927301931E+01  0.36364600639E+01  0.16270075724E+01  0.73634844294E+01  0.51100000000E-03 0.  1.
        -12    1    3    3    0    0 -0.13907693648E+01  0.20936220630E+01  0.29728970789E+01  0.38930206537E+01  0.00000000000E+00 0.  1.
</event>
<event>
 7    1  0.4623443E-009  0.4614232E+02  0.7816164E-02  0.1320468E+00
        -11   -1    0    0    0    0  0.00000000000E+00  0.00000000000E+00  0.45593999997E+02  0.45594000000E+02  0.51100000000E-03 0. -1.
         11   -1    0    0    0    0 -0.00000000000E+00 -0.00000000000E+00 -0.45593999997E+02  0.45594000000E+02  0.51100000000E-03 0.  1.
    9900012    2    1    2    0    0  0.31446834819E+01 -0.17860566689E+02  0.41233776588E+02  0.46142320869E+02  0.10000028344E+02 0.  0.
        -12    1    1    2    0    0 -0.31446834819E+01  0.17860566689E+02 -0.41233776588E+02  0.45045679131E+02  0.00000000000E+00 0.  1.
         11    1    3    3    0    0  0.42900405214E+01 -0.48812373016E+01  0.12183086490E+02  0.13807915192E+02  0.51100000000E-03 0. -1.
        -11    1    3    3    0    0 -0.11980894494E+01 -0.22970673418E+01  0.11501174704E+02  0.11789357766E+02  0.51100000000E-03 0.  1.
         12    1    3    3    0    0  0.52732409899E-01 -0.10682262046E+02  0.17549515393E+02  0.20545047911E+02  0.00000000000E+00 0. -1.
</event>
<event>
 7    1  0.4623443E-009  0.4614232E+02  0.7816164E-02  0.1320468E+00
        -11   -1    0    0    0    0  0.00000000000E+00  0.00000000000E+00  0.45593999997E+02  0.45594000000E+02  0.51100000000E-03 0. -1.
         11   -1    0    0    0    0 -0.00000000000E+00 -0.00000000000E+00 -0.45593999997E+02  0.45594000000E+02  0.51100000000E-03 0.  1.
    9900012    2    1    2    0    0 -0.12547180920E+02 -0.24478015645E+02  0.35672228045E+02  0.46142324818E+02  0.10000064349E+02 0.  0.
        -12    1    1    2    0    0  0.12547180920E+02  0.24478015645E+02 -0.35672228045E+02  0.45045675182E+02  0.00000000000E+00 0.  1.
         11    1    3    3    0    0 -0.46049507909E+01 -0.10284516491E+02  0.10252189234E+02  0.15234311130E+02  0.51100000000E-03 0. -1.
        -11    1    3    3    0    0 -0.54826787562E+01 -0.77999234226E+01  0.89776542646E+01  0.13095680513E+02  0.51100000000E-03 0.  1.
         12    1    3    3    0    0 -0.24595513731E+01 -0.63935757306E+01  0.16442384546E+02  0.17812333175E+02  0.00000000000E+00 0. -1.
</event>
<event>
 7    1  0.4623443E-009  0.4614232E+02  0.7816164E-02  0.1320468E+00
        -11   -1    0    0    0    0  0.00000000000E+00  0.00000000000E+00  0.45593999997E+02  0.45594000000E+02  0.51100000000E-03 0. -1.
         11   -1    0    0    0    0 -0.00000000000E+00 -0.00000000000E+00 -0.45593999997E+02  0.45594000000E+02  0.51100000000E-03 0.  1.
    9900012    2    1    2    0    0 -0.36119721931E+02  0.24197617290E+02  0.11787901336E+02  0.46142316380E+02  0.99999874048E+01 0.  0.
        -12    1    1    2    0    0  0.36119721931E+02 -0.24197617290E+02 -0.11787901336E+02  0.45045683620E+02  0.00000000000E+00 0.  1.
         11    1    3    3    0    0 -0.31340863316E+02  0.17225018855E+02  0.10215678263E+02  0.37192890054E+02  0.51100000000E-03 0. -1.
        -11    1    3    3    0    0  0.17480942640E+00  0.10451014363E+01  0.41657026901E+00  0.11385633043E+01  0.51100000000E-03 0.  1.
         12    1    3    3    0    0 -0.49536680414E+01  0.59274969986E+01  0.11556528038E+01  0.78108630212E+01  0.00000000000E+00 0. -1.
</event>
<event>
 7    1  0.4623443E-009  0.4614232E+02  0.7816164E-02  0.1320468E+00
        -11   -1    0    0    0    0  0.00000000000E+00  0.00000000000E+00  0.45593999997E+02  0.45594000000E+02  0.51100000000E-03 0. -1.
         11   -1    0    0    0    0 -0.00000000000E+00 -0.00000000000E+00 -0.45593999997E+02  0.45594000000E+02  0.51100000000E-03 0.  1.
    9900012    2    1    2    0    0 -0.43512796877E+01 -0.22664955868E+00 -0.44834454419E+02  0.46142319763E+02  0.10000018255E+02 0.  0.
         12    1    1    2    0    0  0.43512796877E+01  0.22664955868E+00  0.44834454419E+02  0.45045680237E+02  0.00000000000E+00 0. -1.
         11    1    3    3    0    0  0.11810892728E+01  0.11922337022E+01 -0.15019505575E+01  0.22521653601E+01  0.51100000000E-03 0. -1.
        -11    1    3    3    0    0 -0.56535474380E+01 -0.17370496225E+01 -0.31361903183E+02  0.31914713089E+02  0.51100000000E-03 0.  1.
         12    1    3    3    0    0  0.12117847758E+00  0.31816636164E+00 -0.11970600679E+02  0.11975441314E+02  0.00000000000E+00 0. -1.
</event>
<event>
 7    1  0.4623443E-009  0.4614232E+02  0.7816164E-02  0.1320468E+00
        -11   -1    0    0    0    0  0.00000000000E+00  0.00000000000E+00  0.45593999997E+02  0.45594000000E+02  0.51100000000E-03 0. -1.
         11   -1    0    0    0    0 -0.00000000000E+00 -0.00000000000E+00 -0.45593999997E+02  0.45594000000E+02  0.51100000000E-03 0.  1.
    9900012    2    1    2    0    0 -0.64801848760E+01 -0.14474626307E+02 -0.42161656299E+02  0.46142324685E+02  0.10000063138E+02 0.  0.
         12    1    1    2    0    0  0.64801848760E+01  0.14474626307E+02  0.42161656299E+02  0.45045675315E+02  0.00000000000E+00 0. -1.
         11    1    3    3    0    0 -0.40600917865E+01 -0.33182589481E+01 -0.78214030981E+01  0.94164502041E+01  0.51100000000E-03 0. -1.
        -11    1    3    3    0    0 -0.30291295446E+01 -0.10035126227E+02 -0.33711094955E+02  0.35303219506E+02  0.51100000000E-03 0.  1.
         12    1    3    3    0    0  0.60903645516E+00 -0.11212411318E+01 -0.62915824575E+00  0.14226549749E+01  0.00000000000E+00 0. -1.
</event>
<event>
 7    1  0.4623443E-009  0.4614232E+02  0.7816164E-02  0.1320468E+00
        -11   -1    0    0    0    0  0.00000000000E+00  0.00000000000E+00  0.45593999997E+02  0.45594000000E+02  0.51100000000E-03 0. -1.
         11   -1    0    0    0    0 -0.00000000000E+00 -0.00000000000E+00 -0.45593999997E+02  0.45594000000E+02  0.51100000000E-03 0.  1.
    9900012    2    1    2    0    0 -0.40621302790E+02  0.56010214556E+01 -0.18645424752E+02  0.46142317122E+02  0.99999941751E+01 0.  0.
         12    1    1    2    0    0  0.40621302790E+02 -0.56010214556E+01  0.18645424752E+02  0.45045682878E+02  0.00000000000E+00 0. -1.
         11    1    3    3    0    0 -0.96970628998E+01 -0.92437570250E+00 -0.56425736708E+01  0.11257270416E+02  0.51100000000E-03 0. -1.
        -11    1    3    3    0    0 -0.14357091236E+02  0.23274852460E-01 -0.38119206970E+01  0.14854539715E+02  0.51100000000E-03 0.  1.
        -12    1    3    3    0    0 -0.16567148655E+02  0.65021223056E+01 -0.91909303840E+01  0.20030506992E+02  0.00000000000E+00 0.  1.
</event>
<event>
 7    1  0.4623443E-009  0.4614232E+02  0.7816164E-02  0.1320468E+00
        -11   -1    0    0    0    0  0.00000000000E+00  0.00000000000E+00  0.45593999997E+02  0.45594000000E+02  0.51100000000E-03 0. -1.
         11   -1    0    0    0    0 -0.00000000000E+00 -0.00000000000E+00 -0.45593999997E+02  0.45594000000E+02  0.51100000000E-03 0.  1.
    9900012    2    1    2    0    0  0.12761440626E+02  0.33450197503E+01 -0.43070520714E+02  0.46142320090E+02  0.10000021240E+02 0.  0.
         12    1    1    2    0    0 -0.12761440626E+02 -0.33450197503E+01  0.43070520714E+02  0.45045679910E+02  0.00000000000E+00 0. -1.
         11    1    3    3    0    0  0.21482941861E+01  0.35856100954E+01 -0.14836861424E+02  0.15414416137E+02  0.51100000000E-03 0. -1.
        -11    1    3    3    0    0  0.59621162120E+01  0.27766200645E+01 -0.15803435364E+02  0.17117389354E+02  0.51100000000E-03 0.  1.
         12    1    3    3    0    0  0.46510302283E+01 -0.30172104097E+01 -0.12430223925E+02  0.13610514600E+02  0.00000000000E+00 0. -1.
</event>
<event>
 7    1  0.4623443E-009  0.4614232E+02  0.7816164E-02  0.1320468E+00
        -11   -1    0    0    0    0  0.00000000000E+00  0.00000000000E+00  0.45593999997E+02  0.45594000000E+02  0.51100000000E-03 0.  1.
         11   -1    0    0    0    0 -0.00000000000E+00 -0.00000000000E+00 -0.45593999997E+02  0.45594000000E+02  0.51100000000E-03 0. -1.
    9900012    2    1    2    0    0  0.14931001774E+02 -0.41543682678E+02 -0.89610867261E+01  0.46142318079E+02  0.10000002902E+02 0.  0.
         12    1    1    2    0    0 -0.14931001774E+02  0.41543682678E+02  0.89610867261E+01  0.45045681921E+02  0.00000000000E+00 0. -1.
         11    1    3    3    0    0  0.10873228047E+01 -0.19844133636E+01 -0.11491221336E+01  0.25378434188E+01  0.51100000000E-03 0. -1.
        -11    1    3    3    0    0  0.22813611259E+01 -0.19156962405E+02 -0.53766470030E+01  0.20027534807E+02  0.51100000000E-03 0.  1.
        -12    1    3    3    0    0  0.11562317843E+02 -0.20402306909E+02 -0.24353175895E+01  0.23576939854E+02  0.00000000000E+00 0.  1.
</event>
<event>
 7    1  0.4623443E-009  0.4614232E+02  0.7816164E-02  0.1320468E+00
        -11   -1    0    0    0    0  0.00000000000E+00  0.00000000000E+00  0.45593999997E+02  0.45594000000E+02  0.51100000000E-03 0. -1.
         11   -1    0    0    0    0 -0.00000000000E+00 -0.00000000000E+00 -0.45593999997E+02  0.45594000000E+02  0.51100000000E-03 0.  1.
    9900012    2    1    2    0    0 -0.21267333737E+02  0.25157091707E+01 -0.39629350091E+02  0.46142315794E+02  0.99999820640E+01 0.  0.
         12    1    1    2    0    0  0.21267333737E+02 -0.25157091707E+01  0.39629350091E+02  0.45045684206E+02  0.00000000000E+00 0. -1.
         11    1    3    3    0    0  0.36777440481E-01  0.56571191267E+00 -0.58916400160E+01  0.59188516528E+01  0.51100000000E-03 0. -1.
        -11    1    3    3    0    0 -0.19429607990E+02  0.28345136398E+01 -0.31871335460E+02  0.37434291211E+02  0.51100000000E-03 0.  1.
         12    1    3    3    0    0 -0.18745031882E+01 -0.88451638173E+00 -0.18663746154E+01  0.27891729307E+01  0.00000000000E+00 0. -1.
</event>
<event>
 7    1  0.4623443E-009  0.4614232E+02  0.7816164E-02  0.1320468E+00
        -11   -1    0    0    0    0  0.00000000000E+00  0.00000000000E+00  0.45593999997E+02  0.45594000000E+02  0.51100000000E-03 0. -1.
         11   -1    0    0    0    0 -0.00000000000E+00 -0.00000000000E+00 -0.45593999997E+02  0.45594000000E+02  0.51100000000E-03 0.  1.
    9900012    2    1    2    0    0 -0.28554596802E+02 -0.20710309153E+02  0.28014845876E+02  0.46142317707E+02  0.99999995105E+01 0.  0.
        -12    1    1    2    0    0  0.28554596802E+02  0.20710309153E+02 -0.28014845876E+02  0.45045682293E+02  0.00000000000E+00 0.  1.
         11    1    3    3    0    0 -0.17841990349E+02 -0.81107586967E+01  0.13175405367E+02  0.23615933881E+02  0.51100000000E-03 0. -1.
        -11    1    3    3    0    0 -0.98479009767E+01 -0.10836773962E+02  0.11366446287E+02  0.18536799212E+02  0.51100000000E-03 0.  1.
         12    1    3    3    0    0 -0.86470547681E+00 -0.17627764935E+01  0.34729942223E+01  0.39895846144E+01  0.00000000000E+00 0. -1.
</event>
<event>
 7    1  0.4623443E-009  0.4614232E+02  0.7816164E-02  0.1320468E+00
        -11   -1    0    0    0    0  0.00000000000E+00  0.00000000000E+00  0.45593999997E+02  0.45594000000E+02  0.51100000000E-03 0. -1.
         11   -1    0    0    0    0 -0.00000000000E+00 -0.00000000000E+00 -0.45593999997E+02  0.45594000000E+02  0.51100000000E-03 0.  1.
    9900012    2    1    2    0    0 -0.24735224577E+02  0.19497751759E+02 -0.32204342694E+02  0.46142319332E+02  0.10000014323E+02 0.  0.
         12    1    1    2    0    0  0.24735224577E+02 -0.19497751759E+02  0.32204342694E+02  0.45045680668E+02  0.00000000000E+00 0. -1.
         11    1    3    3    0    0 -0.11677236169E+02  0.12816925374E+02 -0.17240067693E+02  0.24450999057E+02  0.51100000000E-03 0. -1.
        -11    1    3    3    0    0 -0.19733119149E+01 -0.97133788994E+00 -0.26215732953E+01  0.34220029243E+01  0.51100000000E-03 0.  1.
        -12    1    3    3    0    0 -0.11084676494E+02  0.76521642746E+01 -0.12342701705E+02  0.18269317350E+02  0.00000000000E+00 0.  1.
</event>
<event>
 7    1  0.4623443E-009  0.4614232E+02  0.7816164E-02  0.1320468E+00
        -11   -1    0    0    0    0  0.00000000000E+00  0.00000000000E+00  0.45593999997E+02  0.45594000000E+02  0.51100000000E-03 0. -1.
         11   -1    0    0    0    0 -0.00000000000E+00 -0.00000000000E+00 -0.45593999997E+02  0.45594000000E+02  0.51100000000E-03 0.  1.
    9900012    2    1    2    0    0 -0.18127495952E+02 -0.14300424662E+02 -0.38678228448E+02  0.46142316401E+02  0.99999876001E+01 0.  0.
         12    1    1    2    0    0  0.18127495952E+02  0.14300424662E+02  0.38678228448E+02  0.45045683599E+02  0.00000000000E+00 0. -1.
         11    1    3    3    0    0 -0.71590538786E+01 -0.19923825400E+01 -0.64580682171E+01  0.98452164009E+01  0.51100000000E-03 0. -1.
        -11    1    3    3    0    0 -0.20664399863E+01 -0.39085745512E+01 -0.98763506636E+01  0.10820787029E+02  0.51100000000E-03 0.  1.
        -12    1    3    3    0    0 -0.89020020874E+01 -0.83994675704E+01 -0.22343809567E+02  0.25476312971E+02  0.00000000000E+00 0.  1.
</event>
<event>
 7    1  0.4623443E-009  0.4614232E+02  0.7816164E-02  0.1320468E+00
        -11   -1    0    0    0    0  0.00000000000E+00  0.00000000000E+00  0.45593999997E+02  0.45594000000E+02  0.51100000000E-03 0. -1.
         11   -1    0    0    0    0 -0.00000000000E+00 -0.00000000000E+00 -0.45593999997E+02  0.45594000000E+02  0.51100000000E-03 0.  1.
    9900012    2    1    2    0    0  0.13444814085E+02  0.20932987351E+02 -0.37552104605E+02  0.46142317127E+02  0.99999942160E+01 0.  0.
         12    1    1    2    0    0 -0.13444814085E+02 -0.20932987351E+02  0.37552104605E+02  0.45045682873E+02  0.00000000000E+00 0. -1.
         11    1    3    3    0    0  0.37534732661E+01  0.88743169477E+01 -0.93179346257E+01  0.13403953476E+02  0.51100000000E-03 0. -1.
        -11    1    3    3    0    0  0.54672634032E+01  0.23888716185E+01 -0.89603127188E+01  0.10764984023E+02  0.51100000000E-03 0.  1.
        -12    1    3    3    0    0  0.42240774162E+01  0.96697987846E+01 -0.19273857261E+02  0.21973379628E+02  0.00000000000E+00 0.  1.
</event>
<event>
 7    1  0.4623443E-009  0.4614232E+02  0.7816164E-02  0.1320468E+00
        -11   -1    0    0    0    0  0.00000000000E+00  0.00000000000E+00  0.45593999997E+02  0.45594000000E+02  0.51100000000E-03 0. -1.
         11   -1    0    0    0    0 -0.00000000000E+00 -0.00000000000E+00 -0.45593999997E+02  0.45594000000E+02  0.51100000000E-03 0.  1.
    9900012    2    1    2    0    0  0.79373713586E+01 -0.41748219907E+02  0.14939803265E+02  0.46142318175E+02  0.10000003775E+02 0.  0.
        -12    1    1    2    0    0 -0.79373713586E+01  0.41748219907E+02 -0.14939803265E+02  0.45045681825E+02  0.00000000000E+00 0.  1.
         11    1    3    3    0    0 -0.18726717214E+01 -0.89655709737E+01  0.13759851237E+01  0.92618409392E+01  0.51100000000E-03 0. -1.
        -11    1    3    3    0    0  0.52571004487E+01 -0.16288213155E+02  0.56152187952E+01  0.18013152842E+02  0.51100000000E-03 0.  1.
        -12    1    3    3    0    0  0.45529426313E+01 -0.16494435778E+02  0.79485993457E+01  0.18867324394E+02  0.00000000000E+00 0.  1.
</event>
<event>
 7    1  0.4623443E-009  0.4614232E+02  0.7816164E-02  0.1320468E+00
        -11   -1    0    0    0    0  0.00000000000E+00  0.00000000000E+00  0.45593999997E+02  0.45594000000E+02  0.51100000000E-03 0. -1.
         11   -1    0    0    0    0 -0.00000000000E+00 -0.00000000000E+00 -0.45593999997E+02  0.45594000000E+02  0.51100000000E-03 0.  1.
    9900012    2    1    2    0    0 -0.86462694118E+01 -0.34935659017E+02  0.27089761626E+02  0.46142318402E+02  0.10000005843E+02 0.  0.
        -12    1    1    2    0    0  0.86462694118E+01  0.34935659017E+02 -0.27089761626E+02  0.45045681598E+02  0.00000000000E+00 0.  1.
         11    1    3    3    0    0 -0.52160826741E+01 -0.14378004342E+02  0.62489954910E+01  0.16522241743E+02  0.51100000000E-03 0. -1.
        -11    1    3    3    0    0  0.33217610534E+00 -0.14880917598E+01  0.88638794019E+00  0.17636444914E+01  0.51100000000E-03 0.  1.
         12    1    3    3    0    0 -0.37623628430E+01 -0.19069562915E+02  0.19954378195E+02  0.27856432167E+02  0.00000000000E+00 0. -1.
</event>
<event>
 7    1  0.4623443E-009  0.4614232E+02  0.7816164E-02  0.1320468E+00
        -11   -1    0    0    0    0  0.00000000000E+00  0.00000000000E+00  0.45593999997E+02  0.45594000000E+02  0.51100000000E-03 0. -1.
         11   -1    0    0    0    0 -0.00000000000E+00 -0.00000000000E+00 -0.45593999997E+02  0.45594000000E+02  0.51100000000E-03 0.  1.
    9900012    2    1    2    0    0  0.16267994485E+02 -0.22888814986E+02 -0.35221698427E+02  0.46142317231E+02  0.99999951653E+01 0.  0.
         12    1    1    2    0    0 -0.16267994485E+02  0.22888814986E+02  0.35221698427E+02  0.45045682769E+02  0.00000000000E+00 0. -1.
         11    1    3    3    0    0  0.64026232919E-01 -0.40877793402E+01 -0.42478466509E+01  0.58956119888E+01  0.51100000000E-03 0. -1.
        -11    1    3    3    0    0  0.14358798465E+02 -0.18667985742E+02 -0.26779202768E+02  0.35662227723E+02  0.51100000000E-03 0.  1.
         12    1    3    3    0    0  0.18451697870E+01 -0.13304990415E+00 -0.41946490081E+01  0.45844775189E+01  0.00000000000E+00 0. -1.
</event>
<event>
 7    1  0.4623443E-009  0.4614232E+02  0.7816164E-02  0.1320468E+00
        -11   -1    0    0    0    0  0.00000000000E+00  0.00000000000E+00  0.45593999997E+02  0.45594000000E+02  0.51100000000E-03 0. -1.
         11   -1    0    0    0    0 -0.00000000000E+00 -0.00000000000E+00 -0.45593999997E+02  0.45594000000E+02  0.51100000000E-03 0.  1.
    9900012    2    1    2    0    0 -0.21279851722E+02  0.35310759280E+02  0.18150252770E+02  0.46142317789E+02  0.10000000253E+02 0.  0.
        -12    1    1    2    0    0  0.21279851722E+02 -0.35310759280E+02 -0.18150252770E+02  0.45045682211E+02  0.00000000000E+00 0.  1.
         11    1    3    3    0    0 -0.16200947061E+02  0.21055630484E+02  0.82803089951E+01  0.27827572263E+02  0.51100000000E-03 0. -1.
        -11    1    3    3    0    0 -0.42462049283E+00  0.39758914236E+01  0.15210424429E+01  0.42780352440E+01  0.51100000000E-03 0.  1.
         12    1    3    3    0    0 -0.46542841685E+01  0.10279237372E+02  0.83489013319E+01  0.14036710281E+02  0.00000000000E+00 0. -1.
</event>
<event>
 7    1  0.4623443E-009  0.4614231E+02  0.7816164E-02  0.1320468E+00
        -11   -1    0    0    0    0  0.00000000000E+00  0.00000000000E+00  0.45593999997E+02  0.45594000000E+02  0.51100000000E-03 0. -1.
         11   -1    0    0    0    0 -0.00000000000E+00 -0.00000000000E+00 -0.45593999997E+02  0.45594000000E+02  0.51100000000E-03 0.  1.
    9900012    2    1    2    0    0 -0.69152190690E+01  0.67882468416E+01  0.43991066445E+02  0.46142306788E+02  0.99998999397E+01 0.  0.
        -12    1    1    2    0    0  0.69152190690E+01 -0.67882468416E+01 -0.43991066445E+02  0.45045693212E+02  0.00000000000E+00 0.  1.
         11    1    3    3    0    0 -0.11611073925E+01  0.97799049848E+00  0.64351526209E+00  0.16488626218E+01  0.51100000000E-03 0. -1.
        -11    1    3    3    0    0 -0.18222837707E+01 -0.33660205771E+00  0.32834287047E+01  0.37702683467E+01  0.51100000000E-03 0.  1.
         12    1    3    3    0    0 -0.39318279058E+01  0.61468584008E+01  0.40064122478E+02  0.40723175820E+02  0.00000000000E+00 0. -1.
</event>
<event>
 7    1  0.4623443E-009  0.4614232E+02  0.7816164E-02  0.1320468E+00
        -11   -1    0    0    0    0  0.00000000000E+00  0.00000000000E+00  0.45593999997E+02  0.45594000000E+02  0.51100000000E-03 0. -1.
         11   -1    0    0    0    0 -0.00000000000E+00 -0.00000000000E+00 -0.45593999997E+02  0.45594000000E+02  0.51100000000E-03 0.  1.
    9900012    2    1    2    0    0  0.20408636266E+02 -0.35009617876E+02  0.19670472775E+02  0.46142320105E+02  0.10000021373E+02 0.  0.
        -12    1    1    2    0    0 -0.20408636266E+02  0.35009617876E+02 -0.19670472775E+02  0.45045679895E+02  0.00000000000E+00 0.  1.
         11    1    3    3    0    0  0.62704623490E+01 -0.95173710085E+01  0.58667910898E+01  0.12818669468E+02  0.51100000000E-03 0.  1.
        -11    1    3    3    0    0  0.14131483239E+02 -0.22527251984E+02  0.97988023654E+01  0.28340649755E+02  0.51100000000E-03 0. -1.
        -12    1    3    3    0    0  0.66906774417E-02 -0.29649948839E+01  0.40048793194E+01  0.49830008820E+01  0.00000000000E+00 0.  1.
</event>
<event>
 7    1  0.4623443E-009  0.4614232E+02  0.7816164E-02  0.1320468E+00
        -11   -1    0    0    0    0  0.00000000000E+00  0.00000000000E+00  0.45593999997E+02  0.45594000000E+02  0.51100000000E-03 0. -1.
         11   -1    0    0    0    0 -0.00000000000E+00 -0.00000000000E+00 -0.45593999997E+02  0.45594000000E+02  0.51100000000E-03 0.  1.
    9900012    2    1    2    0    0 -0.27742696211E+02 -0.25492329644E+02  0.24690025432E+02  0.46142318525E+02  0.10000006964E+02 0.  0.
        -12    1    1    2    0    0  0.27742696211E+02  0.25492329644E+02 -0.24690025432E+02  0.45045681475E+02  0.00000000000E+00 0.  1.
         11    1    3    3    0    0 -0.41674100621E+01 -0.64810403055E+01  0.78236120057E+01  0.10980896828E+02  0.51100000000E-03 0. -1.
        -11    1    3    3    0    0 -0.15771305075E+02 -0.10032276452E+02  0.80364993141E+01  0.20346153348E+02  0.51100000000E-03 0.  1.
         12    1    3    3    0    0 -0.78039810739E+01 -0.89790128865E+01  0.88299141119E+01  0.14815268349E+02  0.00000000000E+00 0. -1.
</event>
<event>
 7    1  0.4623443E-009  0.4614232E+02  0.7816164E-02  0.1320468E+00
        -11   -1    0    0    0    0  0.00000000000E+00  0.00000000000E+00  0.45593999997E+02  0.45594000000E+02  0.51100000000E-03 0. -1.
         11   -1    0    0    0    0 -0.00000000000E+00 -0.00000000000E+00 -0.45593999997E+02  0.45594000000E+02  0.51100000000E-03 0.  1.
    9900012    2    1    2    0    0  0.35313039307E+02  0.26053815410E+01 -0.27844474766E+02  0.46142317265E+02  0.99999954780E+01 0.  0.
         12    1    1    2    0    0 -0.35313039307E+02 -0.26053815410E+01  0.27844474766E+02  0.45045682735E+02  0.00000000000E+00 0. -1.
         11    1    3    3    0    0  0.17618155988E+01  0.22828963896E+01 -0.39666785807E+01  0.49040951615E+01  0.51100000000E-03 0. -1.
        -11    1    3    3    0    0  0.60448365832E+01 -0.51640152703E+00 -0.50641672431E+01  0.79026900472E+01  0.51100000000E-03 0.  1.
         12    1    3    3    0    0  0.27506387125E+02  0.83888667845E+00 -0.18813628942E+02  0.33335532056E+02  0.00000000000E+00 0. -1.
</event>
<event>
 7    1  0.4750592E-009  0.4614232E+02  0.7816164E-02  0.1320468E+00
        -11   -1    0    0    0    0  0.00000000000E+00  0.00000000000E+00  0.45593999997E+02  0.45594000000E+02  0.51100000000E-03 0. -1.
         11   -1    0    0    0    0 -0.00000000000E+00 -0.00000000000E+00 -0.45593999997E+02  0.45594000000E+02  0.51100000000E-03 0.  1.
    9900012    2    1    2    0    0 -0.19644069995E+02 -0.15102521934E+02 -0.37618318802E+02  0.46142316919E+02  0.99999923216E+01 0.  0.
         12    1    1    2    0    0  0.19644069995E+02  0.15102521934E+02  0.37618318802E+02  0.45045683081E+02  0.00000000000E+00 0. -1.
         11    1    3    3    0    0 -0.16142158795E+02 -0.13282494412E+02 -0.27465186922E+02  0.34515655017E+02  0.51100000000E-03 0. -1.
        -11    1    3    3    0    0 -0.40250422927E+01 -0.25107005313E+01 -0.79297848686E+01  0.92404583728E+01  0.51100000000E-03 0.  1.
         12    1    3    3    0    0  0.52313109243E+00  0.69067300992E+00 -0.22233470119E+01  0.23862035290E+01  0.00000000000E+00 0. -1.
</event>
<event>
 7    1  0.4623443E-009  0.4614232E+02  0.7816164E-02  0.1320468E+00
        -11   -1    0    0    0    0  0.00000000000E+00  0.00000000000E+00  0.45593999997E+02  0.45594000000E+02  0.51100000000E-03 0. -1.
         11   -1    0    0    0    0 -0.00000000000E+00 -0.00000000000E+00 -0.45593999997E+02  0.45594000000E+02  0.51100000000E-03 0.  1.
    9900012    2    1    2    0    0  0.11043831095E+02 -0.42008571118E+02 -0.11934287155E+02  0.46142318047E+02  0.10000002611E+02 0.  0.
        -12    1    1    2    0    0 -0.11043831095E+02  0.42008571118E+02  0.11934287155E+02  0.45045681953E+02  0.00000000000E+00 0.  1.
         11    1    3    3    0    0  0.40610022641E+01 -0.42392329665E+01 -0.33265080167E+01  0.67474803727E+01  0.51100000000E-03 0.  1.
        -11    1    3    3    0    0  0.55445215209E+00 -0.53590829703E+01 -0.15732803574E+01  0.56126997796E+01  0.51100000000E-03 0. -1.
         12    1    3    3    0    0  0.64283766790E+01 -0.32410255182E+02 -0.70344987811E+01  0.33782137895E+02  0.00000000000E+00 0. -1.
</event>
<event>
 7    1  0.4623443E-009  0.4614232E+02  0.7816164E-02  0.1320468E+00
        -11   -1    0    0    0    0  0.00000000000E+00  0.00000000000E+00  0.45593999997E+02  0.45594000000E+02  0.51100000000E-03 0.  1.
         11   -1    0    0    0    0 -0.00000000000E+00 -0.00000000000E+00 -0.45593999997E+02  0.45594000000E+02  0.51100000000E-03 0. -1.
    9900012    2    1    2    0    0 -0.36862472552E+02 -0.74296089532E+01  0.24800656651E+02  0.46142317164E+02  0.99999945543E+01 0.  0.
        -12    1    1    2    0    0  0.36862472552E+02  0.74296089532E+01 -0.24800656651E+02  0.45045682836E+02  0.00000000000E+00 0.  1.
         11    1    3    3    0    0 -0.75429816540E+01 -0.15706001739E+01  0.32059322891E+01  0.83451398576E+01  0.51100000000E-03 0. -1.
        -11    1    3    3    0    0 -0.15357942353E+02 -0.65123999263E+01  0.14597103814E+02  0.22166487907E+02  0.51100000000E-03 0.  1.
        -12    1    3    3    0    0 -0.13961548545E+02  0.65339114707E+00  0.69976205485E+01  0.15630689399E+02  0.00000000000E+00 0.  1.
</event>
<event>
 7    1  0.4623443E-009  0.4614232E+02  0.7816164E-02  0.1320468E+00
        -11   -1    0    0    0    0  0.00000000000E+00  0.00000000000E+00  0.45593999997E+02  0.45594000000E+02  0.51100000000E-03 0. -1.
         11   -1    0    0    0    0 -0.00000000000E+00 -0.00000000000E+00 -0.45593999997E+02  0.45594000000E+02  0.51100000000E-03 0.  1.
    9900012    2    1    2    0    0 -0.18483012345E+02 -0.39709334928E+02  0.10519538951E+02  0.46142315129E+02  0.99999759955E+01 0.  0.
        -12    1    1    2    0    0  0.18483012345E+02  0.39709334928E+02 -0.10519538951E+02  0.45045684871E+02  0.00000000000E+00 0.  1.
         11    1    3    3    0    0 -0.88661835779E+00 -0.56380448641E+01  0.34328530682E+00  0.57176469867E+01  0.51100000000E-03 0. -1.
        -11    1    3    3    0    0  0.52633929456E+00 -0.16415628038E+01 -0.45599597982E+00  0.17831696741E+01  0.51100000000E-03 0.  1.
        -12    1    3    3    0    0 -0.18122733282E+02 -0.32429727260E+02  0.10632249624E+02  0.38641498468E+02  0.00000000000E+00 0.  1.
</event>
<event>
 7    1  0.4623443E-009  0.4614232E+02  0.7816164E-02  0.1320468E+00
        -11   -1    0    0    0    0  0.00000000000E+00  0.00000000000E+00  0.45593999997E+02  0.45594000000E+02  0.51100000000E-03 0. -1.
         11   -1    0    0    0    0 -0.00000000000E+00 -0.00000000000E+00 -0.45593999997E+02  0.45594000000E+02  0.51100000000E-03 0.  1.
    9900012    2    1    2    0    0 -0.29633200105E+01 -0.58765191093E+01  0.44562301825E+02  0.46142317784E+02  0.10000000212E+02 0.  0.
        -12    1    1    2    0    0  0.29633200105E+01  0.58765191093E+01 -0.44562301825E+02  0.45045682216E+02  0.00000000000E+00 0.  1.
         11    1    3    3    0    0 -0.19434973254E+00  0.19703894956E+01  0.89819055421E+01  0.91975449992E+01  0.51100000000E-03 0.  1.
        -11    1    3    3    0    0 -0.16300352101E+01 -0.84770388258E+01  0.30232971257E+02  0.31441211067E+02  0.51100000000E-03 0. -1.
         12    1    3    3    0    0 -0.11389350679E+01  0.63013022085E+00  0.53474250258E+01  0.55035617186E+01  0.00000000000E+00 0. -1.
</event>
<event>
 7    1  0.4623443E-009  0.4614232E+02  0.7816164E-02  0.1320468E+00
        -11   -1    0    0    0    0  0.00000000000E+00  0.00000000000E+00  0.45593999997E+02  0.45594000000E+02  0.51100000000E-03 0. -1.
         11   -1    0    0    0    0 -0.00000000000E+00 -0.00000000000E+00 -0.45593999997E+02  0.45594000000E+02  0.51100000000E-03 0.  1.
    9900012    2    1    2    0    0 -0.18183365251E+02 -0.51775387337E+01  0.40886083176E+02  0.46142317891E+02  0.10000001181E+02 0.  0.
        -12    1    1    2    0    0  0.18183365251E+02  0.51775387337E+01 -0.40886083176E+02  0.45045682109E+02  0.00000000000E+00 0.  1.
         11    1    3    3    0    0 -0.70085485761E+01 -0.30391847534E+01  0.23749158456E+02  0.24947523419E+02  0.51100000000E-03 0. -1.
        -11    1    3    3    0    0 -0.16159357869E+01 -0.23817427297E+01  0.46247427142E+01  0.54472187703E+01  0.51100000000E-03 0.  1.
        -12    1    3    3    0    0 -0.95588808882E+01  0.24338874942E+00  0.12512182006E+02  0.15747575701E+02  0.00000000000E+00 0.  1.
</event>
<event>
 7    1  0.4623443E-009  0.4614232E+02  0.7816164E-02  0.1320468E+00
        -11   -1    0    0    0    0  0.00000000000E+00  0.00000000000E+00  0.45593999997E+02  0.45594000000E+02  0.51100000000E-03 0. -1.
         11   -1    0    0    0    0 -0.00000000000E+00 -0.00000000000E+00 -0.45593999997E+02  0.45594000000E+02  0.51100000000E-03 0.  1.
    9900012    2    1    2    0    0 -0.71763680956E+01 -0.36924782098E+02 -0.24782527490E+02  0.46142318067E+02  0.10000002792E+02 0.  0.
         12    1    1    2    0    0  0.71763680956E+01  0.36924782098E+02  0.24782527490E+02  0.45045681933E+02  0.00000000000E+00 0. -1.
         11    1    3    3    0    0  0.37517422618E+00 -0.14461978246E+01 -0.62803868014E+00  0.16207025306E+01  0.51100000000E-03 0. -1.
        -11    1    3    3    0    0  0.11939605701E+01 -0.14176494083E+02 -0.11153222399E+02  0.18077413987E+02  0.51100000000E-03 0.  1.
        -12    1    3    3    0    0 -0.87455028918E+01 -0.21302090190E+02 -0.13001266411E+02  0.26444201549E+02  0.00000000000E+00 0.  1.
</event>
<event>
 7    1  0.4623443E-009  0.4614232E+02  0.7816164E-02  0.1320468E+00
        -11   -1    0    0    0    0  0.00000000000E+00  0.00000000000E+00  0.45593999997E+02  0.45594000000E+02  0.51100000000E-03 0. -1.
         11   -1    0    0    0    0 -0.00000000000E+00 -0.00000000000E+00 -0.45593999997E+02  0.45594000000E+02  0.51100000000E-03 0.  1.
    9900012    2    1    2    0    0 -0.41121876437E+02 -0.24767228469E+01  0.18220066719E+02  0.46142315312E+02  0.99999776677E+01 0.  0.
        -12    1    1    2    0    0  0.41121876437E+02  0.24767228469E+01 -0.18220066719E+02  0.45045684688E+02  0.00000000000E+00 0.  1.
         11    1    3    3    0    0 -0.20433945795E+02 -0.18855197446E+01  0.82077701263E+01  0.22101330643E+02  0.51100000000E-03 0. -1.
        -11    1    3    3    0    0 -0.10175259590E+01  0.13857572261E+01  0.21803895885E+01  0.27766492731E+01  0.51100000000E-03 0.  1.
        -12    1    3    3    0    0 -0.19670404683E+02 -0.19769603284E+01  0.78319070041E+01  0.21264335396E+02  0.00000000000E+00 0.  1.
</event>
<event>
 7    1  0.4623443E-009  0.4614232E+02  0.7816164E-02  0.1320468E+00
        -11   -1    0    0    0    0  0.00000000000E+00  0.00000000000E+00  0.45593999997E+02  0.45594000000E+02  0.51100000000E-03 0. -1.
         11   -1    0    0    0    0 -0.00000000000E+00 -0.00000000000E+00 -0.45593999997E+02  0.45594000000E+02  0.51100000000E-03 0.  1.
    9900012    2    1    2    0    0 -0.10609984138E+02 -0.11316292679E+01  0.43763695742E+02  0.46142318595E+02  0.10000007603E+02 0.  0.
        -12    1    1    2    0    0  0.10609984138E+02  0.11316292679E+01 -0.43763695742E+02  0.45045681405E+02  0.00000000000E+00 0.  1.
         11    1    3    3    0    0 -0.33722308849E+01 -0.24893924798E+01  0.12840851187E+02  0.13507645077E+02  0.51100000000E-03 0. -1.
        -11    1    3    3    0    0 -0.57883614448E+01  0.39113435677E+01  0.25809504658E+02  0.26738254761E+02  0.51100000000E-03 0.  1.
        -12    1    3    3    0    0 -0.14493918083E+01 -0.25535803557E+01  0.51133398974E+01  0.58964187566E+01  0.00000000000E+00 0.  1.
</event>
<event>
 7    1  0.4623443E-009  0.4614232E+02  0.7816164E-02  0.1320468E+00
        -11   -1    0    0    0    0  0.00000000000E+00  0.00000000000E+00  0.45593999997E+02  0.45594000000E+02  0.51100000000E-03 0.  1.
         11   -1    0    0    0    0 -0.00000000000E+00 -0.00000000000E+00 -0.45593999997E+02  0.45594000000E+02  0.51100000000E-03 0. -1.
    9900012    2    1    2    0    0 -0.40284505136E+02  0.18403362587E+02 -0.82212199088E+01  0.46142316906E+02  0.99999922066E+01 0.  0.
        -12    1    1    2    0    0  0.40284505136E+02 -0.18403362587E+02  0.82212199088E+01  0.45045683094E+02  0.00000000000E+00 0.  1.
         11    1    3    3    0    0 -0.25370725579E+02  0.10476933309E+02 -0.56506701718E+01  0.28024452209E+02  0.51100000000E-03 0. -1.
        -11    1    3    3    0    0 -0.90002625622E+01  0.74531319784E+01 -0.85401785160E-01  0.11685940108E+02  0.51100000000E-03 0.  1.
         12    1    3    3    0    0 -0.59135169952E+01  0.47329729939E+00 -0.24851479518E+01  0.64319245898E+01  0.00000000000E+00 0. -1.
</event>
<event>
 7    1  0.4623443E-009  0.4614232E+02  0.7816164E-02  0.1320468E+00
        -11   -1    0    0    0    0  0.00000000000E+00  0.00000000000E+00  0.45593999997E+02  0.45594000000E+02  0.51100000000E-03 0. -1.
         11   -1    0    0    0    0 -0.00000000000E+00 -0.00000000000E+00 -0.45593999997E+02  0.45594000000E+02  0.51100000000E-03 0.  1.
    9900012    2    1    2    0    0 -0.29556418748E+02 -0.51684496925E+01 -0.33597891028E+02  0.46142322705E+02  0.10000045083E+02 0.  0.
         12    1    1    2    0    0  0.29556418748E+02  0.51684496925E+01  0.33597891028E+02  0.45045677295E+02  0.00000000000E+00 0. -1.
         11    1    3    3    0    0 -0.69312358117E+00 -0.36091013492E+00  0.51038209686E+00  0.93336304307E+00  0.51100000000E-03 0. -1.
        -11    1    3    3    0    0 -0.25224192712E+01  0.53255890614E+00 -0.47613273391E+01  0.54144673108E+01  0.51100000000E-03 0.  1.
        -12    1    3    3    0    0 -0.26340875895E+02 -0.53400984638E+01 -0.29346945786E+02  0.39794492351E+02  0.00000000000E+00 0.  1.
</event>
<event>
 7    1  0.4623443E-009  0.4614232E+02  0.7816164E-02  0.1320468E+00
        -11   -1    0    0    0    0  0.00000000000E+00  0.00000000000E+00  0.45593999997E+02  0.45594000000E+02  0.51100000000E-03 0. -1.
         11   -1    0    0    0    0 -0.00000000000E+00 -0.00000000000E+00 -0.45593999997E+02  0.45594000000E+02  0.51100000000E-03 0.  1.
    9900012    2    1    2    0    0  0.39339711995E+02 -0.12041673527E+02  0.18343896473E+02  0.46142318975E+02  0.10000011068E+02 0.  0.
        -12    1    1    2    0    0 -0.39339711995E+02  0.12041673527E+02 -0.18343896473E+02  0.45045681025E+02  0.00000000000E+00 0.  1.
         11    1    3    3    0    0  0.72416780764E+01 -0.12171936335E+01  0.36682339612E+00  0.73524160226E+01  0.51100000000E-03 0. -1.
        -11    1    3    3    0    0  0.24286353672E+01 -0.54305706868E+00  0.32880935349E+01  0.41236804049E+01  0.51100000000E-03 0.  1.
        -12    1    3    3    0    0  0.29669398552E+02 -0.10281422825E+02  0.14688979542E+02  0.34666222547E+02  0.00000000000E+00 0.  1.
</event>
<event>
 7    1  0.4623443E-009  0.4614232E+02  0.7816164E-02  0.1320468E+00
        -11   -1    0    0    0    0  0.00000000000E+00  0.00000000000E+00  0.45593999997E+02  0.45594000000E+02  0.51100000000E-03 0.  1.
         11   -1    0    0    0    0 -0.00000000000E+00 -0.00000000000E+00 -0.45593999997E+02  0.45594000000E+02  0.51100000000E-03 0. -1.
    9900012    2    1    2    0    0  0.18967442646E+01 -0.44771751654E+02 -0.45832358692E+01  0.46142318342E+02  0.10000005300E+02 0.  0.
        -12    1    1    2    0    0 -0.18967442646E+01  0.44771751654E+02  0.45832358692E+01  0.45045681658E+02  0.00000000000E+00 0.  1.
         11    1    3    3    0    0 -0.33069610444E+01 -0.20109509433E+02 -0.17327914894E+01  0.20453139798E+02  0.51100000000E-03 0.  1.
        -11    1    3    3    0    0  0.47344780596E+01 -0.16583699754E+02 -0.34005558041E+01  0.17578343496E+02  0.51100000000E-03 0. -1.
         12    1    3    3    0    0  0.46922724932E+00 -0.80785424662E+01  0.55011142434E+00  0.81108350476E+01  0.00000000000E+00 0. -1.
</event>
<event>
 7    1  0.4623443E-009  0.4614232E+02  0.7816164E-02  0.1320468E+00
        -11   -1    0    0    0    0  0.00000000000E+00  0.00000000000E+00  0.45593999997E+02  0.45594000000E+02  0.51100000000E-03 0. -1.
         11   -1    0    0    0    0 -0.00000000000E+00 -0.00000000000E+00 -0.45593999997E+02  0.45594000000E+02  0.51100000000E-03 0.  1.
    9900012    2    1    2    0    0 -0.16894661773E+02  0.27513221047E+02  0.31411885270E+02  0.46142318020E+02  0.10000002362E+02 0.  0.
        -12    1    1    2    0    0  0.16894661773E+02 -0.27513221047E+02 -0.31411885270E+02  0.45045681980E+02  0.00000000000E+00 0.  1.
         11    1    3    3    0    0 -0.10298837776E+02  0.22134703659E+02  0.21971973995E+02  0.32844768337E+02  0.51100000000E-03 0. -1.
        -11    1    3    3    0    0 -0.19975652467E+01  0.32846720510E+01  0.62009408194E+01  0.72959581073E+01  0.51100000000E-03 0.  1.
        -12    1    3    3    0    0 -0.45982587507E+01  0.20938453376E+01  0.32389704553E+01  0.60015915761E+01  0.00000000000E+00 0.  1.
</event>
<event>
 7    1  0.4623443E-009  0.4614232E+02  0.7816164E-02  0.1320468E+00
        -11   -1    0    0    0    0  0.00000000000E+00  0.00000000000E+00  0.45593999997E+02  0.45594000000E+02  0.51100000000E-03 0. -1.
         11   -1    0    0    0    0 -0.00000000000E+00 -0.00000000000E+00 -0.45593999997E+02  0.45594000000E+02  0.51100000000E-03 0.  1.
    9900012    2    1    2    0    0  0.11929271552E+02  0.38575642471E+02 -0.19968117433E+02  0.46142318457E+02  0.10000006347E+02 0.  0.
         12    1    1    2    0    0 -0.11929271552E+02 -0.38575642471E+02  0.19968117433E+02  0.45045681543E+02  0.00000000000E+00 0. -1.
         11    1    3    3    0    0  0.16793944456E+00  0.10665220840E+02 -0.76200715538E+01  0.13108799715E+02  0.51100000000E-03 0. -1.
        -11    1    3    3    0    0  0.38529331171E+01  0.15097616340E+02 -0.63675975564E+01  0.16832391739E+02  0.51100000000E-03 0.  1.
        -12    1    3    3    0    0  0.79083989907E+01  0.12812805291E+02 -0.59804483230E+01  0.16201127003E+02  0.00000000000E+00 0.  1.
</event>
<event>
 7    1  0.4623443E-009  0.4614232E+02  0.7816164E-02  0.1320468E+00
        -11   -1    0    0    0    0  0.00000000000E+00  0.00000000000E+00  0.45593999997E+02  0.45594000000E+02  0.51100000000E-03 0. -1.
         11   -1    0    0    0    0 -0.00000000000E+00 -0.00000000000E+00 -0.45593999997E+02  0.45594000000E+02  0.51100000000E-03 0.  1.
    9900012    2    1    2    0    0  0.25898346067E+02 -0.31009146703E+02  0.19920390752E+02  0.46142317899E+02  0.10000001254E+02 0.  0.
        -12    1    1    2    0    0 -0.25898346067E+02  0.31009146703E+02 -0.19920390752E+02  0.45045682101E+02  0.00000000000E+00 0.  1.
         11    1    3    3    0    0  0.51146440501E+01 -0.19694379962E+01  0.24754463981E+01  0.60138261458E+01  0.51100000000E-03 0. -1.
        -11    1    3    3    0    0  0.72933705806E+01 -0.96320765168E+01  0.88587049900E+01  0.14981548879E+02  0.51100000000E-03 0.  1.
         12    1    3    3    0    0  0.13490331436E+02 -0.19407632190E+02  0.85862393640E+01  0.25146942874E+02  0.00000000000E+00 0. -1.
</event>
<event>
 7    1  0.4623443E-009  0.4614232E+02  0.7816164E-02  0.1320468E+00
        -11   -1    0    0    0    0  0.00000000000E+00  0.00000000000E+00  0.45593999997E+02  0.45594000000E+02  0.51100000000E-03 0. -1.
         11   -1    0    0    0    0 -0.00000000000E+00 -0.00000000000E+00 -0.45593999997E+02  0.45594000000E+02  0.51100000000E-03 0.  1.
    9900012    2    1    2    0    0  0.11268724708E+02  0.12377897343E+02  0.41820055427E+02  0.46142317242E+02  0.99999952663E+01 0.  0.
        -12    1    1    2    0    0 -0.11268724708E+02 -0.12377897343E+02 -0.41820055427E+02  0.45045682758E+02  0.00000000000E+00 0.  1.
         11    1    3    3    0    0  0.24765670592E+01  0.43487560524E+01  0.18758393503E+02  0.19414489194E+02  0.51100000000E-03 0.  1.
        -11    1    3    3    0    0  0.66447529951E+01  0.54664457708E+01  0.21248165985E+02  0.22924208377E+02  0.51100000000E-03 0. -1.
        -12    1    3    3    0    0  0.21474046537E+01  0.25626955200E+01  0.18134959391E+01  0.38036196703E+01  0.00000000000E+00 0.  1.
</event>
<event>
 7    1  0.4623443E-009  0.4614232E+02  0.7816164E-02  0.1320468E+00
        -11   -1    0    0    0    0  0.00000000000E+00  0.00000000000E+00  0.45593999997E+02  0.45594000000E+02  0.51100000000E-03 0. -1.
         11   -1    0    0    0    0 -0.00000000000E+00 -0.00000000000E+00 -0.45593999997E+02  0.45594000000E+02  0.51100000000E-03 0.  1.
    9900012    2    1    2    0    0 -0.22387050085E+02 -0.59021432215E+01 -0.38640627021E+02  0.46142319156E+02  0.10000012719E+02 0.  0.
         12    1    1    2    0    0  0.22387050085E+02  0.59021432215E+01  0.38640627021E+02  0.45045680844E+02  0.00000000000E+00 0. -1.
         11    1    3    3    0    0 -0.18784036323E+02 -0.45353617217E+01 -0.31910590146E+02  0.37305432450E+02  0.51100000000E-03 0. -1.
        -11    1    3    3    0    0 -0.31641706688E+01 -0.18396195320E+01 -0.71740364623E+01  0.80537553642E+01  0.51100000000E-03 0.  1.
         12    1    3    3    0    0 -0.43884309248E+00  0.47283803222E+00  0.44399958726E+00  0.78313134149E+00  0.00000000000E+00 0. -1.
</event>
<event>
 7    1  0.4623443E-009  0.4614232E+02  0.7816164E-02  0.1320468E+00
        -11   -1    0    0    0    0  0.00000000000E+00  0.00000000000E+00  0.45593999997E+02  0.45594000000E+02  0.51100000000E-03 0. -1.
         11   -1    0    0    0    0 -0.00000000000E+00 -0.00000000000E+00 -0.45593999997E+02  0.45594000000E+02  0.51100000000E-03 0.  1.
    9900012    2    1    2    0    0 -0.29430483560E+02  0.23511187866E+02  0.24701904881E+02  0.46142318496E+02  0.10000006700E+02 0.  0.
        -12    1    1    2    0    0  0.29430483560E+02 -0.23511187866E+02 -0.24701904881E+02  0.45045681504E+02  0.00000000000E+00 0.  1.
         11    1    3    3    0    0 -0.12543792094E+02  0.77362109116E+01  0.10364098337E+02  0.18016942414E+02  0.51100000000E-03 0. -1.
        -11    1    3    3    0    0 -0.13733776859E+01  0.66754122058E+00 -0.78144612319E+00  0.17153529823E+01  0.51100000000E-03 0.  1.
        -12    1    3    3    0    0 -0.15513313780E+02  0.15107435734E+02  0.15119252667E+02  0.26410023099E+02  0.00000000000E+00 0.  1.
</event>
<event>
 7    1  0.4623443E-009  0.4614231E+02  0.7816164E-02  0.1320468E+00
        -11   -1    0    0    0    0  0.00000000000E+00  0.00000000000E+00  0.45593999997E+02  0.45594000000E+02  0.51100000000E-03 0. -1.
         11   -1    0    0    0    0 -0.00000000000E+00 -0.00000000000E+00 -0.45593999997E+02  0.45594000000E+02  0.51100000000E-03 0.  1.
    9900012    2    1    2    0    0  0.50237716139E+01 -0.20459381894E+02 -0.39815697458E+02  0.46142308166E+02  0.99999125012E+01 0.  0.
         12    1    1    2    0    0 -0.50237716139E+01  0.20459381894E+02  0.39815697458E+02  0.45045691834E+02  0.00000000000E+00 0. -1.
         11    1    3    3    0    0  0.61504626533E+01 -0.12159146080E+02 -0.24136076945E+02  0.27716840274E+02  0.51100000000E-03 0.  1.
        -11    1    3    3    0    0 -0.13650486181E+01 -0.31335997814E+01 -0.10750328906E+02  0.11280619539E+02  0.51100000000E-03 0. -1.
        -12    1    3    3    0    0  0.23835757863E+00 -0.51666360335E+01 -0.49292916073E+01  0.71448483530E+01  0.00000000000E+00 0.  1.
</event>
<event>
 7    1  0.4623443E-009  0.4614232E+02  0.7816164E-02  0.1320468E+00
        -11   -1    0    0    0    0  0.00000000000E+00  0.00000000000E+00  0.45593999997E+02  0.45594000000E+02  0.51100000000E-03 0. -1.
         11   -1    0    0    0    0 -0.00000000000E+00 -0.00000000000E+00 -0.45593999997E+02  0.45594000000E+02  0.51100000000E-03 0.  1.
    9900012    2    1    2    0    0  0.21835675332E+02 -0.11722695600E+02  0.37615093410E+02  0.46142316948E+02  0.99999925897E+01 0.  0.
        -12    1    1    2    0    0 -0.21835675332E+02  0.11722695600E+02 -0.37615093410E+02  0.45045683052E+02  0.00000000000E+00 0.  1.
         11    1    3    3    0    0  0.19295880148E+01 -0.34521076368E+01  0.52602853403E+01  0.65811062265E+01  0.51100000000E-03 0.  1.
        -11    1    3    3    0    0  0.13691743181E+02 -0.81405414546E+01  0.27040190264E+02  0.31383182380E+02  0.51100000000E-03 0. -1.
         12    1    3    3    0    0  0.62143441369E+01 -0.13004650838E+00  0.53146178051E+01  0.81780283419E+01  0.00000000000E+00 0. -1.
</event>
<event>
 7    1  0.5901033E-009  0.4614232E+02  0.7816164E-02  0.1320468E+00
        -11   -1    0    0    0    0  0.00000000000E+00  0.00000000000E+00  0.45593999997E+02  0.45594000000E+02  0.51100000000E-03 0. -1.
         11   -1    0    0    0    0 -0.00000000000E+00 -0.00000000000E+00 -0.45593999997E+02  0.45594000000E+02  0.51100000000E-03 0.  1.
    9900012    2    1    2    0    0  0.26006681977E+01  0.31123362071E+02 -0.32460536036E+02  0.46142317172E+02  0.99999946325E+01 0.  0.
         12    1    1    2    0    0 -0.26006681977E+01 -0.31123362071E+02  0.32460536036E+02  0.45045682828E+02  0.00000000000E+00 0. -1.
         11    1    3    3    0    0  0.84279950039E+00  0.19646005453E+02 -0.20019870363E+02  0.28061914597E+02  0.51100000000E-03 0. -1.
        -11    1    3    3    0    0  0.25337284353E+01  0.96677880658E+01 -0.12625962038E+02  0.16102820359E+02  0.51100000000E-03 0.  1.
         12    1    3    3    0    0 -0.77585973799E+00  0.18095685520E+01  0.18529636549E+00  0.19775822159E+01  0.00000000000E+00 0. -1.
</event>
<event>
 7    1  0.4623443E-009  0.4614232E+02  0.7816164E-02  0.1320468E+00
        -11   -1    0    0    0    0  0.00000000000E+00  0.00000000000E+00  0.45593999997E+02  0.45594000000E+02  0.51100000000E-03 0. -1.
         11   -1    0    0    0    0 -0.00000000000E+00 -0.00000000000E+00 -0.45593999997E+02  0.45594000000E+02  0.51100000000E-03 0.  1.
    9900012    2    1    2    0    0  0.54644123672E+01  0.33160825275E+02  0.29993554062E+02  0.46142318512E+02  0.10000006851E+02 0.  0.
        -12    1    1    2    0    0 -0.54644123672E+01 -0.33160825275E+02 -0.29993554062E+02  0.45045681488E+02  0.00000000000E+00 0.  1.
         11    1    3    3    0    0  0.43683906207E+01  0.23360031414E+02  0.18313833977E+02  0.30002840190E+02  0.51100000000E-03 0. -1.
        -11    1    3    3    0    0 -0.15473216623E+01  0.16255523858E+01  0.10676610976E+01  0.24852616293E+01  0.51100000000E-03 0.  1.
        -12    1    3    3    0    0  0.26433434087E+01  0.81752414750E+01  0.10612058988E+02  0.13654216693E+02  0.00000000000E+00 0.  1.
</event>
<event>
 7    1  0.4623443E-009  0.4614231E+02  0.7816164E-02  0.1320468E+00
        -11   -1    0    0    0    0  0.00000000000E+00  0.00000000000E+00  0.45593999997E+02  0.45594000000E+02  0.51100000000E-03 0.  1.
         11   -1    0    0    0    0 -0.00000000000E+00 -0.00000000000E+00 -0.45593999997E+02  0.45594000000E+02  0.51100000000E-03 0. -1.
    9900012    2    1    2    0    0 -0.40665129618E+02 -0.17915763985E+02  0.73815030589E+01  0.46142312600E+02  0.99999529323E+01 0.  0.
         12    1    1    2    0    0  0.40665129618E+02  0.17915763985E+02 -0.73815030589E+01  0.45045687400E+02  0.00000000000E+00 0. -1.
         11    1    3    3    0    0 -0.36764030978E+01 -0.28490295616E+01 -0.16439996888E+01  0.49331171097E+01  0.51100000000E-03 0. -1.
        -11    1    3    3    0    0 -0.19427211399E+02 -0.81554292634E+01  0.23926672760E+01  0.21205009460E+02  0.51100000000E-03 0.  1.
         12    1    3    3    0    0 -0.17561515120E+02 -0.69113051599E+01  0.66328354717E+01  0.20004186030E+02  0.00000000000E+00 0. -1.
</event>
<event>
 7    1  0.4623443E-009  0.4614232E+02  0.7816164E-02  0.1320468E+00
        -11   -1    0    0    0    0  0.00000000000E+00  0.00000000000E+00  0.45593999997E+02  0.45594000000E+02  0.51100000000E-03 0. -1.
         11   -1    0    0    0    0 -0.00000000000E+00 -0.00000000000E+00 -0.45593999997E+02  0.45594000000E+02  0.51100000000E-03 0.  1.
    9900012    2    1    2    0    0 -0.23751204576E+00 -0.85714073983E+00 -0.45036900377E+02  0.46142317657E+02  0.99999990463E+01 0.  0.
         12    1    1    2    0    0  0.23751204576E+00  0.85714073983E+00  0.45036900377E+02  0.45045682343E+02  0.00000000000E+00 0. -1.
         11    1    3    3    0    0  0.18002711890E+01  0.24438778750E+01 -0.80630957111E+01  0.86155109036E+01  0.51100000000E-03 0. -1.
        -11    1    3    3    0    0 -0.11384681345E+00  0.13659335948E+01 -0.79182990805E+01  0.80360560147E+01  0.51100000000E-03 0.  1.
        -12    1    3    3    0    0 -0.19239364213E+01 -0.46669522096E+01 -0.29055505585E+02  0.29490750738E+02  0.00000000000E+00 0.  1.
</event>
<event>
 7    1  0.4623443E-009  0.4614232E+02  0.7816164E-02  0.1320468E+00
        -11   -1    0    0    0    0  0.00000000000E+00  0.00000000000E+00  0.45593999997E+02  0.45594000000E+02  0.51100000000E-03 0. -1.
         11   -1    0    0    0    0 -0.00000000000E+00 -0.00000000000E+00 -0.45593999997E+02  0.45594000000E+02  0.51100000000E-03 0.  1.
    9900012    2    1    2    0    0 -0.25102184397E+02 -0.30587378996E+02  0.21526870078E+02  0.46142317069E+02  0.99999936909E+01 0.  0.
        -12    1    1    2    0    0  0.25102184397E+02  0.30587378996E+02 -0.21526870078E+02  0.45045682931E+02  0.00000000000E+00 0.  1.
         11    1    3    3    0    0  0.53184005115E+00  0.11163345395E+00 -0.73958677801E-02  0.54348029222E+00  0.51100000000E-03 0. -1.
        -11    1    3    3    0    0 -0.22713694728E+01 -0.28626599565E+01  0.73802514228E+00  0.37280856590E+01  0.51100000000E-03 0.  1.
         12    1    3    3    0    0 -0.23362654975E+02 -0.27836352493E+02  0.20796240804E+02  0.41870751118E+02  0.00000000000E+00 0. -1.
</event>
<event>
 7    1  0.4623443E-009  0.4614232E+02  0.7816164E-02  0.1320468E+00
        -11   -1    0    0    0    0  0.00000000000E+00  0.00000000000E+00  0.45593999997E+02  0.45594000000E+02  0.51100000000E-03 0.  1.
         11   -1    0    0    0    0 -0.00000000000E+00 -0.00000000000E+00 -0.45593999997E+02  0.45594000000E+02  0.51100000000E-03 0. -1.
    9900012    2    1    2    0    0  0.18268488040E+02 -0.39198091688E+02 -0.12604956861E+02  0.46142323351E+02  0.10000050975E+02 0.  0.
        -12    1    1    2    0    0 -0.18268488040E+02  0.39198091688E+02  0.12604956861E+02  0.45045676649E+02  0.00000000000E+00 0.  1.
         11    1    3    3    0    0  0.66815098688E+01 -0.13635888812E+02 -0.51283032433E+01  0.16027461815E+02  0.51100000000E-03 0. -1.
        -11    1    3    3    0    0 -0.10102372855E+01 -0.41214809583E+01 -0.17889913380E+01  0.46051791422E+01  0.51100000000E-03 0.  1.
        -12    1    3    3    0    0  0.12597215457E+02 -0.21440721918E+02 -0.56876622800E+01  0.25509682394E+02  0.00000000000E+00 0.  1.
</event>
<event>
 7    1  0.4623443E-009  0.4614231E+02  0.7816164E-02  0.1320468E+00
        -11   -1    0    0    0    0  0.00000000000E+00  0.00000000000E+00  0.45593999997E+02  0.45594000000E+02  0.51100000000E-03 0.  1.
         11   -1    0    0    0    0 -0.00000000000E+00 -0.00000000000E+00 -0.45593999997E+02  0.45594000000E+02  0.51100000000E-03 0. -1.
    9900012    2    1    2    0    0  0.26616437043E+02  0.36298078845E+02  0.17688184806E+01  0.46142312443E+02  0.99999515027E+01 0.  0.
         12    1    1    2    0    0 -0.26616437043E+02 -0.36298078845E+02 -0.17688184806E+01  0.45045687557E+02  0.00000000000E+00 0. -1.
         11    1    3    3    0    0  0.34640236370E+00  0.41549424438E+01  0.11707932805E+01  0.43306233357E+01  0.51100000000E-03 0. -1.
        -11    1    3    3    0    0  0.74567906883E+01  0.12717961187E+02  0.86654334209E+00  0.14768248432E+02  0.51100000000E-03 0.  1.
        -12    1    3    3    0    0  0.18813243991E+02  0.19425175215E+02 -0.26851814194E+00  0.27043440675E+02  0.00000000000E+00 0.  1.
</event>
<event>
 7    1  0.4623443E-009  0.4614232E+02  0.7816164E-02  0.1320468E+00
        -11   -1    0    0    0    0  0.00000000000E+00  0.00000000000E+00  0.45593999997E+02  0.45594000000E+02  0.51100000000E-03 0. -1.
         11   -1    0    0    0    0 -0.00000000000E+00 -0.00000000000E+00 -0.45593999997E+02  0.45594000000E+02  0.51100000000E-03 0.  1.
    9900012    2    1    2    0    0 -0.30111723676E+01 -0.60455409809E+01  0.44536476763E+02  0.46142317773E+02  0.10000000111E+02 0.  0.
        -12    1    1    2    0    0  0.30111723676E+01  0.60455409809E+01 -0.44536476763E+02  0.45045682227E+02  0.00000000000E+00 0.  1.
         11    1    3    3    0    0 -0.13022211792E+01  0.97057473668E+00  0.88936619423E+01  0.90407421335E+01  0.51100000000E-03 0. -1.
        -11    1    3    3    0    0 -0.21569163075E+01 -0.87342320518E+00  0.25984577148E+01  0.34881426017E+01  0.51100000000E-03 0.  1.
        -12    1    3    3    0    0  0.44796511908E+00 -0.61426925124E+01  0.33044357106E+02  0.33613433038E+02  0.00000000000E+00 0.  1.
</event>
<event>
 7    1  0.4623443E-009  0.4614232E+02  0.7816164E-02  0.1320468E+00
        -11   -1    0    0    0    0  0.00000000000E+00  0.00000000000E+00  0.45593999997E+02  0.45594000000E+02  0.51100000000E-03 0. -1.
         11   -1    0    0    0    0 -0.00000000000E+00 -0.00000000000E+00 -0.45593999997E+02  0.45594000000E+02  0.51100000000E-03 0.  1.
    9900012    2    1    2    0    0 -0.19262341130E+02 -0.24566269109E+02  0.32474206638E+02  0.46142318070E+02  0.10000002819E+02 0.  0.
        -12    1    1    2    0    0  0.19262341130E+02  0.24566269109E+02 -0.32474206638E+02  0.45045681930E+02  0.00000000000E+00 0.  1.
         11    1    3    3    0    0 -0.38393687796E+01 -0.28064433270E+01  0.33121833609E+01  0.57954668191E+01  0.51100000000E-03 0. -1.
        -11    1    3    3    0    0 -0.33456643705E+01 -0.10238864634E+02  0.81235511000E+01  0.13491475153E+02  0.51100000000E-03 0.  1.
         12    1    3    3    0    0 -0.12077307980E+02 -0.11520961148E+02  0.21038472177E+02  0.26855376098E+02  0.00000000000E+00 0. -1.
</event>
<event>
 7    1  0.4623443E-009  0.4614232E+02  0.7816164E-02  0.1320468E+00
        -11   -1    0    0    0    0  0.00000000000E+00  0.00000000000E+00  0.45593999997E+02  0.45594000000E+02  0.51100000000E-03 0. -1.
         11   -1    0    0    0    0 -0.00000000000E+00 -0.00000000000E+00 -0.45593999997E+02  0.45594000000E+02  0.51100000000E-03 0.  1.
    9900012    2    1    2    0    0 -0.16979895271E+02  0.40566743970E+02  0.97537650618E+01  0.46142317714E+02  0.99999995683E+01 0.  0.
        -12    1    1    2    0    0  0.16979895271E+02 -0.40566743970E+02 -0.97537650618E+01  0.45045682286E+02  0.00000000000E+00 0.  1.
         11    1    3    3    0    0 -0.12180011603E+02  0.25140284306E+02  0.96325307408E+01  0.29549487752E+02  0.51100000000E-03 0. -1.
        -11    1    3    3    0    0 -0.17989753678E+01  0.21877046151E+01 -0.92076769515E+00  0.29782842823E+01  0.51100000000E-03 0.  1.
         12    1    3    3    0    0 -0.30009083004E+01  0.13238755049E+02  0.10420020161E+01  0.13614545680E+02  0.00000000000E+00 0. -1.
</event>
<event>
 7    1  0.4623443E-009  0.4614232E+02  0.7816164E-02  0.1320468E+00
        -11   -1    0    0    0    0  0.00000000000E+00  0.00000000000E+00  0.45593999997E+02  0.45594000000E+02  0.51100000000E-03 0.  1.
         11   -1    0    0    0    0 -0.00000000000E+00 -0.00000000000E+00 -0.45593999997E+02  0.45594000000E+02  0.51100000000E-03 0. -1.
    9900012    2    1    2    0    0 -0.19328417833E+02 -0.37726121865E+02 -0.15240257079E+02  0.46142318268E+02  0.10000004625E+02 0.  0.
         12    1    1    2    0    0  0.19328417833E+02  0.37726121865E+02  0.15240257079E+02  0.45045681732E+02  0.00000000000E+00 0. -1.
         11    1    3    3    0    0 -0.31154713839E+00 -0.35571092270E+01 -0.61255720417E+00  0.36228875585E+01  0.51100000000E-03 0. -1.
        -11    1    3    3    0    0 -0.12316886411E+02 -0.27394911210E+02 -0.13480683682E+02  0.32922874781E+02  0.51100000000E-03 0.  1.
        -12    1    3    3    0    0 -0.66999842832E+01 -0.67741014272E+01 -0.11470161928E+01  0.95965559284E+01  0.00000000000E+00 0.  1.
</event>
<event>
 7    1  0.4623443E-009  0.4614232E+02  0.7816164E-02  0.1320468E+00
        -11   -1    0    0    0    0  0.00000000000E+00  0.00000000000E+00  0.45593999997E+02  0.45594000000E+02  0.51100000000E-03 0. -1.
         11   -1    0    0    0    0 -0.00000000000E+00 -0.00000000000E+00 -0.45593999997E+02  0.45594000000E+02  0.51100000000E-03 0.  1.
    9900012    2    1    2    0    0  0.92736599121E+01  0.50799862615E+01  0.43787056872E+02  0.46142318985E+02  0.10000011164E+02 0.  0.
        -12    1    1    2    0    0 -0.92736599121E+01 -0.50799862615E+01 -0.43787056872E+02  0.45045681015E+02  0.00000000000E+00 0.  1.
         11    1    3    3    0    0  0.27658928123E+01  0.59697520381E+01  0.24788050389E+02  0.25646355390E+02  0.51100000000E-03 0. -1.
        -11    1    3    3    0    0  0.39210569065E+01 -0.17650717604E+01  0.72107338036E+01  0.83955254648E+01  0.51100000000E-03 0.  1.
         12    1    3    3    0    0  0.25867101932E+01  0.87530598383E+00  0.11788272680E+02  0.12100438131E+02  0.00000000000E+00 0. -1.
</event>
<event>
 7    1  0.4623443E-009  0.4614232E+02  0.7816164E-02  0.1320468E+00
        -11   -1    0    0    0    0  0.00000000000E+00  0.00000000000E+00  0.45593999997E+02  0.45594000000E+02  0.51100000000E-03 0. -1.
         11   -1    0    0    0    0 -0.00000000000E+00 -0.00000000000E+00 -0.45593999997E+02  0.45594000000E+02  0.51100000000E-03 0.  1.
    9900012    2    1    2    0    0  0.32300786064E+02 -0.24550769463E+02 -0.19571201582E+02  0.46142323261E+02  0.10000050148E+02 0.  0.
         12    1    1    2    0    0 -0.32300786064E+02  0.24550769463E+02  0.19571201582E+02  0.45045676739E+02  0.00000000000E+00 0. -1.
         11    1    3    3    0    0  0.12153609828E+02 -0.14020972722E+02 -0.74204248962E+01  0.19984008953E+02  0.51100000000E-03 0.  1.
        -11    1    3    3    0    0  0.19331249120E+02 -0.10807967724E+02 -0.11023419245E+02  0.24739141678E+02  0.51100000000E-03 0. -1.
         12    1    3    3    0    0  0.81592711604E+00  0.27817098292E+00 -0.11273574410E+01  0.14191726301E+01  0.00000000000E+00 0. -1.
</event>
<event>
 7    1  0.4623443E-009  0.4614232E+02  0.7816164E-02  0.1320468E+00
        -11   -1    0    0    0    0  0.00000000000E+00  0.00000000000E+00  0.45593999997E+02  0.45594000000E+02  0.51100000000E-03 0. -1.
         11   -1    0    0    0    0 -0.00000000000E+00 -0.00000000000E+00 -0.45593999997E+02  0.45594000000E+02  0.51100000000E-03 0.  1.
    9900012    2    1    2    0    0 -0.20530936707E+02 -0.27766797264E+02  0.28924022252E+02  0.46142318125E+02  0.10000003316E+02 0.  0.
        -12    1    1    2    0    0  0.20530936707E+02  0.27766797264E+02 -0.28924022252E+02  0.45045681875E+02  0.00000000000E+00 0.  1.
         11    1    3    3    0    0 -0.23492442555E+00 -0.19798426214E+00  0.68865571735E+00  0.75407838581E+00  0.51100000000E-03 0. -1.
        -11    1    3    3    0    0 -0.11600385860E+01 -0.65225810214E-01  0.36491937711E+01  0.38296944222E+01  0.51100000000E-03 0.  1.
         12    1    3    3    0    0 -0.19135973696E+02 -0.27503587191E+02  0.24586172764E+02  0.41558545317E+02  0.00000000000E+00 0. -1.
</event>
<event>
 7    1  0.4623443E-009  0.4614232E+02  0.7816164E-02  0.1320468E+00
        -11   -1    0    0    0    0  0.00000000000E+00  0.00000000000E+00  0.45593999997E+02  0.45594000000E+02  0.51100000000E-03 0. -1.
         11   -1    0    0    0    0 -0.00000000000E+00 -0.00000000000E+00 -0.45593999997E+02  0.45594000000E+02  0.51100000000E-03 0.  1.
    9900012    2    1    2    0    0 -0.18222843152E+02  0.26537224880E+00  0.41194308971E+02  0.46142317336E+02  0.99999961276E+01 0.  0.
        -12    1    1    2    0    0  0.18222843152E+02 -0.26537224880E+00 -0.41194308971E+02  0.45045682664E+02  0.00000000000E+00 0.  1.
         11    1    3    3    0    0 -0.59243859574E+01 -0.13466530260E+01  0.13316083599E+02  0.14636594755E+02  0.51100000000E-03 0. -1.
        -11    1    3    3    0    0 -0.74932339697E+01  0.41238506872E+01  0.21472720096E+02  0.23113468117E+02  0.51100000000E-03 0.  1.
         12    1    3    3    0    0 -0.48052232254E+01 -0.25118254124E+01  0.64055052760E+01  0.83922544641E+01  0.00000000000E+00 0. -1.
</event>
<event>
 7    1  0.4623443E-009  0.4614232E+02  0.7816164E-02  0.1320468E+00
        -11   -1    0    0    0    0  0.00000000000E+00  0.00000000000E+00  0.45593999997E+02  0.45594000000E+02  0.51100000000E-03 0. -1.
         11   -1    0    0    0    0 -0.00000000000E+00 -0.00000000000E+00 -0.45593999997E+02  0.45594000000E+02  0.51100000000E-03 0.  1.
    9900012    2    1    2    0    0  0.32836563170E+02 -0.20800041404E+02 -0.22764709021E+02  0.46142316744E+02  0.99999907249E+01 0.  0.
         12    1    1    2    0    0 -0.32836563170E+02  0.20800041404E+02  0.22764709021E+02  0.45045683256E+02  0.00000000000E+00 0. -1.
         11    1    3    3    0    0  0.78522556693E+01 -0.30112616655E+01 -0.84734943788E+01  0.11938413762E+02  0.51100000000E-03 0. -1.
        -11    1    3    3    0    0  0.12149805077E+02 -0.89880738871E+01 -0.97790746243E+01  0.18000931542E+02  0.51100000000E-03 0.  1.
        -12    1    3    3    0    0  0.12834502423E+02 -0.88007058512E+01 -0.45121400179E+01  0.16202971439E+02  0.00000000000E+00 0.  1.
</event>
<event>
 7    1  0.4623443E-009  0.4614232E+02  0.7816164E-02  0.1320468E+00
        -11   -1    0    0    0    0  0.00000000000E+00  0.00000000000E+00  0.45593999997E+02  0.45594000000E+02  0.51100000000E-03 0. -1.
         11   -1    0    0    0    0 -0.00000000000E+00 -0.00000000000E+00 -0.45593999997E+02  0.45594000000E+02  0.51100000000E-03 0.  1.
    9900012    2    1    2    0    0 -0.25286163409E+02 -0.34453816231E+02 -0.14235791856E+02  0.46142320045E+02  0.10000020829E+02 0.  0.
         12    1    1    2    0    0  0.25286163409E+02  0.34453816231E+02  0.14235791856E+02  0.45045679955E+02  0.00000000000E+00 0. -1.
         11    1    3    3    0    0 -0.37326886144E+01 -0.43147935667E+01 -0.11458049181E+00  0.57064469475E+01  0.51100000000E-03 0. -1.
        -11    1    3    3    0    0 -0.15872457525E+02 -0.15563554342E+02 -0.76940835427E+01  0.23523563792E+02  0.51100000000E-03 0.  1.
        -12    1    3    3    0    0 -0.56810172697E+01 -0.14575468322E+02 -0.64271278212E+01  0.16912309306E+02  0.00000000000E+00 0.  1.
</event>
<event>
 7    1  0.4623443E-009  0.4614232E+02  0.7816164E-02  0.1320468E+00
        -11   -1    0    0    0    0  0.00000000000E+00  0.00000000000E+00  0.45593999997E+02  0.45594000000E+02  0.51100000000E-03 0. -1.
         11   -1    0    0    0    0 -0.00000000000E+00 -0.00000000000E+00 -0.45593999997E+02  0.45594000000E+02  0.51100000000E-03 0.  1.
    9900012    2    1    2    0    0  0.35635133693E+00  0.95969129232E+00  0.45034048126E+02  0.46142317807E+02  0.10000000417E+02 0.  0.
        -12    1    1    2    0    0 -0.35635133693E+00 -0.95969129232E+00 -0.45034048126E+02  0.45045682193E+02  0.00000000000E+00 0.  1.
         11    1    3    3    0    0 -0.63028859913E+00  0.42165674656E+01  0.37981375965E+02  0.38219911373E+02  0.51100000000E-03 0. -1.
        -11    1    3    3    0    0  0.81123238121E+00 -0.77859597285E+00  0.22122709387E+01  0.24816229836E+01  0.51100000000E-03 0.  1.
         12    1    3    3    0    0  0.17540755485E+00 -0.24782802004E+01  0.48404012218E+01  0.54407834500E+01  0.00000000000E+00 0. -1.
</event>
<event>
 7    1  0.4623443E-009  0.4614232E+02  0.7816164E-02  0.1320468E+00
        -11   -1    0    0    0    0  0.00000000000E+00  0.00000000000E+00  0.45593999997E+02  0.45594000000E+02  0.51100000000E-03 0.  1.
         11   -1    0    0    0    0 -0.00000000000E+00 -0.00000000000E+00 -0.45593999997E+02  0.45594000000E+02  0.51100000000E-03 0. -1.
    9900012    2    1    2    0    0 -0.40987472047E+02  0.15699246195E+02 -0.10132834167E+02  0.46142317364E+02  0.99999963779E+01 0.  0.
         12    1    1    2    0    0  0.40987472047E+02 -0.15699246195E+02  0.10132834167E+02  0.45045682636E+02  0.00000000000E+00 0. -1.
         11    1    3    3    0    0 -0.58289357313E+01 -0.48200595683E+00 -0.67207346647E-01  0.58492169211E+01  0.51100000000E-03 0. -1.
        -11    1    3    3    0    0 -0.58720924881E+01  0.29424490944E+01 -0.36677973874E+01  0.75227797255E+01  0.51100000000E-03 0.  1.
        -12    1    3    3    0    0 -0.29286443828E+02  0.13238803057E+02 -0.63978294330E+01  0.32770320717E+02  0.00000000000E+00 0.  1.
</event>
<event>
 7    1  0.4623443E-009  0.4614232E+02  0.7816164E-02  0.1320468E+00
        -11   -1    0    0    0    0  0.00000000000E+00  0.00000000000E+00  0.45593999997E+02  0.45594000000E+02  0.51100000000E-03 0.  1.
         11   -1    0    0    0    0 -0.00000000000E+00 -0.00000000000E+00 -0.45593999997E+02  0.45594000000E+02  0.51100000000E-03 0. -1.
    9900012    2    1    2    0    0 -0.32355245779E+02 -0.30475242324E+02  0.73151305387E+01  0.46142318088E+02  0.10000002982E+02 0.  0.
        -12    1    1    2    0    0  0.32355245779E+02  0.30475242324E+02 -0.73151305387E+01  0.45045681912E+02  0.00000000000E+00 0.  1.
         11    1    3    3    0    0 -0.70337837492E+01 -0.57465828636E+01  0.50777296400E+01  0.10405799681E+02  0.51100000000E-03 0.  1.
        -11    1    3    3    0    0 -0.72623597227E+01 -0.93201948319E+01  0.20769082347E+01  0.11996726575E+02  0.51100000000E-03 0. -1.
        -12    1    3    3    0    0 -0.18059102307E+02 -0.15408464629E+02  0.16049266398E+00  0.23739791832E+02  0.00000000000E+00 0.  1.
</event>
<event>
 7    1  0.4623443E-009  0.4614232E+02  0.7816164E-02  0.1320468E+00
        -11   -1    0    0    0    0  0.00000000000E+00  0.00000000000E+00  0.45593999997E+02  0.45594000000E+02  0.51100000000E-03 0. -1.
         11   -1    0    0    0    0 -0.00000000000E+00 -0.00000000000E+00 -0.45593999997E+02  0.45594000000E+02  0.51100000000E-03 0.  1.
    9900012    2    1    2    0    0 -0.13852798256E+01  0.41594581938E+02 -0.17236167492E+02  0.46142315228E+02  0.99999768984E+01 0.  0.
         12    1    1    2    0    0  0.13852798256E+01 -0.41594581938E+02  0.17236167492E+02  0.45045684772E+02  0.00000000000E+00 0. -1.
         11    1    3    3    0    0 -0.38259467910E+01  0.17961725344E+02 -0.10095101006E+02  0.20956443180E+02  0.51100000000E-03 0. -1.
        -11    1    3    3    0    0 -0.96755449919E+00  0.62213300040E+01 -0.80930294016E+00  0.63479193629E+01  0.51100000000E-03 0.  1.
        -12    1    3    3    0    0  0.34082214646E+01  0.17411526590E+02 -0.63317635455E+01  0.18837952685E+02  0.00000000000E+00 0.  1.
</event>
<event>
 7    1  0.4623443E-009  0.4614232E+02  0.7816164E-02  0.1320468E+00
        -11   -1    0    0    0    0  0.00000000000E+00  0.00000000000E+00  0.45593999997E+02  0.45594000000E+02  0.51100000000E-03 0. -1.
         11   -1    0    0    0    0 -0.00000000000E+00 -0.00000000000E+00 -0.45593999997E+02  0.45594000000E+02  0.51100000000E-03 0.  1.
    9900012    2    1    2    0    0 -0.44704147796E+01 -0.94649367644E+01  0.43812599399E+02  0.46142317606E+02  0.99999985845E+01 0.  0.
        -12    1    1    2    0    0  0.44704147796E+01  0.94649367644E+01 -0.43812599399E+02  0.45045682394E+02  0.00000000000E+00 0.  1.
         11    1    3    3    0    0 -0.32455295182E+01 -0.40280632382E+01  0.95986110739E+01  0.10903764951E+02  0.51100000000E-03 0. -1.
        -11    1    3    3    0    0 -0.31257512776E+01 -0.25978633956E+01  0.10154624942E+02  0.10937807059E+02  0.51100000000E-03 0.  1.
         12    1    3    3    0    0  0.19008660163E+01 -0.28390101306E+01  0.24059363383E+02  0.24300745596E+02  0.00000000000E+00 0. -1.
</event>
<event>
 7    1  0.4623443E-009  0.4614232E+02  0.7816164E-02  0.1320468E+00
        -11   -1    0    0    0    0  0.00000000000E+00  0.00000000000E+00  0.45593999997E+02  0.45594000000E+02  0.51100000000E-03 0. -1.
         11   -1    0    0    0    0 -0.00000000000E+00 -0.00000000000E+00 -0.45593999997E+02  0.45594000000E+02  0.51100000000E-03 0.  1.
    9900012    2    1    2    0    0  0.80233568460E+01  0.11588338022E+01 -0.44310228369E+02  0.46142317755E+02  0.99999999418E+01 0.  0.
         12    1    1    2    0    0 -0.80233568460E+01 -0.11588338022E+01  0.44310228369E+02  0.45045682245E+02  0.00000000000E+00 0. -1.
         11    1    3    3    0    0  0.17461906884E+01 -0.12239168598E+01 -0.23640003490E+01  0.31836539245E+01  0.51100000000E-03 0. -1.
        -11    1    3    3    0    0  0.39763203246E+01 -0.17097280551E+01 -0.15232514587E+02  0.15835523176E+02  0.51100000000E-03 0.  1.
         12    1    3    3    0    0  0.23008458330E+01  0.40924787171E+01 -0.26713713432E+02  0.27123140654E+02  0.00000000000E+00 0. -1.
</event>
<event>
 7    1  0.4623443E-009  0.4614232E+02  0.7816164E-02  0.1320468E+00
        -11   -1    0    0    0    0  0.00000000000E+00  0.00000000000E+00  0.45593999997E+02  0.45594000000E+02  0.51100000000E-03 0. -1.
         11   -1    0    0    0    0 -0.00000000000E+00 -0.00000000000E+00 -0.45593999997E+02  0.45594000000E+02  0.51100000000E-03 0.  1.
    9900012    2    1    2    0    0 -0.53950800916E+00  0.65469330167E+01  0.44564109310E+02  0.46142320525E+02  0.10000025200E+02 0.  0.
        -12    1    1    2    0    0  0.53950800916E+00 -0.65469330167E+01 -0.44564109310E+02  0.45045679475E+02  0.00000000000E+00 0.  1.
         11    1    3    3    0    0  0.65489634888E+00  0.33137753814E+00  0.32333770313E+01  0.33156338140E+01  0.51100000000E-03 0. -1.
        -11    1    3    3    0    0 -0.25217729213E+00  0.86258872996E+01  0.31386854271E+02  0.32551561351E+02  0.51100000000E-03 0.  1.
        -12    1    3    3    0    0 -0.94222706592E+00 -0.24103318211E+01  0.99438780070E+01  0.10275125359E+02  0.00000000000E+00 0.  1.
</event>
<event>
 7    1  0.4623443E-009  0.4614232E+02  0.7816164E-02  0.1320468E+00
        -11   -1    0    0    0    0  0.00000000000E+00  0.00000000000E+00  0.45593999997E+02  0.45594000000E+02  0.51100000000E-03 0. -1.
         11   -1    0    0    0    0 -0.00000000000E+00 -0.00000000000E+00 -0.45593999997E+02  0.45594000000E+02  0.51100000000E-03 0.  1.
    9900012    2    1    2    0    0  0.21363389912E+02  0.21327963743E+02 -0.33434070363E+02  0.46142317332E+02  0.99999960872E+01 0.  0.
         12    1    1    2    0    0 -0.21363389912E+02 -0.21327963743E+02  0.33434070363E+02  0.45045682668E+02  0.00000000000E+00 0. -1.
         11    1    3    3    0    0  0.11231777574E+02  0.13453026245E+02 -0.18564668531E+02  0.25530054065E+02  0.51100000000E-03 0. -1.
        -11    1    3    3    0    0 -0.42473137317E+00  0.13227359442E+00 -0.27061118949E+01  0.27424322949E+01  0.51100000000E-03 0.  1.
        -12    1    3    3    0    0  0.10556343712E+02  0.77426639030E+01 -0.12163289937E+02  0.17869830972E+02  0.00000000000E+00 0.  1.
</event>
<event>
 7    1  0.4623443E-009  0.4614232E+02  0.7816164E-02  0.1320468E+00
        -11   -1    0    0    0    0  0.00000000000E+00  0.00000000000E+00  0.45593999997E+02  0.45594000000E+02  0.51100000000E-03 0. -1.
         11   -1    0    0    0    0 -0.00000000000E+00 -0.00000000000E+00 -0.45593999997E+02  0.45594000000E+02  0.51100000000E-03 0.  1.
    9900012    2    1    2    0    0 -0.24264246137E+02 -0.10461927284E+02  0.36481611021E+02  0.46142317567E+02  0.99999982324E+01 0.  0.
        -12    1    1    2    0    0  0.24264246137E+02  0.10461927284E+02 -0.36481611021E+02  0.45045682433E+02  0.00000000000E+00 0.  1.
         11    1    3    3    0    0 -0.12847836434E+02 -0.32179967831E+01  0.14714183828E+02  0.19797212186E+02  0.51100000000E-03 0. -1.
        -11    1    3    3    0    0 -0.63550869545E+01 -0.22982380369E+01  0.15432581688E+02  0.16847361992E+02  0.51100000000E-03 0.  1.
         12    1    3    3    0    0 -0.50613227490E+01 -0.49456924642E+01  0.63348455047E+01  0.94977433893E+01  0.00000000000E+00 0. -1.
</event>
<event>
 7    1  0.4623443E-009  0.4614232E+02  0.7816164E-02  0.1320468E+00
        -11   -1    0    0    0    0  0.00000000000E+00  0.00000000000E+00  0.45593999997E+02  0.45594000000E+02  0.51100000000E-03 0. -1.
         11   -1    0    0    0    0 -0.00000000000E+00 -0.00000000000E+00 -0.45593999997E+02  0.45594000000E+02  0.51100000000E-03 0.  1.
    9900012    2    1    2    0    0 -0.22131539911E+02 -0.38274555929E+02  0.86236193923E+01  0.46142317612E+02  0.99999986420E+01 0.  0.
        -12    1    1    2    0    0  0.22131539911E+02  0.38274555929E+02 -0.86236193923E+01  0.45045682388E+02  0.00000000000E+00 0.  1.
         11    1    3    3    0    0 -0.62902372577E+01 -0.84701759214E+01 -0.11917917068E+01  0.10617501242E+02  0.51100000000E-03 0. -1.
        -11    1    3    3    0    0 -0.19856763824E+01 -0.14525721561E+01  0.15361202857E+01  0.29004383044E+01  0.51100000000E-03 0.  1.
         12    1    3    3    0    0 -0.13855626271E+02 -0.28351807851E+02  0.82792908135E+01  0.32624378065E+02  0.00000000000E+00 0. -1.
</event>
<event>
 7    1  0.4623443E-009  0.4614232E+02  0.7816164E-02  0.1320468E+00
        -11   -1    0    0    0    0  0.00000000000E+00  0.00000000000E+00  0.45593999997E+02  0.45594000000E+02  0.51100000000E-03 0.  1.
         11   -1    0    0    0    0 -0.00000000000E+00 -0.00000000000E+00 -0.45593999997E+02  0.45594000000E+02  0.51100000000E-03 0. -1.
    9900012    2    1    2    0    0  0.35900260620E+02 -0.25925826197E+02 -0.82544775703E+01  0.46142316782E+02  0.99999910705E+01 0.  0.
         12    1    1    2    0    0 -0.35900260620E+02  0.25925826197E+02  0.82544775703E+01  0.45045683218E+02  0.00000000000E+00 0. -1.
         11    1    3    3    0    0  0.21905178765E+02 -0.16023456108E+02 -0.71853733039E+01  0.28075213127E+02  0.51100000000E-03 0. -1.
        -11    1    3    3    0    0  0.92259236763E+01 -0.91672067198E+01  0.43314938140E+00  0.13013184290E+02  0.51100000000E-03 0.  1.
         12    1    3    3    0    0  0.47691581791E+01 -0.73516336953E+00 -0.15022536479E+01  0.50539193642E+01  0.00000000000E+00 0. -1.
</event>
<event>
 7    1  0.4623443E-009  0.4614232E+02  0.7816164E-02  0.1320468E+00
        -11   -1    0    0    0    0  0.00000000000E+00  0.00000000000E+00  0.45593999997E+02  0.45594000000E+02  0.51100000000E-03 0.  1.
         11   -1    0    0    0    0 -0.00000000000E+00 -0.00000000000E+00 -0.45593999997E+02  0.45594000000E+02  0.51100000000E-03 0. -1.
    9900012    2    1    2    0    0 -0.20260694233E+02 -0.26070051242E+02 -0.30642619549E+02  0.46142318349E+02  0.10000005360E+02 0.  0.
         12    1    1    2    0    0  0.20260694233E+02  0.26070051242E+02  0.30642619549E+02  0.45045681651E+02  0.00000000000E+00 0. -1.
         11    1    3    3    0    0 -0.61218616832E+01 -0.42606759625E+01 -0.36498909058E+01  0.83037493947E+01  0.51100000000E-03 0. -1.
        -11    1    3    3    0    0 -0.49689602688E+01 -0.11496345299E+02 -0.10578466051E+02  0.16393915506E+02  0.51100000000E-03 0.  1.
         12    1    3    3    0    0 -0.91698722812E+01 -0.10313029981E+02 -0.16414262592E+02  0.21444653448E+02  0.00000000000E+00 0. -1.
</event>
<event>
 7    1  0.4623443E-009  0.4614232E+02  0.7816164E-02  0.1320468E+00
        -11   -1    0    0    0    0  0.00000000000E+00  0.00000000000E+00  0.45593999997E+02  0.45594000000E+02  0.51100000000E-03 0. -1.
         11   -1    0    0    0    0 -0.00000000000E+00 -0.00000000000E+00 -0.45593999997E+02  0.45594000000E+02  0.51100000000E-03 0.  1.
    9900012    2    1    2    0    0 -0.92342743067E+01  0.32884827524E+02  0.29367154649E+02  0.46142317905E+02  0.10000001311E+02 0.  0.
        -12    1    1    2    0    0  0.92342743067E+01 -0.32884827524E+02 -0.29367154649E+02  0.45045682095E+02  0.00000000000E+00 0.  1.
         11    1    3    3    0    0 -0.54674548493E+01  0.15491073825E+02  0.14845046701E+02  0.22141405615E+02  0.51100000000E-03 0. -1.
        -11    1    3    3    0    0 -0.14531375697E+01  0.12071172782E+01  0.43536433212E+01  0.47458351583E+01  0.51100000000E-03 0.  1.
         12    1    3    3    0    0 -0.23136818877E+01  0.16186636421E+02  0.10168464626E+02  0.19255077132E+02  0.00000000000E+00 0. -1.
</event>
<event>
 7    1  0.4623443E-009  0.4614232E+02  0.7816164E-02  0.1320468E+00
        -11   -1    0    0    0    0  0.00000000000E+00  0.00000000000E+00  0.45593999997E+02  0.45594000000E+02  0.51100000000E-03 0. -1.
         11   -1    0    0    0    0 -0.00000000000E+00 -0.00000000000E+00 -0.45593999997E+02  0.45594000000E+02  0.51100000000E-03 0.  1.
    9900012    2    1    2    0    0 -0.35063997397E+02 -0.26400662380E+02 -0.10130871678E+02  0.46142318204E+02  0.10000004035E+02 0.  0.
         12    1    1    2    0    0  0.35063997397E+02  0.26400662380E+02  0.10130871678E+02  0.45045681796E+02  0.00000000000E+00 0. -1.
         11    1    3    3    0    0 -0.14967911415E+01 -0.39328438488E+01  0.94774651913E-01  0.42091123715E+01  0.51100000000E-03 0. -1.
        -11    1    3    3    0    0 -0.19437261009E+02 -0.15539751930E+02 -0.53037263641E+01  0.25444459499E+02  0.51100000000E-03 0.  1.
         12    1    3    3    0    0 -0.14129945246E+02 -0.69280666012E+01 -0.49219199658E+01  0.16488746333E+02  0.00000000000E+00 0. -1.
</event>
<event>
 7    1  0.4623443E-009  0.4614232E+02  0.7816164E-02  0.1320468E+00
        -11   -1    0    0    0    0  0.00000000000E+00  0.00000000000E+00  0.45593999997E+02  0.45594000000E+02  0.51100000000E-03 0.  1.
         11   -1    0    0    0    0 -0.00000000000E+00 -0.00000000000E+00 -0.45593999997E+02  0.45594000000E+02  0.51100000000E-03 0. -1.
    9900012    2    1    2    0    0 -0.31728447218E+02 -0.30476261808E+02 -0.96755746884E+01  0.46142316053E+02  0.99999844262E+01 0.  0.
         12    1    1    2    0    0  0.31728447218E+02  0.30476261808E+02  0.96755746884E+01  0.45045683947E+02  0.00000000000E+00 0. -1.
         11    1    3    3    0    0 -0.76096668970E+01 -0.24422742140E+01 -0.22436565608E+01  0.83009474546E+01  0.51100000000E-03 0. -1.
        -11    1    3    3    0    0 -0.68994753788E+01 -0.88417800434E+01 -0.35668628838E+01  0.11768701965E+02  0.51100000000E-03 0.  1.
        -12    1    3    3    0    0 -0.17219304943E+02 -0.19192207551E+02 -0.38650552437E+01  0.26072666634E+02  0.00000000000E+00 0.  1.
</event>
<event>
 7    1  0.4623443E-009  0.4614232E+02  0.7816164E-02  0.1320468E+00
        -11   -1    0    0    0    0  0.00000000000E+00  0.00000000000E+00  0.45593999997E+02  0.45594000000E+02  0.51100000000E-03 0.  1.
         11   -1    0    0    0    0 -0.00000000000E+00 -0.00000000000E+00 -0.45593999997E+02  0.45594000000E+02  0.51100000000E-03 0. -1.
    9900012    2    1    2    0    0  0.27625765032E+02 -0.95187942739E+01  0.34282983993E+02  0.46142319524E+02  0.10000016079E+02 0.  0.
        -12    1    1    2    0    0 -0.27625765032E+02  0.95187942739E+01 -0.34282983993E+02  0.45045680476E+02  0.00000000000E+00 0.  1.
         11    1    3    3    0    0  0.16419299412E+02 -0.53660647738E+01  0.23176078862E+02  0.28905339922E+02  0.51100000000E-03 0. -1.
        -11    1    3    3    0    0  0.32425083500E+01 -0.36538296177E+01  0.61065856244E+01  0.78201483058E+01  0.51100000000E-03 0.  1.
        -12    1    3    3    0    0  0.79639572706E+01 -0.49889988250E+00  0.50003195063E+01  0.94168312965E+01  0.00000000000E+00 0.  1.
</event>
<event>
 7    1  0.4623443E-009  0.4614232E+02  0.7816164E-02  0.1320468E+00
        -11   -1    0    0    0    0  0.00000000000E+00  0.00000000000E+00  0.45593999997E+02  0.45594000000E+02  0.51100000000E-03 0. -1.
         11   -1    0    0    0    0 -0.00000000000E+00 -0.00000000000E+00 -0.45593999997E+02  0.45594000000E+02  0.51100000000E-03 0.  1.
    9900012    2    1    2    0    0 -0.20089653933E+02  0.33435546449E+02  0.22529615186E+02  0.46142317388E+02  0.99999965982E+01 0.  0.
        -12    1    1    2    0    0  0.20089653933E+02 -0.33435546449E+02 -0.22529615186E+02  0.45045682612E+02  0.00000000000E+00 0.  1.
         11    1    3    3    0    0 -0.13120398133E+01  0.13961916106E+01  0.31850760467E-01  0.19161978544E+01  0.51100000000E-03 0.  1.
        -11    1    3    3    0    0 -0.57275063188E+01  0.10090287284E+02  0.11774092046E+02  0.16530198725E+02  0.51100000000E-03 0. -1.
         12    1    3    3    0    0 -0.13050107801E+02  0.21949067554E+02  0.10723672380E+02  0.27695920809E+02  0.00000000000E+00 0. -1.
</event>
<event>
 7    1  0.4623443E-009  0.4614232E+02  0.7816164E-02  0.1320468E+00
        -11   -1    0    0    0    0  0.00000000000E+00  0.00000000000E+00  0.45593999997E+02  0.45594000000E+02  0.51100000000E-03 0. -1.
         11   -1    0    0    0    0 -0.00000000000E+00 -0.00000000000E+00 -0.45593999997E+02  0.45594000000E+02  0.51100000000E-03 0.  1.
    9900012    2    1    2    0    0  0.28785793482E+02 -0.17792124315E+02 -0.29730990931E+02  0.46142318567E+02  0.10000007347E+02 0.  0.
         12    1    1    2    0    0 -0.28785793482E+02  0.17792124315E+02  0.29730990931E+02  0.45045681433E+02  0.00000000000E+00 0. -1.
         11    1    3    3    0    0  0.27743105406E+01 -0.38973103806E+01 -0.79004715335E+01  0.92359773652E+01  0.51100000000E-03 0.  1.
        -11    1    3    3    0    0  0.12571300894E+02 -0.85166896603E+01 -0.96890143318E+01  0.18012457021E+02  0.51100000000E-03 0. -1.
        -12    1    3    3    0    0  0.13440182047E+02 -0.53781242736E+01 -0.12141505066E+02  0.18893884181E+02  0.00000000000E+00 0.  1.
</event>
<event>
 7    1  0.4623443E-009  0.4614232E+02  0.7816164E-02  0.1320468E+00
        -11   -1    0    0    0    0  0.00000000000E+00  0.00000000000E+00  0.45593999997E+02  0.45594000000E+02  0.51100000000E-03 0. -1.
         11   -1    0    0    0    0 -0.00000000000E+00 -0.00000000000E+00 -0.45593999997E+02  0.45594000000E+02  0.51100000000E-03 0.  1.
    9900012    2    1    2    0    0 -0.26092033504E+02  0.14158658754E+02 -0.33879958658E+02  0.46142318423E+02  0.10000006035E+02 0.  0.
         12    1    1    2    0    0  0.26092033504E+02 -0.14158658754E+02  0.33879958658E+02  0.45045681577E+02  0.00000000000E+00 0. -1.
         11    1    3    3    0    0 -0.16743886002E+02  0.11453972657E+02 -0.18159722256E+02  0.27227315710E+02  0.51100000000E-03 0. -1.
        -11    1    3    3    0    0 -0.11764957003E+01 -0.95310486693E+00 -0.16648668680E+01  0.22504072897E+01  0.51100000000E-03 0.  1.
        -12    1    3    3    0    0 -0.81716518014E+01  0.36577909643E+01 -0.14055369534E+02  0.16664595424E+02  0.00000000000E+00 0.  1.
</event>
<event>
 7    1  0.4623443E-009  0.4614232E+02  0.7816164E-02  0.1320468E+00
        -11   -1    0    0    0    0  0.00000000000E+00  0.00000000000E+00  0.45593999997E+02  0.45594000000E+02  0.51100000000E-03 0. -1.
         11   -1    0    0    0    0 -0.00000000000E+00 -0.00000000000E+00 -0.45593999997E+02  0.45594000000E+02  0.51100000000E-03 0.  1.
    9900012    2    1    2    0    0 -0.22525462213E+02  0.37865019813E+02 -0.93785574621E+01  0.46142317483E+02  0.99999974660E+01 0.  0.
         12    1    1    2    0    0  0.22525462213E+02 -0.37865019813E+02  0.93785574621E+01  0.45045682517E+02  0.00000000000E+00 0. -1.
         11    1    3    3    0    0 -0.24569848487E+01  0.97643012315E+01 -0.43016534552E+01  0.10949090181E+02  0.51100000000E-03 0. -1.
        -11    1    3    3    0    0 -0.17116856710E+02  0.26256381061E+02 -0.44670704116E+01  0.31659738603E+02  0.51100000000E-03 0.  1.
        -12    1    3    3    0    0 -0.29516206541E+01  0.18443375199E+01 -0.60983359526E+00  0.35334886992E+01  0.00000000000E+00 0.  1.
</event>
<event>
 7    1  0.4623443E-009  0.4614232E+02  0.7816164E-02  0.1320468E+00
        -11   -1    0    0    0    0  0.00000000000E+00  0.00000000000E+00  0.45593999997E+02  0.45594000000E+02  0.51100000000E-03 0. -1.
         11   -1    0    0    0    0 -0.00000000000E+00 -0.00000000000E+00 -0.45593999997E+02  0.45594000000E+02  0.51100000000E-03 0.  1.
    9900012    2    1    2    0    0 -0.26439256851E+02  0.14067503404E+02  0.33647950300E+02  0.46142317474E+02  0.99999973811E+01 0.  0.
        -12    1    1    2    0    0  0.26439256851E+02 -0.14067503404E+02 -0.33647950300E+02  0.45045682526E+02  0.00000000000E+00 0.  1.
         11    1    3    3    0    0 -0.10178851470E+02  0.44153807539E+01  0.13901293149E+02  0.17786246257E+02  0.51100000000E-03 0. -1.
        -11    1    3    3    0    0 -0.10354091639E+02  0.27665040559E+01  0.73535786461E+01  0.12997533517E+02  0.51100000000E-03 0.  1.
         12    1    3    3    0    0 -0.59063137422E+01  0.68856185943E+01  0.12393078505E+02  0.15358537700E+02  0.00000000000E+00 0. -1.
</event>
<event>
 7    1  0.4623443E-009  0.4614232E+02  0.7816164E-02  0.1320468E+00
        -11   -1    0    0    0    0  0.00000000000E+00  0.00000000000E+00  0.45593999997E+02  0.45594000000E+02  0.51100000000E-03 0. -1.
         11   -1    0    0    0    0 -0.00000000000E+00 -0.00000000000E+00 -0.45593999997E+02  0.45594000000E+02  0.51100000000E-03 0.  1.
    9900012    2    1    2    0    0 -0.14154485454E+02 -0.48558036552E+00  0.42761293336E+02  0.46142318137E+02  0.10000003430E+02 0.  0.
        -12    1    1    2    0    0  0.14154485454E+02  0.48558036552E+00 -0.42761293336E+02  0.45045681863E+02  0.00000000000E+00 0.  1.
         11    1    3    3    0    0 -0.83401391581E+01 -0.35140339891E+01  0.19377294952E+02  0.21386582616E+02  0.51100000000E-03 0. -1.
        -11    1    3    3    0    0 -0.25908352689E+01  0.39812458326E+01  0.14421979789E+02  0.15184078736E+02  0.51100000000E-03 0.  1.
        -12    1    3    3    0    0 -0.32235110265E+01 -0.95279220901E+00  0.89620185943E+01  0.95716567853E+01  0.00000000000E+00 0.  1.
</event>
<event>
 7    1  0.4623443E-009  0.4614232E+02  0.7816164E-02  0.1320468E+00
        -11   -1    0    0    0    0  0.00000000000E+00  0.00000000000E+00  0.45593999997E+02  0.45594000000E+02  0.51100000000E-03 0. -1.
         11   -1    0    0    0    0 -0.00000000000E+00 -0.00000000000E+00 -0.45593999997E+02  0.45594000000E+02  0.51100000000E-03 0.  1.
    9900012    2    1    2    0    0 -0.97631803540E+00 -0.14696324187E+02 -0.42569687816E+02  0.46142318051E+02  0.10000002641E+02 0.  0.
         12    1    1    2    0    0  0.97631803540E+00  0.14696324187E+02  0.42569687816E+02  0.45045681949E+02  0.00000000000E+00 0. -1.
         11    1    3    3    0    0 -0.32277337276E+01 -0.34711498418E+01 -0.17245532830E+02  0.17885064973E+02  0.51100000000E-03 0. -1.
        -11    1    3    3    0    0 -0.29355425050E+00 -0.92398426399E+01 -0.19959641880E+02  0.21996549055E+02  0.51100000000E-03 0.  1.
        -12    1    3    3    0    0  0.25449699427E+01 -0.19853317057E+01 -0.53645131062E+01  0.62607040225E+01  0.00000000000E+00 0.  1.
</event>
<event>
 7    1  0.4623443E-009  0.4614232E+02  0.7816164E-02  0.1320468E+00
        -11   -1    0    0    0    0  0.00000000000E+00  0.00000000000E+00  0.45593999997E+02  0.45594000000E+02  0.51100000000E-03 0. -1.
         11   -1    0    0    0    0 -0.00000000000E+00 -0.00000000000E+00 -0.45593999997E+02  0.45594000000E+02  0.51100000000E-03 0.  1.
    9900012    2    1    2    0    0  0.76392262646E+01 -0.25868313499E+02  0.36077500330E+02  0.46142318173E+02  0.10000003756E+02 0.  0.
        -12    1    1    2    0    0 -0.76392262646E+01  0.25868313499E+02 -0.36077500330E+02  0.45045681827E+02  0.00000000000E+00 0.  1.
         11    1    3    3    0    0  0.47292187094E+00 -0.44692682913E+01  0.11305720802E+02  0.12166237597E+02  0.51100000000E-03 0. -1.
        -11    1    3    3    0    0 -0.80670284460E+00 -0.97582016708E+00  0.19870787486E+01  0.23561571875E+01  0.51100000000E-03 0.  1.
        -12    1    3    3    0    0  0.79730072382E+01 -0.20423225041E+02  0.22784700779E+02  0.31619923388E+02  0.00000000000E+00 0.  1.
</event>
<event>
 7    1  0.4623443E-009  0.4614231E+02  0.7816164E-02  0.1320468E+00
        -11   -1    0    0    0    0  0.00000000000E+00  0.00000000000E+00  0.45593999997E+02  0.45594000000E+02  0.51100000000E-03 0. -1.
         11   -1    0    0    0    0 -0.00000000000E+00 -0.00000000000E+00 -0.45593999997E+02  0.45594000000E+02  0.51100000000E-03 0.  1.
    9900012    2    1    2    0    0 -0.25569458118E+02 -0.50411425166E+00  0.37081835936E+02  0.46142313458E+02  0.99999607637E+01 0.  0.
        -12    1    1    2    0    0  0.25569458118E+02  0.50411425166E+00 -0.37081835936E+02  0.45045686542E+02  0.00000000000E+00 0.  1.
         11    1    3    3    0    0 -0.27255017267E+01  0.20435099138E+01  0.74411535520E+01  0.81838291084E+01  0.51100000000E-03 0. -1.
        -11    1    3    3    0    0 -0.95443502569E+01 -0.86393759874E+00  0.17095055474E+02  0.19598008366E+02  0.51100000000E-03 0.  1.
        -12    1    3    3    0    0 -0.13299606134E+02 -0.16836865667E+01  0.12545626910E+02  0.18360475984E+02  0.00000000000E+00 0.  1.
</event>
<event>
 7    1  0.4623443E-009  0.4614232E+02  0.7816164E-02  0.1320468E+00
        -11   -1    0    0    0    0  0.00000000000E+00  0.00000000000E+00  0.45593999997E+02  0.45594000000E+02  0.51100000000E-03 0. -1.
         11   -1    0    0    0    0 -0.00000000000E+00 -0.00000000000E+00 -0.45593999997E+02  0.45594000000E+02  0.51100000000E-03 0.  1.
    9900012    2    1    2    0    0  0.39250325107E+02 -0.67217204440E+01 -0.21055721358E+02  0.46142323752E+02  0.10000054630E+02 0.  0.
         12    1    1    2    0    0 -0.39250325107E+02  0.67217204440E+01  0.21055721358E+02  0.45045676248E+02  0.00000000000E+00 0. -1.
         11    1    3    3    0    0  0.31438186075E+01 -0.29258121773E+01 -0.24567813514E+01  0.49477012039E+01  0.51100000000E-03 0. -1.
        -11    1    3    3    0    0  0.49467424693E+01 -0.67608634344E+00 -0.48168584473E+00  0.50159122117E+01  0.51100000000E-03 0.  1.
        -12    1    3    3    0    0  0.31159764030E+02 -0.31198219233E+01 -0.18117254161E+02  0.36178710336E+02  0.00000000000E+00 0.  1.
</event>
<event>
 7    1  0.4623443E-009  0.4614232E+02  0.7816164E-02  0.1320468E+00
        -11   -1    0    0    0    0  0.00000000000E+00  0.00000000000E+00  0.45593999997E+02  0.45594000000E+02  0.51100000000E-03 0.  1.
         11   -1    0    0    0    0 -0.00000000000E+00 -0.00000000000E+00 -0.45593999997E+02  0.45594000000E+02  0.51100000000E-03 0. -1.
    9900012    2    1    2    0    0  0.69571772445E+01  0.41678855059E+02  0.15607182880E+02  0.46142318390E+02  0.10000005739E+02 0.  0.
        -12    1    1    2    0    0 -0.69571772445E+01 -0.41678855059E+02 -0.15607182880E+02  0.45045681610E+02  0.00000000000E+00 0.  1.
         11    1    3    3    0    0  0.33624313044E+01  0.46873638797E+01  0.36117887034E+01  0.68060518891E+01  0.51100000000E-03 0. -1.
        -11    1    3    3    0    0  0.20651688544E+01  0.62188398153E+01  0.10340167938E+01  0.66338587592E+01  0.51100000000E-03 0.  1.
         12    1    3    3    0    0  0.15295770857E+01  0.30772651364E+02  0.10961377383E+02  0.32702407742E+02  0.00000000000E+00 0. -1.
</event>
<event>
 7    1  0.4623443E-009  0.4614232E+02  0.7816164E-02  0.1320468E+00
        -11   -1    0    0    0    0  0.00000000000E+00  0.00000000000E+00  0.45593999997E+02  0.45594000000E+02  0.51100000000E-03 0.  1.
         11   -1    0    0    0    0 -0.00000000000E+00 -0.00000000000E+00 -0.45593999997E+02  0.45594000000E+02  0.51100000000E-03 0. -1.
    9900012    2    1    2    0    0 -0.27793605266E+02  0.34958125880E+02 -0.58786365684E+01  0.46142318446E+02  0.10000006243E+02 0.  0.
         12    1    1    2    0    0  0.27793605266E+02 -0.34958125880E+02  0.58786365684E+01  0.45045681554E+02  0.00000000000E+00 0. -1.
         11    1    3    3    0    0 -0.12211758412E+02  0.11084792757E+02 -0.41306707776E+01  0.17001826823E+02  0.51100000000E-03 0. -1.
        -11    1    3    3    0    0 -0.15262918550E+02  0.20584945806E+02 -0.25137389386E+01  0.25749088531E+02  0.51100000000E-03 0.  1.
         12    1    3    3    0    0 -0.31892830472E+00  0.32883873181E+01  0.76577314781E+00  0.33914030919E+01  0.00000000000E+00 0. -1.
</event>
<event>
 7    1  0.4623443E-009  0.4614232E+02  0.7816164E-02  0.1320468E+00
        -11   -1    0    0    0    0  0.00000000000E+00  0.00000000000E+00  0.45593999997E+02  0.45594000000E+02  0.51100000000E-03 0. -1.
         11   -1    0    0    0    0 -0.00000000000E+00 -0.00000000000E+00 -0.45593999997E+02  0.45594000000E+02  0.51100000000E-03 0.  1.
    9900012    2    1    2    0    0  0.68165801166E+01  0.42065192175E+02 -0.14600249752E+02  0.46142318187E+02  0.10000003880E+02 0.  0.
         12    1    1    2    0    0 -0.68165801166E+01 -0.42065192175E+02  0.14600249752E+02  0.45045681813E+02  0.00000000000E+00 0. -1.
         11    1    3    3    0    0 -0.63606922389E+00  0.16177285872E+02 -0.69538781793E+01  0.17620033605E+02  0.51100000000E-03 0.  1.
        -11    1    3    3    0    0  0.62783349995E+00  0.40028507663E+00 -0.11143684630E+01  0.13402314646E+01  0.51100000000E-03 0. -1.
        -12    1    3    3    0    0  0.68248158406E+01  0.25487621227E+02 -0.65320031099E+01  0.27182053117E+02  0.00000000000E+00 0.  1.
</event>
<event>
 7    1  0.4623443E-009  0.4614232E+02  0.7816164E-02  0.1320468E+00
        -11   -1    0    0    0    0  0.00000000000E+00  0.00000000000E+00  0.45593999997E+02  0.45594000000E+02  0.51100000000E-03 0. -1.
         11   -1    0    0    0    0 -0.00000000000E+00 -0.00000000000E+00 -0.45593999997E+02  0.45594000000E+02  0.51100000000E-03 0.  1.
    9900012    2    1    2    0    0  0.33772834810E+02  0.25899812562E+02 -0.14754959920E+02  0.46142317587E+02  0.99999984113E+01 0.  0.
         12    1    1    2    0    0 -0.33772834810E+02 -0.25899812562E+02  0.14754959920E+02  0.45045682413E+02  0.00000000000E+00 0. -1.
         11    1    3    3    0    0  0.21678680648E+02  0.17141520359E+02 -0.12330900162E+02  0.30262980915E+02  0.51100000000E-03 0. -1.
        -11    1    3    3    0    0  0.15909734390E+01  0.31785230736E+01 -0.17630286907E+01  0.39676788981E+01  0.51100000000E-03 0.  1.
         12    1    3    3    0    0  0.10503180723E+02  0.55797691296E+01 -0.66103106803E+00  0.11911657773E+02  0.00000000000E+00 0. -1.
</event>
<event>
 7    1  0.4623443E-009  0.4614232E+02  0.7816164E-02  0.1320468E+00
        -11   -1    0    0    0    0  0.00000000000E+00  0.00000000000E+00  0.45593999997E+02  0.45594000000E+02  0.51100000000E-03 0. -1.
         11   -1    0    0    0    0 -0.00000000000E+00 -0.00000000000E+00 -0.45593999997E+02  0.45594000000E+02  0.51100000000E-03 0.  1.
    9900012    2    1    2    0    0 -0.29828022026E+02  0.14596831201E+02 -0.30435754577E+02  0.46142317235E+02  0.99999952003E+01 0.  0.
         12    1    1    2    0    0  0.29828022026E+02 -0.14596831201E+02  0.30435754577E+02  0.45045682765E+02  0.00000000000E+00 0. -1.
         11    1    3    3    0    0 -0.54202855464E+01  0.18366773090E+00 -0.15418564723E+01  0.56383109955E+01  0.51100000000E-03 0. -1.
        -11    1    3    3    0    0 -0.21151739987E+02  0.12845719157E+02 -0.24630553179E+02  0.34915222401E+02  0.51100000000E-03 0.  1.
         12    1    3    3    0    0 -0.32559964929E+01  0.15674443136E+01 -0.42633449255E+01  0.55887838384E+01  0.00000000000E+00 0. -1.
</event>
<event>
 7    1  0.4623443E-009  0.4614232E+02  0.7816164E-02  0.1320468E+00
        -11   -1    0    0    0    0  0.00000000000E+00  0.00000000000E+00  0.45593999997E+02  0.45594000000E+02  0.51100000000E-03 0. -1.
         11   -1    0    0    0    0 -0.00000000000E+00 -0.00000000000E+00 -0.45593999997E+02  0.45594000000E+02  0.51100000000E-03 0.  1.
    9900012    2    1    2    0    0  0.14759841120E+02 -0.17122148310E+02 -0.38962707168E+02  0.46142318492E+02  0.10000006668E+02 0.  0.
         12    1    1    2    0    0 -0.14759841120E+02  0.17122148310E+02  0.38962707168E+02  0.45045681508E+02  0.00000000000E+00 0. -1.
         11    1    3    3    0    0  0.42901252792E+00 -0.94623656469E+00 -0.65805782290E+01  0.66620886720E+01  0.51100000000E-03 0. -1.
        -11    1    3    3    0    0  0.96787272552E+01 -0.14876842652E+02 -0.25847209443E+02  0.31354049895E+02  0.51100000000E-03 0.  1.
         12    1    3    3    0    0  0.46521013369E+01 -0.12990690929E+01 -0.65349194965E+01  0.81261799256E+01  0.00000000000E+00 0. -1.
</event>
<event>
 7    1  0.4623443E-009  0.4614232E+02  0.7816164E-02  0.1320468E+00
        -11   -1    0    0    0    0  0.00000000000E+00  0.00000000000E+00  0.45593999997E+02  0.45594000000E+02  0.51100000000E-03 0. -1.
         11   -1    0    0    0    0 -0.00000000000E+00 -0.00000000000E+00 -0.45593999997E+02  0.45594000000E+02  0.51100000000E-03 0.  1.
    9900012    2    1    2    0    0 -0.37721170976E+02  0.16740378121E+02  0.18055094335E+02  0.46142318399E+02  0.10000005819E+02 0.  0.
        -12    1    1    2    0    0  0.37721170976E+02 -0.16740378121E+02 -0.18055094335E+02  0.45045681601E+02  0.00000000000E+00 0.  1.
         11    1    3    3    0    0 -0.25159389669E+02  0.77513031464E+01  0.12365362211E+02  0.29085731414E+02  0.51100000000E-03 0. -1.
        -11    1    3    3    0    0 -0.85313365970E-02  0.94609594158E+00  0.11135793456E+01  0.14612424626E+01  0.51100000000E-03 0.  1.
         12    1    3    3    0    0 -0.12553249970E+02  0.80429790328E+01  0.45761527778E+01  0.15595344523E+02  0.00000000000E+00 0. -1.
</event>
<event>
 7    1  0.4623443E-009  0.4614232E+02  0.7816164E-02  0.1320468E+00
        -11   -1    0    0    0    0  0.00000000000E+00  0.00000000000E+00  0.45593999997E+02  0.45594000000E+02  0.51100000000E-03 0. -1.
         11   -1    0    0    0    0 -0.00000000000E+00 -0.00000000000E+00 -0.45593999997E+02  0.45594000000E+02  0.51100000000E-03 0.  1.
    9900012    2    1    2    0    0  0.13879296866E+02 -0.32538909752E+02  0.27887236601E+02  0.46142317692E+02  0.99999993728E+01 0.  0.
        -12    1    1    2    0    0 -0.13879296866E+02  0.32538909752E+02 -0.27887236601E+02  0.45045682308E+02  0.00000000000E+00 0.  1.
         11    1    3    3    0    0  0.10619611138E+02 -0.25059875095E+02  0.19326171948E+02  0.33380748987E+02  0.51100000000E-03 0. -1.
        -11    1    3    3    0    0  0.15218259760E+01  0.24853639307E+00  0.13160336115E+01  0.20272319472E+01  0.51100000000E-03 0.  1.
         12    1    3    3    0    0  0.17378597518E+01 -0.77275710498E+01  0.72450310420E+01  0.10734336759E+02  0.00000000000E+00 0. -1.
</event>
<event>
 7    1  0.4623443E-009  0.4614232E+02  0.7816164E-02  0.1320468E+00
        -11   -1    0    0    0    0  0.00000000000E+00  0.00000000000E+00  0.45593999997E+02  0.45594000000E+02  0.51100000000E-03 0. -1.
         11   -1    0    0    0    0 -0.00000000000E+00 -0.00000000000E+00 -0.45593999997E+02  0.45594000000E+02  0.51100000000E-03 0.  1.
    9900012    2    1    2    0    0 -0.11174282509E+02 -0.57228202244E+01 -0.43260815803E+02  0.46142318245E+02  0.10000004409E+02 0.  0.
         12    1    1    2    0    0  0.11174282509E+02  0.57228202244E+01  0.43260815803E+02  0.45045681755E+02  0.00000000000E+00 0. -1.
         11    1    3    3    0    0  0.11608291858E+01 -0.12836811489E+01 -0.94166849448E+01  0.95744095014E+01  0.51100000000E-03 0. -1.
        -11    1    3    3    0    0  0.27677948444E+00 -0.16703870763E+00 -0.18944520817E+00  0.37469795952E+00  0.51100000000E-03 0.  1.
         12    1    3    3    0    0 -0.12611891179E+02 -0.42721003679E+01 -0.33654685650E+02  0.36193210784E+02  0.00000000000E+00 0. -1.
</event>
<event>
 7    1  0.4623443E-009  0.4614232E+02  0.7816164E-02  0.1320468E+00
        -11   -1    0    0    0    0  0.00000000000E+00  0.00000000000E+00  0.45593999997E+02  0.45594000000E+02  0.51100000000E-03 0. -1.
         11   -1    0    0    0    0 -0.00000000000E+00 -0.00000000000E+00 -0.45593999997E+02  0.45594000000E+02  0.51100000000E-03 0.  1.
    9900012    2    1    2    0    0  0.91919517825E+01 -0.30939756781E+01  0.43989184269E+02  0.46142323229E+02  0.10000049862E+02 0.  0.
        -12    1    1    2    0    0 -0.91919517825E+01  0.30939756781E+01 -0.43989184269E+02  0.45045676771E+02  0.00000000000E+00 0.  1.
         11    1    3    3    0    0  0.37085926542E+01  0.87265199529E+00  0.19406119989E+02  0.19776568820E+02  0.51100000000E-03 0. -1.
        -11    1    3    3    0    0  0.17661373355E+01 -0.30494343325E+01  0.36053629748E+01  0.50415209289E+01  0.51100000000E-03 0.  1.
        -12    1    3    3    0    0  0.37172217928E+01 -0.91719334097E+00  0.20977701305E+02  0.21324233481E+02  0.00000000000E+00 0.  1.
</event>
<event>
 7    1  0.4623443E-009  0.4614232E+02  0.7816164E-02  0.1320468E+00
        -11   -1    0    0    0    0  0.00000000000E+00  0.00000000000E+00  0.45593999997E+02  0.45594000000E+02  0.51100000000E-03 0. -1.
         11   -1    0    0    0    0 -0.00000000000E+00 -0.00000000000E+00 -0.45593999997E+02  0.45594000000E+02  0.51100000000E-03 0.  1.
    9900012    2    1    2    0    0  0.20234862904E+01 -0.20052804511E+02  0.40285281487E+02  0.46142319075E+02  0.10000011980E+02 0.  0.
        -12    1    1    2    0    0 -0.20234862904E+01  0.20052804511E+02 -0.40285281487E+02  0.45045680925E+02  0.00000000000E+00 0.  1.
         11    1    3    3    0    0  0.13469804548E+01  0.57691288145E+00  0.39778494354E+01  0.42391592575E+01  0.51100000000E-03 0.  1.
        -11    1    3    3    0    0 -0.11598213377E+01 -0.10335068278E+02  0.16480977650E+02  0.19487982102E+02  0.51100000000E-03 0. -1.
         12    1    3    3    0    0  0.18363271733E+01 -0.10294649114E+02  0.19826454402E+02  0.22415177716E+02  0.00000000000E+00 0. -1.
</event>
<event>
 7    1  0.4623443E-009  0.4614232E+02  0.7816164E-02  0.1320468E+00
        -11   -1    0    0    0    0  0.00000000000E+00  0.00000000000E+00  0.45593999997E+02  0.45594000000E+02  0.51100000000E-03 0.  1.
         11   -1    0    0    0    0 -0.00000000000E+00 -0.00000000000E+00 -0.45593999997E+02  0.45594000000E+02  0.51100000000E-03 0. -1.
    9900012    2    1    2    0    0 -0.10237817006E+02 -0.42916754566E+02  0.90803629954E+01  0.46142315282E+02  0.99999773960E+01 0.  0.
        -12    1    1    2    0    0  0.10237817006E+02  0.42916754566E+02 -0.90803629954E+01  0.45045684718E+02  0.00000000000E+00 0.  1.
         11    1    3    3    0    0 -0.11878289352E+01 -0.23029584047E+01 -0.73662615325E-01  0.25922926986E+01  0.51100000000E-03 0. -1.
        -11    1    3    3    0    0 -0.79088966383E+01 -0.29167627582E+02  0.10444822044E+02  0.31974919117E+02  0.51100000000E-03 0.  1.
        -12    1    3    3    0    0 -0.11410914328E+01 -0.11446168580E+02 -0.12907964335E+01  0.11575103466E+02  0.00000000000E+00 0.  1.
</event>
<event>
 7    1  0.4623443E-009  0.4614232E+02  0.7816164E-02  0.1320468E+00
        -11   -1    0    0    0    0  0.00000000000E+00  0.00000000000E+00  0.45593999997E+02  0.45594000000E+02  0.51100000000E-03 0. -1.
         11   -1    0    0    0    0 -0.00000000000E+00 -0.00000000000E+00 -0.45593999997E+02  0.45594000000E+02  0.51100000000E-03 0.  1.
    9900012    2    1    2    0    0  0.20570933857E+01 -0.35047947435E+01 -0.44861990945E+02  0.46142318176E+02  0.10000003786E+02 0.  0.
         12    1    1    2    0    0 -0.20570933857E+01  0.35047947435E+01  0.44861990945E+02  0.45045681824E+02  0.00000000000E+00 0. -1.
         11    1    3    3    0    0 -0.18849045233E+01 -0.80238995499E+00 -0.79030664243E+01  0.81642607669E+01  0.51100000000E-03 0. -1.
        -11    1    3    3    0    0  0.43816659885E+01  0.12626148630E+01 -0.15732670029E+02  0.16380173980E+02  0.51100000000E-03 0.  1.
        -12    1    3    3    0    0 -0.43966807955E+00 -0.39650196515E+01 -0.21226254492E+02  0.21597883429E+02  0.00000000000E+00 0.  1.
</event>
<event>
 7    1  0.4623443E-009  0.4614232E+02  0.7816164E-02  0.1320468E+00
        -11   -1    0    0    0    0  0.00000000000E+00  0.00000000000E+00  0.45593999997E+02  0.45594000000E+02  0.51100000000E-03 0. -1.
         11   -1    0    0    0    0 -0.00000000000E+00 -0.00000000000E+00 -0.45593999997E+02  0.45594000000E+02  0.51100000000E-03 0.  1.
    9900012    2    1    2    0    0 -0.19531208007E+02  0.27258065068E+02  0.30077287539E+02  0.46142318485E+02  0.10000006603E+02 0.  0.
        -12    1    1    2    0    0  0.19531208007E+02 -0.27258065068E+02 -0.30077287539E+02  0.45045681515E+02  0.00000000000E+00 0.  1.
         11    1    3    3    0    0 -0.22937316161E+01  0.55935224815E+01  0.80767015279E+01  0.10088696958E+02  0.51100000000E-03 0. -1.
        -11    1    3    3    0    0 -0.62098808841E+01  0.38979761560E+01  0.34611813505E+01  0.81078119927E+01  0.51100000000E-03 0.  1.
         12    1    3    3    0    0 -0.11027595507E+02  0.17766566430E+02  0.18539404660E+02  0.27945809534E+02  0.00000000000E+00 0. -1.
</event>
<event>
 7    1  0.4623443E-009  0.4614232E+02  0.7816164E-02  0.1320468E+00
        -11   -1    0    0    0    0  0.00000000000E+00  0.00000000000E+00  0.45593999997E+02  0.45594000000E+02  0.51100000000E-03 0.  1.
         11   -1    0    0    0    0 -0.00000000000E+00 -0.00000000000E+00 -0.45593999997E+02  0.45594000000E+02  0.51100000000E-03 0. -1.
    9900012    2    1    2    0    0 -0.38315956081E+02  0.21457273852E+02  0.10029277085E+02  0.46142317738E+02  0.99999997936E+01 0.  0.
         12    1    1    2    0    0  0.38315956081E+02 -0.21457273852E+02 -0.10029277085E+02  0.45045682262E+02  0.00000000000E+00 0. -1.
         11    1    3    3    0    0 -0.56911925347E+01  0.87976215568E+00  0.91627059337E+00  0.58312267988E+01  0.51100000000E-03 0. -1.
        -11    1    3    3    0    0 -0.23506848552E+02  0.12777082692E+02  0.32361200177E+01  0.26949921039E+02  0.51100000000E-03 0.  1.
        -12    1    3    3    0    0 -0.91179149941E+01  0.78004290042E+01  0.58768864738E+01  0.13361169901E+02  0.00000000000E+00 0.  1.
</event>
<event>
 7    1  0.4623443E-009  0.4614232E+02  0.7816164E-02  0.1320468E+00
        -11   -1    0    0    0    0  0.00000000000E+00  0.00000000000E+00  0.45593999997E+02  0.45594000000E+02  0.51100000000E-03 0. -1.
         11   -1    0    0    0    0 -0.00000000000E+00 -0.00000000000E+00 -0.45593999997E+02  0.45594000000E+02  0.51100000000E-03 0.  1.
    9900012    2    1    2    0    0 -0.23550805043E+02 -0.33258062935E+02  0.19193083789E+02  0.46142316148E+02  0.99999852870E+01 0.  0.
        -12    1    1    2    0    0  0.23550805043E+02  0.33258062935E+02 -0.19193083789E+02  0.45045683852E+02  0.00000000000E+00 0.  1.
         11    1    3    3    0    0 -0.16517128297E+02 -0.18175572725E+02  0.10932139956E+02  0.26882683187E+02  0.51100000000E-03 0. -1.
        -11    1    3    3    0    0 -0.31555105977E+01 -0.11211394659E+02  0.39874727796E+01  0.12310668413E+02  0.51100000000E-03 0.  1.
        -12    1    3    3    0    0 -0.38781661487E+01 -0.38710955513E+01  0.42734710540E+01  0.69489645482E+01  0.00000000000E+00 0.  1.
</event>
<event>
 7    1  0.4623443E-009  0.4614232E+02  0.7816164E-02  0.1320468E+00
        -11   -1    0    0    0    0  0.00000000000E+00  0.00000000000E+00  0.45593999997E+02  0.45594000000E+02  0.51100000000E-03 0. -1.
         11   -1    0    0    0    0 -0.00000000000E+00 -0.00000000000E+00 -0.45593999997E+02  0.45594000000E+02  0.51100000000E-03 0.  1.
    9900012    2    1    2    0    0  0.27341479459E+02 -0.80026659751E+01 -0.34892897983E+02  0.46142317728E+02  0.99999996962E+01 0.  0.
         12    1    1    2    0    0 -0.27341479459E+02  0.80026659751E+01  0.34892897983E+02  0.45045682272E+02  0.00000000000E+00 0. -1.
         11    1    3    3    0    0  0.55322120467E+01  0.17984520859E+01 -0.53237760652E+01  0.78855812651E+01  0.51100000000E-03 0. -1.
        -11    1    3    3    0    0  0.31997469944E+01  0.85636031612E-03 -0.31831609055E+01  0.45134128077E+01  0.51100000000E-03 0.  1.
        -12    1    3    3    0    0  0.18609520418E+02 -0.98019744214E+01 -0.26385961012E+02  0.33743323655E+02  0.00000000000E+00 0.  1.
</event>
<event>
 7    1  0.4623443E-009  0.4614232E+02  0.7816164E-02  0.1320468E+00
        -11   -1    0    0    0    0  0.00000000000E+00  0.00000000000E+00  0.45593999997E+02  0.45594000000E+02  0.51100000000E-03 0. -1.
         11   -1    0    0    0    0 -0.00000000000E+00 -0.00000000000E+00 -0.45593999997E+02  0.45594000000E+02  0.51100000000E-03 0.  1.
    9900012    2    1    2    0    0 -0.15293074884E+02 -0.36129342640E+02  0.22133819010E+02  0.46142317821E+02  0.10000000548E+02 0.  0.
        -12    1    1    2    0    0  0.15293074884E+02  0.36129342640E+02 -0.22133819010E+02  0.45045682179E+02  0.00000000000E+00 0.  1.
         11    1    3    3    0    0 -0.60785432257E+01 -0.21197883213E+02  0.83397010522E+01  0.23576461871E+02  0.51100000000E-03 0. -1.
        -11    1    3    3    0    0 -0.32021801467E+01 -0.37022740779E+01  0.22975522190E+01  0.54073595682E+01  0.51100000000E-03 0.  1.
        -12    1    3    3    0    0 -0.60123515119E+01 -0.11229185349E+02  0.11496565739E+02  0.17158496382E+02  0.00000000000E+00 0.  1.
</event>
<event>
 7    1  0.4623443E-009  0.4614232E+02  0.7816164E-02  0.1320468E+00
        -11   -1    0    0    0    0  0.00000000000E+00  0.00000000000E+00  0.45593999997E+02  0.45594000000E+02  0.51100000000E-03 0. -1.
         11   -1    0    0    0    0 -0.00000000000E+00 -0.00000000000E+00 -0.45593999997E+02  0.45594000000E+02  0.51100000000E-03 0.  1.
    9900012    2    1    2    0    0  0.33315195596E+01 -0.21477424729E+01  0.44870945120E+02  0.46142317229E+02  0.99999951522E+01 0.  0.
        -12    1    1    2    0    0 -0.33315195596E+01  0.21477424729E+01 -0.44870945120E+02  0.45045682771E+02  0.00000000000E+00 0.  1.
         11    1    3    3    0    0  0.49842044131E+01 -0.28540408558E+00  0.37836059333E+02  0.38164003134E+02  0.51100000000E-03 0. -1.
        -11    1    3    3    0    0 -0.23127871737E+01 -0.78276089270E+00  0.52541062716E+01  0.57937321392E+01  0.51100000000E-03 0.  1.
        -12    1    3    3    0    0  0.66010232024E+00 -0.10795774947E+01  0.17807795152E+01  0.21845819559E+01  0.00000000000E+00 0.  1.
</event>
<event>
 7    1  0.4623443E-009  0.4614232E+02  0.7816164E-02  0.1320468E+00
        -11   -1    0    0    0    0  0.00000000000E+00  0.00000000000E+00  0.45593999997E+02  0.45594000000E+02  0.51100000000E-03 0. -1.
         11   -1    0    0    0    0 -0.00000000000E+00 -0.00000000000E+00 -0.45593999997E+02  0.45594000000E+02  0.51100000000E-03 0.  1.
    9900012    2    1    2    0    0 -0.40392783908E+01 -0.21175016202E+01  0.44814215287E+02  0.46142317912E+02  0.10000001373E+02 0.  0.
        -12    1    1    2    0    0  0.40392783908E+01  0.21175016202E+01 -0.44814215287E+02  0.45045682088E+02  0.00000000000E+00 0.  1.
         11    1    3    3    0    0 -0.68574712847E+00  0.51934244610E+00  0.29303107776E+02  0.29315731124E+02  0.51100000000E-03 0. -1.
        -11    1    3    3    0    0 -0.45327809313E+01 -0.12525539505E+01  0.11322658281E+02  0.12260407220E+02  0.51100000000E-03 0.  1.
         12    1    3    3    0    0  0.11792496690E+01 -0.13842901158E+01  0.41884492289E+01  0.45661795683E+01  0.00000000000E+00 0. -1.
</event>
<event>
 7    1  0.4623443E-009  0.4614232E+02  0.7816164E-02  0.1320468E+00
        -11   -1    0    0    0    0  0.00000000000E+00  0.00000000000E+00  0.45593999997E+02  0.45594000000E+02  0.51100000000E-03 0. -1.
         11   -1    0    0    0    0 -0.00000000000E+00 -0.00000000000E+00 -0.45593999997E+02  0.45594000000E+02  0.51100000000E-03 0.  1.
    9900012    2    1    2    0    0 -0.12397120349E+01  0.32766735606E+02 -0.30885555075E+02  0.46142319180E+02  0.10000012939E+02 0.  0.
         12    1    1    2    0    0  0.12397120349E+01 -0.32766735606E+02  0.30885555075E+02  0.45045680820E+02  0.00000000000E+00 0. -1.
         11    1    3    3    0    0  0.18398196502E+01  0.17481772453E+01 -0.39768321670E+01  0.47176534816E+01  0.51100000000E-03 0. -1.
        -11    1    3    3    0    0 -0.28047305453E+01  0.83047940700E+01 -0.69486450516E+01  0.11185695611E+02  0.51100000000E-03 0.  1.
        -12    1    3    3    0    0 -0.27480113980E+00  0.22713764291E+02 -0.19960077857E+02  0.30238970088E+02  0.00000000000E+00 0.  1.
</event>
<event>
 7    1  0.4623443E-009  0.4614232E+02  0.7816164E-02  0.1320468E+00
        -11   -1    0    0    0    0  0.00000000000E+00  0.00000000000E+00  0.45593999997E+02  0.45594000000E+02  0.51100000000E-03 0. -1.
         11   -1    0    0    0    0 -0.00000000000E+00 -0.00000000000E+00 -0.45593999997E+02  0.45594000000E+02  0.51100000000E-03 0.  1.
    9900012    2    1    2    0    0  0.21229077754E+02 -0.25151545019E+02 -0.30754505574E+02  0.46142316830E+02  0.99999915095E+01 0.  0.
         12    1    1    2    0    0 -0.21229077754E+02  0.25151545019E+02  0.30754505574E+02  0.45045683170E+02  0.00000000000E+00 0. -1.
         11    1    3    3    0    0  0.99274386162E+01 -0.16501943088E+02 -0.17457529598E+02  0.25992951026E+02  0.51100000000E-03 0. -1.
        -11    1    3    3    0    0  0.32925707740E+01 -0.20188636673E+00 -0.43930067914E+01  0.54936590117E+01  0.51100000000E-03 0.  1.
         12    1    3    3    0    0  0.80090683640E+01 -0.84477155642E+01 -0.89039691855E+01  0.14655706792E+02  0.00000000000E+00 0. -1.
</event>
<event>
 7    1  0.4623443E-009  0.4614232E+02  0.7816164E-02  0.1320468E+00
        -11   -1    0    0    0    0  0.00000000000E+00  0.00000000000E+00  0.45593999997E+02  0.45594000000E+02  0.51100000000E-03 0. -1.
         11   -1    0    0    0    0 -0.00000000000E+00 -0.00000000000E+00 -0.45593999997E+02  0.45594000000E+02  0.51100000000E-03 0.  1.
    9900012    2    1    2    0    0 -0.34867438885E+02  0.92936919301E+01  0.26962983406E+02  0.46142317874E+02  0.10000001025E+02 0.  0.
        -12    1    1    2    0    0  0.34867438885E+02 -0.92936919301E+01 -0.26962983406E+02  0.45045682126E+02  0.00000000000E+00 0.  1.
         11    1    3    3    0    0 -0.21914797817E+02  0.64132394918E+01  0.20349856223E+02  0.30586020544E+02  0.51100000000E-03 0. -1.
        -11    1    3    3    0    0 -0.84084075759E+01 -0.48383539394E+00  0.41443077115E+01  0.93867300653E+01  0.51100000000E-03 0.  1.
        -12    1    3    3    0    0 -0.45442334918E+01  0.33642878323E+01  0.24688194717E+01  0.61695672644E+01  0.00000000000E+00 0.  1.
</event>
<event>
 7    1  0.4623443E-009  0.4614232E+02  0.7816164E-02  0.1320468E+00
        -11   -1    0    0    0    0  0.00000000000E+00  0.00000000000E+00  0.45593999997E+02  0.45594000000E+02  0.51100000000E-03 0. -1.
         11   -1    0    0    0    0 -0.00000000000E+00 -0.00000000000E+00 -0.45593999997E+02  0.45594000000E+02  0.51100000000E-03 0.  1.
    9900012    2    1    2    0    0 -0.29089121318E+01 -0.96144533527E+01  0.43911432473E+02  0.46142318910E+02  0.10000010476E+02 0.  0.
        -12    1    1    2    0    0  0.29089121318E+01  0.96144533527E+01 -0.43911432473E+02  0.45045681090E+02  0.00000000000E+00 0.  1.
         11    1    3    3    0    0 -0.33407357669E+01 -0.86098016245E+00  0.69595797383E+01  0.77677250659E+01  0.51100000000E-03 0. -1.
        -11    1    3    3    0    0 -0.51848930204E+00 -0.15811327528E+01  0.16660245828E+01  0.23546656047E+01  0.51100000000E-03 0.  1.
        -12    1    3    3    0    0  0.95031293716E+00 -0.71723404374E+01  0.35285828152E+02  0.36019928239E+02  0.00000000000E+00 0.  1.
</event>
<event>
 7    1  0.4623443E-009  0.4614232E+02  0.7816164E-02  0.1320468E+00
        -11   -1    0    0    0    0  0.00000000000E+00  0.00000000000E+00  0.45593999997E+02  0.45594000000E+02  0.51100000000E-03 0. -1.
         11   -1    0    0    0    0 -0.00000000000E+00 -0.00000000000E+00 -0.45593999997E+02  0.45594000000E+02  0.51100000000E-03 0.  1.
    9900012    2    1    2    0    0  0.17433088103E+02 -0.10414070073E+01  0.41522482019E+02  0.46142316495E+02  0.99999884563E+01 0.  0.
        -12    1    1    2    0    0 -0.17433088103E+02  0.10414070073E+01 -0.41522482019E+02  0.45045683505E+02  0.00000000000E+00 0.  1.
         11    1    3    3    0    0  0.51620827687E+01 -0.14575567145E+01  0.14436739642E+02  0.15401007170E+02  0.51100000000E-03 0. -1.
        -11    1    3    3    0    0 -0.57237996540E+00 -0.11936217643E+01  0.46987758765E+01  0.48816848259E+01  0.51100000000E-03 0.  1.
         12    1    3    3    0    0  0.12843385300E+02  0.16097714715E+01  0.22386966501E+02  0.25859624499E+02  0.00000000000E+00 0. -1.
</event>
<event>
 7    1  0.4623443E-009  0.4614231E+02  0.7816164E-02  0.1320468E+00
        -11   -1    0    0    0    0  0.00000000000E+00  0.00000000000E+00  0.45593999997E+02  0.45594000000E+02  0.51100000000E-03 0. -1.
         11   -1    0    0    0    0 -0.00000000000E+00 -0.00000000000E+00 -0.45593999997E+02  0.45594000000E+02  0.51100000000E-03 0.  1.
    9900012    2    1    2    0    0 -0.44383345437E+02  0.70578483766E+01  0.30691316971E+01  0.46142310470E+02  0.99999335152E+01 0.  0.
        -12    1    1    2    0    0  0.44383345437E+02 -0.70578483766E+01 -0.30691316971E+01  0.45045689530E+02  0.00000000000E+00 0.  1.
         11    1    3    3    0    0 -0.25113362739E+02  0.12926954030E+01  0.31625240190E+01  0.25344695853E+02  0.51100000000E-03 0. -1.
        -11    1    3    3    0    0 -0.56275903889E+01  0.35462922482E-01  0.17331654843E+01  0.58885392129E+01  0.51100000000E-03 0.  1.
        -12    1    3    3    0    0 -0.13642392309E+02  0.57296900511E+01 -0.18265578062E+01  0.14909075404E+02  0.00000000000E+00 0.  1.
</event>
<event>
 7    1  0.4623443E-009  0.4614232E+02  0.7816164E-02  0.1320468E+00
        -11   -1    0    0    0    0  0.00000000000E+00  0.00000000000E+00  0.45593999997E+02  0.45594000000E+02  0.51100000000E-03 0. -1.
         11   -1    0    0    0    0 -0.00000000000E+00 -0.00000000000E+00 -0.45593999997E+02  0.45594000000E+02  0.51100000000E-03 0.  1.
    9900012    2    1    2    0    0  0.31652245910E+02  0.11922559333E+02 -0.29750653276E+02  0.46142318048E+02  0.10000002614E+02 0.  0.
         12    1    1    2    0    0 -0.31652245910E+02 -0.11922559333E+02  0.29750653276E+02  0.45045681952E+02  0.00000000000E+00 0. -1.
         11    1    3    3    0    0  0.28316563042E+00 -0.43136574028E+00  0.29380372036E+00  0.59378452603E+00  0.51100000000E-03 0. -1.
        -11    1    3    3    0    0  0.15325540291E+02  0.49969664515E+01 -0.18096734532E+02  0.24234967710E+02  0.51100000000E-03 0.  1.
         12    1    3    3    0    0  0.16043539988E+02  0.73569586214E+01 -0.11947722465E+02  0.21313565812E+02  0.00000000000E+00 0. -1.
</event>
<event>
 7    1  0.4623443E-009  0.4614232E+02  0.7816164E-02  0.1320468E+00
        -11   -1    0    0    0    0  0.00000000000E+00  0.00000000000E+00  0.45593999997E+02  0.45594000000E+02  0.51100000000E-03 0. -1.
         11   -1    0    0    0    0 -0.00000000000E+00 -0.00000000000E+00 -0.45593999997E+02  0.45594000000E+02  0.51100000000E-03 0.  1.
    9900012    2    1    2    0    0 -0.44756010973E+01 -0.21288223678E+02 -0.39444823031E+02  0.46142317227E+02  0.99999951287E+01 0.  0.
         12    1    1    2    0    0  0.44756010973E+01  0.21288223678E+02  0.39444823031E+02  0.45045682773E+02  0.00000000000E+00 0. -1.
         11    1    3    3    0    0  0.78703401600E+00 -0.16399036566E+01 -0.54960236981E+00  0.19002025080E+01  0.51100000000E-03 0. -1.
        -11    1    3    3    0    0  0.16674967301E+00 -0.19018406762E+01 -0.12819519062E+01  0.22996096108E+01  0.51100000000E-03 0.  1.
        -12    1    3    3    0    0 -0.54293847863E+01 -0.17746479345E+02 -0.37613268755E+02  0.41942505108E+02  0.00000000000E+00 0.  1.
</event>
<event>
 7    1  0.4623443E-009  0.4614232E+02  0.7816164E-02  0.1320468E+00
        -11   -1    0    0    0    0  0.00000000000E+00  0.00000000000E+00  0.45593999997E+02  0.45594000000E+02  0.51100000000E-03 0. -1.
         11   -1    0    0    0    0 -0.00000000000E+00 -0.00000000000E+00 -0.45593999997E+02  0.45594000000E+02  0.51100000000E-03 0.  1.
    9900012    2    1    2    0    0 -0.14731485880E+02 -0.38771067950E+02 -0.17575583218E+02  0.46142317503E+02  0.99999976419E+01 0.  0.
         12    1    1    2    0    0  0.14731485880E+02  0.38771067950E+02  0.17575583218E+02  0.45045682497E+02  0.00000000000E+00 0. -1.
         11    1    3    3    0    0 -0.56059964610E+01 -0.12638504034E+02 -0.75518106799E+01  0.15754009818E+02  0.51100000000E-03 0. -1.
        -11    1    3    3    0    0 -0.52042994315E+01 -0.88830779666E+01 -0.69809632456E+01  0.12438957144E+02  0.51100000000E-03 0.  1.
        -12    1    3    3    0    0 -0.39211899871E+01 -0.17249485950E+02 -0.30428092928E+01  0.17949350541E+02  0.00000000000E+00 0.  1.
</event>
<event>
 7    1  0.4623443E-009  0.4614232E+02  0.7816164E-02  0.1320468E+00
        -11   -1    0    0    0    0  0.00000000000E+00  0.00000000000E+00  0.45593999997E+02  0.45594000000E+02  0.51100000000E-03 0. -1.
         11   -1    0    0    0    0 -0.00000000000E+00 -0.00000000000E+00 -0.45593999997E+02  0.45594000000E+02  0.51100000000E-03 0.  1.
    9900012    2    1    2    0    0  0.21492866519E+02 -0.29425821367E+02 -0.26481903323E+02  0.46142317877E+02  0.10000001054E+02 0.  0.
         12    1    1    2    0    0 -0.21492866519E+02  0.29425821367E+02  0.26481903323E+02  0.45045682123E+02  0.00000000000E+00 0. -1.
         11    1    3    3    0    0  0.40152510800E+01 -0.11594614050E+02 -0.97490397151E+01  0.15671665254E+02  0.51100000000E-03 0. -1.
        -11    1    3    3    0    0  0.91227472291E+00 -0.32850287437E+01 -0.25415996954E+01  0.42524567358E+01  0.51100000000E-03 0.  1.
        -12    1    3    3    0    0  0.16565340716E+02 -0.14546178574E+02 -0.14191263912E+02  0.26218195887E+02  0.00000000000E+00 0.  1.
</event>
<event>
 7    1  0.4623443E-009  0.4614232E+02  0.7816164E-02  0.1320468E+00
        -11   -1    0    0    0    0  0.00000000000E+00  0.00000000000E+00  0.45593999997E+02  0.45594000000E+02  0.51100000000E-03 0. -1.
         11   -1    0    0    0    0 -0.00000000000E+00 -0.00000000000E+00 -0.45593999997E+02  0.45594000000E+02  0.51100000000E-03 0.  1.
    9900012    2    1    2    0    0  0.64208683347E+01  0.22483051971E+02 -0.38501925668E+02  0.46142318118E+02  0.10000003254E+02 0.  0.
         12    1    1    2    0    0 -0.64208683347E+01 -0.22483051971E+02  0.38501925668E+02  0.45045681882E+02  0.00000000000E+00 0. -1.
         11    1    3    3    0    0  0.27479108502E+01  0.94240947149E+00 -0.57960459128E+01  0.64833091965E+01  0.51100000000E-03 0. -1.
        -11    1    3    3    0    0 -0.11218712091E+01  0.20208729023E+01 -0.39041148763E+01  0.45370293723E+01  0.51100000000E-03 0.  1.
        -12    1    3    3    0    0  0.47948286936E+01  0.19519769597E+02 -0.28801764879E+02  0.35121979549E+02  0.00000000000E+00 0.  1.
</event>
<event>
 7    1  0.4623443E-009  0.4614232E+02  0.7816164E-02  0.1320468E+00
        -11   -1    0    0    0    0  0.00000000000E+00  0.00000000000E+00  0.45593999997E+02  0.45594000000E+02  0.51100000000E-03 0. -1.
         11   -1    0    0    0    0 -0.00000000000E+00 -0.00000000000E+00 -0.45593999997E+02  0.45594000000E+02  0.51100000000E-03 0.  1.
    9900012    2    1    2    0    0 -0.24982810346E+02 -0.26620978875E+02  0.26387424465E+02  0.46142317643E+02  0.99999989272E+01 0.  0.
        -12    1    1    2    0    0  0.24982810346E+02  0.26620978875E+02 -0.26387424465E+02  0.45045682357E+02  0.00000000000E+00 0.  1.
         11    1    3    3    0    0 -0.25150389675E+01 -0.13383132849E+01  0.98225577580E+00  0.30135245356E+01  0.51100000000E-03 0. -1.
        -11    1    3    3    0    0 -0.31347947996E+01 -0.20057855026E+01  0.16505249121E+00  0.37252324094E+01  0.51100000000E-03 0.  1.
        -12    1    3    3    0    0 -0.19332976579E+02 -0.23276880087E+02  0.25240116198E+02  0.39403560698E+02  0.00000000000E+00 0.  1.
</event>
<event>
 7    1  0.4623443E-009  0.4614232E+02  0.7816164E-02  0.1320468E+00
        -11   -1    0    0    0    0  0.00000000000E+00  0.00000000000E+00  0.45593999997E+02  0.45594000000E+02  0.51100000000E-03 0. -1.
         11   -1    0    0    0    0 -0.00000000000E+00 -0.00000000000E+00 -0.45593999997E+02  0.45594000000E+02  0.51100000000E-03 0.  1.
    9900012    2    1    2    0    0  0.24071551330E+02 -0.21072789991E+02  0.31711377724E+02  0.46142317203E+02  0.99999949129E+01 0.  0.
        -12    1    1    2    0    0 -0.24071551330E+02  0.21072789991E+02 -0.31711377724E+02  0.45045682797E+02  0.00000000000E+00 0.  1.
         11    1    3    3    0    0  0.54807319778E+01 -0.79178852749E+01  0.14181185167E+02  0.17141684376E+02  0.51100000000E-03 0. -1.
        -11    1    3    3    0    0  0.92309863539E+01 -0.88824750622E+01  0.99623185107E+01  0.16228285882E+02  0.51100000000E-03 0.  1.
         12    1    3    3    0    0  0.93598329985E+01 -0.42724296539E+01  0.75678740465E+01  0.12772346945E+02  0.00000000000E+00 0. -1.
</event>
<event>
 7    1  0.4623443E-009  0.4614232E+02  0.7816164E-02  0.1320468E+00
        -11   -1    0    0    0    0  0.00000000000E+00  0.00000000000E+00  0.45593999997E+02  0.45594000000E+02  0.51100000000E-03 0. -1.
         11   -1    0    0    0    0 -0.00000000000E+00 -0.00000000000E+00 -0.45593999997E+02  0.45594000000E+02  0.51100000000E-03 0.  1.
    9900012    2    1    2    0    0 -0.11368437203E+02 -0.15811280724E+02  0.40618658862E+02  0.46142318628E+02  0.10000007904E+02 0.  0.
        -12    1    1    2    0    0  0.11368437203E+02  0.15811280724E+02 -0.40618658862E+02  0.45045681372E+02  0.00000000000E+00 0.  1.
         11    1    3    3    0    0 -0.24586004022E+01 -0.50533562925E+01  0.10656743916E+02  0.12047710027E+02  0.51100000000E-03 0. -1.
        -11    1    3    3    0    0 -0.40647223495E+01 -0.10469993322E+02  0.23147155314E+02  0.25728068861E+02  0.51100000000E-03 0.  1.
        -12    1    3    3    0    0 -0.48451144514E+01 -0.28793110956E+00  0.68147596313E+01  0.83665397390E+01  0.00000000000E+00 0.  1.
</event>
<event>
 7    1  0.4623443E-009  0.4614232E+02  0.7816164E-02  0.1320468E+00
        -11   -1    0    0    0    0  0.00000000000E+00  0.00000000000E+00  0.45593999997E+02  0.45594000000E+02  0.51100000000E-03 0. -1.
         11   -1    0    0    0    0 -0.00000000000E+00 -0.00000000000E+00 -0.45593999997E+02  0.45594000000E+02  0.51100000000E-03 0.  1.
    9900012    2    1    2    0    0 -0.78924818388E+01  0.28175178474E+02  0.34248820167E+02  0.46142316140E+02  0.99999852154E+01 0.  0.
        -12    1    1    2    0    0  0.78924818388E+01 -0.28175178474E+02 -0.34248820167E+02  0.45045683860E+02  0.00000000000E+00 0.  1.
         11    1    3    3    0    0  0.47163973819E+00  0.70806123348E+01  0.62141006310E+01  0.94325268084E+01  0.51100000000E-03 0. -1.
        -11    1    3    3    0    0 -0.33214164230E+01  0.18979672714E+01  0.39165267505E+01  0.54747848238E+01  0.51100000000E-03 0.  1.
         12    1    3    3    0    0 -0.50427051541E+01  0.19196598867E+02  0.24118192786E+02  0.31235004508E+02  0.00000000000E+00 0. -1.
</event>
<event>
 7    1  0.4623443E-009  0.4614232E+02  0.7816164E-02  0.1320468E+00
        -11   -1    0    0    0    0  0.00000000000E+00  0.00000000000E+00  0.45593999997E+02  0.45594000000E+02  0.51100000000E-03 0. -1.
         11   -1    0    0    0    0 -0.00000000000E+00 -0.00000000000E+00 -0.45593999997E+02  0.45594000000E+02  0.51100000000E-03 0.  1.
    9900012    2    1    2    0    0  0.24715922137E+02  0.19802343261E+02  0.32032855639E+02  0.46142318231E+02  0.10000004280E+02 0.  0.
        -12    1    1    2    0    0 -0.24715922137E+02 -0.19802343261E+02 -0.32032855639E+02  0.45045681769E+02  0.00000000000E+00 0.  1.
         11    1    3    3    0    0  0.78543820687E+01  0.52309422847E+01  0.72712892671E+01  0.11913258275E+02  0.51100000000E-03 0. -1.
        -11    1    3    3    0    0  0.90377458278E+01  0.28918380507E+01  0.11422626059E+02  0.14849914589E+02  0.51100000000E-03 0.  1.
        -12    1    3    3    0    0  0.78237942402E+01  0.11679562926E+02  0.13338940312E+02  0.19379145366E+02  0.00000000000E+00 0.  1.
</event>
<event>
 7    1  0.4623443E-009  0.4614232E+02  0.7816164E-02  0.1320468E+00
        -11   -1    0    0    0    0  0.00000000000E+00  0.00000000000E+00  0.45593999997E+02  0.45594000000E+02  0.51100000000E-03 0. -1.
         11   -1    0    0    0    0 -0.00000000000E+00 -0.00000000000E+00 -0.45593999997E+02  0.45594000000E+02  0.51100000000E-03 0.  1.
    9900012    2    1    2    0    0  0.10008953805E+02  0.13150009808E+02  0.41904792945E+02  0.46142316678E+02  0.99999901194E+01 0.  0.
        -12    1    1    2    0    0 -0.10008953805E+02 -0.13150009808E+02 -0.41904792945E+02  0.45045683322E+02  0.00000000000E+00 0.  1.
         11    1    3    3    0    0  0.51353566871E+00  0.21749294301E+01  0.73190183536E+01  0.76525856304E+01  0.51100000000E-03 0. -1.
        -11    1    3    3    0    0  0.32168712889E+01  0.94761802691E+01  0.16628871289E+02  0.19407875051E+02  0.51100000000E-03 0.  1.
         12    1    3    3    0    0  0.62785468470E+01  0.14989001083E+01  0.17956903302E+02  0.19081855996E+02  0.00000000000E+00 0. -1.
</event>
<event>
 7    1  0.6092115E-009  0.4614232E+02  0.7816164E-02  0.1320468E+00
        -11   -1    0    0    0    0  0.00000000000E+00  0.00000000000E+00  0.45593999997E+02  0.45594000000E+02  0.51100000000E-03 0. -1.
         11   -1    0    0    0    0 -0.00000000000E+00 -0.00000000000E+00 -0.45593999997E+02  0.45594000000E+02  0.51100000000E-03 0.  1.
    9900012    2    1    2    0    0  0.20880348546E+02 -0.10585139115E+02 -0.38484794332E+02  0.46142317407E+02  0.99999967741E+01 0.  0.
         12    1    1    2    0    0 -0.20880348546E+02  0.10585139115E+02  0.38484794332E+02  0.45045682593E+02  0.00000000000E+00 0. -1.
         11    1    3    3    0    0  0.62968874672E+01 -0.71112745506E+01 -0.14032258789E+02  0.16944772188E+02  0.51100000000E-03 0. -1.
        -11    1    3    3    0    0  0.71619205713E+01 -0.41567500489E+01 -0.15273057172E+02  0.17373484189E+02  0.51100000000E-03 0.  1.
         12    1    3    3    0    0  0.74215405073E+01  0.68288548479E+00 -0.91794783708E+01  0.11824061030E+02  0.00000000000E+00 0. -1.
</event>
<event>
 7    1  0.4623443E-009  0.4614232E+02  0.7816164E-02  0.1320468E+00
        -11   -1    0    0    0    0  0.00000000000E+00  0.00000000000E+00  0.45593999997E+02  0.45594000000E+02  0.51100000000E-03 0. -1.
         11   -1    0    0    0    0 -0.00000000000E+00 -0.00000000000E+00 -0.45593999997E+02  0.45594000000E+02  0.51100000000E-03 0.  1.
    9900012    2    1    2    0    0  0.23084375313E+02 -0.55772092499E+01  0.38276882524E+02  0.46142318938E+02  0.10000010728E+02 0.  0.
        -12    1    1    2    0    0 -0.23084375313E+02  0.55772092499E+01 -0.38276882524E+02  0.45045681062E+02  0.00000000000E+00 0.  1.
         11    1    3    3    0    0  0.17871747013E+01 -0.12903355588E+01  0.22824286984E+01  0.31730805681E+01  0.51100000000E-03 0. -1.
        -11    1    3    3    0    0  0.60649912328E+01 -0.19259254136E+01  0.18943948371E+02  0.19984155911E+02  0.51100000000E-03 0.  1.
         12    1    3    3    0    0  0.15232209379E+02 -0.23609482775E+01  0.17050505455E+02  0.22985082458E+02  0.00000000000E+00 0. -1.
</event>
<event>
 7    1  0.4623443E-009  0.4614232E+02  0.7816164E-02  0.1320468E+00
        -11   -1    0    0    0    0  0.00000000000E+00  0.00000000000E+00  0.45593999997E+02  0.45594000000E+02  0.51100000000E-03 0. -1.
         11   -1    0    0    0    0 -0.00000000000E+00 -0.00000000000E+00 -0.45593999997E+02  0.45594000000E+02  0.51100000000E-03 0.  1.
    9900012    2    1    2    0    0 -0.30561334735E+01 -0.29991218746E+02 -0.33470886939E+02  0.46142318452E+02  0.10000006299E+02 0.  0.
         12    1    1    2    0    0  0.30561334735E+01  0.29991218746E+02  0.33470886939E+02  0.45045681548E+02  0.00000000000E+00 0. -1.
         11    1    3    3    0    0 -0.75383138735E+00 -0.38299603386E-01 -0.29556577312E+01  0.30505149574E+01  0.51100000000E-03 0. -1.
        -11    1    3    3    0    0 -0.90023382437E-01 -0.20675216045E+02 -0.23169311958E+02  0.31053014017E+02  0.51100000000E-03 0.  1.
        -12    1    3    3    0    0 -0.22122787037E+01 -0.92777030977E+01 -0.73459172500E+01  0.12038789477E+02  0.00000000000E+00 0.  1.
</event>
<event>
 7    1  0.4623443E-009  0.4614232E+02  0.7816164E-02  0.1320468E+00
        -11   -1    0    0    0    0  0.00000000000E+00  0.00000000000E+00  0.45593999997E+02  0.45594000000E+02  0.51100000000E-03 0. -1.
         11   -1    0    0    0    0 -0.00000000000E+00 -0.00000000000E+00 -0.45593999997E+02  0.45594000000E+02  0.51100000000E-03 0.  1.
    9900012    2    1    2    0    0  0.20691859273E+02 -0.23088891890E+01 -0.39945330719E+02  0.46142318123E+02  0.10000003303E+02 0.  0.
         12    1    1    2    0    0 -0.20691859273E+02  0.23088891890E+01  0.39945330719E+02  0.45045681877E+02  0.00000000000E+00 0. -1.
         11    1    3    3    0    0  0.43149794507E+01  0.90017124144E+00 -0.92921358925E+01  0.10284607218E+02  0.51100000000E-03 0. -1.
        -11    1    3    3    0    0  0.11184399503E+02  0.49250197449E+00 -0.24766177163E+02  0.27178978678E+02  0.51100000000E-03 0.  1.
        -12    1    3    3    0    0  0.51924803193E+01 -0.37015624049E+01 -0.58870176640E+01  0.86787322277E+01  0.00000000000E+00 0.  1.
</event>
<event>
 7    1  0.7587714E-009  0.4614232E+02  0.7816164E-02  0.1320468E+00
        -11   -1    0    0    0    0  0.00000000000E+00  0.00000000000E+00  0.45593999997E+02  0.45594000000E+02  0.51100000000E-03 0. -1.
         11   -1    0    0    0    0 -0.00000000000E+00 -0.00000000000E+00 -0.45593999997E+02  0.45594000000E+02  0.51100000000E-03 0.  1.
    9900012    2    1    2    0    0  0.11361287511E+02 -0.21969461550E+02 -0.37648074386E+02  0.46142316525E+02  0.99999887287E+01 0.  0.
         12    1    1    2    0    0 -0.11361287511E+02  0.21969461550E+02  0.37648074386E+02  0.45045683475E+02  0.00000000000E+00 0. -1.
         11    1    3    3    0    0  0.22128975378E+01 -0.54356548580E+01 -0.97376900330E+01  0.11369514796E+02  0.51100000000E-03 0. -1.
        -11    1    3    3    0    0  0.73333198758E+01 -0.15351203855E+02 -0.27813733678E+02  0.32604306794E+02  0.51100000000E-03 0.  1.
         12    1    3    3    0    0  0.18150700974E+01 -0.11826028375E+01 -0.96650675713E-01  0.21684949349E+01  0.00000000000E+00 0. -1.
</event>
<event>
 7    1  0.1051691E-008  0.4614232E+02  0.7816164E-02  0.1320468E+00
        -11   -1    0    0    0    0  0.00000000000E+00  0.00000000000E+00  0.45593999997E+02  0.45594000000E+02  0.51100000000E-03 0. -1.
         11   -1    0    0    0    0 -0.00000000000E+00 -0.00000000000E+00 -0.45593999997E+02  0.45594000000E+02  0.51100000000E-03 0.  1.
    9900012    2    1    2    0    0 -0.35965896763E+01 -0.20914931292E+01 -0.44853135387E+02  0.46142317024E+02  0.99999932749E+01 0.  0.
         12    1    1    2    0    0  0.35965896763E+01  0.20914931292E+01  0.44853135387E+02  0.45045682976E+02  0.00000000000E+00 0. -1.
         11    1    3    3    0    0  0.29888389820E+00 -0.28413267995E+00 -0.10240650996E+02  0.10248950973E+02  0.51100000000E-03 0.  1.
        -11    1    3    3    0    0 -0.42428647161E+01  0.19123371044E+00 -0.33078654023E+02  0.33350199753E+02  0.51100000000E-03 0. -1.
         12    1    3    3    0    0  0.34739114164E+00 -0.19985941597E+01 -0.15338303673E+01  0.25431662974E+01  0.00000000000E+00 0. -1.
</event>
<event>
 7    1  0.4623443E-009  0.4614232E+02  0.7816164E-02  0.1320468E+00
        -11   -1    0    0    0    0  0.00000000000E+00  0.00000000000E+00  0.45593999997E+02  0.45594000000E+02  0.51100000000E-03 0. -1.
         11   -1    0    0    0    0 -0.00000000000E+00 -0.00000000000E+00 -0.45593999997E+02  0.45594000000E+02  0.51100000000E-03 0.  1.
    9900012    2    1    2    0    0 -0.70663086133E+01  0.15057939429E+02  0.41862145717E+02  0.46142317617E+02  0.99999986878E+01 0.  0.
        -12    1    1    2    0    0  0.70663086133E+01 -0.15057939429E+02 -0.41862145717E+02  0.45045682383E+02  0.00000000000E+00 0.  1.
         11    1    3    3    0    0 -0.26327233748E+00  0.10048606275E+02  0.21598737010E+02  0.23823291987E+02  0.51100000000E-03 0. -1.
        -11    1    3    3    0    0 -0.18117088419E+01  0.37959412216E+01  0.85380424614E+01  0.95178583735E+01  0.51100000000E-03 0.  1.
        -12    1    3    3    0    0 -0.49913274339E+01  0.12133919319E+01  0.11725366246E+02  0.12801167256E+02  0.00000000000E+00 0.  1.
</event>
<event>
 7    1  0.4623443E-009  0.4614232E+02  0.7816164E-02  0.1320468E+00
        -11   -1    0    0    0    0  0.00000000000E+00  0.00000000000E+00  0.45593999997E+02  0.45594000000E+02  0.51100000000E-03 0. -1.
         11   -1    0    0    0    0 -0.00000000000E+00 -0.00000000000E+00 -0.45593999997E+02  0.45594000000E+02  0.51100000000E-03 0.  1.
    9900012    2    1    2    0    0 -0.32708669602E+02  0.11111087636E+00 -0.30971666978E+02  0.46142316876E+02  0.99999919261E+01 0.  0.
         12    1    1    2    0    0  0.32708669602E+02 -0.11111087636E+00  0.30971666978E+02  0.45045683124E+02  0.00000000000E+00 0. -1.
         11    1    3    3    0    0 -0.49870804627E+00 -0.11713234222E+01 -0.10421790070E+00  0.12773292084E+01  0.51100000000E-03 0. -1.
        -11    1    3    3    0    0 -0.62022400153E+01  0.15808807165E+01 -0.78905880057E+01  0.10160135057E+02  0.51100000000E-03 0.  1.
         12    1    3    3    0    0 -0.26007721540E+02 -0.29844641790E+00 -0.22976861072E+02  0.34704852610E+02  0.00000000000E+00 0. -1.
</event>
<event>
 7    1  0.4623443E-009  0.4614232E+02  0.7816164E-02  0.1320468E+00
        -11   -1    0    0    0    0  0.00000000000E+00  0.00000000000E+00  0.45593999997E+02  0.45594000000E+02  0.51100000000E-03 0. -1.
         11   -1    0    0    0    0 -0.00000000000E+00 -0.00000000000E+00 -0.45593999997E+02  0.45594000000E+02  0.51100000000E-03 0.  1.
    9900012    2    1    2    0    0  0.32230809378E+02  0.17437818833E+02 -0.26195623339E+02  0.46142320063E+02  0.10000020994E+02 0.  0.
         12    1    1    2    0    0 -0.32230809378E+02 -0.17437818833E+02  0.26195623339E+02  0.45045679937E+02  0.00000000000E+00 0. -1.
         11    1    3    3    0    0  0.49226404330E+01  0.34800288781E+01 -0.76937833721E+01  0.97743180152E+01  0.51100000000E-03 0. -1.
        -11    1    3    3    0    0  0.11834498301E+02  0.95663505173E+01 -0.85898135246E+01  0.17474418700E+02  0.51100000000E-03 0.  1.
        -12    1    3    3    0    0  0.15473670644E+02  0.43914394373E+01 -0.99120264424E+01  0.18893583348E+02  0.00000000000E+00 0.  1.
</event>
<event>
 7    1  0.4623443E-009  0.4614232E+02  0.7816164E-02  0.1320468E+00
        -11   -1    0    0    0    0  0.00000000000E+00  0.00000000000E+00  0.45593999997E+02  0.45594000000E+02  0.51100000000E-03 0. -1.
         11   -1    0    0    0    0 -0.00000000000E+00 -0.00000000000E+00 -0.45593999997E+02  0.45594000000E+02  0.51100000000E-03 0.  1.
    9900012    2    1    2    0    0  0.12260028509E+02 -0.18344744777E+01 -0.43306350209E+02  0.46142316921E+02  0.99999923387E+01 0.  0.
         12    1    1    2    0    0 -0.12260028509E+02  0.18344744777E+01  0.43306350209E+02  0.45045683079E+02  0.00000000000E+00 0. -1.
         11    1    3    3    0    0  0.16034668364E+01 -0.41310960631E+01 -0.15619723102E+02  0.16236157508E+02  0.51100000000E-03 0. -1.
        -11    1    3    3    0    0  0.19474057691E+01  0.12157900075E+01 -0.35911963947E+01  0.42623029430E+01  0.51100000000E-03 0.  1.
         12    1    3    3    0    0  0.87091559033E+01  0.10808315779E+01 -0.24095430712E+02  0.25643856470E+02  0.00000000000E+00 0. -1.
</event>
<event>
 7    1  0.4623443E-009  0.4614232E+02  0.7816164E-02  0.1320468E+00
        -11   -1    0    0    0    0  0.00000000000E+00  0.00000000000E+00  0.45593999997E+02  0.45594000000E+02  0.51100000000E-03 0. -1.
         11   -1    0    0    0    0 -0.00000000000E+00 -0.00000000000E+00 -0.45593999997E+02  0.45594000000E+02  0.51100000000E-03 0.  1.
    9900012    2    1    2    0    0 -0.14030255567E+02 -0.15751411429E+02 -0.39801488339E+02  0.46142317551E+02  0.99999980885E+01 0.  0.
         12    1    1    2    0    0  0.14030255567E+02  0.15751411429E+02  0.39801488339E+02  0.45045682449E+02  0.00000000000E+00 0. -1.
         11    1    3    3    0    0 -0.55137371570E+01 -0.12871852640E+02 -0.22817309141E+02  0.26771542438E+02  0.51100000000E-03 0.  1.
        -11    1    3    3    0    0 -0.32773281559E+01 -0.23751663070E+01 -0.76594431487E+01  0.86631036261E+01  0.51100000000E-03 0. -1.
        -12    1    3    3    0    0 -0.52391902537E+01 -0.50439248166E+00 -0.93247360491E+01  0.10707671487E+02  0.00000000000E+00 0.  1.
</event>
<event>
 7    1  0.4623443E-009  0.4614232E+02  0.7816164E-02  0.1320468E+00
        -11   -1    0    0    0    0  0.00000000000E+00  0.00000000000E+00  0.45593999997E+02  0.45594000000E+02  0.51100000000E-03 0. -1.
         11   -1    0    0    0    0 -0.00000000000E+00 -0.00000000000E+00 -0.45593999997E+02  0.45594000000E+02  0.51100000000E-03 0.  1.
    9900012    2    1    2    0    0 -0.33855667080E+00  0.36616308000E+02  0.26234423149E+02  0.46142316631E+02  0.99999896987E+01 0.  0.
        -12    1    1    2    0    0  0.33855667080E+00 -0.36616308000E+02 -0.26234423149E+02  0.45045683369E+02  0.00000000000E+00 0.  1.
         11    1    3    3    0    0  0.12057939079E+01  0.13623567560E+02  0.10773705440E+02  0.17410579002E+02  0.51100000000E-03 0. -1.
        -11    1    3    3    0    0 -0.27170287892E+00  0.18253096144E+02  0.15304408062E+02  0.23821717983E+02  0.51100000000E-03 0.  1.
        -12    1    3    3    0    0 -0.12726476998E+01  0.47396442955E+01  0.15630964723E+00  0.49100196458E+01  0.00000000000E+00 0.  1.
</event>
<event>
 7    1  0.4623443E-009  0.4614232E+02  0.7816164E-02  0.1320468E+00
        -11   -1    0    0    0    0  0.00000000000E+00  0.00000000000E+00  0.45593999997E+02  0.45594000000E+02  0.51100000000E-03 0.  1.
         11   -1    0    0    0    0 -0.00000000000E+00 -0.00000000000E+00 -0.45593999997E+02  0.45594000000E+02  0.51100000000E-03 0. -1.
    9900012    2    1    2    0    0 -0.42148064921E+02  0.69348342461E+01 -0.14302513342E+02  0.46142321067E+02  0.10000030146E+02 0.  0.
        -12    1    1    2    0    0  0.42148064921E+02 -0.69348342461E+01  0.14302513342E+02  0.45045678933E+02  0.00000000000E+00 0.  1.
         11    1    3    3    0    0 -0.34031210578E+01 -0.32258966671E+00  0.66944456852E+00  0.34833106836E+01  0.51100000000E-03 0. -1.
        -11    1    3    3    0    0 -0.18868677252E+02  0.27183731059E+01 -0.10582793347E+02  0.21803945718E+02  0.51100000000E-03 0.  1.
         12    1    3    3    0    0 -0.19876266611E+02  0.45390508069E+01 -0.43891645634E+01  0.20855064665E+02  0.00000000000E+00 0. -1.
</event>
<event>
 7    1  0.4623443E-009  0.4614232E+02  0.7816164E-02  0.1320468E+00
        -11   -1    0    0    0    0  0.00000000000E+00  0.00000000000E+00  0.45593999997E+02  0.45594000000E+02  0.51100000000E-03 0.  1.
         11   -1    0    0    0    0 -0.00000000000E+00 -0.00000000000E+00 -0.45593999997E+02  0.45594000000E+02  0.51100000000E-03 0. -1.
    9900012    2    1    2    0    0 -0.72904972051E+01  0.42314323171E+02  0.13618377144E+02  0.46142317733E+02  0.99999997409E+01 0.  0.
        -12    1    1    2    0    0  0.72904972051E+01 -0.42314323171E+02 -0.13618377144E+02  0.45045682267E+02  0.00000000000E+00 0.  1.
         11    1    3    3    0    0  0.11761607078E+01  0.20232007754E+01 -0.16311742242E+00  0.23459119640E+01  0.51100000000E-03 0. -1.
        -11    1    3    3    0    0  0.64693726516E-01  0.40248127411E+01 -0.13041026350E+00  0.40274445964E+01  0.51100000000E-03 0.  1.
         12    1    3    3    0    0 -0.85313516394E+01  0.36266309654E+02  0.13911904830E+02  0.39768961172E+02  0.00000000000E+00 0. -1.
</event>
<event>
 7    1  0.4623443E-009  0.4614232E+02  0.7816164E-02  0.1320468E+00
        -11   -1    0    0    0    0  0.00000000000E+00  0.00000000000E+00  0.45593999997E+02  0.45594000000E+02  0.51100000000E-03 0. -1.
         11   -1    0    0    0    0 -0.00000000000E+00 -0.00000000000E+00 -0.45593999997E+02  0.45594000000E+02  0.51100000000E-03 0.  1.
    9900012    2    1    2    0    0 -0.23927939484E+02 -0.12965220235E+02 -0.35895266590E+02  0.46142318884E+02  0.10000010236E+02 0.  0.
         12    1    1    2    0    0  0.23927939484E+02  0.12965220235E+02  0.35895266590E+02  0.45045681116E+02  0.00000000000E+00 0. -1.
         11    1    3    3    0    0 -0.40838960549E+01 -0.26330520264E+01 -0.91547248364E+01  0.10364369593E+02  0.51100000000E-03 0. -1.
        -11    1    3    3    0    0 -0.33557357860E+01 -0.41123054008E+01 -0.10718944030E+02  0.11961094421E+02  0.51100000000E-03 0.  1.
         12    1    3    3    0    0 -0.16488307643E+02 -0.62198628076E+01 -0.16021597724E+02  0.23816854870E+02  0.00000000000E+00 0. -1.
</event>
<event>
 7    1  0.4623443E-009  0.4614232E+02  0.7816164E-02  0.1320468E+00
        -11   -1    0    0    0    0  0.00000000000E+00  0.00000000000E+00  0.45593999997E+02  0.45594000000E+02  0.51100000000E-03 0. -1.
         11   -1    0    0    0    0 -0.00000000000E+00 -0.00000000000E+00 -0.45593999997E+02  0.45594000000E+02  0.51100000000E-03 0.  1.
    9900012    2    1    2    0    0  0.97146821833E+00 -0.36690712183E+02  0.26114390665E+02  0.46142317512E+02  0.99999977290E+01 0.  0.
        -12    1    1    2    0    0 -0.97146821833E+00  0.36690712183E+02 -0.26114390665E+02  0.45045682488E+02  0.00000000000E+00 0.  1.
         11    1    3    3    0    0  0.10558284733E+01 -0.68534101703E+01  0.80876939887E+01  0.10653393781E+02  0.51100000000E-03 0. -1.
        -11    1    3    3    0    0  0.55594878529E+00 -0.71837803401E+01  0.12989816269E+01  0.73214160211E+01  0.51100000000E-03 0.  1.
         12    1    3    3    0    0 -0.64030904021E+00 -0.22653521673E+02  0.16727715049E+02  0.28167507710E+02  0.00000000000E+00 0. -1.
</event>
<event>
 7    1  0.4623443E-009  0.4614232E+02  0.7816164E-02  0.1320468E+00
        -11   -1    0    0    0    0  0.00000000000E+00  0.00000000000E+00  0.45593999997E+02  0.45594000000E+02  0.51100000000E-03 0. -1.
         11   -1    0    0    0    0 -0.00000000000E+00 -0.00000000000E+00 -0.45593999997E+02  0.45594000000E+02  0.51100000000E-03 0.  1.
    9900012    2    1    2    0    0 -0.29570299549E+02 -0.27082458715E+02  0.20524408073E+02  0.46142317497E+02  0.99999975880E+01 0.  0.
        -12    1    1    2    0    0  0.29570299549E+02  0.27082458715E+02 -0.20524408073E+02  0.45045682503E+02  0.00000000000E+00 0.  1.
         11    1    3    3    0    0 -0.98556943426E+01 -0.97249102845E+01  0.35466558564E+01  0.14292912896E+02  0.51100000000E-03 0. -1.
        -11    1    3    3    0    0 -0.48536793782E+01 -0.61859321580E+01  0.23908362039E+01  0.82182758644E+01  0.51100000000E-03 0.  1.
        -12    1    3    3    0    0 -0.14860925828E+02 -0.11171616273E+02  0.14586916013E+02  0.23631128737E+02  0.00000000000E+00 0.  1.
</event>
<event>
 7    1  0.4623443E-009  0.4614232E+02  0.7816164E-02  0.1320468E+00
        -11   -1    0    0    0    0  0.00000000000E+00  0.00000000000E+00  0.45593999997E+02  0.45594000000E+02  0.51100000000E-03 0. -1.
         11   -1    0    0    0    0 -0.00000000000E+00 -0.00000000000E+00 -0.45593999997E+02  0.45594000000E+02  0.51100000000E-03 0.  1.
    9900012    2    1    2    0    0  0.65197095324E+01 -0.58142784731E+01  0.44190507743E+02  0.46142318508E+02  0.10000006810E+02 0.  0.
        -12    1    1    2    0    0 -0.65197095324E+01  0.58142784731E+01 -0.44190507743E+02  0.45045681492E+02  0.00000000000E+00 0.  1.
         11    1    3    3    0    0  0.41325986988E+01 -0.10643388907E+01  0.12049256136E+02  0.12782635213E+02  0.51100000000E-03 0. -1.
        -11    1    3    3    0    0  0.74551090036E+00 -0.13703473751E+01  0.26710005416E+02  0.26755523318E+02  0.51100000000E-03 0.  1.
        -12    1    3    3    0    0  0.16415999332E+01 -0.33795922073E+01  0.54312461906E+01  0.66041599777E+01  0.00000000000E+00 0.  1.
</event>
<event>
 7    1  0.4623443E-009  0.4614232E+02  0.7816164E-02  0.1320468E+00
        -11   -1    0    0    0    0  0.00000000000E+00  0.00000000000E+00  0.45593999997E+02  0.45594000000E+02  0.51100000000E-03 0. -1.
         11   -1    0    0    0    0 -0.00000000000E+00 -0.00000000000E+00 -0.45593999997E+02  0.45594000000E+02  0.51100000000E-03 0.  1.
    9900012    2    1    2    0    0  0.10408925155E+02 -0.12639570625E+02 -0.41964378285E+02  0.46142317484E+02  0.99999974741E+01 0.  0.
         12    1    1    2    0    0 -0.10408925155E+02  0.12639570625E+02  0.41964378285E+02  0.45045682516E+02  0.00000000000E+00 0. -1.
         11    1    3    3    0    0  0.49725130094E+01 -0.35980790792E+01 -0.14363536276E+02  0.15619962654E+02  0.51100000000E-03 0. -1.
        -11    1    3    3    0    0  0.22527554983E+01 -0.76624157282E+01 -0.24827899623E+02  0.26080876559E+02  0.51100000000E-03 0.  1.
         12    1    3    3    0    0  0.31836566478E+01 -0.13790758171E+01 -0.27729423861E+01  0.44414782716E+01  0.00000000000E+00 0. -1.
</event>
<event>
 7    1  0.4623443E-009  0.4614232E+02  0.7816164E-02  0.1320468E+00
        -11   -1    0    0    0    0  0.00000000000E+00  0.00000000000E+00  0.45593999997E+02  0.45594000000E+02  0.51100000000E-03 0. -1.
         11   -1    0    0    0    0 -0.00000000000E+00 -0.00000000000E+00 -0.45593999997E+02  0.45594000000E+02  0.51100000000E-03 0.  1.
    9900012    2    1    2    0    0  0.13413480144E+02  0.95179095693E+01 -0.41935681135E+02  0.46142318694E+02  0.10000008503E+02 0.  0.
         12    1    1    2    0    0 -0.13413480144E+02 -0.95179095693E+01  0.41935681135E+02  0.45045681306E+02  0.00000000000E+00 0. -1.
         11    1    3    3    0    0  0.54510642585E+01  0.79097499477E+01 -0.24942590964E+02  0.26728469654E+02  0.51100000000E-03 0. -1.
        -11    1    3    3    0    0 -0.49805172492E+00 -0.14211901362E+00 -0.25447644443E+00  0.57707179503E+00  0.51100000000E-03 0.  1.
        -12    1    3    3    0    0  0.84604676103E+01  0.17502786353E+01 -0.16738613726E+02  0.18836777244E+02  0.00000000000E+00 0.  1.
</event>
<event>
 7    1  0.4623443E-009  0.4614232E+02  0.7816164E-02  0.1320468E+00
        -11   -1    0    0    0    0  0.00000000000E+00  0.00000000000E+00  0.45593999997E+02  0.45594000000E+02  0.51100000000E-03 0. -1.
         11   -1    0    0    0    0 -0.00000000000E+00 -0.00000000000E+00 -0.45593999997E+02  0.45594000000E+02  0.51100000000E-03 0.  1.
    9900012    2    1    2    0    0 -0.17624523926E+01 -0.37656012034E+02  0.24658305053E+02  0.46142317756E+02  0.99999999535E+01 0.  0.
        -12    1    1    2    0    0  0.17624523926E+01  0.37656012034E+02 -0.24658305053E+02  0.45045682244E+02  0.00000000000E+00 0.  1.
         11    1    3    3    0    0  0.63179029164E+00 -0.20338230143E+02  0.14211829373E+02  0.24819727209E+02  0.51100000000E-03 0. -1.
        -11    1    3    3    0    0 -0.14641314131E+01 -0.17408273240E+02  0.10507235825E+02  0.20386114463E+02  0.51100000000E-03 0.  1.
        -12    1    3    3    0    0 -0.93011127121E+00  0.90491349002E-01 -0.60760143808E-01  0.93647608413E+00  0.00000000000E+00 0.  1.
</event>
<event>
 7    1  0.4623443E-009  0.4614232E+02  0.7816164E-02  0.1320468E+00
        -11   -1    0    0    0    0  0.00000000000E+00  0.00000000000E+00  0.45593999997E+02  0.45594000000E+02  0.51100000000E-03 0. -1.
         11   -1    0    0    0    0 -0.00000000000E+00 -0.00000000000E+00 -0.45593999997E+02  0.45594000000E+02  0.51100000000E-03 0.  1.
    9900012    2    1    2    0    0 -0.40493884820E+01  0.20844396894E+02 -0.39726905843E+02  0.46142317890E+02  0.10000001172E+02 0.  0.
         12    1    1    2    0    0  0.40493884820E+01 -0.20844396894E+02  0.39726905843E+02  0.45045682110E+02  0.00000000000E+00 0. -1.
         11    1    3    3    0    0  0.14887231603E+00  0.54110718199E+01 -0.11056359085E+02  0.12310358958E+02  0.51100000000E-03 0. -1.
        -11    1    3    3    0    0 -0.32227940309E+01  0.76559464999E+01 -0.72613811595E+01  0.11033022015E+02  0.51100000000E-03 0.  1.
         12    1    3    3    0    0 -0.97546676710E+00  0.77773785738E+01 -0.21409165599E+02  0.22798936917E+02  0.00000000000E+00 0. -1.
</event>
<event>
 7    1  0.4623443E-009  0.4614232E+02  0.7816164E-02  0.1320468E+00
        -11   -1    0    0    0    0  0.00000000000E+00  0.00000000000E+00  0.45593999997E+02  0.45594000000E+02  0.51100000000E-03 0. -1.
         11   -1    0    0    0    0 -0.00000000000E+00 -0.00000000000E+00 -0.45593999997E+02  0.45594000000E+02  0.51100000000E-03 0.  1.
    9900012    2    1    2    0    0 -0.10190830006E+02  0.23639028237E+02 -0.36965616239E+02  0.46142318118E+02  0.10000003258E+02 0.  0.
         12    1    1    2    0    0  0.10190830006E+02 -0.23639028237E+02  0.36965616239E+02  0.45045681882E+02  0.00000000000E+00 0. -1.
         11    1    3    3    0    0 -0.15123248144E+01  0.80793925412E+01 -0.94502438597E+01  0.12524808160E+02  0.51100000000E-03 0. -1.
        -11    1    3    3    0    0  0.79714240084E+00  0.47750225471E+01 -0.86297928166E+01  0.98949280265E+01  0.51100000000E-03 0.  1.
        -12    1    3    3    0    0 -0.94756475927E+01  0.10784613149E+02 -0.18885579563E+02  0.23722581932E+02  0.00000000000E+00 0.  1.
</event>
<event>
 7    1  0.4623443E-009  0.4614232E+02  0.7816164E-02  0.1320468E+00
        -11   -1    0    0    0    0  0.00000000000E+00  0.00000000000E+00  0.45593999997E+02  0.45594000000E+02  0.51100000000E-03 0. -1.
         11   -1    0    0    0    0 -0.00000000000E+00 -0.00000000000E+00 -0.45593999997E+02  0.45594000000E+02  0.51100000000E-03 0.  1.
    9900012    2    1    2    0    0 -0.66373859486E+01  0.16315255386E+02  0.41459270193E+02  0.46142317239E+02  0.99999952363E+01 0.  0.
        -12    1    1    2    0    0  0.66373859486E+01 -0.16315255386E+02 -0.41459270193E+02  0.45045682761E+02  0.00000000000E+00 0.  1.
         11    1    3    3    0    0 -0.11519275701E+01  0.11036488731E+02  0.28640176255E+02  0.30714666152E+02  0.51100000000E-03 0. -1.
        -11    1    3    3    0    0 -0.20210886829E+01  0.51181486479E+00  0.12151734623E+01  0.24131723362E+01  0.51100000000E-03 0.  1.
         12    1    3    3    0    0 -0.34643696957E+01  0.47669517899E+01  0.11603920475E+02  0.13014478751E+02  0.00000000000E+00 0. -1.
</event>
<event>
 7    1  0.4623443E-009  0.4614232E+02  0.7816164E-02  0.1320468E+00
        -11   -1    0    0    0    0  0.00000000000E+00  0.00000000000E+00  0.45593999997E+02  0.45594000000E+02  0.51100000000E-03 0. -1.
         11   -1    0    0    0    0 -0.00000000000E+00 -0.00000000000E+00 -0.45593999997E+02  0.45594000000E+02  0.51100000000E-03 0.  1.
    9900012    2    1    2    0    0 -0.93098558724E+01  0.19344253952E+01 -0.44030649017E+02  0.46142317956E+02  0.10000001774E+02 0.  0.
         12    1    1    2    0    0  0.93098558724E+01 -0.19344253952E+01  0.44030649017E+02  0.45045682044E+02  0.00000000000E+00 0. -1.
         11    1    3    3    0    0 -0.55682480271E+00  0.26765509274E+01 -0.44714725929E+01  0.52409966742E+01  0.51100000000E-03 0. -1.
        -11    1    3    3    0    0 -0.21993122340E+01 -0.21750399710E+01 -0.69200162482E+01  0.75798679615E+01  0.51100000000E-03 0.  1.
        -12    1    3    3    0    0 -0.65537188357E+01  0.14329144388E+01 -0.32639160176E+02  0.33321453320E+02  0.00000000000E+00 0.  1.
</event>
<event>
 7    1  0.4623443E-009  0.4614232E+02  0.7816164E-02  0.1320468E+00
        -11   -1    0    0    0    0  0.00000000000E+00  0.00000000000E+00  0.45593999997E+02  0.45594000000E+02  0.51100000000E-03 0. -1.
         11   -1    0    0    0    0 -0.00000000000E+00 -0.00000000000E+00 -0.45593999997E+02  0.45594000000E+02  0.51100000000E-03 0.  1.
    9900012    2    1    2    0    0 -0.32997012577E+00  0.43330442855E+02 -0.12307611157E+02  0.46142318180E+02  0.10000003816E+02 0.  0.
         12    1    1    2    0    0  0.32997012577E+00 -0.43330442855E+02  0.12307611157E+02  0.45045681820E+02  0.00000000000E+00 0. -1.
         11    1    3    3    0    0 -0.19130595459E+01  0.76536857256E+01  0.55098038900E+00  0.79083678255E+01  0.51100000000E-03 0. -1.
        -11    1    3    3    0    0  0.12220262985E+01  0.12282766989E+02 -0.22601642450E+01  0.12548627648E+02  0.51100000000E-03 0.  1.
        -12    1    3    3    0    0  0.36106312168E+00  0.23393990140E+02 -0.10598427301E+02  0.25685322706E+02  0.00000000000E+00 0.  1.
</event>
<event>
 7    1  0.4623443E-009  0.4614232E+02  0.7816164E-02  0.1320468E+00
        -11   -1    0    0    0    0  0.00000000000E+00  0.00000000000E+00  0.45593999997E+02  0.45594000000E+02  0.51100000000E-03 0. -1.
         11   -1    0    0    0    0 -0.00000000000E+00 -0.00000000000E+00 -0.45593999997E+02  0.45594000000E+02  0.51100000000E-03 0.  1.
    9900012    2    1    2    0    0  0.21444174522E+02 -0.26857369562E+02  0.29119453338E+02  0.46142317816E+02  0.10000000501E+02 0.  0.
        -12    1    1    2    0    0 -0.21444174522E+02  0.26857369562E+02 -0.29119453338E+02  0.45045682184E+02  0.00000000000E+00 0.  1.
         11    1    3    3    0    0  0.81412267254E+01 -0.12055037213E+02  0.88599795194E+01  0.17032402419E+02  0.51100000000E-03 0. -1.
        -11    1    3    3    0    0  0.93036264095E+01 -0.56332347664E+01  0.98609766434E+01  0.14680928408E+02  0.51100000000E-03 0.  1.
        -12    1    3    3    0    0  0.39993213871E+01 -0.91690975816E+01  0.10398497176E+02  0.14428986989E+02  0.00000000000E+00 0.  1.
</event>
<event>
 7    1  0.4623443E-009  0.4614232E+02  0.7816164E-02  0.1320468E+00
        -11   -1    0    0    0    0  0.00000000000E+00  0.00000000000E+00  0.45593999997E+02  0.45594000000E+02  0.51100000000E-03 0. -1.
         11   -1    0    0    0    0 -0.00000000000E+00 -0.00000000000E+00 -0.45593999997E+02  0.45594000000E+02  0.51100000000E-03 0.  1.
    9900012    2    1    2    0    0 -0.15215829180E+02 -0.71613140161E+01  0.41788844963E+02  0.46142318305E+02  0.10000004958E+02 0.  0.
        -12    1    1    2    0    0  0.15215829180E+02  0.71613140161E+01 -0.41788844963E+02  0.45045681695E+02  0.00000000000E+00 0.  1.
         11    1    3    3    0    0 -0.79778320741E+01 -0.51359994301E+01  0.16938249115E+02  0.19414648545E+02  0.51100000000E-03 0. -1.
        -11    1    3    3    0    0 -0.77416585634E+01 -0.34596185922E+00  0.16989085058E+02  0.18673028096E+02  0.51100000000E-03 0.  1.
        -12    1    3    3    0    0  0.50366145736E+00 -0.16793527268E+01  0.78615107892E+01  0.80546416638E+01  0.00000000000E+00 0.  1.
</event>
<event>
 7    1  0.4623443E-009  0.4614232E+02  0.7816164E-02  0.1320468E+00
        -11   -1    0    0    0    0  0.00000000000E+00  0.00000000000E+00  0.45593999997E+02  0.45594000000E+02  0.51100000000E-03 0. -1.
         11   -1    0    0    0    0 -0.00000000000E+00 -0.00000000000E+00 -0.45593999997E+02  0.45594000000E+02  0.51100000000E-03 0.  1.
    9900012    2    1    2    0    0  0.10258595682E+02  0.30957651791E+02  0.31072468826E+02  0.46142319755E+02  0.10000018180E+02 0.  0.
        -12    1    1    2    0    0 -0.10258595682E+02 -0.30957651791E+02 -0.31072468826E+02  0.45045680245E+02  0.00000000000E+00 0.  1.
         11    1    3    3    0    0  0.39892907603E+01  0.12537589209E+02  0.10523687158E+02  0.16847954641E+02  0.51100000000E-03 0. -1.
        -11    1    3    3    0    0  0.42957191223E+01  0.12003103884E+02  0.79666320270E+01  0.15033127809E+02  0.51100000000E-03 0.  1.
         12    1    3    3    0    0  0.19735857997E+01  0.64169586988E+01  0.12582149641E+02  0.14261237304E+02  0.00000000000E+00 0. -1.
</event>
<event>
 7    1  0.4623443E-009  0.4614232E+02  0.7816164E-02  0.1320468E+00
        -11   -1    0    0    0    0  0.00000000000E+00  0.00000000000E+00  0.45593999997E+02  0.45594000000E+02  0.51100000000E-03 0. -1.
         11   -1    0    0    0    0 -0.00000000000E+00 -0.00000000000E+00 -0.45593999997E+02  0.45594000000E+02  0.51100000000E-03 0.  1.
    9900012    2    1    2    0    0 -0.30732576712E+02 -0.24331927571E+02 -0.22194132422E+02  0.46142317802E+02  0.10000000372E+02 0.  0.
         12    1    1    2    0    0  0.30732576712E+02  0.24331927571E+02  0.22194132422E+02  0.45045682198E+02  0.00000000000E+00 0. -1.
         11    1    3    3    0    0 -0.64791838942E+01 -0.13686999839E+01 -0.19445762965E+01  0.69017780908E+01  0.51100000000E-03 0. -1.
        -11    1    3    3    0    0 -0.17318361568E+02 -0.14238053505E+02 -0.12541371415E+02  0.25689176948E+02  0.51100000000E-03 0.  1.
         12    1    3    3    0    0 -0.69350312498E+01 -0.87251740825E+01 -0.77081847113E+01  0.13551362763E+02  0.00000000000E+00 0. -1.
</event>
<event>
 7    1  0.4623443E-009  0.4614232E+02  0.7816164E-02  0.1320468E+00
        -11   -1    0    0    0    0  0.00000000000E+00  0.00000000000E+00  0.45593999997E+02  0.45594000000E+02  0.51100000000E-03 0. -1.
         11   -1    0    0    0    0 -0.00000000000E+00 -0.00000000000E+00 -0.45593999997E+02  0.45594000000E+02  0.51100000000E-03 0.  1.
    9900012    2    1    2    0    0 -0.18658418138E+01  0.12346006669E+02 -0.43280575855E+02  0.46142317713E+02  0.99999995581E+01 0.  0.
         12    1    1    2    0    0  0.18658418138E+01 -0.12346006669E+02  0.43280575855E+02  0.45045682287E+02  0.00000000000E+00 0. -1.
         11    1    3    3    0    0 -0.91882520720E+00  0.43245067991E+01 -0.30189804098E+02  0.30511798875E+02  0.51100000000E-03 0. -1.
        -11    1    3    3    0    0 -0.11185546905E+01  0.11530070695E+01 -0.17908135120E+01  0.24057437922E+01  0.51100000000E-03 0.  1.
         12    1    3    3    0    0  0.17153808385E+00  0.68684928007E+01 -0.11299958245E+02  0.13224775046E+02  0.00000000000E+00 0. -1.
</event>
<event>
 7    1  0.4623443E-009  0.4614232E+02  0.7816164E-02  0.1320468E+00
        -11   -1    0    0    0    0  0.00000000000E+00  0.00000000000E+00  0.45593999997E+02  0.45594000000E+02  0.51100000000E-03 0. -1.
         11   -1    0    0    0    0 -0.00000000000E+00 -0.00000000000E+00 -0.45593999997E+02  0.45594000000E+02  0.51100000000E-03 0.  1.
    9900012    2    1    2    0    0 -0.84538458132E+01  0.33551191085E+02 -0.28843778187E+02  0.46142317939E+02  0.10000001619E+02 0.  0.
         12    1    1    2    0    0  0.84538458132E+01 -0.33551191085E+02  0.28843778187E+02  0.45045682061E+02  0.00000000000E+00 0. -1.
         11    1    3    3    0    0 -0.27851873712E+01  0.13275639307E+02 -0.15769851897E+02  0.20801156142E+02  0.51100000000E-03 0. -1.
        -11    1    3    3    0    0 -0.30019898646E+01  0.12920456249E+02 -0.52179816009E+01  0.14254033292E+02  0.51100000000E-03 0.  1.
        -12    1    3    3    0    0 -0.26666685774E+01  0.73550955296E+01 -0.78559446885E+01  0.11087128506E+02  0.00000000000E+00 0.  1.
</event>
<event>
 7    1  0.4623443E-009  0.4614232E+02  0.7816164E-02  0.1320468E+00
        -11   -1    0    0    0    0  0.00000000000E+00  0.00000000000E+00  0.45593999997E+02  0.45594000000E+02  0.51100000000E-03 0. -1.
         11   -1    0    0    0    0 -0.00000000000E+00 -0.00000000000E+00 -0.45593999997E+02  0.45594000000E+02  0.51100000000E-03 0.  1.
    9900012    2    1    2    0    0  0.13592544069E+02 -0.26649156321E+02 -0.33677569573E+02  0.46142317863E+02  0.10000000927E+02 0.  0.
         12    1    1    2    0    0 -0.13592544069E+02  0.26649156321E+02  0.33677569573E+02  0.45045682137E+02  0.00000000000E+00 0. -1.
         11    1    3    3    0    0  0.85125809295E+01 -0.95948604742E+01 -0.19010806939E+02  0.22933298113E+02  0.51100000000E-03 0. -1.
        -11    1    3    3    0    0  0.35849643796E+01 -0.12180799528E+02 -0.11932533182E+02  0.17424385072E+02  0.51100000000E-03 0.  1.
         12    1    3    3    0    0  0.14949987595E+01 -0.48734963184E+01 -0.27342294520E+01  0.57846346776E+01  0.00000000000E+00 0. -1.
</event>
<event>
 7    1  0.4623443E-009  0.4614232E+02  0.7816164E-02  0.1320468E+00
        -11   -1    0    0    0    0  0.00000000000E+00  0.00000000000E+00  0.45593999997E+02  0.45594000000E+02  0.51100000000E-03 0. -1.
         11   -1    0    0    0    0 -0.00000000000E+00 -0.00000000000E+00 -0.45593999997E+02  0.45594000000E+02  0.51100000000E-03 0.  1.
    9900012    2    1    2    0    0  0.33445171435E+02  0.74249586498E+01  0.29247288790E+02  0.46142318688E+02  0.10000008456E+02 0.  0.
        -12    1    1    2    0    0 -0.33445171435E+02 -0.74249586498E+01 -0.29247288790E+02  0.45045681312E+02  0.00000000000E+00 0.  1.
         11    1    3    3    0    0  0.29165010274E+01 -0.44539262351E+00  0.39267872802E+01  0.49116200420E+01  0.51100000000E-03 0. -1.
        -11    1    3    3    0    0  0.23069526562E+02  0.22686784079E+01  0.17234188786E+02  0.28885415366E+02  0.51100000000E-03 0.  1.
         12    1    3    3    0    0  0.74591438456E+01  0.56016728655E+01  0.80863127239E+01  0.12345283280E+02  0.00000000000E+00 0. -1.
</event>
<event>
 7    1  0.4623443E-009  0.4614232E+02  0.7816164E-02  0.1320468E+00
        -11   -1    0    0    0    0  0.00000000000E+00  0.00000000000E+00  0.45593999997E+02  0.45594000000E+02  0.51100000000E-03 0. -1.
         11   -1    0    0    0    0 -0.00000000000E+00 -0.00000000000E+00 -0.45593999997E+02  0.45594000000E+02  0.51100000000E-03 0.  1.
    9900012    2    1    2    0    0 -0.54304594799E+01 -0.38010907111E+02  0.23554080765E+02  0.46142315743E+02  0.99999815927E+01 0.  0.
        -12    1    1    2    0    0  0.54304594799E+01  0.38010907111E+02 -0.23554080765E+02  0.45045684257E+02  0.00000000000E+00 0.  1.
         11    1    3    3    0    0  0.13075126834E+01 -0.55961820365E+01  0.67899025852E+01  0.88954831337E+01  0.51100000000E-03 0. -1.
        -11    1    3    3    0    0 -0.64881215265E+00 -0.85944228452E+01  0.34191953730E+01  0.92723221747E+01  0.51100000000E-03 0.  1.
         12    1    3    3    0    0 -0.60891600107E+01 -0.23820302229E+02  0.13344982806E+02  0.27974510434E+02  0.00000000000E+00 0. -1.
</event>
<event>
 7    1  0.4623443E-009  0.4614232E+02  0.7816164E-02  0.1320468E+00
        -11   -1    0    0    0    0  0.00000000000E+00  0.00000000000E+00  0.45593999997E+02  0.45594000000E+02  0.51100000000E-03 0. -1.
         11   -1    0    0    0    0 -0.00000000000E+00 -0.00000000000E+00 -0.45593999997E+02  0.45594000000E+02  0.51100000000E-03 0.  1.
    9900012    2    1    2    0    0 -0.28213412622E+02 -0.70363556427E+01  0.34403583983E+02  0.46142317150E+02  0.99999944275E+01 0.  0.
        -12    1    1    2    0    0  0.28213412622E+02  0.70363556427E+01 -0.34403583983E+02  0.45045682850E+02  0.00000000000E+00 0.  1.
         11    1    3    3    0    0 -0.16822074730E+01 -0.40431903675E+00  0.60505324731E+01  0.62930310133E+01  0.51100000000E-03 0. -1.
        -11    1    3    3    0    0 -0.21745542296E+02 -0.59671811707E+01  0.26177353138E+02  0.34550393318E+02  0.51100000000E-03 0.  1.
        -12    1    3    3    0    0 -0.47856628531E+01 -0.66485543524E+00  0.21756983721E+01  0.52988928182E+01  0.00000000000E+00 0.  1.
</event>
<event>
 7    1  0.4623443E-009  0.4614232E+02  0.7816164E-02  0.1320468E+00
        -11   -1    0    0    0    0  0.00000000000E+00  0.00000000000E+00  0.45593999997E+02  0.45594000000E+02  0.51100000000E-03 0. -1.
         11   -1    0    0    0    0 -0.00000000000E+00 -0.00000000000E+00 -0.45593999997E+02  0.45594000000E+02  0.51100000000E-03 0.  1.
    9900012    2    1    2    0    0  0.19845529943E+02 -0.39871692824E+01  0.40241404418E+02  0.46142320883E+02  0.10000028469E+02 0.  0.
        -12    1    1    2    0    0 -0.19845529943E+02  0.39871692824E+01 -0.40241404418E+02  0.45045679117E+02  0.00000000000E+00 0.  1.
         11    1    3    3    0    0  0.98285958594E+00  0.18184618327E+01  0.17452115149E+01  0.27052873961E+01  0.51100000000E-03 0. -1.
        -11    1    3    3    0    0  0.11943899970E+01 -0.28138030646E+00  0.87202346898E+00  0.15053795314E+01  0.51100000000E-03 0.  1.
         12    1    3    3    0    0  0.17668280360E+02 -0.55242508086E+01  0.37624169434E+02  0.41931653956E+02  0.00000000000E+00 0. -1.
</event>
<event>
 7    1  0.4623443E-009  0.4614232E+02  0.7816164E-02  0.1320468E+00
        -11   -1    0    0    0    0  0.00000000000E+00  0.00000000000E+00  0.45593999997E+02  0.45594000000E+02  0.51100000000E-03 0. -1.
         11   -1    0    0    0    0 -0.00000000000E+00 -0.00000000000E+00 -0.45593999997E+02  0.45594000000E+02  0.51100000000E-03 0.  1.
    9900012    2    1    2    0    0 -0.10566706331E+02 -0.31320429223E+02  0.30602106496E+02  0.46142317728E+02  0.99999996980E+01 0.  0.
        -12    1    1    2    0    0  0.10566706331E+02  0.31320429223E+02 -0.30602106496E+02  0.45045682272E+02  0.00000000000E+00 0.  1.
         11    1    3    3    0    0  0.15225811259E+01 -0.35855321432E+01  0.21820964999E+01  0.44649568230E+01  0.51100000000E-03 0. -1.
        -11    1    3    3    0    0 -0.39379835771E+01 -0.12924204027E+02  0.14013955279E+02  0.19466219643E+02  0.51100000000E-03 0.  1.
        -12    1    3    3    0    0 -0.81513038803E+01 -0.14810693052E+02  0.14406054717E+02  0.22211141262E+02  0.00000000000E+00 0.  1.
</event>
<event>
 7    1  0.4623443E-009  0.4614232E+02  0.7816164E-02  0.1320468E+00
        -11   -1    0    0    0    0  0.00000000000E+00  0.00000000000E+00  0.45593999997E+02  0.45594000000E+02  0.51100000000E-03 0. -1.
         11   -1    0    0    0    0 -0.00000000000E+00 -0.00000000000E+00 -0.45593999997E+02  0.45594000000E+02  0.51100000000E-03 0.  1.
    9900012    2    1    2    0    0  0.61841792331E+00  0.36656374750E+02  0.26173293980E+02  0.46142316873E+02  0.99999919032E+01 0.  0.
        -12    1    1    2    0    0 -0.61841792331E+00 -0.36656374750E+02 -0.26173293980E+02  0.45045683127E+02  0.00000000000E+00 0.  1.
         11    1    3    3    0    0  0.44765376198E+01  0.25405225784E+02  0.16511327077E+02  0.30628235474E+02  0.51100000000E-03 0. -1.
        -11    1    3    3    0    0 -0.16660751393E+01  0.29940375988E+01  0.16545137481E+01  0.38049288451E+01  0.51100000000E-03 0.  1.
         12    1    3    3    0    0 -0.21920445572E+01  0.82571113680E+01  0.80074531557E+01  0.11709152554E+02  0.00000000000E+00 0. -1.
</event>
<event>
 7    1  0.4623443E-009  0.4614232E+02  0.7816164E-02  0.1320468E+00
        -11   -1    0    0    0    0  0.00000000000E+00  0.00000000000E+00  0.45593999997E+02  0.45594000000E+02  0.51100000000E-03 0. -1.
         11   -1    0    0    0    0 -0.00000000000E+00 -0.00000000000E+00 -0.45593999997E+02  0.45594000000E+02  0.51100000000E-03 0.  1.
    9900012    2    1    2    0    0 -0.16047531226E+02  0.35805640048E+02 -0.22125695332E+02  0.46142317503E+02  0.99999976469E+01 0.  0.
         12    1    1    2    0    0  0.16047531226E+02 -0.35805640048E+02  0.22125695332E+02  0.45045682497E+02  0.00000000000E+00 0. -1.
         11    1    3    3    0    0 -0.36286027069E+01  0.13415546948E+02 -0.87877461653E+01  0.16442875066E+02  0.51100000000E-03 0. -1.
        -11    1    3    3    0    0 -0.44765055866E+01  0.13618095713E+02 -0.48369828055E+01  0.15129046105E+02  0.51100000000E-03 0.  1.
         12    1    3    3    0    0 -0.79424229328E+01  0.87719973864E+01 -0.85009663614E+01  0.14570396332E+02  0.00000000000E+00 0. -1.
</event>
<event>
 7    1  0.4623443E-009  0.4614232E+02  0.7816164E-02  0.1320468E+00
        -11   -1    0    0    0    0  0.00000000000E+00  0.00000000000E+00  0.45593999997E+02  0.45594000000E+02  0.51100000000E-03 0. -1.
         11   -1    0    0    0    0 -0.00000000000E+00 -0.00000000000E+00 -0.45593999997E+02  0.45594000000E+02  0.51100000000E-03 0.  1.
    9900012    2    1    2    0    0 -0.18204095558E+02 -0.22545238954E+01  0.41141724889E+02  0.46142317633E+02  0.99999988299E+01 0.  0.
        -12    1    1    2    0    0  0.18204095558E+02  0.22545238954E+01 -0.41141724889E+02  0.45045682367E+02  0.00000000000E+00 0.  1.
         11    1    3    3    0    0 -0.77892384963E+01 -0.25103111130E+01  0.18258130963E+02  0.20008329385E+02  0.51100000000E-03 0. -1.
        -11    1    3    3    0    0 -0.59297544498E+01 -0.24847741106E+01  0.75070883191E+01  0.98839498940E+01  0.51100000000E-03 0.  1.
         12    1    3    3    0    0 -0.44851026119E+01  0.27405613283E+01  0.15376505607E+02  0.16250038354E+02  0.00000000000E+00 0. -1.
</event>
<event>
 7    1  0.4623443E-009  0.4614232E+02  0.7816164E-02  0.1320468E+00
        -11   -1    0    0    0    0  0.00000000000E+00  0.00000000000E+00  0.45593999997E+02  0.45594000000E+02  0.51100000000E-03 0. -1.
         11   -1    0    0    0    0 -0.00000000000E+00 -0.00000000000E+00 -0.45593999997E+02  0.45594000000E+02  0.51100000000E-03 0.  1.
    9900012    2    1    2    0    0 -0.13769994438E+02  0.41805584608E+02 -0.95809108945E+01  0.46142317579E+02  0.99999983387E+01 0.  0.
         12    1    1    2    0    0  0.13769994438E+02 -0.41805584608E+02  0.95809108945E+01  0.45045682421E+02  0.00000000000E+00 0. -1.
         11    1    3    3    0    0 -0.57606202478E+01  0.24940867125E+02 -0.43548466778E+01  0.25965290070E+02  0.51100000000E-03 0. -1.
        -11    1    3    3    0    0 -0.84269054038E+01  0.16801629584E+02 -0.56000487456E+01  0.19612955860E+02  0.51100000000E-03 0.  1.
        -12    1    3    3    0    0  0.41753121345E+00  0.63087899246E-01  0.37398452896E+00  0.56407164894E+00  0.00000000000E+00 0.  1.
</event>
<event>
 7    1  0.4623443E-009  0.4614232E+02  0.7816164E-02  0.1320468E+00
        -11   -1    0    0    0    0  0.00000000000E+00  0.00000000000E+00  0.45593999997E+02  0.45594000000E+02  0.51100000000E-03 0. -1.
         11   -1    0    0    0    0 -0.00000000000E+00 -0.00000000000E+00 -0.45593999997E+02  0.45594000000E+02  0.51100000000E-03 0.  1.
    9900012    2    1    2    0    0  0.17561199272E+02 -0.87383290705E+01 -0.40550701681E+02  0.46142317391E+02  0.99999966293E+01 0.  0.
         12    1    1    2    0    0 -0.17561199272E+02  0.87383290705E+01  0.40550701681E+02  0.45045682609E+02  0.00000000000E+00 0. -1.
         11    1    3    3    0    0 -0.43507930240E+00 -0.78363511908E+00 -0.61373467245E+01  0.62024513764E+01  0.51100000000E-03 0. -1.
        -11    1    3    3    0    0  0.11321128851E+01  0.20947446966E+00 -0.44846319144E+01  0.46300629376E+01  0.51100000000E-03 0.  1.
        -12    1    3    3    0    0  0.16864165690E+02 -0.81641684211E+01 -0.29928723042E+02  0.35309803077E+02  0.00000000000E+00 0.  1.
</event>
<event>
 7    1  0.4623443E-009  0.4614232E+02  0.7816164E-02  0.1320468E+00
        -11   -1    0    0    0    0  0.00000000000E+00  0.00000000000E+00  0.45593999997E+02  0.45594000000E+02  0.51100000000E-03 0. -1.
         11   -1    0    0    0    0 -0.00000000000E+00 -0.00000000000E+00 -0.45593999997E+02  0.45594000000E+02  0.51100000000E-03 0.  1.
    9900012    2    1    2    0    0 -0.54045005363E+01  0.27425344991E+02 -0.35323580003E+02  0.46142317874E+02  0.10000001033E+02 0.  0.
         12    1    1    2    0    0  0.54045005363E+01 -0.27425344991E+02  0.35323580003E+02  0.45045682126E+02  0.00000000000E+00 0. -1.
         11    1    3    3    0    0 -0.20424941838E+01  0.47194691494E+01 -0.45954384060E+01  0.68966097430E+01  0.51100000000E-03 0. -1.
        -11    1    3    3    0    0 -0.92121327278E+00  0.21681531037E+02 -0.26427903754E+02  0.34196074616E+02  0.51100000000E-03 0.  1.
        -12    1    3    3    0    0 -0.24407930798E+01  0.10243448042E+01 -0.43002378431E+01  0.50496335157E+01  0.00000000000E+00 0.  1.
</event>
<event>
 7    1  0.4623443E-009  0.4614232E+02  0.7816164E-02  0.1320468E+00
        -11   -1    0    0    0    0  0.00000000000E+00  0.00000000000E+00  0.45593999997E+02  0.45594000000E+02  0.51100000000E-03 0. -1.
         11   -1    0    0    0    0 -0.00000000000E+00 -0.00000000000E+00 -0.45593999997E+02  0.45594000000E+02  0.51100000000E-03 0.  1.
    9900012    2    1    2    0    0 -0.23452703877E+02  0.62014368817E+01  0.37955580702E+02  0.46142320463E+02  0.10000024634E+02 0.  0.
        -12    1    1    2    0    0  0.23452703877E+02 -0.62014368817E+01 -0.37955580702E+02  0.45045679537E+02  0.00000000000E+00 0.  1.
         11    1    3    3    0    0 -0.11407800507E+02  0.40104591915E+01  0.24093751727E+02  0.26957940720E+02  0.51100000000E-03 0. -1.
        -11    1    3    3    0    0 -0.14396466272E+01 -0.69158594580E+00  0.44052631820E+01  0.46858529102E+01  0.51100000000E-03 0.  1.
        -12    1    3    3    0    0 -0.10605256743E+02  0.28825636360E+01  0.94565657932E+01  0.14498526832E+02  0.00000000000E+00 0.  1.
</event>
<event>
 7    1  0.4623443E-009  0.4614232E+02  0.7816164E-02  0.1320468E+00
        -11   -1    0    0    0    0  0.00000000000E+00  0.00000000000E+00  0.45593999997E+02  0.45594000000E+02  0.51100000000E-03 0. -1.
         11   -1    0    0    0    0 -0.00000000000E+00 -0.00000000000E+00 -0.45593999997E+02  0.45594000000E+02  0.51100000000E-03 0.  1.
    9900012    2    1    2    0    0 -0.40412827386E+02  0.74229084685E+01 -0.18461238006E+02  0.46142317675E+02  0.99999992115E+01 0.  0.
         12    1    1    2    0    0  0.40412827386E+02 -0.74229084685E+01  0.18461238006E+02  0.45045682325E+02  0.00000000000E+00 0. -1.
         11    1    3    3    0    0 -0.38951946862E+01  0.17423498201E+01 -0.23477467411E+01  0.48703428586E+01  0.51100000000E-03 0. -1.
        -11    1    3    3    0    0 -0.29508693697E+02  0.44097577064E+01 -0.89030559340E+01  0.31136367353E+02  0.51100000000E-03 0.  1.
        -12    1    3    3    0    0 -0.70089390026E+01  0.12708009421E+01 -0.72104353313E+01  0.10135607463E+02  0.00000000000E+00 0.  1.
</event>
<event>
 7    1  0.4623443E-009  0.4614232E+02  0.7816164E-02  0.1320468E+00
        -11   -1    0    0    0    0  0.00000000000E+00  0.00000000000E+00  0.45593999997E+02  0.45594000000E+02  0.51100000000E-03 0. -1.
         11   -1    0    0    0    0 -0.00000000000E+00 -0.00000000000E+00 -0.45593999997E+02  0.45594000000E+02  0.51100000000E-03 0.  1.
    9900012    2    1    2    0    0 -0.17526552157E+02 -0.38946057239E+02  0.14322641039E+02  0.46142318172E+02  0.10000003746E+02 0.  0.
        -12    1    1    2    0    0  0.17526552157E+02  0.38946057239E+02 -0.14322641039E+02  0.45045681828E+02  0.00000000000E+00 0.  1.
         11    1    3    3    0    0 -0.84938828540E+01 -0.18039808324E+02  0.10606119702E+02  0.22584740550E+02  0.51100000000E-03 0. -1.
        -11    1    3    3    0    0 -0.90424994545E+01 -0.18788125308E+02  0.44416647079E+01  0.21318743739E+02  0.51100000000E-03 0.  1.
        -12    1    3    3    0    0  0.98301510248E-02 -0.21181236070E+01 -0.72514337084E+00  0.22388338827E+01  0.00000000000E+00 0.  1.
</event>
<event>
 7    1  0.4623443E-009  0.4614232E+02  0.7816164E-02  0.1320468E+00
        -11   -1    0    0    0    0  0.00000000000E+00  0.00000000000E+00  0.45593999997E+02  0.45594000000E+02  0.51100000000E-03 0.  1.
         11   -1    0    0    0    0 -0.00000000000E+00 -0.00000000000E+00 -0.45593999997E+02  0.45594000000E+02  0.51100000000E-03 0. -1.
    9900012    2    1    2    0    0 -0.42294302392E+02  0.13924779440E+02  0.68122101894E+01  0.46142315357E+02  0.99999780748E+01 0.  0.
         12    1    1    2    0    0  0.42294302392E+02 -0.13924779440E+02 -0.68122101894E+01  0.45045684643E+02  0.00000000000E+00 0. -1.
         11    1    3    3    0    0 -0.15411162362E+01  0.25059478129E+00  0.17522676164E+00  0.15711593417E+01  0.51100000000E-03 0. -1.
        -11    1    3    3    0    0 -0.43718357486E+01  0.36620789363E+01 -0.16523657546E+01  0.59375148671E+01  0.51100000000E-03 0.  1.
        -12    1    3    3    0    0 -0.36381350408E+02  0.10012105723E+02  0.82893491824E+01  0.38633641148E+02  0.00000000000E+00 0.  1.
</event>
<event>
 7    1  0.4623443E-009  0.4614232E+02  0.7816164E-02  0.1320468E+00
        -11   -1    0    0    0    0  0.00000000000E+00  0.00000000000E+00  0.45593999997E+02  0.45594000000E+02  0.51100000000E-03 0. -1.
         11   -1    0    0    0    0 -0.00000000000E+00 -0.00000000000E+00 -0.45593999997E+02  0.45594000000E+02  0.51100000000E-03 0.  1.
    9900012    2    1    2    0    0  0.35574837258E+02 -0.24627016754E+02  0.12532139944E+02  0.46142317280E+02  0.99999956102E+01 0.  0.
        -12    1    1    2    0    0 -0.35574837258E+02  0.24627016754E+02 -0.12532139944E+02  0.45045682720E+02  0.00000000000E+00 0.  1.
         11    1    3    3    0    0  0.24891686963E+02 -0.19262377377E+02  0.80286277715E+01  0.32482212459E+02  0.51100000000E-03 0. -1.
        -11    1    3    3    0    0  0.92200908771E+01 -0.23861569744E+01  0.27827764782E+01  0.99220797254E+01  0.51100000000E-03 0.  1.
        -12    1    3    3    0    0  0.14630594186E+01 -0.29784824027E+01  0.17207356943E+01  0.37380250956E+01  0.00000000000E+00 0.  1.
</event>
<event>
 7    1  0.4623443E-009  0.4614232E+02  0.7816164E-02  0.1320468E+00
        -11   -1    0    0    0    0  0.00000000000E+00  0.00000000000E+00  0.45593999997E+02  0.45594000000E+02  0.51100000000E-03 0. -1.
         11   -1    0    0    0    0 -0.00000000000E+00 -0.00000000000E+00 -0.45593999997E+02  0.45594000000E+02  0.51100000000E-03 0.  1.
    9900012    2    1    2    0    0  0.16688387937E+02 -0.41114888635E+02  0.77573919986E+01  0.46142317743E+02  0.99999998325E+01 0.  0.
        -12    1    1    2    0    0 -0.16688387937E+02  0.41114888635E+02 -0.77573919986E+01  0.45045682257E+02  0.00000000000E+00 0.  1.
         11    1    3    3    0    0  0.93374290655E+01 -0.31186954436E+02  0.38203869545E+01  0.32778179713E+02  0.51100000000E-03 0. -1.
        -11    1    3    3    0    0  0.36005803248E+01 -0.41223605715E+01  0.13329394400E+00  0.54750162459E+01  0.51100000000E-03 0.  1.
         12    1    3    3    0    0  0.37503785466E+01 -0.58055736272E+01  0.38037111001E+01  0.78891217836E+01  0.00000000000E+00 0. -1.
</event>
<event>
 7    1  0.5033603E-009  0.4614232E+02  0.7816164E-02  0.1320468E+00
        -11   -1    0    0    0    0  0.00000000000E+00  0.00000000000E+00  0.45593999997E+02  0.45594000000E+02  0.51100000000E-03 0. -1.
         11   -1    0    0    0    0 -0.00000000000E+00 -0.00000000000E+00 -0.45593999997E+02  0.45594000000E+02  0.51100000000E-03 0.  1.
    9900012    2    1    2    0    0 -0.11480892506E+02  0.20377811572E+02 -0.38497369370E+02  0.46142317126E+02  0.99999942089E+01 0.  0.
         12    1    1    2    0    0  0.11480892506E+02 -0.20377811572E+02  0.38497369370E+02  0.45045682874E+02  0.00000000000E+00 0. -1.
         11    1    3    3    0    0 -0.68591223446E+01  0.54739905299E+01 -0.10423021513E+02  0.13625399421E+02  0.51100000000E-03 0. -1.
        -11    1    3    3    0    0 -0.46069188754E+01  0.12568558984E+02 -0.19660766181E+02  0.23785249705E+02  0.51100000000E-03 0.  1.
         12    1    3    3    0    0 -0.14851285927E-01  0.23352620572E+01 -0.84135816760E+01  0.87316679996E+01  0.00000000000E+00 0. -1.
</event>
<event>
 7    1  0.4623443E-009  0.4614232E+02  0.7816164E-02  0.1320468E+00
        -11   -1    0    0    0    0  0.00000000000E+00  0.00000000000E+00  0.45593999997E+02  0.45594000000E+02  0.51100000000E-03 0. -1.
         11   -1    0    0    0    0 -0.00000000000E+00 -0.00000000000E+00 -0.45593999997E+02  0.45594000000E+02  0.51100000000E-03 0.  1.
    9900012    2    1    2    0    0  0.26364966059E+02  0.39752789194E+01  0.36307012653E+02  0.46142318236E+02  0.10000004330E+02 0.  0.
        -12    1    1    2    0    0 -0.26364966059E+02 -0.39752789194E+01 -0.36307012653E+02  0.45045681764E+02  0.00000000000E+00 0.  1.
         11    1    3    3    0    0  0.12351934437E+02  0.39457369047E+01  0.19670565382E+02  0.23559929260E+02  0.51100000000E-03 0. -1.
        -11    1    3    3    0    0  0.38113392458E+00  0.41441750090E+00  0.38412249994E+01  0.38822692708E+01  0.51100000000E-03 0.  1.
         12    1    3    3    0    0  0.13631897698E+02 -0.38487548623E+00  0.12795222272E+02  0.18700119705E+02  0.00000000000E+00 0. -1.
</event>
<event>
 7    1  0.5483873E-009  0.4614232E+02  0.7816164E-02  0.1320468E+00
        -11   -1    0    0    0    0  0.00000000000E+00  0.00000000000E+00  0.45593999997E+02  0.45594000000E+02  0.51100000000E-03 0. -1.
         11   -1    0    0    0    0 -0.00000000000E+00 -0.00000000000E+00 -0.45593999997E+02  0.45594000000E+02  0.51100000000E-03 0.  1.
    9900012    2    1    2    0    0 -0.99593854949E+01  0.50445750222E+00 -0.43928005055E+02  0.46142318021E+02  0.10000002371E+02 0.  0.
         12    1    1    2    0    0  0.99593854949E+01 -0.50445750222E+00  0.43928005055E+02  0.45045681979E+02  0.00000000000E+00 0. -1.
         11    1    3    3    0    0  0.70680256664E+00 -0.49415594677E+00 -0.50162276696E+01  0.50898232054E+01  0.51100000000E-03 0. -1.
        -11    1    3    3    0    0 -0.47495688205E+01 -0.12811748099E+01 -0.28028110777E+02  0.28456542426E+02  0.51100000000E-03 0.  1.
         12    1    3    3    0    0 -0.59166192410E+01  0.22797882589E+01 -0.10883666609E+02  0.12595952390E+02  0.00000000000E+00 0. -1.
</event>
<event>
 7    1  0.4623443E-009  0.4614232E+02  0.7816164E-02  0.1320468E+00
        -11   -1    0    0    0    0  0.00000000000E+00  0.00000000000E+00  0.45593999997E+02  0.45594000000E+02  0.51100000000E-03 0. -1.
         11   -1    0    0    0    0 -0.00000000000E+00 -0.00000000000E+00 -0.45593999997E+02  0.45594000000E+02  0.51100000000E-03 0.  1.
    9900012    2    1    2    0    0  0.17840942258E+02 -0.31671951519E+02  0.26602666110E+02  0.46142316768E+02  0.99999909477E+01 0.  0.
        -12    1    1    2    0    0 -0.17840942258E+02  0.31671951519E+02 -0.26602666110E+02  0.45045683232E+02  0.00000000000E+00 0.  1.
         11    1    3    3    0    0  0.63678139034E+01 -0.45075574835E+01  0.75736028163E+01  0.10873205059E+02  0.51100000000E-03 0. -1.
        -11    1    3    3    0    0  0.11011845564E+01 -0.52036553560E+01  0.24030211879E+01  0.58365355805E+01  0.51100000000E-03 0.  1.
         12    1    3    3    0    0  0.10371943798E+02 -0.21960738679E+02  0.16626042105E+02  0.29432576129E+02  0.00000000000E+00 0. -1.
</event>
<event>
 7    1  0.4623443E-009  0.4614232E+02  0.7816164E-02  0.1320468E+00
        -11   -1    0    0    0    0  0.00000000000E+00  0.00000000000E+00  0.45593999997E+02  0.45594000000E+02  0.51100000000E-03 0. -1.
         11   -1    0    0    0    0 -0.00000000000E+00 -0.00000000000E+00 -0.45593999997E+02  0.45594000000E+02  0.51100000000E-03 0.  1.
    9900012    2    1    2    0    0 -0.39491658093E+02 -0.20912153315E+02 -0.56748826175E+01  0.46142317544E+02  0.99999980193E+01 0.  0.
         12    1    1    2    0    0  0.39491658093E+02  0.20912153315E+02  0.56748826175E+01  0.45045682456E+02  0.00000000000E+00 0. -1.
         11    1    3    3    0    0 -0.41608223167E+01 -0.29561505394E+01  0.45819991083E+00  0.51245698143E+01  0.51100000000E-03 0. -1.
        -11    1    3    3    0    0 -0.28263785946E+02 -0.15767882918E+02 -0.17349265376E+01  0.32411073695E+02  0.51100000000E-03 0.  1.
         12    1    3    3    0    0 -0.70670498307E+01 -0.21881198576E+01 -0.43981559907E+01  0.86066740347E+01  0.00000000000E+00 0. -1.
</event>
<event>
 7    1  0.4623443E-009  0.4614232E+02  0.7816164E-02  0.1320468E+00
        -11   -1    0    0    0    0  0.00000000000E+00  0.00000000000E+00  0.45593999997E+02  0.45594000000E+02  0.51100000000E-03 0. -1.
         11   -1    0    0    0    0 -0.00000000000E+00 -0.00000000000E+00 -0.45593999997E+02  0.45594000000E+02  0.51100000000E-03 0.  1.
    9900012    2    1    2    0    0  0.28449184720E+02  0.23965764678E+02  0.25404715160E+02  0.46142317186E+02  0.99999947516E+01 0.  0.
        -12    1    1    2    0    0 -0.28449184720E+02 -0.23965764678E+02 -0.25404715160E+02  0.45045682814E+02  0.00000000000E+00 0.  1.
         11    1    3    3    0    0  0.99321489075E+01  0.12933991381E+02  0.13196838896E+02  0.20978376298E+02  0.51100000000E-03 0. -1.
        -11    1    3    3    0    0 -0.22525061486E+00  0.32378964636E+00  0.39172181409E+00  0.55589910536E+00  0.51100000000E-03 0.  1.
        -12    1    3    3    0    0  0.18742286427E+02  0.10707983650E+02  0.11816154450E+02  0.24608041783E+02  0.00000000000E+00 0.  1.
</event>
<event>
 7    1  0.4623443E-009  0.4614232E+02  0.7816164E-02  0.1320468E+00
        -11   -1    0    0    0    0  0.00000000000E+00  0.00000000000E+00  0.45593999997E+02  0.45594000000E+02  0.51100000000E-03 0.  1.
         11   -1    0    0    0    0 -0.00000000000E+00 -0.00000000000E+00 -0.45593999997E+02  0.45594000000E+02  0.51100000000E-03 0. -1.
    9900012    2    1    2    0    0  0.39033097355E+02  0.21784142559E+02  0.55661360486E+01  0.46142318446E+02  0.10000006242E+02 0.  0.
         12    1    1    2    0    0 -0.39033097355E+02 -0.21784142559E+02 -0.55661360486E+01  0.45045681554E+02  0.00000000000E+00 0. -1.
         11    1    3    3    0    0  0.19472740804E+02  0.11967577818E+02  0.19592315253E+01  0.22940120786E+02  0.51100000000E-03 0. -1.
        -11    1    3    3    0    0  0.19168749826E+02  0.82449560227E+01  0.45088939422E+01  0.21348311281E+02  0.51100000000E-03 0.  1.
         12    1    3    3    0    0  0.39160672478E+00  0.15716087184E+01 -0.90198941885E+00  0.18538863779E+01  0.00000000000E+00 0. -1.
</event>
<event>
 7    1  0.4623443E-009  0.4614232E+02  0.7816164E-02  0.1320468E+00
        -11   -1    0    0    0    0  0.00000000000E+00  0.00000000000E+00  0.45593999997E+02  0.45594000000E+02  0.51100000000E-03 0. -1.
         11   -1    0    0    0    0 -0.00000000000E+00 -0.00000000000E+00 -0.45593999997E+02  0.45594000000E+02  0.51100000000E-03 0.  1.
    9900012    2    1    2    0    0  0.14738315863E+02  0.39018630261E+02  0.17012996047E+02  0.46142317672E+02  0.99999991855E+01 0.  0.
        -12    1    1    2    0    0 -0.14738315863E+02 -0.39018630261E+02 -0.17012996047E+02  0.45045682328E+02  0.00000000000E+00 0.  1.
         11    1    3    3    0    0  0.11287543697E+01  0.44445493953E+01  0.44027625237E+01  0.63570766753E+01  0.51100000000E-03 0. -1.
        -11    1    3    3    0    0  0.36151446691E+01  0.80276220390E+01  0.60162743033E+01  0.10663373919E+02  0.51100000000E-03 0.  1.
         12    1    3    3    0    0  0.99944168243E+01  0.26546458827E+02  0.65939592199E+01  0.29121867078E+02  0.00000000000E+00 0. -1.
</event>
<event>
 7    1  0.4623443E-009  0.4614232E+02  0.7816164E-02  0.1320468E+00
        -11   -1    0    0    0    0  0.00000000000E+00  0.00000000000E+00  0.45593999997E+02  0.45594000000E+02  0.51100000000E-03 0. -1.
         11   -1    0    0    0    0 -0.00000000000E+00 -0.00000000000E+00 -0.45593999997E+02  0.45594000000E+02  0.51100000000E-03 0.  1.
    9900012    2    1    2    0    0  0.40993150303E+02  0.94844027539E+01  0.16084809932E+02  0.46142318987E+02  0.10000011181E+02 0.  0.
        -12    1    1    2    0    0 -0.40993150303E+02 -0.94844027539E+01 -0.16084809932E+02  0.45045681013E+02  0.00000000000E+00 0.  1.
         11    1    3    3    0    0  0.44620326051E+01  0.75212466199E+00 -0.56558398618E+00  0.45601877136E+01  0.51100000000E-03 0. -1.
        -11    1    3    3    0    0  0.17619467569E+02  0.14549746378E+01  0.96622051059E+01  0.20147476179E+02  0.51100000000E-03 0.  1.
        -12    1    3    3    0    0  0.18911650129E+02  0.72773034542E+01  0.69881888122E+01  0.21434655095E+02  0.00000000000E+00 0.  1.
</event>
<event>
 7    1  0.4623443E-009  0.4614232E+02  0.7816164E-02  0.1320468E+00
        -11   -1    0    0    0    0  0.00000000000E+00  0.00000000000E+00  0.45593999997E+02  0.45594000000E+02  0.51100000000E-03 0. -1.
         11   -1    0    0    0    0 -0.00000000000E+00 -0.00000000000E+00 -0.45593999997E+02  0.45594000000E+02  0.51100000000E-03 0.  1.
    9900012    2    1    2    0    0 -0.20614440847E+02  0.18856106729E+02  0.35335613727E+02  0.46142317300E+02  0.99999957996E+01 0.  0.
        -12    1    1    2    0    0  0.20614440847E+02 -0.18856106729E+02 -0.35335613727E+02  0.45045682700E+02  0.00000000000E+00 0.  1.
         11    1    3    3    0    0 -0.48990717065E+01  0.22811123269E+01  0.84178631611E+01  0.10003239350E+02  0.51100000000E-03 0.  1.
        -11    1    3    3    0    0 -0.26826081639E+01  0.45934225953E+01  0.22489324615E+01  0.57752588841E+01  0.51100000000E-03 0. -1.
        -12    1    3    3    0    0 -0.13032760976E+02  0.11981571807E+02  0.24668818104E+02  0.30363819066E+02  0.00000000000E+00 0.  1.
</event>
<event>
 7    1  0.4668176E-009  0.4614232E+02  0.7816164E-02  0.1320468E+00
        -11   -1    0    0    0    0  0.00000000000E+00  0.00000000000E+00  0.45593999997E+02  0.45594000000E+02  0.51100000000E-03 0. -1.
         11   -1    0    0    0    0 -0.00000000000E+00 -0.00000000000E+00 -0.45593999997E+02  0.45594000000E+02  0.51100000000E-03 0.  1.
    9900012    2    1    2    0    0 -0.13115100616E+02 -0.34417501373E+02 -0.25933439418E+02  0.46142317133E+02  0.99999942706E+01 0.  0.
         12    1    1    2    0    0  0.13115100616E+02  0.34417501373E+02  0.25933439418E+02  0.45045682867E+02  0.00000000000E+00 0. -1.
         11    1    3    3    0    0 -0.31192991000E+01 -0.23136602427E+01 -0.15617376384E+01  0.41859378049E+01  0.51100000000E-03 0. -1.
        -11    1    3    3    0    0 -0.59972677786E+01 -0.10071510199E+02 -0.93209870353E+01  0.14976092216E+02  0.51100000000E-03 0.  1.
         12    1    3    3    0    0 -0.39985337370E+01 -0.22032330931E+02 -0.15050714745E+02  0.26980287112E+02  0.00000000000E+00 0. -1.
</event>
<event>
 7    1  0.4623443E-009  0.4614232E+02  0.7816164E-02  0.1320468E+00
        -11   -1    0    0    0    0  0.00000000000E+00  0.00000000000E+00  0.45593999997E+02  0.45594000000E+02  0.51100000000E-03 0. -1.
         11   -1    0    0    0    0 -0.00000000000E+00 -0.00000000000E+00 -0.45593999997E+02  0.45594000000E+02  0.51100000000E-03 0.  1.
    9900012    2    1    2    0    0 -0.18464652899E+02 -0.37186921965E+02  0.17472920456E+02  0.46142317397E+02  0.99999966807E+01 0.  0.
        -12    1    1    2    0    0  0.18464652899E+02  0.37186921965E+02 -0.17472920456E+02  0.45045682603E+02  0.00000000000E+00 0.  1.
         11    1    3    3    0    0 -0.11814491745E+02 -0.29787367637E+02  0.15192992113E+02  0.35464016912E+02  0.51100000000E-03 0. -1.
        -11    1    3    3    0    0 -0.45114289085E+01 -0.61945852961E+01  0.56558745864E+00  0.76841243627E+01  0.51100000000E-03 0.  1.
         12    1    3    3    0    0 -0.21387322447E+01 -0.12049690318E+01  0.17143408845E+01  0.29941761221E+01  0.00000000000E+00 0. -1.
</event>
<event>
 7    1  0.4623443E-009  0.4614232E+02  0.7816164E-02  0.1320468E+00
        -11   -1    0    0    0    0  0.00000000000E+00  0.00000000000E+00  0.45593999997E+02  0.45594000000E+02  0.51100000000E-03 0. -1.
         11   -1    0    0    0    0 -0.00000000000E+00 -0.00000000000E+00 -0.45593999997E+02  0.45594000000E+02  0.51100000000E-03 0.  1.
    9900012    2    1    2    0    0 -0.32876101553E+02 -0.20613894062E+02 -0.22876684443E+02  0.46142319044E+02  0.10000011698E+02 0.  0.
         12    1    1    2    0    0  0.32876101553E+02  0.20613894062E+02  0.22876684443E+02  0.45045680956E+02  0.00000000000E+00 0. -1.
         11    1    3    3    0    0 -0.10112853078E+02 -0.23912967574E+01 -0.41694341083E+01  0.11196976315E+02  0.51100000000E-03 0. -1.
        -11    1    3    3    0    0 -0.17221343919E+02 -0.12475430913E+02 -0.11429455768E+02  0.24142152395E+02  0.51100000000E-03 0.  1.
        -12    1    3    3    0    0 -0.55419045551E+01 -0.57471663914E+01 -0.72777945662E+01  0.10803190333E+02  0.00000000000E+00 0.  1.
</event>
<event>
 7    1  0.4623443E-009  0.4614232E+02  0.7816164E-02  0.1320468E+00
        -11   -1    0    0    0    0  0.00000000000E+00  0.00000000000E+00  0.45593999997E+02  0.45594000000E+02  0.51100000000E-03 0. -1.
         11   -1    0    0    0    0 -0.00000000000E+00 -0.00000000000E+00 -0.45593999997E+02  0.45594000000E+02  0.51100000000E-03 0.  1.
    9900012    2    1    2    0    0 -0.56220217650E+01  0.22681285948E+02 -0.38510591320E+02  0.46142317579E+02  0.99999983391E+01 0.  0.
         12    1    1    2    0    0  0.56220217650E+01 -0.22681285948E+02  0.38510591320E+02  0.45045682421E+02  0.00000000000E+00 0. -1.
         11    1    3    3    0    0 -0.45168524962E+01  0.41770682399E+01 -0.75647748103E+01  0.97506755533E+01  0.51100000000E-03 0. -1.
        -11    1    3    3    0    0 -0.98248751878E+00  0.82411834395E+01 -0.18378925752E+02  0.20165993610E+02  0.51100000000E-03 0.  1.
        -12    1    3    3    0    0 -0.12268174999E+00  0.10263034268E+02 -0.12566890757E+02  0.16225648416E+02  0.00000000000E+00 0.  1.
</event>
<event>
 7    1  0.4623443E-009  0.4614232E+02  0.7816164E-02  0.1320468E+00
        -11   -1    0    0    0    0  0.00000000000E+00  0.00000000000E+00  0.45593999997E+02  0.45594000000E+02  0.51100000000E-03 0. -1.
         11   -1    0    0    0    0 -0.00000000000E+00 -0.00000000000E+00 -0.45593999997E+02  0.45594000000E+02  0.51100000000E-03 0.  1.
    9900012    2    1    2    0    0 -0.12484138053E+02  0.27492002589E+01  0.43193769902E+02  0.46142316929E+02  0.99999924159E+01 0.  0.
        -12    1    1    2    0    0  0.12484138053E+02 -0.27492002589E+01 -0.43193769902E+02  0.45045683071E+02  0.00000000000E+00 0.  1.
         11    1    3    3    0    0 -0.19566956433E+01 -0.63053848964E+00  0.90515984802E+01  0.92821157036E+01  0.51100000000E-03 0. -1.
        -11    1    3    3    0    0 -0.89847682550E+00 -0.66818742273E+00  0.15099398566E+02  0.15140857715E+02  0.51100000000E-03 0.  1.
         12    1    3    3    0    0 -0.96289655843E+01  0.40479261712E+01  0.19042772856E+02  0.21719343511E+02  0.00000000000E+00 0. -1.
</event>
<event>
 7    1  0.4623443E-009  0.4614232E+02  0.7816164E-02  0.1320468E+00
        -11   -1    0    0    0    0  0.00000000000E+00  0.00000000000E+00  0.45593999997E+02  0.45594000000E+02  0.51100000000E-03 0. -1.
         11   -1    0    0    0    0 -0.00000000000E+00 -0.00000000000E+00 -0.45593999997E+02  0.45594000000E+02  0.51100000000E-03 0.  1.
    9900012    2    1    2    0    0  0.96827356500E+01  0.32343490460E+02  0.29820409224E+02  0.46142317065E+02  0.99999936509E+01 0.  0.
        -12    1    1    2    0    0 -0.96827356500E+01 -0.32343490460E+02 -0.29820409224E+02  0.45045682935E+02  0.00000000000E+00 0.  1.
         11    1    3    3    0    0 -0.60924001297E+00  0.23921473293E+01  0.27432799623E+01  0.36904102009E+01  0.51100000000E-03 0.  1.
        -11    1    3    3    0    0  0.10723691137E+02  0.28465417728E+02  0.27319580533E+02  0.40885658106E+02  0.51100000000E-03 0. -1.
         12    1    3    3    0    0 -0.43171547368E+00  0.14859254025E+01 -0.24245127100E+00  0.15662487576E+01  0.00000000000E+00 0. -1.
</event>
<event>
 7    1  0.4623443E-009  0.4614232E+02  0.7816164E-02  0.1320468E+00
        -11   -1    0    0    0    0  0.00000000000E+00  0.00000000000E+00  0.45593999997E+02  0.45594000000E+02  0.51100000000E-03 0. -1.
         11   -1    0    0    0    0 -0.00000000000E+00 -0.00000000000E+00 -0.45593999997E+02  0.45594000000E+02  0.51100000000E-03 0.  1.
    9900012    2    1    2    0    0 -0.59044148681E+01  0.31865205179E+02 -0.31286739678E+02  0.46142317679E+02  0.99999992530E+01 0.  0.
         12    1    1    2    0    0  0.59044148681E+01 -0.31865205179E+02  0.31286739678E+02  0.45045682321E+02  0.00000000000E+00 0. -1.
         11    1    3    3    0    0 -0.39300837952E+01  0.70685153933E+01 -0.74342605158E+01  0.10985340149E+02  0.51100000000E-03 0. -1.
        -11    1    3    3    0    0 -0.11580210659E+01  0.11786632163E+02 -0.16111485967E+02  0.19996141900E+02  0.51100000000E-03 0.  1.
         12    1    3    3    0    0 -0.81631000699E+00  0.13010057623E+02 -0.77409931949E+01  0.15160835631E+02  0.00000000000E+00 0. -1.
</event>
<event>
 7    1  0.4623443E-009  0.4614232E+02  0.7816164E-02  0.1320468E+00
        -11   -1    0    0    0    0  0.00000000000E+00  0.00000000000E+00  0.45593999997E+02  0.45594000000E+02  0.51100000000E-03 0. -1.
         11   -1    0    0    0    0 -0.00000000000E+00 -0.00000000000E+00 -0.45593999997E+02  0.45594000000E+02  0.51100000000E-03 0.  1.
    9900012    2    1    2    0    0 -0.10918015003E+02  0.25113969361E+02  0.35765891544E+02  0.46142317559E+02  0.99999981546E+01 0.  0.
        -12    1    1    2    0    0  0.10918015003E+02 -0.25113969361E+02 -0.35765891544E+02  0.45045682441E+02  0.00000000000E+00 0.  1.
         11    1    3    3    0    0 -0.62331565430E+01  0.89960939966E+01  0.20108323739E+02  0.22893812080E+02  0.51100000000E-03 0. -1.
        -11    1    3    3    0    0 -0.19814825000E+01  0.11220848708E+02  0.12093670868E+02  0.16615974060E+02  0.51100000000E-03 0.  1.
         12    1    3    3    0    0 -0.27033759599E+01  0.48970266561E+01  0.35638969371E+01  0.66325314194E+01  0.00000000000E+00 0. -1.
</event>
<event>
 7    1  0.4623443E-009  0.4614232E+02  0.7816164E-02  0.1320468E+00
        -11   -1    0    0    0    0  0.00000000000E+00  0.00000000000E+00  0.45593999997E+02  0.45594000000E+02  0.51100000000E-03 0.  1.
         11   -1    0    0    0    0 -0.00000000000E+00 -0.00000000000E+00 -0.45593999997E+02  0.45594000000E+02  0.51100000000E-03 0. -1.
    9900012    2    1    2    0    0 -0.22581492498E+02  0.17971818516E+02  0.34586175198E+02  0.46142316755E+02  0.99999908262E+01 0.  0.
        -12    1    1    2    0    0  0.22581492498E+02 -0.17971818516E+02 -0.34586175198E+02  0.45045683245E+02  0.00000000000E+00 0.  1.
         11    1    3    3    0    0 -0.32714901504E+01  0.56803041749E+01  0.11855715142E+02  0.13547194732E+02  0.51100000000E-03 0. -1.
        -11    1    3    3    0    0 -0.40459839180E+00  0.84311983541E+00  0.64845903926E-01  0.93741995278E+00  0.51100000000E-03 0.  1.
         12    1    3    3    0    0 -0.18905403956E+02  0.11448394505E+02  0.22665614152E+02  0.31657702070E+02  0.00000000000E+00 0. -1.
</event>
<event>
 7    1  0.4623443E-009  0.4614232E+02  0.7816164E-02  0.1320468E+00
        -11   -1    0    0    0    0  0.00000000000E+00  0.00000000000E+00  0.45593999997E+02  0.45594000000E+02  0.51100000000E-03 0. -1.
         11   -1    0    0    0    0 -0.00000000000E+00 -0.00000000000E+00 -0.45593999997E+02  0.45594000000E+02  0.51100000000E-03 0.  1.
    9900012    2    1    2    0    0  0.28140460653E+02  0.27569700026E+02  0.21843524235E+02  0.46142318340E+02  0.10000005276E+02 0.  0.
        -12    1    1    2    0    0 -0.28140460653E+02 -0.27569700026E+02 -0.21843524235E+02  0.45045681660E+02  0.00000000000E+00 0.  1.
         11    1    3    3    0    0  0.20371411927E+01  0.20228783710E+01  0.19487724396E+01  0.34698264258E+01  0.51100000000E-03 0.  1.
        -11    1    3    3    0    0  0.20142889763E+02  0.15373748254E+02  0.98615231076E+01  0.27190766478E+02  0.51100000000E-03 0. -1.
         12    1    3    3    0    0  0.59604296973E+01  0.10173073400E+02  0.10033228687E+02  0.15481725436E+02  0.00000000000E+00 0. -1.
</event>
<event>
 7    1  0.4623443E-009  0.4614232E+02  0.7816164E-02  0.1320468E+00
        -11   -1    0    0    0    0  0.00000000000E+00  0.00000000000E+00  0.45593999997E+02  0.45594000000E+02  0.51100000000E-03 0. -1.
         11   -1    0    0    0    0 -0.00000000000E+00 -0.00000000000E+00 -0.45593999997E+02  0.45594000000E+02  0.51100000000E-03 0.  1.
    9900012    2    1    2    0    0  0.27902575909E+02  0.26035177973E+02 -0.23931761311E+02  0.46142318366E+02  0.10000005517E+02 0.  0.
         12    1    1    2    0    0 -0.27902575909E+02 -0.26035177973E+02  0.23931761311E+02  0.45045681634E+02  0.00000000000E+00 0. -1.
         11    1    3    3    0    0  0.20869848380E+01  0.10356028215E+00 -0.70024376747E+00  0.22037631545E+01  0.51100000000E-03 0. -1.
        -11    1    3    3    0    0  0.38751199895E+01  0.66156045653E+01 -0.23655128749E+01  0.80236170223E+01  0.51100000000E-03 0.  1.
         12    1    3    3    0    0  0.21940471081E+02  0.19316013126E+02 -0.20866004668E+02  0.35914938189E+02  0.00000000000E+00 0. -1.
</event>
<event>
 7    1  0.4623443E-009  0.4614232E+02  0.7816164E-02  0.1320468E+00
        -11   -1    0    0    0    0  0.00000000000E+00  0.00000000000E+00  0.45593999997E+02  0.45594000000E+02  0.51100000000E-03 0. -1.
         11   -1    0    0    0    0 -0.00000000000E+00 -0.00000000000E+00 -0.45593999997E+02  0.45594000000E+02  0.51100000000E-03 0.  1.
    9900012    2    1    2    0    0  0.28474279949E+01 -0.33123344735E+02 -0.30394893679E+02  0.46142319027E+02  0.10000011540E+02 0.  0.
         12    1    1    2    0    0 -0.28474279949E+01  0.33123344735E+02  0.30394893679E+02  0.45045680973E+02  0.00000000000E+00 0. -1.
         11    1    3    3    0    0  0.81183587663E+00 -0.21497317722E+02 -0.14569349866E+02  0.25981911063E+02  0.51100000000E-03 0. -1.
        -11    1    3    3    0    0  0.22791655742E+01 -0.10002527741E+02 -0.10899939651E+02  0.14968428160E+02  0.51100000000E-03 0.  1.
         12    1    3    3    0    0 -0.24357345593E+00 -0.16234992716E+01 -0.49256041627E+01  0.51919798035E+01  0.00000000000E+00 0. -1.
</event>
<event>
 7    1  0.4623443E-009  0.4614232E+02  0.7816164E-02  0.1320468E+00
        -11   -1    0    0    0    0  0.00000000000E+00  0.00000000000E+00  0.45593999997E+02  0.45594000000E+02  0.51100000000E-03 0. -1.
         11   -1    0    0    0    0 -0.00000000000E+00 -0.00000000000E+00 -0.45593999997E+02  0.45594000000E+02  0.51100000000E-03 0.  1.
    9900012    2    1    2    0    0 -0.75808815295E+01 -0.13298597974E+02  0.42364973987E+02  0.46142317701E+02  0.99999994560E+01 0.  0.
        -12    1    1    2    0    0  0.75808815295E+01  0.13298597974E+02 -0.42364973987E+02  0.45045682299E+02  0.00000000000E+00 0.  1.
         11    1    3    3    0    0 -0.52262984663E+01 -0.36350406385E+01  0.14095748662E+02  0.15466668895E+02  0.51100000000E-03 0. -1.
        -11    1    3    3    0    0  0.15110167258E+01 -0.24563853071E+01  0.13388655270E+02  0.13695732566E+02  0.51100000000E-03 0.  1.
        -12    1    3    3    0    0 -0.38655997890E+01 -0.72071720283E+01  0.14880570055E+02  0.16979916240E+02  0.00000000000E+00 0.  1.
</event>
<event>
 7    1  0.4623443E-009  0.4614232E+02  0.7816164E-02  0.1320468E+00
        -11   -1    0    0    0    0  0.00000000000E+00  0.00000000000E+00  0.45593999997E+02  0.45594000000E+02  0.51100000000E-03 0.  1.
         11   -1    0    0    0    0 -0.00000000000E+00 -0.00000000000E+00 -0.45593999997E+02  0.45594000000E+02  0.51100000000E-03 0. -1.
    9900012    2    1    2    0    0  0.21903285222E+02 -0.26116731127E+02 -0.29449548956E+02  0.46142317832E+02  0.10000000646E+02 0.  0.
         12    1    1    2    0    0 -0.21903285222E+02  0.26116731127E+02  0.29449548956E+02  0.45045682168E+02  0.00000000000E+00 0. -1.
         11    1    3    3    0    0  0.27520817115E+01 -0.22589137441E+01 -0.47534824297E+01  0.59390437379E+01  0.51100000000E-03 0. -1.
        -11    1    3    3    0    0  0.60622214957E+01 -0.33390826665E+01 -0.28022616018E+01  0.74667712475E+01  0.51100000000E-03 0.  1.
        -12    1    3    3    0    0  0.13088982015E+02 -0.20518734717E+02 -0.21893804924E+02  0.32736502847E+02  0.00000000000E+00 0.  1.
</event>
<event>
 7    1  0.4623443E-009  0.4614232E+02  0.7816164E-02  0.1320468E+00
        -11   -1    0    0    0    0  0.00000000000E+00  0.00000000000E+00  0.45593999997E+02  0.45594000000E+02  0.51100000000E-03 0. -1.
         11   -1    0    0    0    0 -0.00000000000E+00 -0.00000000000E+00 -0.45593999997E+02  0.45594000000E+02  0.51100000000E-03 0.  1.
    9900012    2    1    2    0    0 -0.12584787678E+02 -0.40218016893E+02 -0.15913756912E+02  0.46142318489E+02  0.10000006638E+02 0.  0.
         12    1    1    2    0    0  0.12584787678E+02  0.40218016893E+02  0.15913756912E+02  0.45045681511E+02  0.00000000000E+00 0. -1.
         11    1    3    3    0    0 -0.82556999069E+00 -0.65517337471E+01 -0.39794053965E+01  0.77098928964E+01  0.51100000000E-03 0. -1.
        -11    1    3    3    0    0 -0.68293792214E-01 -0.11207566733E+02 -0.39649944636E+01  0.11888456480E+02  0.51100000000E-03 0.  1.
         12    1    3    3    0    0 -0.11690923895E+02 -0.22458716414E+02 -0.79693570518E+01  0.26543969113E+02  0.00000000000E+00 0. -1.
</event>
<event>
 7    1  0.4623443E-009  0.4614232E+02  0.7816164E-02  0.1320468E+00
        -11   -1    0    0    0    0  0.00000000000E+00  0.00000000000E+00  0.45593999997E+02  0.45594000000E+02  0.51100000000E-03 0. -1.
         11   -1    0    0    0    0 -0.00000000000E+00 -0.00000000000E+00 -0.45593999997E+02  0.45594000000E+02  0.51100000000E-03 0.  1.
    9900012    2    1    2    0    0 -0.27074513585E+02 -0.66578310837E+01 -0.35380181751E+02  0.46142320281E+02  0.10000022979E+02 0.  0.
         12    1    1    2    0    0  0.27074513585E+02  0.66578310837E+01  0.35380181751E+02  0.45045679719E+02  0.00000000000E+00 0. -1.
         11    1    3    3    0    0 -0.40633172949E+01 -0.35159593085E+01 -0.77756345778E+01  0.94516141820E+01  0.51100000000E-03 0. -1.
        -11    1    3    3    0    0 -0.23028203310E+02 -0.38446584825E+01 -0.26029548881E+02  0.34965940024E+02  0.51100000000E-03 0.  1.
         12    1    3    3    0    0  0.17007019501E-01  0.70278670732E+00 -0.15749982922E+01  0.17247660755E+01  0.00000000000E+00 0. -1.
</event>
<event>
 7    1  0.4623443E-009  0.4614232E+02  0.7816164E-02  0.1320468E+00
        -11   -1    0    0    0    0  0.00000000000E+00  0.00000000000E+00  0.45593999997E+02  0.45594000000E+02  0.51100000000E-03 0. -1.
         11   -1    0    0    0    0 -0.00000000000E+00 -0.00000000000E+00 -0.45593999997E+02  0.45594000000E+02  0.51100000000E-03 0.  1.
    9900012    2    1    2    0    0 -0.21318743732E+02  0.22377311588E+02 -0.32770115779E+02  0.46142318782E+02  0.10000009311E+02 0.  0.
         12    1    1    2    0    0  0.21318743732E+02 -0.22377311588E+02  0.32770115779E+02  0.45045681218E+02  0.00000000000E+00 0. -1.
         11    1    3    3    0    0 -0.11362764884E+02  0.11495428799E+02 -0.24026705438E+02  0.28957553134E+02  0.51100000000E-03 0.  1.
        -11    1    3    3    0    0 -0.52153967437E+01  0.57935374140E+01 -0.52846487579E+01  0.94176935455E+01  0.51100000000E-03 0. -1.
        -12    1    3    3    0    0 -0.47405821046E+01  0.50883453760E+01 -0.34587615826E+01  0.77670721022E+01  0.00000000000E+00 0.  1.
</event>
<event>
 7    1  0.4623443E-009  0.4614232E+02  0.7816164E-02  0.1320468E+00
        -11   -1    0    0    0    0  0.00000000000E+00  0.00000000000E+00  0.45593999997E+02  0.45594000000E+02  0.51100000000E-03 0. -1.
         11   -1    0    0    0    0 -0.00000000000E+00 -0.00000000000E+00 -0.45593999997E+02  0.45594000000E+02  0.51100000000E-03 0.  1.
    9900012    2    1    2    0    0 -0.19349997942E+02  0.10164685806E+02 -0.39387433015E+02  0.46142321656E+02  0.10000035520E+02 0.  0.
         12    1    1    2    0    0  0.19349997942E+02 -0.10164685806E+02  0.39387433015E+02  0.45045678344E+02  0.00000000000E+00 0. -1.
         11    1    3    3    0    0 -0.58056316703E+01  0.36140573462E+01 -0.74280735463E+01  0.10096684924E+02  0.51100000000E-03 0. -1.
        -11    1    3    3    0    0 -0.12003064344E+02  0.26711549120E+01 -0.26096294434E+02  0.28848313741E+02  0.51100000000E-03 0.  1.
         12    1    3    3    0    0 -0.15413019276E+01  0.38794735475E+01 -0.58630650349E+01  0.71973229913E+01  0.00000000000E+00 0. -1.
</event>
<event>
 7    1  0.4623443E-009  0.4614231E+02  0.7816164E-02  0.1320468E+00
        -11   -1    0    0    0    0  0.00000000000E+00  0.00000000000E+00  0.45593999997E+02  0.45594000000E+02  0.51100000000E-03 0. -1.
         11   -1    0    0    0    0 -0.00000000000E+00 -0.00000000000E+00 -0.45593999997E+02  0.45594000000E+02  0.51100000000E-03 0.  1.
    9900012    2    1    2    0    0 -0.26783936973E+02 -0.29905255900E+02 -0.20430618802E+02  0.46142314359E+02  0.99999689812E+01 0.  0.
         12    1    1    2    0    0  0.26783936973E+02  0.29905255900E+02  0.20430618802E+02  0.45045685641E+02  0.00000000000E+00 0. -1.
         11    1    3    3    0    0 -0.21189582748E+02 -0.23498436576E+02 -0.19988144775E+02  0.37425938470E+02  0.51100000000E-03 0. -1.
        -11    1    3    3    0    0 -0.95364702276E+00 -0.27091276921E+00 -0.24229255424E+00  0.10205598050E+01  0.51100000000E-03 0.  1.
         12    1    3    3    0    0 -0.46407072024E+01 -0.61359065549E+01 -0.20018147238E+00  0.76958160848E+01  0.00000000000E+00 0. -1.
</event>
<event>
 7    1  0.4623443E-009  0.4614232E+02  0.7816164E-02  0.1320468E+00
        -11   -1    0    0    0    0  0.00000000000E+00  0.00000000000E+00  0.45593999997E+02  0.45594000000E+02  0.51100000000E-03 0. -1.
         11   -1    0    0    0    0 -0.00000000000E+00 -0.00000000000E+00 -0.45593999997E+02  0.45594000000E+02  0.51100000000E-03 0.  1.
    9900012    2    1    2    0    0 -0.11980330216E+02 -0.14165238996E+02  0.41047914705E+02  0.46142316417E+02  0.99999877391E+01 0.  0.
        -12    1    1    2    0    0  0.11980330216E+02  0.14165238996E+02 -0.41047914705E+02  0.45045683583E+02  0.00000000000E+00 0.  1.
         11    1    3    3    0    0 -0.30804675792E+01 -0.58505098870E+01  0.17700290221E+02  0.18894920497E+02  0.51100000000E-03 0. -1.
        -11    1    3    3    0    0  0.61963585414E+00 -0.34274265198E+00  0.52635096515E+01  0.53109279067E+01  0.51100000000E-03 0.  1.
        -12    1    3    3    0    0 -0.95194984908E+01 -0.79719864570E+01  0.18084114833E+02  0.21936468013E+02  0.00000000000E+00 0.  1.
</event>
<event>
 7    1  0.4623443E-009  0.4614232E+02  0.7816164E-02  0.1320468E+00
        -11   -1    0    0    0    0  0.00000000000E+00  0.00000000000E+00  0.45593999997E+02  0.45594000000E+02  0.51100000000E-03 0. -1.
         11   -1    0    0    0    0 -0.00000000000E+00 -0.00000000000E+00 -0.45593999997E+02  0.45594000000E+02  0.51100000000E-03 0.  1.
    9900012    2    1    2    0    0  0.14580955720E+02  0.73880394243E+01 -0.41975303278E+02  0.46142317837E+02  0.10000000689E+02 0.  0.
         12    1    1    2    0    0 -0.14580955720E+02 -0.73880394243E+01  0.41975303278E+02  0.45045682163E+02  0.00000000000E+00 0. -1.
         11    1    3    3    0    0  0.45202822197E+01 -0.19085117438E+01 -0.10590325534E+02  0.11671776368E+02  0.51100000000E-03 0. -1.
        -11    1    3    3    0    0  0.20355780800E+01  0.34207763587E+00 -0.67342973803E+01  0.70435329698E+01  0.51100000000E-03 0.  1.
         12    1    3    3    0    0  0.80250954206E+01  0.89544735322E+01 -0.24650680364E+02  0.27427008498E+02  0.00000000000E+00 0. -1.
</event>
<event>
 7    1  0.4623443E-009  0.4614231E+02  0.7816164E-02  0.1320468E+00
        -11   -1    0    0    0    0  0.00000000000E+00  0.00000000000E+00  0.45593999997E+02  0.45594000000E+02  0.51100000000E-03 0. -1.
         11   -1    0    0    0    0 -0.00000000000E+00 -0.00000000000E+00 -0.45593999997E+02  0.45594000000E+02  0.51100000000E-03 0.  1.
    9900012    2    1    2    0    0  0.75033129255E+01  0.27283564610E+02 -0.35048844121E+02  0.46142311229E+02  0.99999404317E+01 0.  0.
         12    1    1    2    0    0 -0.75033129255E+01 -0.27283564610E+02  0.35048844121E+02  0.45045688771E+02  0.00000000000E+00 0. -1.
         11    1    3    3    0    0  0.89177432740E+00  0.13995350620E+02 -0.22497544167E+02  0.26510461977E+02  0.51100000000E-03 0. -1.
        -11    1    3    3    0    0  0.20796707677E+00  0.19612788176E+01 -0.25323405549E+01  0.32097685045E+01  0.51100000000E-03 0.  1.
         12    1    3    3    0    0  0.64035715213E+01  0.11326935172E+02 -0.10018959398E+02  0.16422080747E+02  0.00000000000E+00 0. -1.
</event>
<event>
 7    1  0.4623443E-009  0.4614232E+02  0.7816164E-02  0.1320468E+00
        -11   -1    0    0    0    0  0.00000000000E+00  0.00000000000E+00  0.45593999997E+02  0.45594000000E+02  0.51100000000E-03 0. -1.
         11   -1    0    0    0    0 -0.00000000000E+00 -0.00000000000E+00 -0.45593999997E+02  0.45594000000E+02  0.51100000000E-03 0.  1.
    9900012    2    1    2    0    0  0.31941337180E+02  0.15060860557E+01  0.31726901654E+02  0.46142316471E+02  0.99999882356E+01 0.  0.
        -12    1    1    2    0    0 -0.31941337180E+02 -0.15060860557E+01 -0.31726901654E+02  0.45045683529E+02  0.00000000000E+00 0.  1.
         11    1    3    3    0    0  0.16299776838E+02 -0.46854309391E+00  0.12631839453E+02  0.20626818122E+02  0.51100000000E-03 0. -1.
        -11    1    3    3    0    0  0.12837916243E+02  0.37359588378E+00  0.17987805613E+02  0.22102326085E+02  0.51100000000E-03 0.  1.
        -12    1    3    3    0    0  0.28036440993E+01  0.16010332658E+01  0.11072565877E+01  0.34131722642E+01  0.00000000000E+00 0.  1.
</event>
<event>
 7    1  0.4623443E-009  0.4614232E+02  0.7816164E-02  0.1320468E+00
        -11   -1    0    0    0    0  0.00000000000E+00  0.00000000000E+00  0.45593999997E+02  0.45594000000E+02  0.51100000000E-03 0. -1.
         11   -1    0    0    0    0 -0.00000000000E+00 -0.00000000000E+00 -0.45593999997E+02  0.45594000000E+02  0.51100000000E-03 0.  1.
    9900012    2    1    2    0    0  0.23232788086E+02 -0.38591711939E+02 -0.17546347545E+00  0.46142318075E+02  0.10000002863E+02 0.  0.
         12    1    1    2    0    0 -0.23232788086E+02  0.38591711939E+02  0.17546347545E+00  0.45045681925E+02  0.00000000000E+00 0. -1.
         11    1    3    3    0    0  0.25566387602E+01 -0.21469029619E+01 -0.53482066302E+00  0.33810689849E+01  0.51100000000E-03 0. -1.
        -11    1    3    3    0    0  0.15932096219E+02 -0.20424785254E+02  0.19557253767E+01  0.25977459548E+02  0.51100000000E-03 0.  1.
         12    1    3    3    0    0  0.47440531073E+01 -0.16020023724E+02 -0.15963681891E+01  0.16783789542E+02  0.00000000000E+00 0. -1.
</event>
<event>
 7    1  0.4623443E-009  0.4614232E+02  0.7816164E-02  0.1320468E+00
        -11   -1    0    0    0    0  0.00000000000E+00  0.00000000000E+00  0.45593999997E+02  0.45594000000E+02  0.51100000000E-03 0. -1.
         11   -1    0    0    0    0 -0.00000000000E+00 -0.00000000000E+00 -0.45593999997E+02  0.45594000000E+02  0.51100000000E-03 0.  1.
    9900012    2    1    2    0    0  0.29240218269E+02  0.34264358527E+02  0.27715442612E+00  0.46142318251E+02  0.10000004469E+02 0.  0.
         12    1    1    2    0    0 -0.29240218269E+02 -0.34264358527E+02 -0.27715442612E+00  0.45045681749E+02  0.00000000000E+00 0. -1.
         11    1    3    3    0    0  0.14471894895E+02  0.18283869660E+02  0.31507051110E+01  0.23530035583E+02  0.51100000000E-03 0.  1.
        -11    1    3    3    0    0  0.15219170251E+02  0.15672673959E+02 -0.30019640787E+01  0.22051477065E+02  0.51100000000E-03 0. -1.
        -12    1    3    3    0    0 -0.45084687760E+00  0.30781490801E+00  0.12841339377E+00  0.56080560298E+00  0.00000000000E+00 0.  1.
</event>
<event>
 7    1  0.4623443E-009  0.4614232E+02  0.7816164E-02  0.1320468E+00
        -11   -1    0    0    0    0  0.00000000000E+00  0.00000000000E+00  0.45593999997E+02  0.45594000000E+02  0.51100000000E-03 0. -1.
         11   -1    0    0    0    0 -0.00000000000E+00 -0.00000000000E+00 -0.45593999997E+02  0.45594000000E+02  0.51100000000E-03 0.  1.
    9900012    2    1    2    0    0 -0.33596136206E+02 -0.16847093242E+02  0.24831199532E+02  0.46142318866E+02  0.10000010075E+02 0.  0.
        -12    1    1    2    0    0  0.33596136206E+02  0.16847093242E+02 -0.24831199532E+02  0.45045681134E+02  0.00000000000E+00 0.  1.
         11    1    3    3    0    0 -0.11509922549E+02 -0.83865782441E+01  0.85155590804E+01  0.16593003298E+02  0.51100000000E-03 0. -1.
        -11    1    3    3    0    0 -0.76072977349E+01 -0.54845646970E+01  0.35811080002E+01  0.10038713240E+02  0.51100000000E-03 0.  1.
         12    1    3    3    0    0 -0.14478915922E+02 -0.29759503004E+01  0.12734532451E+02  0.19510602328E+02  0.00000000000E+00 0. -1.
</event>
<event>
 7    1  0.4623443E-009  0.4614232E+02  0.7816164E-02  0.1320468E+00
        -11   -1    0    0    0    0  0.00000000000E+00  0.00000000000E+00  0.45593999997E+02  0.45594000000E+02  0.51100000000E-03 0. -1.
         11   -1    0    0    0    0 -0.00000000000E+00 -0.00000000000E+00 -0.45593999997E+02  0.45594000000E+02  0.51100000000E-03 0.  1.
    9900012    2    1    2    0    0 -0.10508330581E+02  0.64140216970E+01  0.43330690735E+02  0.46142318237E+02  0.10000004336E+02 0.  0.
        -12    1    1    2    0    0  0.10508330581E+02 -0.64140216970E+01 -0.43330690735E+02  0.45045681763E+02  0.00000000000E+00 0.  1.
         11    1    3    3    0    0 -0.85498505711E+00 -0.14473842982E+01  0.86819137654E+01  0.88431638934E+01  0.51100000000E-03 0. -1.
        -11    1    3    3    0    0 -0.83616775664E+00  0.21206444967E+01  0.21268560165E+01  0.31176636083E+01  0.51100000000E-03 0.  1.
         12    1    3    3    0    0 -0.88171777672E+01  0.57407614984E+01  0.32521920953E+02  0.34181490735E+02  0.00000000000E+00 0. -1.
</event>
<event>
 7    1  0.4623443E-009  0.4614232E+02  0.7816164E-02  0.1320468E+00
        -11   -1    0    0    0    0  0.00000000000E+00  0.00000000000E+00  0.45593999997E+02  0.45594000000E+02  0.51100000000E-03 0. -1.
         11   -1    0    0    0    0 -0.00000000000E+00 -0.00000000000E+00 -0.45593999997E+02  0.45594000000E+02  0.51100000000E-03 0.  1.
    9900012    2    1    2    0    0  0.39096117316E+01 -0.59510817096E+01  0.44479356882E+02  0.46142316233E+02  0.99999860638E+01 0.  0.
        -12    1    1    2    0    0 -0.39096117316E+01  0.59510817096E+01 -0.44479356882E+02  0.45045683767E+02  0.00000000000E+00 0.  1.
         11    1    3    3    0    0  0.49891767222E+00 -0.18544994872E+01  0.54744870205E+01  0.58015597549E+01  0.51100000000E-03 0. -1.
        -11    1    3    3    0    0  0.22280165293E+01  0.24520806007E+01  0.18149822752E+02  0.18449737752E+02  0.51100000000E-03 0.  1.
        -12    1    3    3    0    0  0.11826775301E+01 -0.65486628231E+01  0.20855047110E+02  0.21891018726E+02  0.00000000000E+00 0.  1.
</event>
<event>
 7    1  0.4623443E-009  0.4614232E+02  0.7816164E-02  0.1320468E+00
        -11   -1    0    0    0    0  0.00000000000E+00  0.00000000000E+00  0.45593999997E+02  0.45594000000E+02  0.51100000000E-03 0. -1.
         11   -1    0    0    0    0 -0.00000000000E+00 -0.00000000000E+00 -0.45593999997E+02  0.45594000000E+02  0.51100000000E-03 0.  1.
    9900012    2    1    2    0    0 -0.56542860371E+01  0.18954123377E+02  0.40470777219E+02  0.46142317051E+02  0.99999935290E+01 0.  0.
        -12    1    1    2    0    0  0.56542860371E+01 -0.18954123377E+02 -0.40470777219E+02  0.45045682949E+02  0.00000000000E+00 0.  1.
         11    1    3    3    0    0  0.16428308858E+01  0.46372851027E+01  0.83354955297E+01  0.96790388174E+01  0.51100000000E-03 0. -1.
        -11    1    3    3    0    0  0.11001477135E+01  0.21722305763E+01  0.53498280770E+01  0.58778883439E+01  0.51100000000E-03 0.  1.
         12    1    3    3    0    0 -0.83972646363E+01  0.12144607698E+02  0.26785453613E+02  0.30585389890E+02  0.00000000000E+00 0. -1.
</event>
<event>
 7    1  0.4623443E-009  0.4614231E+02  0.7816164E-02  0.1320468E+00
        -11   -1    0    0    0    0  0.00000000000E+00  0.00000000000E+00  0.45593999997E+02  0.45594000000E+02  0.51100000000E-03 0. -1.
         11   -1    0    0    0    0 -0.00000000000E+00 -0.00000000000E+00 -0.45593999997E+02  0.45594000000E+02  0.51100000000E-03 0.  1.
    9900012    2    1    2    0    0  0.41664542682E+02  0.98599865195E+01  0.13998587064E+02  0.46142313293E+02  0.99999592594E+01 0.  0.
        -12    1    1    2    0    0 -0.41664542682E+02 -0.98599865195E+01 -0.13998587064E+02  0.45045686707E+02  0.00000000000E+00 0.  1.
         11    1    3    3    0    0  0.21877927370E+02  0.70742129072E+01  0.11230650779E+02  0.25589367156E+02  0.51100000000E-03 0. -1.
        -11    1    3    3    0    0  0.59553148921E+00 -0.17295804616E+00  0.83366426973E+00  0.10390229141E+01  0.51100000000E-03 0.  1.
         12    1    3    3    0    0  0.19191083823E+02  0.29587316585E+01  0.19342720149E+01  0.19513923223E+02  0.00000000000E+00 0. -1.
</event>
<event>
 7    1  0.4623443E-009  0.4614231E+02  0.7816164E-02  0.1320468E+00
        -11   -1    0    0    0    0  0.00000000000E+00  0.00000000000E+00  0.45593999997E+02  0.45594000000E+02  0.51100000000E-03 0. -1.
         11   -1    0    0    0    0 -0.00000000000E+00 -0.00000000000E+00 -0.45593999997E+02  0.45594000000E+02  0.51100000000E-03 0.  1.
    9900012    2    1    2    0    0 -0.99418050902E+00  0.22748610312E+02  0.38866774762E+02  0.46142313787E+02  0.99999637621E+01 0.  0.
        -12    1    1    2    0    0  0.99418050902E+00 -0.22748610312E+02 -0.38866774762E+02  0.45045686213E+02  0.00000000000E+00 0.  1.
         11    1    3    3    0    0 -0.98775135058E+00  0.61266897396E+00 -0.48448102728E-01  0.11633415156E+01  0.51100000000E-03 0. -1.
        -11    1    3    3    0    0 -0.25903611220E+00  0.10987039915E+01  0.62705525789E+00  0.12912973035E+01  0.51100000000E-03 0.  1.
         12    1    3    3    0    0  0.25260695376E+00  0.21037237346E+02  0.38288167607E+02  0.43687674968E+02  0.00000000000E+00 0. -1.
</event>
<event>
 7    1  0.4623443E-009  0.4614232E+02  0.7816164E-02  0.1320468E+00
        -11   -1    0    0    0    0  0.00000000000E+00  0.00000000000E+00  0.45593999997E+02  0.45594000000E+02  0.51100000000E-03 0. -1.
         11   -1    0    0    0    0 -0.00000000000E+00 -0.00000000000E+00 -0.45593999997E+02  0.45594000000E+02  0.51100000000E-03 0.  1.
    9900012    2    1    2    0    0 -0.34255565539E+02  0.16030709722E+02  0.24468060568E+02  0.46142318603E+02  0.10000007677E+02 0.  0.
        -12    1    1    2    0    0  0.34255565539E+02 -0.16030709722E+02 -0.24468060568E+02  0.45045681397E+02  0.00000000000E+00 0.  1.
         11    1    3    3    0    0 -0.70969110631E+01  0.12935627480E+01  0.35744109801E+01  0.80508301023E+01  0.51100000000E-03 0. -1.
        -11    1    3    3    0    0 -0.15017322906E+02  0.11531191589E+02  0.97222567171E+01  0.21284046670E+02  0.51100000000E-03 0.  1.
         12    1    3    3    0    0 -0.12141331569E+02  0.32059553855E+01  0.11171392871E+02  0.16807441830E+02  0.00000000000E+00 0. -1.
</event>
<event>
 7    1  0.4623443E-009  0.4614232E+02  0.7816164E-02  0.1320468E+00
        -11   -1    0    0    0    0  0.00000000000E+00  0.00000000000E+00  0.45593999997E+02  0.45594000000E+02  0.51100000000E-03 0. -1.
         11   -1    0    0    0    0 -0.00000000000E+00 -0.00000000000E+00 -0.45593999997E+02  0.45594000000E+02  0.51100000000E-03 0.  1.
    9900012    2    1    2    0    0  0.15222257424E+02  0.23621446875E+02 -0.35205446080E+02  0.46142319772E+02  0.10000018334E+02 0.  0.
         12    1    1    2    0    0 -0.15222257424E+02 -0.23621446875E+02  0.35205446080E+02  0.45045680228E+02  0.00000000000E+00 0. -1.
         11    1    3    3    0    0  0.12066158970E+01  0.28857617571E+01 -0.99118494689E+01  0.10393666485E+02  0.51100000000E-03 0. -1.
        -11    1    3    3    0    0  0.95688207109E-01 -0.12159308231E+00 -0.33476618903E+00  0.36879502855E+00  0.51100000000E-03 0.  1.
        -12    1    3    3    0    0  0.13919953320E+02  0.20857278200E+02 -0.24958830422E+02  0.35379858258E+02  0.00000000000E+00 0.  1.
</event>
<event>
 7    1  0.4623443E-009  0.4614231E+02  0.7816164E-02  0.1320468E+00
        -11   -1    0    0    0    0  0.00000000000E+00  0.00000000000E+00  0.45593999997E+02  0.45594000000E+02  0.51100000000E-03 0. -1.
         11   -1    0    0    0    0 -0.00000000000E+00 -0.00000000000E+00 -0.45593999997E+02  0.45594000000E+02  0.51100000000E-03 0.  1.
    9900012    2    1    2    0    0 -0.14692360027E+00 -0.34038163086E+02 -0.29504164172E+02  0.46142313899E+02  0.99999647812E+01 0.  0.
         12    1    1    2    0    0  0.14692360027E+00  0.34038163086E+02  0.29504164172E+02  0.45045686101E+02  0.00000000000E+00 0. -1.
         11    1    3    3    0    0 -0.55304950548E+00 -0.86010134296E+01 -0.48626917970E+01  0.98959116581E+01  0.51100000000E-03 0. -1.
        -11    1    3    3    0    0 -0.22275696091E+01 -0.16167493204E+02 -0.11563906377E+02  0.20001845760E+02  0.51100000000E-03 0.  1.
        -12    1    3    3    0    0  0.26336955143E+01 -0.92696564529E+01 -0.13077565998E+02  0.16244556481E+02  0.00000000000E+00 0.  1.
</event>
<event>
 7    1  0.5499998E-009  0.4614232E+02  0.7816164E-02  0.1320468E+00
        -11   -1    0    0    0    0  0.00000000000E+00  0.00000000000E+00  0.45593999997E+02  0.45594000000E+02  0.51100000000E-03 0. -1.
         11   -1    0    0    0    0 -0.00000000000E+00 -0.00000000000E+00 -0.45593999997E+02  0.45594000000E+02  0.51100000000E-03 0.  1.
    9900012    2    1    2    0    0 -0.11588550670E+02 -0.10259566161E+01 -0.43517426472E+02  0.46142317628E+02  0.99999987852E+01 0.  0.
         12    1    1    2    0    0  0.11588550670E+02  0.10259566161E+01  0.43517426472E+02  0.45045682372E+02  0.00000000000E+00 0. -1.
         11    1    3    3    0    0 -0.65146658317E+01 -0.32905470982E+01 -0.18598657787E+02  0.19979455519E+02  0.51100000000E-03 0. -1.
        -11    1    3    3    0    0 -0.50769804574E+01 -0.44888352140E+00 -0.13608202651E+02  0.14531359421E+02  0.51100000000E-03 0.  1.
         12    1    3    3    0    0  0.30956194268E-02  0.27134740035E+01 -0.11310566034E+02  0.11631502687E+02  0.00000000000E+00 0. -1.
</event>
<event>
 7    1  0.4623443E-009  0.4614232E+02  0.7816164E-02  0.1320468E+00
        -11   -1    0    0    0    0  0.00000000000E+00  0.00000000000E+00  0.45593999997E+02  0.45594000000E+02  0.51100000000E-03 0. -1.
         11   -1    0    0    0    0 -0.00000000000E+00 -0.00000000000E+00 -0.45593999997E+02  0.45594000000E+02  0.51100000000E-03 0.  1.
    9900012    2    1    2    0    0 -0.28900096084E+02 -0.29005050514E+02  0.18777779999E+02  0.46142317291E+02  0.99999957160E+01 0.  0.
        -12    1    1    2    0    0  0.28900096084E+02  0.29005050514E+02 -0.18777779999E+02  0.45045682709E+02  0.00000000000E+00 0.  1.
         11    1    3    3    0    0  0.74482521984E-01 -0.32147492273E-01 -0.12995254420E+00  0.15319605806E+00  0.51100000000E-03 0. -1.
        -11    1    3    3    0    0 -0.26845962830E+01 -0.48047237870E+00  0.30810903347E+01  0.41147331410E+01  0.51100000000E-03 0.  1.
         12    1    3    3    0    0 -0.26289982323E+02 -0.28492430644E+02  0.15826642208E+02  0.41874388092E+02  0.00000000000E+00 0. -1.
</event>
<event>
 7    1  0.4623443E-009  0.4614232E+02  0.7816164E-02  0.1320468E+00
        -11   -1    0    0    0    0  0.00000000000E+00  0.00000000000E+00  0.45593999997E+02  0.45594000000E+02  0.51100000000E-03 0. -1.
         11   -1    0    0    0    0 -0.00000000000E+00 -0.00000000000E+00 -0.45593999997E+02  0.45594000000E+02  0.51100000000E-03 0.  1.
    9900012    2    1    2    0    0  0.40943539182E+00 -0.29184561363E+02  0.34310453601E+02  0.46142317792E+02  0.10000000278E+02 0.  0.
        -12    1    1    2    0    0 -0.40943539182E+00  0.29184561363E+02 -0.34310453601E+02  0.45045682208E+02  0.00000000000E+00 0.  1.
         11    1    3    3    0    0  0.22906979513E+01 -0.11357887398E+02  0.12219534887E+02  0.16839416153E+02  0.51100000000E-03 0. -1.
        -11    1    3    3    0    0  0.71218911138E+00 -0.11207040600E+02  0.89417497535E+01  0.14354785309E+02  0.51100000000E-03 0.  1.
        -12    1    3    3    0    0 -0.25934516709E+01 -0.66196333646E+01  0.13149168961E+02  0.14948116330E+02  0.00000000000E+00 0.  1.
</event>
<event>
 7    1  0.4623443E-009  0.4614232E+02  0.7816164E-02  0.1320468E+00
        -11   -1    0    0    0    0  0.00000000000E+00  0.00000000000E+00  0.45593999997E+02  0.45594000000E+02  0.51100000000E-03 0. -1.
         11   -1    0    0    0    0 -0.00000000000E+00 -0.00000000000E+00 -0.45593999997E+02  0.45594000000E+02  0.51100000000E-03 0.  1.
    9900012    2    1    2    0    0  0.26589563824E+02  0.74046388148E+01 -0.35598875745E+02  0.46142317247E+02  0.99999953160E+01 0.  0.
         12    1    1    2    0    0 -0.26589563824E+02 -0.74046388148E+01  0.35598875745E+02  0.45045682753E+02  0.00000000000E+00 0. -1.
         11    1    3    3    0    0  0.56026523163E+01 -0.98208605280E+00 -0.65496344671E+01  0.86747863320E+01  0.51100000000E-03 0. -1.
        -11    1    3    3    0    0  0.18707252684E+02  0.91322002156E+01 -0.23339204753E+02  0.31274220414E+02  0.51100000000E-03 0.  1.
        -12    1    3    3    0    0  0.22796588238E+01 -0.74547534794E+00 -0.57100365248E+01  0.61933105010E+01  0.00000000000E+00 0.  1.
</event>
<event>
 7    1  0.4623443E-009  0.4614232E+02  0.7816164E-02  0.1320468E+00
        -11   -1    0    0    0    0  0.00000000000E+00  0.00000000000E+00  0.45593999997E+02  0.45594000000E+02  0.51100000000E-03 0. -1.
         11   -1    0    0    0    0 -0.00000000000E+00 -0.00000000000E+00 -0.45593999997E+02  0.45594000000E+02  0.51100000000E-03 0.  1.
    9900012    2    1    2    0    0 -0.67772091983E+01  0.34784430960E+01 -0.44396884901E+02  0.46142317412E+02  0.99999968143E+01 0.  0.
         12    1    1    2    0    0  0.67772091983E+01 -0.34784430960E+01  0.44396884901E+02  0.45045682588E+02  0.00000000000E+00 0. -1.
         11    1    3    3    0    0 -0.42770003766E+01 -0.89717916425E+00 -0.14810462115E+02  0.15441743781E+02  0.51100000000E-03 0. -1.
        -11    1    3    3    0    0 -0.26878048687E+01 -0.54965160830E+00 -0.58982542507E+01  0.65050607507E+01  0.51100000000E-03 0.  1.
         12    1    3    3    0    0  0.18759604706E+00  0.49252738685E+01 -0.23688168536E+02  0.24195512880E+02  0.00000000000E+00 0. -1.
</event>
<event>
 7    1  0.4623443E-009  0.4614232E+02  0.7816164E-02  0.1320468E+00
        -11   -1    0    0    0    0  0.00000000000E+00  0.00000000000E+00  0.45593999997E+02  0.45594000000E+02  0.51100000000E-03 0.  1.
         11   -1    0    0    0    0 -0.00000000000E+00 -0.00000000000E+00 -0.45593999997E+02  0.45594000000E+02  0.51100000000E-03 0. -1.
    9900012    2    1    2    0    0 -0.32212930955E+02 -0.25059988456E+02 -0.19064038607E+02  0.46142317519E+02  0.99999977968E+01 0.  0.
         12    1    1    2    0    0  0.32212930955E+02  0.25059988456E+02  0.19064038607E+02  0.45045682481E+02  0.00000000000E+00 0. -1.
         11    1    3    3    0    0 -0.37388679226E+01 -0.18549250057E+00 -0.89651183984E+00  0.38493213103E+01  0.51100000000E-03 0. -1.
        -11    1    3    3    0    0 -0.18313154308E+02 -0.18176338422E+02 -0.14424386713E+02  0.29560342208E+02  0.51100000000E-03 0.  1.
         12    1    3    3    0    0 -0.10160908724E+02 -0.66981575339E+01 -0.37431400532E+01  0.12732654001E+02  0.00000000000E+00 0. -1.
</event>
<event>
 7    1  0.4623443E-009  0.4614232E+02  0.7816164E-02  0.1320468E+00
        -11   -1    0    0    0    0  0.00000000000E+00  0.00000000000E+00  0.45593999997E+02  0.45594000000E+02  0.51100000000E-03 0. -1.
         11   -1    0    0    0    0 -0.00000000000E+00 -0.00000000000E+00 -0.45593999997E+02  0.45594000000E+02  0.51100000000E-03 0.  1.
    9900012    2    1    2    0    0 -0.37725792157E+02 -0.33482641356E+01 -0.24385803682E+02  0.46142315547E+02  0.99999798108E+01 0.  0.
         12    1    1    2    0    0  0.37725792157E+02  0.33482641356E+01  0.24385803682E+02  0.45045684453E+02  0.00000000000E+00 0. -1.
         11    1    3    3    0    0 -0.57277190311E+01 -0.17464674720E+01 -0.33427801478E+01  0.68579219380E+01  0.51100000000E-03 0. -1.
        -11    1    3    3    0    0 -0.29583340313E+02  0.10286362455E+01 -0.18675723912E+02  0.35000211149E+02  0.51100000000E-03 0.  1.
         12    1    3    3    0    0 -0.24147328135E+01 -0.26304329091E+01 -0.23672996220E+01  0.42841824599E+01  0.00000000000E+00 0. -1.
</event>
<event>
 7    1  0.4623443E-009  0.4614232E+02  0.7816164E-02  0.1320468E+00
        -11   -1    0    0    0    0  0.00000000000E+00  0.00000000000E+00  0.45593999997E+02  0.45594000000E+02  0.51100000000E-03 0. -1.
         11   -1    0    0    0    0 -0.00000000000E+00 -0.00000000000E+00 -0.45593999997E+02  0.45594000000E+02  0.51100000000E-03 0.  1.
    9900012    2    1    2    0    0 -0.27184699636E+02  0.83835108957E+01  0.34925953765E+02  0.46142318791E+02  0.10000009390E+02 0.  0.
        -12    1    1    2    0    0  0.27184699636E+02 -0.83835108957E+01 -0.34925953765E+02  0.45045681209E+02  0.00000000000E+00 0.  1.
         11    1    3    3    0    0 -0.16042161915E+02  0.34491873492E+01  0.15470238704E+02  0.22551632714E+02  0.51100000000E-03 0.  1.
        -11    1    3    3    0    0 -0.54201771250E+01  0.35954230302E+00  0.49928607087E+01  0.73780925076E+01  0.51100000000E-03 0. -1.
        -12    1    3    3    0    0 -0.57223605960E+01  0.45747812434E+01  0.14462854352E+02  0.16212593569E+02  0.00000000000E+00 0.  1.
</event>
<event>
 7    1  0.4623443E-009  0.4614233E+02  0.7816164E-02  0.1320468E+00
        -11   -1    0    0    0    0  0.00000000000E+00  0.00000000000E+00  0.45593999997E+02  0.45594000000E+02  0.51100000000E-03 0. -1.
         11   -1    0    0    0    0 -0.00000000000E+00 -0.00000000000E+00 -0.45593999997E+02  0.45594000000E+02  0.51100000000E-03 0.  1.
    9900012    2    1    2    0    0  0.82048512177E+01  0.28950054693E+02  0.33521449608E+02  0.46142325024E+02  0.10000066229E+02 0.  0.
        -12    1    1    2    0    0 -0.82048512177E+01 -0.28950054693E+02 -0.33521449608E+02  0.45045674976E+02  0.00000000000E+00 0.  1.
         11    1    3    3    0    0  0.93926222932E+00  0.15854728037E+02  0.18354654504E+02  0.24272370236E+02  0.51100000000E-03 0. -1.
        -11    1    3    3    0    0  0.89005871623E+00  0.62180463892E+01  0.49139318454E+01  0.79751508988E+01  0.51100000000E-03 0.  1.
        -12    1    3    3    0    0  0.63755302722E+01  0.68772802670E+01  0.10252863258E+02  0.13894803889E+02  0.00000000000E+00 0.  1.
</event>
<event>
 7    1  0.4623443E-009  0.4614232E+02  0.7816164E-02  0.1320468E+00
        -11   -1    0    0    0    0  0.00000000000E+00  0.00000000000E+00  0.45593999997E+02  0.45594000000E+02  0.51100000000E-03 0. -1.
         11   -1    0    0    0    0 -0.00000000000E+00 -0.00000000000E+00 -0.45593999997E+02  0.45594000000E+02  0.51100000000E-03 0.  1.
    9900012    2    1    2    0    0  0.13755866468E+02 -0.61674695311E+01  0.42448227339E+02  0.46142317111E+02  0.99999940740E+01 0.  0.
        -12    1    1    2    0    0 -0.13755866468E+02  0.61674695311E+01 -0.42448227339E+02  0.45045682889E+02  0.00000000000E+00 0.  1.
         11    1    3    3    0    0  0.42229340319E+01  0.10452138755E+00  0.45437094227E+01  0.62039819582E+01  0.51100000000E-03 0.  1.
        -11    1    3    3    0    0  0.68392008356E+00  0.92437054419E+00  0.42913112389E+01  0.44426973782E+01  0.51100000000E-03 0. -1.
        -12    1    3    3    0    0  0.88490123524E+01 -0.71963614628E+01  0.33613206677E+02  0.35495637775E+02  0.00000000000E+00 0.  1.
</event>
<event>
 7    1  0.4623443E-009  0.4614231E+02  0.7816164E-02  0.1320468E+00
        -11   -1    0    0    0    0  0.00000000000E+00  0.00000000000E+00  0.45593999997E+02  0.45594000000E+02  0.51100000000E-03 0. -1.
         11   -1    0    0    0    0 -0.00000000000E+00 -0.00000000000E+00 -0.45593999997E+02  0.45594000000E+02  0.51100000000E-03 0.  1.
    9900012    2    1    2    0    0  0.19308049008E+02 -0.67185847466E+01  0.40139427410E+02  0.46142314632E+02  0.99999714674E+01 0.  0.
        -12    1    1    2    0    0 -0.19308049008E+02  0.67185847466E+01 -0.40139427410E+02  0.45045685368E+02  0.00000000000E+00 0.  1.
         11    1    3    3    0    0  0.32888381733E+01  0.59113393487E+00  0.65119996929E+01  0.73192920505E+01  0.51100000000E-03 0. -1.
        -11    1    3    3    0    0  0.13414578121E+01  0.10648737493E+01  0.76016436287E+01  0.77922045201E+01  0.51100000000E-03 0.  1.
         12    1    3    3    0    0  0.14677753023E+02 -0.83745924308E+01  0.26025784088E+02  0.31030818062E+02  0.00000000000E+00 0. -1.
</event>
<event>
 7    1  0.4623443E-009  0.4614232E+02  0.7816164E-02  0.1320468E+00
        -11   -1    0    0    0    0  0.00000000000E+00  0.00000000000E+00  0.45593999997E+02  0.45594000000E+02  0.51100000000E-03 0. -1.
         11   -1    0    0    0    0 -0.00000000000E+00 -0.00000000000E+00 -0.45593999997E+02  0.45594000000E+02  0.51100000000E-03 0.  1.
    9900012    2    1    2    0    0 -0.17029735977E+02  0.15342835482E+02  0.38777557762E+02  0.46142317698E+02  0.99999994275E+01 0.  0.
        -12    1    1    2    0    0  0.17029735977E+02 -0.15342835482E+02 -0.38777557762E+02  0.45045682302E+02  0.00000000000E+00 0.  1.
         11    1    3    3    0    0 -0.15050990102E+02  0.95279539073E+01  0.28988933210E+02  0.34024586076E+02  0.51100000000E-03 0. -1.
        -11    1    3    3    0    0  0.91034724917E+00  0.13290059338E+01  0.12083804999E+01  0.20137459075E+01  0.51100000000E-03 0.  1.
        -12    1    3    3    0    0 -0.28890931238E+01  0.44858756405E+01  0.85802440514E+01  0.10103985715E+02  0.00000000000E+00 0.  1.
</event>
<event>
 7    1  0.4623443E-009  0.4614232E+02  0.7816164E-02  0.1320468E+00
        -11   -1    0    0    0    0  0.00000000000E+00  0.00000000000E+00  0.45593999997E+02  0.45594000000E+02  0.51100000000E-03 0. -1.
         11   -1    0    0    0    0 -0.00000000000E+00 -0.00000000000E+00 -0.45593999997E+02  0.45594000000E+02  0.51100000000E-03 0.  1.
    9900012    2    1    2    0    0 -0.27237099379E+02  0.71871983916E+01  0.35151075885E+02  0.46142317197E+02  0.99999948586E+01 0.  0.
        -12    1    1    2    0    0  0.27237099379E+02 -0.71871983916E+01 -0.35151075885E+02  0.45045682803E+02  0.00000000000E+00 0.  1.
         11    1    3    3    0    0 -0.12389567776E+02  0.25840939482E+01  0.13166611725E+02  0.18263039062E+02  0.51100000000E-03 0. -1.
        -11    1    3    3    0    0 -0.90965482859E+01 -0.95158671163E+00  0.11985465847E+02  0.15076607703E+02  0.51100000000E-03 0.  1.
        -12    1    3    3    0    0 -0.57509833169E+01  0.55546911550E+01  0.99989983128E+01  0.12802670432E+02  0.00000000000E+00 0.  1.
</event>
<event>
 7    1  0.4623443E-009  0.4614231E+02  0.7816164E-02  0.1320468E+00
        -11   -1    0    0    0    0  0.00000000000E+00  0.00000000000E+00  0.45593999997E+02  0.45594000000E+02  0.51100000000E-03 0. -1.
         11   -1    0    0    0    0 -0.00000000000E+00 -0.00000000000E+00 -0.45593999997E+02  0.45594000000E+02  0.51100000000E-03 0.  1.
    9900012    2    1    2    0    0 -0.34811998161E+02 -0.24019189168E+02  0.15502170675E+02  0.46142312527E+02  0.99999522750E+01 0.  0.
        -12    1    1    2    0    0  0.34811998161E+02  0.24019189168E+02 -0.15502170675E+02  0.45045687473E+02  0.00000000000E+00 0.  1.
         11    1    3    3    0    0 -0.41149032790E+01 -0.49060113204E+01  0.41426176802E+01  0.76264446223E+01  0.51100000000E-03 0. -1.
        -11    1    3    3    0    0 -0.96046815290E+01 -0.43563425142E+01  0.62888385803E+01  0.12279133452E+02  0.51100000000E-03 0.  1.
         12    1    3    3    0    0 -0.21092413353E+02 -0.14756835333E+02  0.50707144142E+01  0.26236734453E+02  0.00000000000E+00 0. -1.
</event>
<event>
 7    1  0.4623443E-009  0.4614232E+02  0.7816164E-02  0.1320468E+00
        -11   -1    0    0    0    0  0.00000000000E+00  0.00000000000E+00  0.45593999997E+02  0.45594000000E+02  0.51100000000E-03 0. -1.
         11   -1    0    0    0    0 -0.00000000000E+00 -0.00000000000E+00 -0.45593999997E+02  0.45594000000E+02  0.51100000000E-03 0.  1.
    9900012    2    1    2    0    0 -0.34054948774E+02 -0.19863355917E+02  0.21790389357E+02  0.46142317492E+02  0.99999975457E+01 0.  0.
        -12    1    1    2    0    0  0.34054948774E+02  0.19863355917E+02 -0.21790389357E+02  0.45045682508E+02  0.00000000000E+00 0.  1.
         11    1    3    3    0    0 -0.35764759788E+01 -0.38725816632E+01  0.46848482267E+01  0.70523664349E+01  0.51100000000E-03 0. -1.
        -11    1    3    3    0    0 -0.21630918887E+01 -0.10860235883E+01 -0.63527873290E+00  0.25023974670E+01  0.51100000000E-03 0.  1.
         12    1    3    3    0    0 -0.28315380907E+02 -0.14904750666E+02  0.17740819863E+02  0.36587553590E+02  0.00000000000E+00 0. -1.
</event>
<event>
 7    1  0.4623443E-009  0.4614232E+02  0.7816164E-02  0.1320468E+00
        -11   -1    0    0    0    0  0.00000000000E+00  0.00000000000E+00  0.45593999997E+02  0.45594000000E+02  0.51100000000E-03 0. -1.
         11   -1    0    0    0    0 -0.00000000000E+00 -0.00000000000E+00 -0.45593999997E+02  0.45594000000E+02  0.51100000000E-03 0.  1.
    9900012    2    1    2    0    0 -0.18585349098E+02 -0.39932915059E+02  0.94371891848E+01  0.46142318232E+02  0.10000004296E+02 0.  0.
        -12    1    1    2    0    0  0.18585349098E+02  0.39932915059E+02 -0.94371891848E+01  0.45045681768E+02  0.00000000000E+00 0.  1.
         11    1    3    3    0    0 -0.50343200809E+00 -0.36838627424E+01  0.20126762511E+01  0.42279018962E+01  0.51100000000E-03 0. -1.
        -11    1    3    3    0    0 -0.13226684102E+00 -0.65163419113E+01  0.98355703738E+00  0.65914786754E+01  0.51100000000E-03 0.  1.
         12    1    3    3    0    0 -0.17949650249E+02 -0.29732710405E+02  0.64409558963E+01  0.35322937661E+02  0.00000000000E+00 0. -1.
</event>
<event>
 7    1  0.4623443E-009  0.4614232E+02  0.7816164E-02  0.1320468E+00
        -11   -1    0    0    0    0  0.00000000000E+00  0.00000000000E+00  0.45593999997E+02  0.45594000000E+02  0.51100000000E-03 0. -1.
         11   -1    0    0    0    0 -0.00000000000E+00 -0.00000000000E+00 -0.45593999997E+02  0.45594000000E+02  0.51100000000E-03 0.  1.
    9900012    2    1    2    0    0 -0.47562265022E+01 -0.40950629645E+02  0.18153176538E+02  0.46142316774E+02  0.99999909973E+01 0.  0.
        -12    1    1    2    0    0  0.47562265022E+01  0.40950629645E+02 -0.18153176538E+02  0.45045683226E+02  0.00000000000E+00 0.  1.
         11    1    3    3    0    0 -0.36604223540E+01 -0.24069226407E+02  0.15013820228E+02  0.28603166778E+02  0.51100000000E-03 0. -1.
        -11    1    3    3    0    0 -0.12787630306E+01 -0.23265527531E+01  0.94863242787E+00  0.28192173285E+01  0.51100000000E-03 0.  1.
         12    1    3    3    0    0  0.18295888237E+00 -0.14554850485E+02  0.21907238827E+01  0.14719932667E+02  0.00000000000E+00 0. -1.
</event>
<event>
 7    1  0.4623443E-009  0.4614232E+02  0.7816164E-02  0.1320468E+00
        -11   -1    0    0    0    0  0.00000000000E+00  0.00000000000E+00  0.45593999997E+02  0.45594000000E+02  0.51100000000E-03 0. -1.
         11   -1    0    0    0    0 -0.00000000000E+00 -0.00000000000E+00 -0.45593999997E+02  0.45594000000E+02  0.51100000000E-03 0.  1.
    9900012    2    1    2    0    0 -0.61890700730E+01  0.49489640285E+01 -0.44343169146E+02  0.46142317818E+02  0.10000000522E+02 0.  0.
         12    1    1    2    0    0  0.61890700730E+01 -0.49489640285E+01  0.44343169146E+02  0.45045682182E+02  0.00000000000E+00 0. -1.
         11    1    3    3    0    0 -0.17328026125E+01 -0.99614792855E+00 -0.38066060026E+01  0.42994377667E+01  0.51100000000E-03 0. -1.
        -11    1    3    3    0    0 -0.31756742066E+01  0.34021008543E+01 -0.85902259704E+01  0.97699119430E+01  0.51100000000E-03 0.  1.
         12    1    3    3    0    0 -0.12805932539E+01  0.25430111027E+01 -0.31946337173E+02  0.32072968109E+02  0.00000000000E+00 0. -1.
</event>
<event>
 7    1  0.4623443E-009  0.4614232E+02  0.7816164E-02  0.1320468E+00
        -11   -1    0    0    0    0  0.00000000000E+00  0.00000000000E+00  0.45593999997E+02  0.45594000000E+02  0.51100000000E-03 0. -1.
         11   -1    0    0    0    0 -0.00000000000E+00 -0.00000000000E+00 -0.45593999997E+02  0.45594000000E+02  0.51100000000E-03 0.  1.
    9900012    2    1    2    0    0  0.40472207514E+01  0.31265674053E+02 -0.32174386222E+02  0.46142317648E+02  0.99999989695E+01 0.  0.
         12    1    1    2    0    0 -0.40472207514E+01 -0.31265674053E+02  0.32174386222E+02  0.45045682352E+02  0.00000000000E+00 0. -1.
         11    1    3    3    0    0  0.13503055922E+01  0.11177739640E+02 -0.61579776036E+01  0.12832999536E+02  0.51100000000E-03 0. -1.
        -11    1    3    3    0    0  0.13129333449E+01  0.15180061242E+02 -0.16150563671E+02  0.22203575398E+02  0.51100000000E-03 0.  1.
        -12    1    3    3    0    0  0.13839818143E+01  0.49078731700E+01 -0.98658449473E+01  0.11105742714E+02  0.00000000000E+00 0.  1.
</event>
<event>
 7    1  0.4623443E-009  0.4614232E+02  0.7816164E-02  0.1320468E+00
        -11   -1    0    0    0    0  0.00000000000E+00  0.00000000000E+00  0.45593999997E+02  0.45594000000E+02  0.51100000000E-03 0. -1.
         11   -1    0    0    0    0 -0.00000000000E+00 -0.00000000000E+00 -0.45593999997E+02  0.45594000000E+02  0.51100000000E-03 0.  1.
    9900012    2    1    2    0    0 -0.28883000771E+02 -0.13559377164E+02 -0.31796683695E+02  0.46142317225E+02  0.99999951150E+01 0.  0.
         12    1    1    2    0    0  0.28883000771E+02  0.13559377164E+02  0.31796683695E+02  0.45045682775E+02  0.00000000000E+00 0. -1.
         11    1    3    3    0    0 -0.92490154369E+01 -0.18148987086E+01 -0.99487493607E+01  0.13704588939E+02  0.51100000000E-03 0. -1.
        -11    1    3    3    0    0 -0.18660516935E+02 -0.11117093138E+02 -0.17369417950E+02  0.27811891923E+02  0.51100000000E-03 0.  1.
         12    1    3    3    0    0 -0.97346839862E+00 -0.62738531757E+00 -0.44785163846E+01  0.46258363641E+01  0.00000000000E+00 0. -1.
</event>
<event>
 7    1  0.4623443E-009  0.4614232E+02  0.7816164E-02  0.1320468E+00
        -11   -1    0    0    0    0  0.00000000000E+00  0.00000000000E+00  0.45593999997E+02  0.45594000000E+02  0.51100000000E-03 0. -1.
         11   -1    0    0    0    0 -0.00000000000E+00 -0.00000000000E+00 -0.45593999997E+02  0.45594000000E+02  0.51100000000E-03 0.  1.
    9900012    2    1    2    0    0  0.15261768458E+02 -0.13914163758E+02  0.40032338433E+02  0.46142315967E+02  0.99999836443E+01 0.  0.
        -12    1    1    2    0    0 -0.15261768458E+02  0.13914163758E+02 -0.40032338433E+02  0.45045684033E+02  0.00000000000E+00 0.  1.
         11    1    3    3    0    0  0.85544957116E+01 -0.75278628749E+01  0.17387224481E+02  0.20788547129E+02  0.51100000000E-03 0. -1.
        -11    1    3    3    0    0  0.68493174588E+01 -0.50380661136E+01  0.12495370864E+02  0.15113886102E+02  0.51100000000E-03 0.  1.
        -12    1    3    3    0    0 -0.14204471262E+00 -0.13482347700E+01  0.10149743088E+02  0.10239882736E+02  0.00000000000E+00 0.  1.
</event>
<event>
 7    1  0.4623443E-009  0.4614232E+02  0.7816164E-02  0.1320468E+00
        -11   -1    0    0    0    0  0.00000000000E+00  0.00000000000E+00  0.45593999997E+02  0.45594000000E+02  0.51100000000E-03 0. -1.
         11   -1    0    0    0    0 -0.00000000000E+00 -0.00000000000E+00 -0.45593999997E+02  0.45594000000E+02  0.51100000000E-03 0.  1.
    9900012    2    1    2    0    0 -0.13466940594E+02 -0.42187104574E+02 -0.82463868268E+01  0.46142321218E+02  0.10000031518E+02 0.  0.
         12    1    1    2    0    0  0.13466940594E+02  0.42187104574E+02  0.82463868268E+01  0.45045678782E+02  0.00000000000E+00 0. -1.
         11    1    3    3    0    0 -0.62270749402E+01 -0.11699011724E+02 -0.23344046520E+01  0.13457071857E+02  0.51100000000E-03 0. -1.
        -11    1    3    3    0    0 -0.69176769130E+01 -0.30855762706E+02 -0.60070785544E+01  0.32187223227E+02  0.51100000000E-03 0.  1.
         12    1    3    3    0    0 -0.32218874116E+00  0.36766985628E+00  0.95096379607E-01  0.49802613341E+00  0.00000000000E+00 0. -1.
</event>
<event>
 7    1  0.4623443E-009  0.4614232E+02  0.7816164E-02  0.1320468E+00
        -11   -1    0    0    0    0  0.00000000000E+00  0.00000000000E+00  0.45593999997E+02  0.45594000000E+02  0.51100000000E-03 0. -1.
         11   -1    0    0    0    0 -0.00000000000E+00 -0.00000000000E+00 -0.45593999997E+02  0.45594000000E+02  0.51100000000E-03 0.  1.
    9900012    2    1    2    0    0 -0.27412816232E+02 -0.21311845949E+02  0.28695927455E+02  0.46142317366E+02  0.99999963933E+01 0.  0.
        -12    1    1    2    0    0  0.27412816232E+02  0.21311845949E+02 -0.28695927455E+02  0.45045682634E+02  0.00000000000E+00 0.  1.
         11    1    3    3    0    0 -0.97548309232E+01 -0.47411499705E+01  0.71425426578E+01  0.12986575579E+02  0.51100000000E-03 0. -1.
        -11    1    3    3    0    0 -0.80014826687E+01 -0.72748770716E+01  0.51658170579E+01  0.11984708067E+02  0.51100000000E-03 0.  1.
         12    1    3    3    0    0 -0.96565026400E+01 -0.92958189070E+01  0.16387567739E+02  0.21171033720E+02  0.00000000000E+00 0. -1.
</event>
<event>
 7    1  0.4623443E-009  0.4614232E+02  0.7816164E-02  0.1320468E+00
        -11   -1    0    0    0    0  0.00000000000E+00  0.00000000000E+00  0.45593999997E+02  0.45594000000E+02  0.51100000000E-03 0. -1.
         11   -1    0    0    0    0 -0.00000000000E+00 -0.00000000000E+00 -0.45593999997E+02  0.45594000000E+02  0.51100000000E-03 0.  1.
    9900012    2    1    2    0    0 -0.10139870319E+02  0.15884823704E+02  0.40914164183E+02  0.46142318465E+02  0.10000006415E+02 0.  0.
        -12    1    1    2    0    0  0.10139870319E+02 -0.15884823704E+02 -0.40914164183E+02  0.45045681535E+02  0.00000000000E+00 0.  1.
         11    1    3    3    0    0 -0.50682305593E+01  0.47677999174E+01  0.23824555662E+02  0.24819918006E+02  0.51100000000E-03 0. -1.
        -11    1    3    3    0    0 -0.48844852428E+01  0.77115982118E+01  0.14043750638E+02  0.16749742545E+02  0.51100000000E-03 0.  1.
         12    1    3    3    0    0 -0.18715451677E+00  0.34054255744E+01  0.30458578827E+01  0.45726579139E+01  0.00000000000E+00 0. -1.
</event>
<event>
 7    1  0.4623443E-009  0.4614232E+02  0.7816164E-02  0.1320468E+00
        -11   -1    0    0    0    0  0.00000000000E+00  0.00000000000E+00  0.45593999997E+02  0.45594000000E+02  0.51100000000E-03 0. -1.
         11   -1    0    0    0    0 -0.00000000000E+00 -0.00000000000E+00 -0.45593999997E+02  0.45594000000E+02  0.51100000000E-03 0.  1.
    9900012    2    1    2    0    0  0.39369344277E+02  0.19897327215E+02  0.91249422784E+01  0.46142317957E+02  0.10000001789E+02 0.  0.
        -12    1    1    2    0    0 -0.39369344277E+02 -0.19897327215E+02 -0.91249422784E+01  0.45045682043E+02  0.00000000000E+00 0.  1.
         11    1    3    3    0    0  0.31187075580E+02  0.16294482051E+02  0.69069118689E+01  0.35858740362E+02  0.51100000000E-03 0. -1.
        -11    1    3    3    0    0  0.80901044596E+01  0.27204112633E+01  0.74983001081E+00  0.85681195670E+01  0.51100000000E-03 0.  1.
         12    1    3    3    0    0  0.92164237630E-01  0.88243390060E+00  0.14682003986E+01  0.17154580281E+01  0.00000000000E+00 0. -1.
</event>
<event>
 7    1  0.4623443E-009  0.4614232E+02  0.7816164E-02  0.1320468E+00
        -11   -1    0    0    0    0  0.00000000000E+00  0.00000000000E+00  0.45593999997E+02  0.45594000000E+02  0.51100000000E-03 0. -1.
         11   -1    0    0    0    0 -0.00000000000E+00 -0.00000000000E+00 -0.45593999997E+02  0.45594000000E+02  0.51100000000E-03 0.  1.
    9900012    2    1    2    0    0  0.22409087738E+02  0.13910625539E+02  0.36516308309E+02  0.46142317758E+02  0.99999999678E+01 0.  0.
        -12    1    1    2    0    0 -0.22409087738E+02 -0.13910625539E+02 -0.36516308309E+02  0.45045682242E+02  0.00000000000E+00 0.  1.
         11    1    3    3    0    0  0.14708341191E+02  0.75219293539E+01  0.18198442624E+02  0.24578405888E+02  0.51100000000E-03 0. -1.
        -11    1    3    3    0    0  0.33179399811E+01  0.15233303791E+01  0.24468181727E+01  0.43950177011E+01  0.51100000000E-03 0.  1.
         12    1    3    3    0    0  0.43828065662E+01  0.48653658063E+01  0.15871047512E+02  0.17168894168E+02  0.00000000000E+00 0. -1.
</event>
<event>
 7    1  0.4623443E-009  0.4614232E+02  0.7816164E-02  0.1320468E+00
        -11   -1    0    0    0    0  0.00000000000E+00  0.00000000000E+00  0.45593999997E+02  0.45594000000E+02  0.51100000000E-03 0. -1.
         11   -1    0    0    0    0 -0.00000000000E+00 -0.00000000000E+00 -0.45593999997E+02  0.45594000000E+02  0.51100000000E-03 0.  1.
    9900012    2    1    2    0    0 -0.33050097634E+02  0.22133256786E+02  0.21140563146E+02  0.46142318523E+02  0.10000006949E+02 0.  0.
        -12    1    1    2    0    0  0.33050097634E+02 -0.22133256786E+02 -0.21140563146E+02  0.45045681477E+02  0.00000000000E+00 0.  1.
         11    1    3    3    0    0 -0.10481662928E+02  0.68088266620E+01  0.68392266990E+01  0.14247820898E+02  0.51100000000E-03 0.  1.
        -11    1    3    3    0    0 -0.10027107959E+02  0.24366258380E+01  0.70887905920E+01  0.12519224889E+02  0.51100000000E-03 0. -1.
        -12    1    3    3    0    0 -0.12541326747E+02  0.12887804286E+02  0.72125458551E+01  0.19375272736E+02  0.00000000000E+00 0.  1.
</event>
<event>
 7    1  0.4623443E-009  0.4614232E+02  0.7816164E-02  0.1320468E+00
        -11   -1    0    0    0    0  0.00000000000E+00  0.00000000000E+00  0.45593999997E+02  0.45594000000E+02  0.51100000000E-03 0. -1.
         11   -1    0    0    0    0 -0.00000000000E+00 -0.00000000000E+00 -0.45593999997E+02  0.45594000000E+02  0.51100000000E-03 0.  1.
    9900012    2    1    2    0    0  0.40412238334E+02 -0.13306760235E+02 -0.14795086559E+02  0.46142318060E+02  0.10000002729E+02 0.  0.
         12    1    1    2    0    0 -0.40412238334E+02  0.13306760235E+02  0.14795086559E+02  0.45045681940E+02  0.00000000000E+00 0. -1.
         11    1    3    3    0    0  0.33554438708E+01  0.65640742499E+00 -0.39720900324E+00  0.34420414773E+01  0.51100000000E-03 0. -1.
        -11    1    3    3    0    0  0.13282333312E+02 -0.84541145400E+01 -0.46034591237E+01  0.16403788191E+02  0.51100000000E-03 0.  1.
        -12    1    3    3    0    0  0.23774461152E+02 -0.55090531196E+01 -0.97944184323E+01  0.26296488392E+02  0.00000000000E+00 0.  1.
</event>
<event>
 7    1  0.4623443E-009  0.4614232E+02  0.7816164E-02  0.1320468E+00
        -11   -1    0    0    0    0  0.00000000000E+00  0.00000000000E+00  0.45593999997E+02  0.45594000000E+02  0.51100000000E-03 0. -1.
         11   -1    0    0    0    0 -0.00000000000E+00 -0.00000000000E+00 -0.45593999997E+02  0.45594000000E+02  0.51100000000E-03 0.  1.
    9900012    2    1    2    0    0  0.39223897784E+01  0.14600733049E+02  0.42432851384E+02  0.46142318478E+02  0.10000006540E+02 0.  0.
        -12    1    1    2    0    0 -0.39223897784E+01 -0.14600733049E+02 -0.42432851384E+02  0.45045681522E+02  0.00000000000E+00 0.  1.
         11    1    3    3    0    0  0.61616364516E+00 -0.14686957205E+00  0.28186798021E+01  0.28889763579E+01  0.51100000000E-03 0. -1.
        -11    1    3    3    0    0 -0.98775759189E+00  0.51772052386E+01  0.23067273139E+02  0.23661745698E+02  0.51100000000E-03 0.  1.
        -12    1    3    3    0    0  0.42939837252E+01  0.95703973825E+01  0.16546898443E+02  0.19591596423E+02  0.00000000000E+00 0.  1.
</event>
<event>
 7    1  0.4623443E-009  0.4614232E+02  0.7816164E-02  0.1320468E+00
        -11   -1    0    0    0    0  0.00000000000E+00  0.00000000000E+00  0.45593999997E+02  0.45594000000E+02  0.51100000000E-03 0. -1.
         11   -1    0    0    0    0 -0.00000000000E+00 -0.00000000000E+00 -0.45593999997E+02  0.45594000000E+02  0.51100000000E-03 0.  1.
    9900012    2    1    2    0    0  0.33451185168E+02 -0.27499190844E+02  0.12406688784E+02  0.46142320820E+02  0.10000027892E+02 0.  0.
        -12    1    1    2    0    0 -0.33451185168E+02  0.27499190844E+02 -0.12406688784E+02  0.45045679180E+02  0.00000000000E+00 0.  1.
         11    1    3    3    0    0  0.75696292950E+01 -0.68819896545E+01  0.71881293816E+01  0.12503210529E+02  0.51100000000E-03 0. -1.
        -11    1    3    3    0    0  0.14545418603E+02 -0.12832987773E+02  0.18797848181E+01  0.19488159706E+02  0.51100000000E-03 0.  1.
         12    1    3    3    0    0  0.11336137270E+02 -0.77842134167E+01  0.33387745839E+01  0.14150950584E+02  0.00000000000E+00 0. -1.
</event>
<event>
 7    1  0.4623443E-009  0.4614232E+02  0.7816164E-02  0.1320468E+00
        -11   -1    0    0    0    0  0.00000000000E+00  0.00000000000E+00  0.45593999997E+02  0.45594000000E+02  0.51100000000E-03 0. -1.
         11   -1    0    0    0    0 -0.00000000000E+00 -0.00000000000E+00 -0.45593999997E+02  0.45594000000E+02  0.51100000000E-03 0.  1.
    9900012    2    1    2    0    0 -0.50405096436E+01 -0.16137055120E+02  0.41752870955E+02  0.46142317428E+02  0.99999969580E+01 0.  0.
        -12    1    1    2    0    0  0.50405096436E+01  0.16137055120E+02 -0.41752870955E+02  0.45045682572E+02  0.00000000000E+00 0.  1.
         11    1    3    3    0    0 -0.21455560528E+01 -0.67722282714E+01  0.83101803935E+01  0.10932775721E+02  0.51100000000E-03 0. -1.
        -11    1    3    3    0    0 -0.15757010486E+01 -0.11969428507E+01  0.25477338282E+01  0.32259035793E+01  0.51100000000E-03 0.  1.
         12    1    3    3    0    0 -0.13192525422E+01 -0.81678839978E+01  0.30894956734E+02  0.31983638127E+02  0.00000000000E+00 0. -1.
</event>
<event>
 7    1  0.4623443E-009  0.4614232E+02  0.7816164E-02  0.1320468E+00
        -11   -1    0    0    0    0  0.00000000000E+00  0.00000000000E+00  0.45593999997E+02  0.45594000000E+02  0.51100000000E-03 0. -1.
         11   -1    0    0    0    0 -0.00000000000E+00 -0.00000000000E+00 -0.45593999997E+02  0.45594000000E+02  0.51100000000E-03 0.  1.
    9900012    2    1    2    0    0 -0.22712666616E+02 -0.35066052654E+02  0.16841029246E+02  0.46142317192E+02  0.99999948079E+01 0.  0.
        -12    1    1    2    0    0  0.22712666616E+02  0.35066052654E+02 -0.16841029246E+02  0.45045682808E+02  0.00000000000E+00 0.  1.
         11    1    3    3    0    0 -0.61552602345E+01 -0.68644457317E+01  0.25308558466E+01  0.95610185303E+01  0.51100000000E-03 0. -1.
        -11    1    3    3    0    0 -0.53215895570E+01 -0.33580602516E+01  0.15696348049E+01  0.64853402183E+01  0.51100000000E-03 0.  1.
         12    1    3    3    0    0 -0.11235816825E+02 -0.24843546671E+02  0.12740538595E+02  0.30095958443E+02  0.00000000000E+00 0. -1.
</event>
<event>
 7    1  0.4623443E-009  0.4614232E+02  0.7816164E-02  0.1320468E+00
        -11   -1    0    0    0    0  0.00000000000E+00  0.00000000000E+00  0.45593999997E+02  0.45594000000E+02  0.51100000000E-03 0.  1.
         11   -1    0    0    0    0 -0.00000000000E+00 -0.00000000000E+00 -0.45593999997E+02  0.45594000000E+02  0.51100000000E-03 0. -1.
    9900012    2    1    2    0    0  0.43795026090E+02  0.14773049239E+01  0.10436791588E+02  0.46142319200E+02  0.10000013124E+02 0.  0.
        -12    1    1    2    0    0 -0.43795026090E+02 -0.14773049239E+01 -0.10436791588E+02  0.45045680800E+02  0.00000000000E+00 0.  1.
         11    1    3    3    0    0  0.33914586386E+02  0.24709743532E+01  0.68703484723E+01  0.34691592243E+02  0.51100000000E-03 0. -1.
        -11    1    3    3    0    0  0.10156752355E+02 -0.59891936890E+00  0.28125140863E+01  0.10555972648E+02  0.51100000000E-03 0.  1.
        -12    1    3    3    0    0 -0.27631265096E+00 -0.39475006033E+00  0.75392902926E+00  0.89475430838E+00  0.00000000000E+00 0.  1.
</event>
<event>
 7    1  0.4623443E-009  0.4614232E+02  0.7816164E-02  0.1320468E+00
        -11   -1    0    0    0    0  0.00000000000E+00  0.00000000000E+00  0.45593999997E+02  0.45594000000E+02  0.51100000000E-03 0. -1.
         11   -1    0    0    0    0 -0.00000000000E+00 -0.00000000000E+00 -0.45593999997E+02  0.45594000000E+02  0.51100000000E-03 0.  1.
    9900012    2    1    2    0    0 -0.40845172861E+02  0.52196253418E+01  0.18263099989E+02  0.46142318120E+02  0.10000003276E+02 0.  0.
        -12    1    1    2    0    0  0.40845172861E+02 -0.52196253418E+01 -0.18263099989E+02  0.45045681880E+02  0.00000000000E+00 0.  1.
         11    1    3    3    0    0 -0.11794784673E+02  0.16596579365E+01  0.25413649395E+01  0.12179078207E+02  0.51100000000E-03 0. -1.
        -11    1    3    3    0    0 -0.10559268793E+02  0.42478962289E+01  0.80044168978E+01  0.13914505739E+02  0.51100000000E-03 0.  1.
        -12    1    3    3    0    0 -0.18491119395E+02 -0.68792882354E+00  0.77173181519E+01  0.20048734175E+02  0.00000000000E+00 0.  1.
</event>
<event>
 7    1  0.4623443E-009  0.4614232E+02  0.7816164E-02  0.1320468E+00
        -11   -1    0    0    0    0  0.00000000000E+00  0.00000000000E+00  0.45593999997E+02  0.45594000000E+02  0.51100000000E-03 0. -1.
         11   -1    0    0    0    0 -0.00000000000E+00 -0.00000000000E+00 -0.45593999997E+02  0.45594000000E+02  0.51100000000E-03 0.  1.
    9900012    2    1    2    0    0  0.23219647239E+02  0.10168171240E+02 -0.37236671764E+02  0.46142318205E+02  0.10000004047E+02 0.  0.
         12    1    1    2    0    0 -0.23219647239E+02 -0.10168171240E+02  0.37236671764E+02  0.45045681795E+02  0.00000000000E+00 0. -1.
         11    1    3    3    0    0  0.18453471740E+01 -0.14141852610E-01 -0.20277077287E+01  0.27417339548E+01  0.51100000000E-03 0. -1.
        -11    1    3    3    0    0  0.20860061081E+01  0.33786851353E+00 -0.57390583723E-01  0.21139703299E+01  0.51100000000E-03 0.  1.
        -12    1    3    3    0    0  0.19288293957E+02  0.98444445790E+01 -0.35151573452E+02  0.41286613920E+02  0.00000000000E+00 0.  1.
</event>
<event>
 7    1  0.4623443E-009  0.4614232E+02  0.7816164E-02  0.1320468E+00
        -11   -1    0    0    0    0  0.00000000000E+00  0.00000000000E+00  0.45593999997E+02  0.45594000000E+02  0.51100000000E-03 0. -1.
         11   -1    0    0    0    0 -0.00000000000E+00 -0.00000000000E+00 -0.45593999997E+02  0.45594000000E+02  0.51100000000E-03 0.  1.
    9900012    2    1    2    0    0  0.10389921452E+02 -0.36898967833E+02  0.23656483458E+02  0.46142317582E+02  0.99999983697E+01 0.  0.
        -12    1    1    2    0    0 -0.10389921452E+02  0.36898967833E+02 -0.23656483458E+02  0.45045682418E+02  0.00000000000E+00 0.  1.
         11    1    3    3    0    0 -0.70908675404E+00 -0.67230110756E+01  0.40306035852E+01  0.78706700776E+01  0.51100000000E-03 0. -1.
        -11    1    3    3    0    0  0.32811204395E+01 -0.26806918663E+01  0.19614699252E+01  0.46689639910E+01  0.51100000000E-03 0.  1.
        -12    1    3    3    0    0  0.78178877661E+01 -0.27495264891E+02  0.17664409948E+02  0.33602683514E+02  0.00000000000E+00 0.  1.
</event>
<event>
 7    1  0.4623443E-009  0.4614232E+02  0.7816164E-02  0.1320468E+00
        -11   -1    0    0    0    0  0.00000000000E+00  0.00000000000E+00  0.45593999997E+02  0.45594000000E+02  0.51100000000E-03 0.  1.
         11   -1    0    0    0    0 -0.00000000000E+00 -0.00000000000E+00 -0.45593999997E+02  0.45594000000E+02  0.51100000000E-03 0. -1.
    9900012    2    1    2    0    0 -0.10237681456E+02  0.37404358979E+02  0.22917619227E+02  0.46142318040E+02  0.10000002541E+02 0.  0.
        -12    1    1    2    0    0  0.10237681456E+02 -0.37404358979E+02 -0.22917619227E+02  0.45045681960E+02  0.00000000000E+00 0.  1.
         11    1    3    3    0    0 -0.49209961315E+01  0.18000732227E+02  0.10023175309E+02  0.21182695937E+02  0.51100000000E-03 0. -1.
        -11    1    3    3    0    0 -0.46283760056E+01  0.64640986035E+01  0.24579173239E+01  0.83215258840E+01  0.51100000000E-03 0.  1.
        -12    1    3    3    0    0 -0.68830931875E+00  0.12939528149E+02  0.10436526594E+02  0.16638096219E+02  0.00000000000E+00 0.  1.
</event>
<event>
 7    1  0.4623443E-009  0.4614232E+02  0.7816164E-02  0.1320468E+00
        -11   -1    0    0    0    0  0.00000000000E+00  0.00000000000E+00  0.45593999997E+02  0.45594000000E+02  0.51100000000E-03 0.  1.
         11   -1    0    0    0    0 -0.00000000000E+00 -0.00000000000E+00 -0.45593999997E+02  0.45594000000E+02  0.51100000000E-03 0. -1.
    9900012    2    1    2    0    0 -0.22655949653E+02 -0.37076082815E+02  0.11882153222E+02  0.46142317224E+02  0.99999950997E+01 0.  0.
        -12    1    1    2    0    0  0.22655949653E+02  0.37076082815E+02 -0.11882153222E+02  0.45045682776E+02  0.00000000000E+00 0.  1.
         11    1    3    3    0    0 -0.51836693616E+01 -0.13691132728E+02  0.25494989561E+01  0.14859928957E+02  0.51100000000E-03 0. -1.
        -11    1    3    3    0    0 -0.11684581503E+02 -0.16017418301E+02  0.31955497814E+01  0.20082297493E+02  0.51100000000E-03 0.  1.
        -12    1    3    3    0    0 -0.57876987874E+01 -0.73675317865E+01  0.61371044842E+01  0.11200090773E+02  0.00000000000E+00 0.  1.
</event>
<event>
 7    1  0.4623443E-009  0.4614232E+02  0.7816164E-02  0.1320468E+00
        -11   -1    0    0    0    0  0.00000000000E+00  0.00000000000E+00  0.45593999997E+02  0.45594000000E+02  0.51100000000E-03 0. -1.
         11   -1    0    0    0    0 -0.00000000000E+00 -0.00000000000E+00 -0.45593999997E+02  0.45594000000E+02  0.51100000000E-03 0.  1.
    9900012    2    1    2    0    0  0.11421123278E+00  0.32557591205E+02  0.31130430934E+02  0.46142317416E+02  0.99999968550E+01 0.  0.
        -12    1    1    2    0    0 -0.11421123278E+00 -0.32557591205E+02 -0.31130430934E+02  0.45045682584E+02  0.00000000000E+00 0.  1.
         11    1    3    3    0    0  0.18592932472E+00  0.10168829192E+02  0.14648636090E+02  0.17833176846E+02  0.51100000000E-03 0. -1.
        -11    1    3    3    0    0  0.12579316126E+01  0.10597396446E+01  0.11035480158E+01  0.19807217221E+01  0.51100000000E-03 0.  1.
         12    1    3    3    0    0 -0.13296497045E+01  0.21329022369E+02  0.15378246828E+02  0.26328418848E+02  0.00000000000E+00 0. -1.
</event>
<event>
 7    1  0.4623443E-009  0.4614232E+02  0.7816164E-02  0.1320468E+00
        -11   -1    0    0    0    0  0.00000000000E+00  0.00000000000E+00  0.45593999997E+02  0.45594000000E+02  0.51100000000E-03 0. -1.
         11   -1    0    0    0    0 -0.00000000000E+00 -0.00000000000E+00 -0.45593999997E+02  0.45594000000E+02  0.51100000000E-03 0.  1.
    9900012    2    1    2    0    0  0.14265420494E+02  0.14522691597E+02  0.40183362634E+02  0.46142318457E+02  0.10000006342E+02 0.  0.
        -12    1    1    2    0    0 -0.14265420494E+02 -0.14522691597E+02 -0.40183362634E+02  0.45045681543E+02  0.00000000000E+00 0.  1.
         11    1    3    3    0    0  0.27653865210E+01  0.97644963690E+01  0.17150882301E+02  0.19928510128E+02  0.51100000000E-03 0. -1.
        -11    1    3    3    0    0  0.45114912076E+01  0.25646647096E+01  0.92933227831E+01  0.10644101963E+02  0.51100000000E-03 0.  1.
         12    1    3    3    0    0  0.69885427657E+01  0.21935305187E+01  0.13739157550E+02  0.15569706366E+02  0.00000000000E+00 0. -1.
</event>
<event>
 7    1  0.4623443E-009  0.4614232E+02  0.7816164E-02  0.1320468E+00
        -11   -1    0    0    0    0  0.00000000000E+00  0.00000000000E+00  0.45593999997E+02  0.45594000000E+02  0.51100000000E-03 0. -1.
         11   -1    0    0    0    0 -0.00000000000E+00 -0.00000000000E+00 -0.45593999997E+02  0.45594000000E+02  0.51100000000E-03 0.  1.
    9900012    2    1    2    0    0 -0.31053475590E+02 -0.85617132174E+01 -0.31487969076E+02  0.46142317899E+02  0.10000001253E+02 0.  0.
         12    1    1    2    0    0  0.31053475590E+02  0.85617132174E+01  0.31487969076E+02  0.45045682101E+02  0.00000000000E+00 0. -1.
         11    1    3    3    0    0 -0.96270943415E+01 -0.89287061590E+00 -0.11767891030E+02  0.15230279806E+02  0.51100000000E-03 0. -1.
        -11    1    3    3    0    0 -0.35377230672E+01  0.70154430165E+00 -0.54929243843E+01  0.65711389773E+01  0.51100000000E-03 0.  1.
        -12    1    3    3    0    0 -0.17888658182E+02 -0.83703869031E+01 -0.14227153661E+02  0.24340899115E+02  0.00000000000E+00 0.  1.
</event>
<event>
 7    1  0.4718970E-009  0.4614232E+02  0.7816164E-02  0.1320468E+00
        -11   -1    0    0    0    0  0.00000000000E+00  0.00000000000E+00  0.45593999997E+02  0.45594000000E+02  0.51100000000E-03 0. -1.
         11   -1    0    0    0    0 -0.00000000000E+00 -0.00000000000E+00 -0.45593999997E+02  0.45594000000E+02  0.51100000000E-03 0.  1.
    9900012    2    1    2    0    0  0.20580739392E+02  0.12059471968E+02 -0.38211459810E+02  0.46142319199E+02  0.10000013108E+02 0.  0.
         12    1    1    2    0    0 -0.20580739392E+02 -0.12059471968E+02  0.38211459810E+02  0.45045680801E+02  0.00000000000E+00 0. -1.
         11    1    3    3    0    0  0.48742933777E+01  0.67959819180E+01 -0.14258680167E+02  0.16530398257E+02  0.51100000000E-03 0. -1.
        -11    1    3    3    0    0  0.87806300352E+01  0.56805031107E+01 -0.13806179947E+02  0.17319878302E+02  0.51100000000E-03 0.  1.
         12    1    3    3    0    0  0.69258159789E+01 -0.41701306099E+00 -0.10146599696E+02  0.12292042640E+02  0.00000000000E+00 0. -1.
</event>
<event>
 7    1  0.4623443E-009  0.4614232E+02  0.7816164E-02  0.1320468E+00
        -11   -1    0    0    0    0  0.00000000000E+00  0.00000000000E+00  0.45593999997E+02  0.45594000000E+02  0.51100000000E-03 0. -1.
         11   -1    0    0    0    0 -0.00000000000E+00 -0.00000000000E+00 -0.45593999997E+02  0.45594000000E+02  0.51100000000E-03 0.  1.
    9900012    2    1    2    0    0  0.13265306196E+01  0.26650059170E+02 -0.36292259988E+02  0.46142317940E+02  0.10000001630E+02 0.  0.
         12    1    1    2    0    0 -0.13265306196E+01 -0.26650059170E+02  0.36292259988E+02  0.45045682060E+02  0.00000000000E+00 0. -1.
         11    1    3    3    0    0 -0.29926889646E+00  0.47467450660E+01 -0.63490830641E+01  0.79329695959E+01  0.51100000000E-03 0. -1.
        -11    1    3    3    0    0 -0.26795923979E+01  0.98395985973E+01 -0.18042987513E+02  0.20725523266E+02  0.51100000000E-03 0.  1.
         12    1    3    3    0    0  0.43053919140E+01  0.12063715507E+02 -0.11900189410E+02  0.17483825078E+02  0.00000000000E+00 0. -1.
</event>
<event>
 7    1  0.4623443E-009  0.4614232E+02  0.7816164E-02  0.1320468E+00
        -11   -1    0    0    0    0  0.00000000000E+00  0.00000000000E+00  0.45593999997E+02  0.45594000000E+02  0.51100000000E-03 0. -1.
         11   -1    0    0    0    0 -0.00000000000E+00 -0.00000000000E+00 -0.45593999997E+02  0.45594000000E+02  0.51100000000E-03 0.  1.
    9900012    2    1    2    0    0 -0.35028142873E+02  0.21115653170E+02 -0.18875164719E+02  0.46142318241E+02  0.10000004379E+02 0.  0.
         12    1    1    2    0    0  0.35028142873E+02 -0.21115653170E+02  0.18875164719E+02  0.45045681759E+02  0.00000000000E+00 0. -1.
         11    1    3    3    0    0 -0.13966876512E+02  0.52825615684E+01 -0.63459872583E+01  0.16225000794E+02  0.51100000000E-03 0. -1.
        -11    1    3    3    0    0 -0.20479130199E+02  0.13382455752E+02 -0.10264420460E+02  0.26530043787E+02  0.51100000000E-03 0.  1.
         12    1    3    3    0    0 -0.58213616144E+00  0.24506358495E+01 -0.22647570008E+01  0.33872736603E+01  0.00000000000E+00 0. -1.
</event>
<event>
 7    1  0.4623443E-009  0.4614232E+02  0.7816164E-02  0.1320468E+00
        -11   -1    0    0    0    0  0.00000000000E+00  0.00000000000E+00  0.45593999997E+02  0.45594000000E+02  0.51100000000E-03 0.  1.
         11   -1    0    0    0    0 -0.00000000000E+00 -0.00000000000E+00 -0.45593999997E+02  0.45594000000E+02  0.51100000000E-03 0. -1.
    9900012    2    1    2    0    0  0.10867714013E+02  0.14961733151E+02 -0.41074965687E+02  0.46142317933E+02  0.10000001564E+02 0.  0.
         12    1    1    2    0    0 -0.10867714013E+02 -0.14961733151E+02  0.41074965687E+02  0.45045682067E+02  0.00000000000E+00 0. -1.
         11    1    3    3    0    0  0.42558465993E+01  0.78895554451E+01 -0.25513830935E+02  0.27042797278E+02  0.51100000000E-03 0. -1.
        -11    1    3    3    0    0  0.38560458913E+01  0.64403622976E+01 -0.13960271801E+02  0.15850443068E+02  0.51100000000E-03 0.  1.
        -12    1    3    3    0    0  0.27558215222E+01  0.63181540883E+00 -0.16008629502E+01  0.32490775858E+01  0.00000000000E+00 0.  1.
</event>
<event>
 7    1  0.4623443E-009  0.4614232E+02  0.7816164E-02  0.1320468E+00
        -11   -1    0    0    0    0  0.00000000000E+00  0.00000000000E+00  0.45593999997E+02  0.45594000000E+02  0.51100000000E-03 0. -1.
         11   -1    0    0    0    0 -0.00000000000E+00 -0.00000000000E+00 -0.45593999997E+02  0.45594000000E+02  0.51100000000E-03 0.  1.
    9900012    2    1    2    0    0 -0.72475001302E+01 -0.11519087013E+02  0.42940630018E+02  0.46142319517E+02  0.10000016015E+02 0.  0.
        -12    1    1    2    0    0  0.72475001302E+01  0.11519087013E+02 -0.42940630018E+02  0.45045680483E+02  0.00000000000E+00 0.  1.
         11    1    3    3    0    0 -0.23459270139E+01 -0.42687809546E+01  0.11158891347E+02  0.12175660998E+02  0.51100000000E-03 0. -1.
        -11    1    3    3    0    0 -0.18566636952E+01 -0.28394383763E+01  0.25407592452E+01  0.42385219326E+01  0.51100000000E-03 0.  1.
         12    1    3    3    0    0 -0.30449094211E+01 -0.44108676823E+01  0.29240979426E+02  0.29728136586E+02  0.00000000000E+00 0. -1.
</event>
<event>
 7    1  0.4623443E-009  0.4614232E+02  0.7816164E-02  0.1320468E+00
        -11   -1    0    0    0    0  0.00000000000E+00  0.00000000000E+00  0.45593999997E+02  0.45594000000E+02  0.51100000000E-03 0. -1.
         11   -1    0    0    0    0 -0.00000000000E+00 -0.00000000000E+00 -0.45593999997E+02  0.45594000000E+02  0.51100000000E-03 0.  1.
    9900012    2    1    2    0    0 -0.43718881022E+02  0.13987969593E+01  0.10761796374E+02  0.46142318166E+02  0.10000003688E+02 0.  0.
        -12    1    1    2    0    0  0.43718881022E+02 -0.13987969593E+01 -0.10761796374E+02  0.45045681834E+02  0.00000000000E+00 0.  1.
         11    1    3    3    0    0 -0.23330854758E+02  0.15593247387E+01  0.78012024179E+01  0.24649929753E+02  0.51100000000E-03 0. -1.
        -11    1    3    3    0    0 -0.16877242100E+02 -0.19831594492E+01  0.86374646111E+00  0.17015295487E+02  0.51100000000E-03 0.  1.
        -12    1    3    3    0    0 -0.35107841635E+01  0.18226316697E+01  0.20968474950E+01  0.44770929254E+01  0.00000000000E+00 0.  1.
</event>
<event>
 7    1  0.4623443E-009  0.4614232E+02  0.7816164E-02  0.1320468E+00
        -11   -1    0    0    0    0  0.00000000000E+00  0.00000000000E+00  0.45593999997E+02  0.45594000000E+02  0.51100000000E-03 0. -1.
         11   -1    0    0    0    0 -0.00000000000E+00 -0.00000000000E+00 -0.45593999997E+02  0.45594000000E+02  0.51100000000E-03 0.  1.
    9900012    2    1    2    0    0 -0.21535285959E+02 -0.33314028870E+02  0.21342923569E+02  0.46142318216E+02  0.10000004149E+02 0.  0.
        -12    1    1    2    0    0  0.21535285959E+02  0.33314028870E+02 -0.21342923569E+02  0.45045681784E+02  0.00000000000E+00 0.  1.
         11    1    3    3    0    0 -0.35322417843E+01 -0.12247723653E+01  0.24905649006E+01  0.44921835620E+01  0.51100000000E-03 0. -1.
        -11    1    3    3    0    0 -0.12588805119E+02 -0.17342953518E+02  0.10933830178E+02  0.24058360161E+02  0.51100000000E-03 0.  1.
         12    1    3    3    0    0 -0.54142390554E+01 -0.14746302987E+02  0.79185284905E+01  0.17591774493E+02  0.00000000000E+00 0. -1.
</event>
<event>
 7    1  0.4623443E-009  0.4614232E+02  0.7816164E-02  0.1320468E+00
        -11   -1    0    0    0    0  0.00000000000E+00  0.00000000000E+00  0.45593999997E+02  0.45594000000E+02  0.51100000000E-03 0. -1.
         11   -1    0    0    0    0 -0.00000000000E+00 -0.00000000000E+00 -0.45593999997E+02  0.45594000000E+02  0.51100000000E-03 0.  1.
    9900012    2    1    2    0    0 -0.32225582112E+01  0.12365077029E+02 -0.43195294474E+02  0.46142317898E+02  0.10000001248E+02 0.  0.
         12    1    1    2    0    0  0.32225582112E+01 -0.12365077029E+02  0.43195294474E+02  0.45045682102E+02  0.00000000000E+00 0. -1.
         11    1    3    3    0    0 -0.27391173612E+01  0.45479908444E+01 -0.10195348139E+02  0.11494873143E+02  0.51100000000E-03 0. -1.
        -11    1    3    3    0    0 -0.17451258870E+01  0.37989545602E+00 -0.15343371689E+02  0.15446968633E+02  0.51100000000E-03 0.  1.
         12    1    3    3    0    0  0.12616850369E+01  0.74371907281E+01 -0.17656574647E+02  0.19200476122E+02  0.00000000000E+00 0. -1.
</event>
<event>
 7    1  0.5348186E-009  0.4614232E+02  0.7816164E-02  0.1320468E+00
        -11   -1    0    0    0    0  0.00000000000E+00  0.00000000000E+00  0.45593999997E+02  0.45594000000E+02  0.51100000000E-03 0. -1.
         11   -1    0    0    0    0 -0.00000000000E+00 -0.00000000000E+00 -0.45593999997E+02  0.45594000000E+02  0.51100000000E-03 0.  1.
    9900012    2    1    2    0    0  0.20569416581E+02  0.91022079818E+01 -0.39027713647E+02  0.46142317398E+02  0.99999966855E+01 0.  0.
         12    1    1    2    0    0 -0.20569416581E+02 -0.91022079818E+01  0.39027713647E+02  0.45045682602E+02  0.00000000000E+00 0. -1.
         11    1    3    3    0    0  0.10060916258E+02  0.18824106837E+01 -0.19538516153E+02  0.22057178416E+02  0.51100000000E-03 0. -1.
        -11    1    3    3    0    0  0.10292070760E+02  0.44878642342E+01 -0.17058214578E+02  0.20421810174E+02  0.51100000000E-03 0.  1.
         12    1    3    3    0    0  0.21642956240E+00  0.27319330639E+01 -0.24309829155E+01  0.36633288081E+01  0.00000000000E+00 0. -1.
</event>
<event>
 7    1  0.4623443E-009  0.4614232E+02  0.7816164E-02  0.1320468E+00
        -11   -1    0    0    0    0  0.00000000000E+00  0.00000000000E+00  0.45593999997E+02  0.45594000000E+02  0.51100000000E-03 0. -1.
         11   -1    0    0    0    0 -0.00000000000E+00 -0.00000000000E+00 -0.45593999997E+02  0.45594000000E+02  0.51100000000E-03 0.  1.
    9900012    2    1    2    0    0 -0.15532104085E+02 -0.11555783977E+02  0.40673467761E+02  0.46142318960E+02  0.10000010932E+02 0.  0.
        -12    1    1    2    0    0  0.15532104085E+02  0.11555783977E+02 -0.40673467761E+02  0.45045681040E+02  0.00000000000E+00 0.  1.
         11    1    3    3    0    0 -0.71301266522E+01 -0.46585304889E+01  0.14723421194E+02  0.17009401645E+02  0.51100000000E-03 0. -1.
        -11    1    3    3    0    0 -0.96143220452E+01 -0.71260541876E+01  0.22799733646E+02  0.25749634779E+02  0.51100000000E-03 0.  1.
        -12    1    3    3    0    0  0.12123446121E+01  0.22880069943E+00  0.31503129205E+01  0.33832825356E+01  0.00000000000E+00 0.  1.
</event>
<event>
 7    1  0.4623443E-009  0.4614232E+02  0.7816164E-02  0.1320468E+00
        -11   -1    0    0    0    0  0.00000000000E+00  0.00000000000E+00  0.45593999997E+02  0.45594000000E+02  0.51100000000E-03 0. -1.
         11   -1    0    0    0    0 -0.00000000000E+00 -0.00000000000E+00 -0.45593999997E+02  0.45594000000E+02  0.51100000000E-03 0.  1.
    9900012    2    1    2    0    0 -0.16810633392E+02  0.42218151700E+01  0.41577546770E+02  0.46142317479E+02  0.99999974270E+01 0.  0.
        -12    1    1    2    0    0  0.16810633392E+02 -0.42218151700E+01 -0.41577546770E+02  0.45045682521E+02  0.00000000000E+00 0.  1.
         11    1    3    3    0    0 -0.32726616779E+01  0.13072676535E+01  0.88659846709E+01  0.95406995353E+01  0.51100000000E-03 0. -1.
        -11    1    3    3    0    0 -0.23214075575E+01 -0.13254864696E+01  0.12868482194E+01  0.29667871562E+01  0.51100000000E-03 0.  1.
        -12    1    3    3    0    0 -0.11216564157E+02  0.42400339861E+01  0.31424713880E+02  0.33634830787E+02  0.00000000000E+00 0.  1.
</event>
<event>
 7    1  0.4623443E-009  0.4614232E+02  0.7816164E-02  0.1320468E+00
        -11   -1    0    0    0    0  0.00000000000E+00  0.00000000000E+00  0.45593999997E+02  0.45594000000E+02  0.51100000000E-03 0. -1.
         11   -1    0    0    0    0 -0.00000000000E+00 -0.00000000000E+00 -0.45593999997E+02  0.45594000000E+02  0.51100000000E-03 0.  1.
    9900012    2    1    2    0    0 -0.56012835822E+01  0.22172164510E+01  0.44641046333E+02  0.46142318251E+02  0.10000004465E+02 0.  0.
        -12    1    1    2    0    0  0.56012835822E+01 -0.22172164510E+01 -0.44641046333E+02  0.45045681749E+02  0.00000000000E+00 0.  1.
         11    1    3    3    0    0 -0.69825106120E-02 -0.13391233708E+01  0.23979401655E+01  0.27465282552E+01  0.51100000000E-03 0.  1.
        -11    1    3    3    0    0 -0.62372568741E+01  0.48258509637E+01  0.39753540024E+02  0.40528214314E+02  0.51100000000E-03 0. -1.
         12    1    3    3    0    0  0.64295580254E+00 -0.12695111419E+01  0.24895661436E+01  0.28675756811E+01  0.00000000000E+00 0. -1.
</event>
<event>
 7    1  0.4623443E-009  0.4614232E+02  0.7816164E-02  0.1320468E+00
        -11   -1    0    0    0    0  0.00000000000E+00  0.00000000000E+00  0.45593999997E+02  0.45594000000E+02  0.51100000000E-03 0. -1.
         11   -1    0    0    0    0 -0.00000000000E+00 -0.00000000000E+00 -0.45593999997E+02  0.45594000000E+02  0.51100000000E-03 0.  1.
    9900012    2    1    2    0    0 -0.17115498636E+02 -0.29508851482E+02 -0.29417695205E+02  0.46142318736E+02  0.10000008891E+02 0.  0.
         12    1    1    2    0    0  0.17115498636E+02  0.29508851482E+02  0.29417695205E+02  0.45045681264E+02  0.00000000000E+00 0. -1.
         11    1    3    3    0    0 -0.49641164520E+01 -0.44966459028E+01 -0.58260340937E+01  0.88772152191E+01  0.51100000000E-03 0. -1.
        -11    1    3    3    0    0 -0.41252591404E+01 -0.46858942665E+01 -0.20288663080E+01  0.65644243318E+01  0.51100000000E-03 0.  1.
        -12    1    3    3    0    0 -0.80261230434E+01 -0.20326311313E+02 -0.21562794804E+02  0.30700679185E+02  0.00000000000E+00 0.  1.
</event>
<event>
 7    1  0.4623443E-009  0.4614232E+02  0.7816164E-02  0.1320468E+00
        -11   -1    0    0    0    0  0.00000000000E+00  0.00000000000E+00  0.45593999997E+02  0.45594000000E+02  0.51100000000E-03 0. -1.
         11   -1    0    0    0    0 -0.00000000000E+00 -0.00000000000E+00 -0.45593999997E+02  0.45594000000E+02  0.51100000000E-03 0.  1.
    9900012    2    1    2    0    0 -0.28980451363E+02 -0.14582151603E+02  0.31250717389E+02  0.46142322694E+02  0.10000044985E+02 0.  0.
        -12    1    1    2    0    0  0.28980451363E+02  0.14582151603E+02 -0.31250717389E+02  0.45045677306E+02  0.00000000000E+00 0.  1.
         11    1    3    3    0    0 -0.83440242368E+01 -0.38959260494E+01  0.11102207608E+02  0.14424284879E+02  0.51100000000E-03 0.  1.
        -11    1    3    3    0    0  0.58727578982E+00 -0.80814828646E+00  0.14312783274E+01  0.17454381736E+01  0.51100000000E-03 0. -1.
         12    1    3    3    0    0 -0.21223702916E+02 -0.98780772675E+01  0.18717231454E+02  0.29972599642E+02  0.00000000000E+00 0. -1.
</event>
<event>
 7    1  0.4623443E-009  0.4614232E+02  0.7816164E-02  0.1320468E+00
        -11   -1    0    0    0    0  0.00000000000E+00  0.00000000000E+00  0.45593999997E+02  0.45594000000E+02  0.51100000000E-03 0. -1.
         11   -1    0    0    0    0 -0.00000000000E+00 -0.00000000000E+00 -0.45593999997E+02  0.45594000000E+02  0.51100000000E-03 0.  1.
    9900012    2    1    2    0    0  0.26652806432E+02 -0.78785009138E+01 -0.35449542078E+02  0.46142324282E+02  0.10000059463E+02 0.  0.
         12    1    1    2    0    0 -0.26652806432E+02  0.78785009138E+01  0.35449542078E+02  0.45045675718E+02  0.00000000000E+00 0. -1.
         11    1    3    3    0    0  0.10999798583E+02 -0.45296457551E+00 -0.15369090499E+02  0.18905282034E+02  0.51100000000E-03 0. -1.
        -11    1    3    3    0    0  0.99022668087E+01 -0.27273868795E+01 -0.15221794390E+02  0.18362912401E+02  0.51100000000E-03 0.  1.
        -12    1    3    3    0    0  0.57507410409E+01 -0.46981494588E+01 -0.48586571890E+01  0.88741298468E+01  0.00000000000E+00 0.  1.
</event>
<event>
 7    1  0.4623443E-009  0.4614232E+02  0.7816164E-02  0.1320468E+00
        -11   -1    0    0    0    0  0.00000000000E+00  0.00000000000E+00  0.45593999997E+02  0.45594000000E+02  0.51100000000E-03 0. -1.
         11   -1    0    0    0    0 -0.00000000000E+00 -0.00000000000E+00 -0.45593999997E+02  0.45594000000E+02  0.51100000000E-03 0.  1.
    9900012    2    1    2    0    0  0.13969267290E+02 -0.30260086280E+02  0.30303469474E+02  0.46142317493E+02  0.99999975568E+01 0.  0.
        -12    1    1    2    0    0 -0.13969267290E+02  0.30260086280E+02 -0.30303469474E+02  0.45045682507E+02  0.00000000000E+00 0.  1.
         11    1    3    3    0    0  0.35617751185E+01 -0.57011569860E+01  0.61275621128E+01  0.90959579309E+01  0.51100000000E-03 0. -1.
        -11    1    3    3    0    0  0.31252363373E+01 -0.36522354831E+01  0.90073066585E+01  0.10209676767E+02  0.51100000000E-03 0.  1.
        -12    1    3    3    0    0  0.72822558345E+01 -0.20906693811E+02  0.15168600703E+02  0.26836682795E+02  0.00000000000E+00 0.  1.
</event>
<event>
 7    1  0.4623443E-009  0.4614232E+02  0.7816164E-02  0.1320468E+00
        -11   -1    0    0    0    0  0.00000000000E+00  0.00000000000E+00  0.45593999997E+02  0.45594000000E+02  0.51100000000E-03 0. -1.
         11   -1    0    0    0    0 -0.00000000000E+00 -0.00000000000E+00 -0.45593999997E+02  0.45594000000E+02  0.51100000000E-03 0.  1.
    9900012    2    1    2    0    0  0.34482901648E+02  0.86549366258E+01  0.27661076340E+02  0.46142316762E+02  0.99999908905E+01 0.  0.
        -12    1    1    2    0    0 -0.34482901648E+02 -0.86549366258E+01 -0.27661076340E+02  0.45045683238E+02  0.00000000000E+00 0.  1.
         11    1    3    3    0    0  0.29673062796E+02  0.68940314939E+01  0.20219467585E+02  0.36562893699E+02  0.51100000000E-03 0. -1.
        -11    1    3    3    0    0  0.31101416724E+01 -0.50077843772E+00  0.45489126764E+01  0.55332058578E+01  0.51100000000E-03 0.  1.
        -12    1    3    3    0    0  0.16996971796E+01  0.22616835696E+01  0.28926960786E+01  0.40462172056E+01  0.00000000000E+00 0.  1.
</event>
<event>
 7    1  0.4623443E-009  0.4614232E+02  0.7816164E-02  0.1320468E+00
        -11   -1    0    0    0    0  0.00000000000E+00  0.00000000000E+00  0.45593999997E+02  0.45594000000E+02  0.51100000000E-03 0. -1.
         11   -1    0    0    0    0 -0.00000000000E+00 -0.00000000000E+00 -0.45593999997E+02  0.45594000000E+02  0.51100000000E-03 0.  1.
    9900012    2    1    2    0    0 -0.20732733697E+02  0.37422905227E+02 -0.14099411832E+02  0.46142317674E+02  0.99999992043E+01 0.  0.
         12    1    1    2    0    0  0.20732733697E+02 -0.37422905227E+02  0.14099411832E+02  0.45045682326E+02  0.00000000000E+00 0. -1.
         11    1    3    3    0    0 -0.61936593743E+01  0.66784101888E+01 -0.30606200017E+01  0.96088487422E+01  0.51100000000E-03 0. -1.
        -11    1    3    3    0    0 -0.11980469156E+02  0.16716053677E+02 -0.64920799706E+01  0.21566297650E+02  0.51100000000E-03 0.  1.
         12    1    3    3    0    0 -0.25586051671E+01  0.14028441361E+02 -0.45467118593E+01  0.14967171281E+02  0.00000000000E+00 0. -1.
</event>
<event>
 7    1  0.4623443E-009  0.4614232E+02  0.7816164E-02  0.1320468E+00
        -11   -1    0    0    0    0  0.00000000000E+00  0.00000000000E+00  0.45593999997E+02  0.45594000000E+02  0.51100000000E-03 0. -1.
         11   -1    0    0    0    0 -0.00000000000E+00 -0.00000000000E+00 -0.45593999997E+02  0.45594000000E+02  0.51100000000E-03 0.  1.
    9900012    2    1    2    0    0  0.21364432076E+02  0.35876533575E+02 -0.16898190262E+02  0.46142318149E+02  0.10000003537E+02 0.  0.
         12    1    1    2    0    0 -0.21364432076E+02 -0.35876533575E+02  0.16898190262E+02  0.45045681851E+02  0.00000000000E+00 0. -1.
         11    1    3    3    0    0  0.40427089848E+01  0.44251538682E+01 -0.27255349867E+01  0.65843772612E+01  0.51100000000E-03 0.  1.
        -11    1    3    3    0    0  0.12243754241E+02  0.27424551439E+02 -0.13838764721E+02  0.33068518999E+02  0.51100000000E-03 0. -1.
         12    1    3    3    0    0  0.50779688503E+01  0.40268282679E+01 -0.33389055425E+00  0.64894218884E+01  0.00000000000E+00 0. -1.
</event>
<event>
 7    1  0.4623443E-009  0.4614232E+02  0.7816164E-02  0.1320468E+00
        -11   -1    0    0    0    0  0.00000000000E+00  0.00000000000E+00  0.45593999997E+02  0.45594000000E+02  0.51100000000E-03 0. -1.
         11   -1    0    0    0    0 -0.00000000000E+00 -0.00000000000E+00 -0.45593999997E+02  0.45594000000E+02  0.51100000000E-03 0.  1.
    9900012    2    1    2    0    0  0.15778850716E+02 -0.50714836694E+01 -0.41885815791E+02  0.46142316067E+02  0.99999845473E+01 0.  0.
         12    1    1    2    0    0 -0.15778850716E+02  0.50714836694E+01  0.41885815791E+02  0.45045683933E+02  0.00000000000E+00 0. -1.
         11    1    3    3    0    0  0.10014013426E+02 -0.54809696997E+01 -0.33457147532E+02  0.35351127493E+02  0.51100000000E-03 0. -1.
        -11    1    3    3    0    0  0.31936027088E+01 -0.23173708391E+00 -0.71802579773E+01  0.78618639787E+01  0.51100000000E-03 0.  1.
         12    1    3    3    0    0  0.25712345808E+01  0.64122311417E+00 -0.12484102819E+01  0.29293245952E+01  0.00000000000E+00 0. -1.
</event>
<event>
 7    1  0.4623443E-009  0.4614232E+02  0.7816164E-02  0.1320468E+00
        -11   -1    0    0    0    0  0.00000000000E+00  0.00000000000E+00  0.45593999997E+02  0.45594000000E+02  0.51100000000E-03 0. -1.
         11   -1    0    0    0    0 -0.00000000000E+00 -0.00000000000E+00 -0.45593999997E+02  0.45594000000E+02  0.51100000000E-03 0.  1.
    9900012    2    1    2    0    0 -0.29358272558E+02 -0.10334449089E+02  0.32563852462E+02  0.46142317713E+02  0.99999995573E+01 0.  0.
        -12    1    1    2    0    0  0.29358272558E+02  0.10334449089E+02 -0.32563852462E+02  0.45045682287E+02  0.00000000000E+00 0.  1.
         11    1    3    3    0    0 -0.14367912668E+02 -0.52800744042E+01  0.16132444485E+02  0.22238971772E+02  0.51100000000E-03 0. -1.
        -11    1    3    3    0    0 -0.68697045749E+01 -0.50616282387E+01  0.50288692291E+01  0.99046679579E+01  0.51100000000E-03 0.  1.
        -12    1    3    3    0    0 -0.81206553154E+01  0.72535540495E-02  0.11402538748E+02  0.13998677983E+02  0.00000000000E+00 0.  1.
</event>
<event>
 7    1  0.4623443E-009  0.4614232E+02  0.7816164E-02  0.1320468E+00
        -11   -1    0    0    0    0  0.00000000000E+00  0.00000000000E+00  0.45593999997E+02  0.45594000000E+02  0.51100000000E-03 0. -1.
         11   -1    0    0    0    0 -0.00000000000E+00 -0.00000000000E+00 -0.45593999997E+02  0.45594000000E+02  0.51100000000E-03 0.  1.
    9900012    2    1    2    0    0  0.38659993659E+02  0.15742688008E+02 -0.16931806981E+02  0.46142318486E+02  0.10000006608E+02 0.  0.
         12    1    1    2    0    0 -0.38659993659E+02 -0.15742688008E+02  0.16931806981E+02  0.45045681514E+02  0.00000000000E+00 0. -1.
         11    1    3    3    0    0  0.21040818653E+02  0.62620825442E+01 -0.10419215790E+02  0.24299995582E+02  0.51100000000E-03 0. -1.
        -11    1    3    3    0    0  0.11024794156E+02  0.26673355873E+01 -0.30243898481E+01  0.11739152420E+02  0.51100000000E-03 0.  1.
         12    1    3    3    0    0  0.65943808500E+01  0.68132698769E+01 -0.34882013427E+01  0.10103170483E+02  0.00000000000E+00 0. -1.
</event>
<event>
 7    1  0.4623443E-009  0.4614232E+02  0.7816164E-02  0.1320468E+00
        -11   -1    0    0    0    0  0.00000000000E+00  0.00000000000E+00  0.45593999997E+02  0.45594000000E+02  0.51100000000E-03 0.  1.
         11   -1    0    0    0    0 -0.00000000000E+00 -0.00000000000E+00 -0.45593999997E+02  0.45594000000E+02  0.51100000000E-03 0. -1.
    9900012    2    1    2    0    0 -0.36066292814E+02  0.26508001274E+02 -0.50657747809E+01  0.46142315600E+02  0.99999802966E+01 0.  0.
        -12    1    1    2    0    0  0.36066292814E+02 -0.26508001274E+02  0.50657747809E+01  0.45045684400E+02  0.00000000000E+00 0.  1.
         11    1    3    3    0    0 -0.21096151269E+02  0.10174765959E+02 -0.39895948802E+01  0.23759005203E+02  0.51100000000E-03 0. -1.
        -11    1    3    3    0    0 -0.69309243517E+00  0.89888297761E+00  0.61387241652E+00  0.12904291286E+01  0.51100000000E-03 0.  1.
         12    1    3    3    0    0 -0.14277049110E+02  0.15434352338E+02 -0.16900523172E+01  0.21092881268E+02  0.00000000000E+00 0. -1.
</event>
<event>
 7    1  0.4623443E-009  0.4614232E+02  0.7816164E-02  0.1320468E+00
        -11   -1    0    0    0    0  0.00000000000E+00  0.00000000000E+00  0.45593999997E+02  0.45594000000E+02  0.51100000000E-03 0. -1.
         11   -1    0    0    0    0 -0.00000000000E+00 -0.00000000000E+00 -0.45593999997E+02  0.45594000000E+02  0.51100000000E-03 0.  1.
    9900012    2    1    2    0    0  0.10541572004E+02 -0.22374339419E+02  0.37648077616E+02  0.46142317044E+02  0.99999934613E+01 0.  0.
        -12    1    1    2    0    0 -0.10541572004E+02  0.22374339419E+02 -0.37648077616E+02  0.45045682956E+02  0.00000000000E+00 0.  1.
         11    1    3    3    0    0  0.50329394545E+01 -0.16315523019E+02  0.24244222784E+02  0.29653146706E+02  0.51100000000E-03 0. -1.
        -11    1    3    3    0    0  0.48235875896E+00 -0.41138440063E+01  0.68379069193E+01  0.79945827771E+01  0.51100000000E-03 0.  1.
        -12    1    3    3    0    0  0.50262737903E+01 -0.19449723944E+01  0.65659479133E+01  0.84945875609E+01  0.00000000000E+00 0.  1.
</event>
<event>
 7    1  0.4623443E-009  0.4614232E+02  0.7816164E-02  0.1320468E+00
        -11   -1    0    0    0    0  0.00000000000E+00  0.00000000000E+00  0.45593999997E+02  0.45594000000E+02  0.51100000000E-03 0. -1.
         11   -1    0    0    0    0 -0.00000000000E+00 -0.00000000000E+00 -0.45593999997E+02  0.45594000000E+02  0.51100000000E-03 0.  1.
    9900012    2    1    2    0    0 -0.29694857152E+01  0.20705480983E+02  0.39894594881E+02  0.46142317755E+02  0.99999999486E+01 0.  0.
        -12    1    1    2    0    0  0.29694857152E+01 -0.20705480983E+02 -0.39894594881E+02  0.45045682245E+02  0.00000000000E+00 0.  1.
         11    1    3    3    0    0 -0.44066329736E-01  0.13658613802E+02  0.24109883402E+02  0.27710037004E+02  0.51100000000E-03 0. -1.
        -11    1    3    3    0    0 -0.11307769053E+00  0.66805272005E+01  0.11004520619E+02  0.12874071018E+02  0.51100000000E-03 0.  1.
        -12    1    3    3    0    0 -0.28123416949E+01  0.36633997976E+00  0.47801908595E+01  0.55582097337E+01  0.00000000000E+00 0.  1.
</event>
<event>
 7    1  0.4623443E-009  0.4614232E+02  0.7816164E-02  0.1320468E+00
        -11   -1    0    0    0    0  0.00000000000E+00  0.00000000000E+00  0.45593999997E+02  0.45594000000E+02  0.51100000000E-03 0. -1.
         11   -1    0    0    0    0 -0.00000000000E+00 -0.00000000000E+00 -0.45593999997E+02  0.45594000000E+02  0.51100000000E-03 0.  1.
    9900012    2    1    2    0    0 -0.65502831087E+01 -0.99475045033E+01 -0.43442541295E+02  0.46142318200E+02  0.10000004001E+02 0.  0.
         12    1    1    2    0    0  0.65502831087E+01  0.99475045033E+01  0.43442541295E+02  0.45045681800E+02  0.00000000000E+00 0. -1.
         11    1    3    3    0    0  0.34180577470E+00  0.43482198984E+00 -0.82474900426E+00  0.99303198922E+00  0.51100000000E-03 0. -1.
        -11    1    3    3    0    0 -0.24360691186E+01 -0.95058053154E+00 -0.20825479475E+02  0.20989012166E+02  0.51100000000E-03 0.  1.
        -12    1    3    3    0    0 -0.44560197648E+01 -0.94317459616E+01 -0.21792312816E+02  0.24160274045E+02  0.00000000000E+00 0.  1.
</event>
<event>
 7    1  0.4623443E-009  0.4614233E+02  0.7816164E-02  0.1320468E+00
        -11   -1    0    0    0    0  0.00000000000E+00  0.00000000000E+00  0.45593999997E+02  0.45594000000E+02  0.51100000000E-03 0. -1.
         11   -1    0    0    0    0 -0.00000000000E+00 -0.00000000000E+00 -0.45593999997E+02  0.45594000000E+02  0.51100000000E-03 0.  1.
    9900012    2    1    2    0    0 -0.27405951298E+02 -0.14743482327E+02  0.32567718978E+02  0.46142325878E+02  0.10000074017E+02 0.  0.
        -12    1    1    2    0    0  0.27405951298E+02  0.14743482327E+02 -0.32567718978E+02  0.45045674122E+02  0.00000000000E+00 0.  1.
         11    1    3    3    0    0 -0.54795724478E+01 -0.37209846710E+01  0.46585687488E+01  0.80977592074E+01  0.51100000000E-03 0. -1.
        -11    1    3    3    0    0 -0.10057875650E+02 -0.89648440826E+01  0.11663398783E+02  0.17820330060E+02  0.51100000000E-03 0.  1.
        -12    1    3    3    0    0 -0.11868503200E+02 -0.20576535737E+01  0.16245751446E+02  0.20224236611E+02  0.00000000000E+00 0.  1.
</event>
<event>
 7    1  0.4623443E-009  0.4614232E+02  0.7816164E-02  0.1320468E+00
        -11   -1    0    0    0    0  0.00000000000E+00  0.00000000000E+00  0.45593999997E+02  0.45594000000E+02  0.51100000000E-03 0. -1.
         11   -1    0    0    0    0 -0.00000000000E+00 -0.00000000000E+00 -0.45593999997E+02  0.45594000000E+02  0.51100000000E-03 0.  1.
    9900012    2    1    2    0    0  0.25948002013E+01 -0.17161451003E+02 -0.41567596449E+02  0.46142318040E+02  0.10000002547E+02 0.  0.
         12    1    1    2    0    0 -0.25948002013E+01  0.17161451003E+02  0.41567596449E+02  0.45045681960E+02  0.00000000000E+00 0. -1.
         11    1    3    3    0    0  0.27695072690E+01 -0.48878491557E+01 -0.11225053120E+02  0.12552412425E+02  0.51100000000E-03 0. -1.
        -11    1    3    3    0    0 -0.17968801443E+01 -0.11108381708E+02 -0.19075689121E+02  0.22147388968E+02  0.51100000000E-03 0.  1.
        -12    1    3    3    0    0  0.16221730766E+01 -0.11652201401E+01 -0.11266854208E+02  0.11442516647E+02  0.00000000000E+00 0.  1.
</event>
<event>
 7    1  0.4623443E-009  0.4614232E+02  0.7816164E-02  0.1320468E+00
        -11   -1    0    0    0    0  0.00000000000E+00  0.00000000000E+00  0.45593999997E+02  0.45594000000E+02  0.51100000000E-03 0. -1.
         11   -1    0    0    0    0 -0.00000000000E+00 -0.00000000000E+00 -0.45593999997E+02  0.45594000000E+02  0.51100000000E-03 0.  1.
    9900012    2    1    2    0    0 -0.24239831562E+02  0.87961463200E+01  0.36934697407E+02  0.46142317667E+02  0.99999991462E+01 0.  0.
        -12    1    1    2    0    0  0.24239831562E+02 -0.87961463200E+01 -0.36934697407E+02  0.45045682333E+02  0.00000000000E+00 0.  1.
         11    1    3    3    0    0 -0.93886028103E+01  0.26807276064E+01  0.84840676476E+01  0.12934897268E+02  0.51100000000E-03 0. -1.
        -11    1    3    3    0    0  0.53612677624E-02 -0.20043465707E+00  0.33987097519E+01  0.34046190732E+01  0.51100000000E-03 0.  1.
         12    1    3    3    0    0 -0.14856590020E+02  0.63158533707E+01  0.25051920007E+02  0.29802801326E+02  0.00000000000E+00 0. -1.
</event>
<event>
 7    1  0.4623443E-009  0.4614232E+02  0.7816164E-02  0.1320468E+00
        -11   -1    0    0    0    0  0.00000000000E+00  0.00000000000E+00  0.45593999997E+02  0.45594000000E+02  0.51100000000E-03 0.  1.
         11   -1    0    0    0    0 -0.00000000000E+00 -0.00000000000E+00 -0.45593999997E+02  0.45594000000E+02  0.51100000000E-03 0. -1.
    9900012    2    1    2    0    0 -0.43884130247E+02 -0.70662524020E+01  0.73051176406E+01  0.46142317030E+02  0.99999933314E+01 0.  0.
        -12    1    1    2    0    0  0.43884130247E+02  0.70662524020E+01 -0.73051176406E+01  0.45045682970E+02  0.00000000000E+00 0.  1.
         11    1    3    3    0    0 -0.16893458326E+02 -0.16272469226E+01  0.31624636645E+01  0.17263778365E+02  0.51100000000E-03 0. -1.
        -11    1    3    3    0    0 -0.63765756761E+01  0.19685617933E+01  0.83428117346E+00  0.67254723421E+01  0.51100000000E-03 0.  1.
         12    1    3    3    0    0 -0.20614096244E+02 -0.74075672727E+01  0.33083728027E+01  0.22153066322E+02  0.00000000000E+00 0. -1.
</event>
<event>
 7    1  0.4623443E-009  0.4614232E+02  0.7816164E-02  0.1320468E+00
        -11   -1    0    0    0    0  0.00000000000E+00  0.00000000000E+00  0.45593999997E+02  0.45594000000E+02  0.51100000000E-03 0. -1.
         11   -1    0    0    0    0 -0.00000000000E+00 -0.00000000000E+00 -0.45593999997E+02  0.45594000000E+02  0.51100000000E-03 0.  1.
    9900012    2    1    2    0    0 -0.35026058948E+02 -0.75354075585E+00 -0.28314677413E+02  0.46142316676E+02  0.99999901066E+01 0.  0.
         12    1    1    2    0    0  0.35026058948E+02  0.75354075585E+00  0.28314677413E+02  0.45045683324E+02  0.00000000000E+00 0. -1.
         11    1    3    3    0    0 -0.20666665108E+01  0.74649091353E-01  0.13808508720E+00  0.20726192863E+01  0.51100000000E-03 0. -1.
        -11    1    3    3    0    0 -0.29482453789E+02  0.71497247957E+00 -0.22896380674E+02  0.37335914551E+02  0.51100000000E-03 0.  1.
        -12    1    3    3    0    0 -0.34769386478E+01 -0.15431623268E+01 -0.55563818263E+01  0.67337828393E+01  0.00000000000E+00 0.  1.
</event>
<event>
 7    1  0.4623443E-009  0.4614232E+02  0.7816164E-02  0.1320468E+00
        -11   -1    0    0    0    0  0.00000000000E+00  0.00000000000E+00  0.45593999997E+02  0.45594000000E+02  0.51100000000E-03 0. -1.
         11   -1    0    0    0    0 -0.00000000000E+00 -0.00000000000E+00 -0.45593999997E+02  0.45594000000E+02  0.51100000000E-03 0.  1.
    9900012    2    1    2    0    0  0.10328335797E+02 -0.40808846131E+02  0.16033622585E+02  0.46142317675E+02  0.99999992186E+01 0.  0.
        -12    1    1    2    0    0 -0.10328335797E+02  0.40808846131E+02 -0.16033622585E+02  0.45045682325E+02  0.00000000000E+00 0.  1.
         11    1    3    3    0    0  0.45548140676E+01 -0.68983820468E+01  0.19218926676E+01  0.84869121441E+01  0.51100000000E-03 0.  1.
        -11    1    3    3    0    0  0.57165797686E+01 -0.20407898057E+02  0.10635886471E+02  0.23712521347E+02  0.51100000000E-03 0. -1.
         12    1    3    3    0    0  0.56941960663E-01 -0.13502566027E+02  0.34758434467E+01  0.13942884184E+02  0.00000000000E+00 0. -1.
</event>
<event>
 7    1  0.4623443E-009  0.4614232E+02  0.7816164E-02  0.1320468E+00
        -11   -1    0    0    0    0  0.00000000000E+00  0.00000000000E+00  0.45593999997E+02  0.45594000000E+02  0.51100000000E-03 0. -1.
         11   -1    0    0    0    0 -0.00000000000E+00 -0.00000000000E+00 -0.45593999997E+02  0.45594000000E+02  0.51100000000E-03 0.  1.
    9900012    2    1    2    0    0 -0.14276201251E+02 -0.15570065448E+02  0.39785382096E+02  0.46142317757E+02  0.99999999629E+01 0.  0.
        -12    1    1    2    0    0  0.14276201251E+02  0.15570065448E+02 -0.39785382096E+02  0.45045682243E+02  0.00000000000E+00 0.  1.
         11    1    3    3    0    0 -0.11124231188E+02 -0.10989095863E+02  0.32967311926E+02  0.36487702083E+02  0.51100000000E-03 0. -1.
        -11    1    3    3    0    0  0.82491037782E+00 -0.18009909004E+01  0.18594818916E+01  0.27169318212E+01  0.51100000000E-03 0.  1.
         12    1    3    3    0    0 -0.39768804410E+01 -0.27799786843E+01  0.49585882783E+01  0.69376838528E+01  0.00000000000E+00 0. -1.
</event>
<event>
 7    1  0.4623443E-009  0.4614232E+02  0.7816164E-02  0.1320468E+00
        -11   -1    0    0    0    0  0.00000000000E+00  0.00000000000E+00  0.45593999997E+02  0.45594000000E+02  0.51100000000E-03 0. -1.
         11   -1    0    0    0    0 -0.00000000000E+00 -0.00000000000E+00 -0.45593999997E+02  0.45594000000E+02  0.51100000000E-03 0.  1.
    9900012    2    1    2    0    0  0.23594025883E+02 -0.23192406915E+02  0.30570373098E+02  0.46142317551E+02  0.99999980868E+01 0.  0.
        -12    1    1    2    0    0 -0.23594025883E+02  0.23192406915E+02 -0.30570373098E+02  0.45045682449E+02  0.00000000000E+00 0.  1.
         11    1    3    3    0    0  0.52098859425E+01 -0.17072452183E+01  0.71519085493E+01  0.90115145191E+01  0.51100000000E-03 0. -1.
        -11    1    3    3    0    0  0.17765069419E+01 -0.30642766464E+01  0.95583990854E+00  0.36687052855E+01  0.51100000000E-03 0.  1.
         12    1    3    3    0    0  0.16607632999E+02 -0.18420885051E+02  0.22462624640E+02  0.33462097747E+02  0.00000000000E+00 0. -1.
</event>
<event>
 7    1  0.4623443E-009  0.4614232E+02  0.7816164E-02  0.1320468E+00
        -11   -1    0    0    0    0  0.00000000000E+00  0.00000000000E+00  0.45593999997E+02  0.45594000000E+02  0.51100000000E-03 0. -1.
         11   -1    0    0    0    0 -0.00000000000E+00 -0.00000000000E+00 -0.45593999997E+02  0.45594000000E+02  0.51100000000E-03 0.  1.
    9900012    2    1    2    0    0  0.13193668014E+02  0.43049509156E+02 -0.13343038031E+01  0.46142317845E+02  0.10000000762E+02 0.  0.
         12    1    1    2    0    0 -0.13193668014E+02 -0.43049509156E+02  0.13343038031E+01  0.45045682155E+02  0.00000000000E+00 0. -1.
         11    1    3    3    0    0  0.47876975115E+00  0.10699308493E+02  0.49943263754E+00  0.10721653600E+02  0.51100000000E-03 0. -1.
        -11    1    3    3    0    0  0.13846570207E+01  0.80791336877E+01  0.17932394864E+01  0.83907916388E+01  0.51100000000E-03 0.  1.
         12    1    3    3    0    0  0.11330241242E+02  0.24271066976E+02 -0.36269759270E+01  0.27029872606E+02  0.00000000000E+00 0. -1.
</event>
<event>
 7    1  0.4623443E-009  0.4614232E+02  0.7816164E-02  0.1320468E+00
        -11   -1    0    0    0    0  0.00000000000E+00  0.00000000000E+00  0.45593999997E+02  0.45594000000E+02  0.51100000000E-03 0. -1.
         11   -1    0    0    0    0 -0.00000000000E+00 -0.00000000000E+00 -0.45593999997E+02  0.45594000000E+02  0.51100000000E-03 0.  1.
    9900012    2    1    2    0    0 -0.41004319763E+02 -0.14390271842E+02 -0.11860839465E+02  0.46142315681E+02  0.99999810351E+01 0.  0.
         12    1    1    2    0    0  0.41004319763E+02  0.14390271842E+02  0.11860839465E+02  0.45045684319E+02  0.00000000000E+00 0. -1.
         11    1    3    3    0    0 -0.28553350889E+02 -0.12416221324E+02 -0.88243166969E+01  0.32362400474E+02  0.51100000000E-03 0. -1.
        -11    1    3    3    0    0 -0.32014626321E+01 -0.15937205806E+01 -0.27618288849E+01  0.45185182664E+01  0.51100000000E-03 0.  1.
         12    1    3    3    0    0 -0.92495062417E+01 -0.38032993698E+00 -0.27469388323E+00  0.92613969413E+01  0.00000000000E+00 0. -1.
</event>
<event>
 7    1  0.4623443E-009  0.4614232E+02  0.7816164E-02  0.1320468E+00
        -11   -1    0    0    0    0  0.00000000000E+00  0.00000000000E+00  0.45593999997E+02  0.45594000000E+02  0.51100000000E-03 0. -1.
         11   -1    0    0    0    0 -0.00000000000E+00 -0.00000000000E+00 -0.45593999997E+02  0.45594000000E+02  0.51100000000E-03 0.  1.
    9900012    2    1    2    0    0  0.23259884566E+01 -0.47200071047E+01  0.44737288101E+02  0.46142316122E+02  0.99999850575E+01 0.  0.
        -12    1    1    2    0    0 -0.23259884566E+01  0.47200071047E+01 -0.44737288101E+02  0.45045683878E+02  0.00000000000E+00 0.  1.
         11    1    3    3    0    0  0.19518457000E+00 -0.81638242725E+00  0.64014293434E+01  0.64562276279E+01  0.51100000000E-03 0. -1.
        -11    1    3    3    0    0  0.10829436050E+01 -0.54799603661E+01  0.36873371255E+02  0.37294077820E+02  0.51100000000E-03 0.  1.
        -12    1    3    3    0    0  0.10478602816E+01  0.15763356886E+01  0.14624875028E+01  0.23920106749E+01  0.00000000000E+00 0.  1.
</event>
<event>
 7    1  0.4623443E-009  0.4614231E+02  0.7816164E-02  0.1320468E+00
        -11   -1    0    0    0    0  0.00000000000E+00  0.00000000000E+00  0.45593999997E+02  0.45594000000E+02  0.51100000000E-03 0.  1.
         11   -1    0    0    0    0 -0.00000000000E+00 -0.00000000000E+00 -0.45593999997E+02  0.45594000000E+02  0.51100000000E-03 0. -1.
    9900012    2    1    2    0    0  0.88561075393E+01  0.42317211872E+02 -0.12646607638E+02  0.46142314900E+02  0.99999739099E+01 0.  0.
        -12    1    1    2    0    0 -0.88561075393E+01 -0.42317211872E+02  0.12646607638E+02  0.45045685100E+02  0.00000000000E+00 0.  1.
         11    1    3    3    0    0  0.59632689299E+01  0.24682125839E+02 -0.72674374575E+01  0.26411807203E+02  0.51100000000E-03 0. -1.
        -11    1    3    3    0    0 -0.18497524008E+01  0.70756941573E+01 -0.30445751186E+01  0.79218981101E+01  0.51100000000E-03 0.  1.
        -12    1    3    3    0    0  0.47425910101E+01  0.10559391876E+02 -0.23345950621E+01  0.11808609587E+02  0.00000000000E+00 0.  1.
</event>
<event>
 7    1  0.4623443E-009  0.4614232E+02  0.7816164E-02  0.1320468E+00
        -11   -1    0    0    0    0  0.00000000000E+00  0.00000000000E+00  0.45593999997E+02  0.45594000000E+02  0.51100000000E-03 0. -1.
         11   -1    0    0    0    0 -0.00000000000E+00 -0.00000000000E+00 -0.45593999997E+02  0.45594000000E+02  0.51100000000E-03 0.  1.
    9900012    2    1    2    0    0 -0.14543378237E+02  0.13831113484E+02  0.40327459397E+02  0.46142317275E+02  0.99999955676E+01 0.  0.
        -12    1    1    2    0    0  0.14543378237E+02 -0.13831113484E+02 -0.40327459397E+02  0.45045682725E+02  0.00000000000E+00 0.  1.
         11    1    3    3    0    0 -0.10527244317E+02  0.77180371036E+01  0.31349065734E+02  0.33958134406E+02  0.51100000000E-03 0.  1.
        -11    1    3    3    0    0 -0.46638962473E+01  0.59408079576E+01  0.80421447724E+01  0.11032734031E+02  0.51100000000E-03 0. -1.
        -12    1    3    3    0    0  0.64776232782E+00  0.17226842294E+00  0.93624889004E+00  0.11514488382E+01  0.00000000000E+00 0.  1.
</event>
<event>
 7    1  0.4623443E-009  0.4614232E+02  0.7816164E-02  0.1320468E+00
        -11   -1    0    0    0    0  0.00000000000E+00  0.00000000000E+00  0.45593999997E+02  0.45594000000E+02  0.51100000000E-03 0. -1.
         11   -1    0    0    0    0 -0.00000000000E+00 -0.00000000000E+00 -0.45593999997E+02  0.45594000000E+02  0.51100000000E-03 0.  1.
    9900012    2    1    2    0    0 -0.22593165448E+02  0.74792117841E-01 -0.38969946661E+02  0.46142318059E+02  0.10000002715E+02 0.  0.
         12    1    1    2    0    0  0.22593165448E+02 -0.74792117841E-01  0.38969946661E+02  0.45045681941E+02  0.00000000000E+00 0. -1.
         11    1    3    3    0    0 -0.67488485801E+01 -0.26304316136E+01 -0.93994083885E+01  0.11866549875E+02  0.51100000000E-03 0. -1.
        -11    1    3    3    0    0 -0.22181236060E+01 -0.16154624462E+01 -0.74404476378E+01  0.79303248709E+01  0.51100000000E-03 0.  1.
        -12    1    3    3    0    0 -0.13626193262E+02  0.43206861776E+01 -0.22130090634E+02  0.26345443313E+02  0.00000000000E+00 0.  1.
</event>
<event>
 7    1  0.4623443E-009  0.4614232E+02  0.7816164E-02  0.1320468E+00
        -11   -1    0    0    0    0  0.00000000000E+00  0.00000000000E+00  0.45593999997E+02  0.45594000000E+02  0.51100000000E-03 0. -1.
         11   -1    0    0    0    0 -0.00000000000E+00 -0.00000000000E+00 -0.45593999997E+02  0.45594000000E+02  0.51100000000E-03 0.  1.
    9900012    2    1    2    0    0 -0.18322204541E+02  0.39127815412E+02  0.12744581861E+02  0.46142317799E+02  0.10000000343E+02 0.  0.
        -12    1    1    2    0    0  0.18322204541E+02 -0.39127815412E+02 -0.12744581861E+02  0.45045682201E+02  0.00000000000E+00 0.  1.
         11    1    3    3    0    0 -0.11096212251E+01  0.65258461249E+01  0.34370962064E+01  0.74586565480E+01  0.51100000000E-03 0. -1.
        -11    1    3    3    0    0 -0.12235737470E+01  0.73731105252E+01  0.27493475149E+00  0.74790026682E+01  0.51100000000E-03 0.  1.
         12    1    3    3    0    0 -0.15989009569E+02  0.25228858762E+02  0.90325509029E+01  0.31204658582E+02  0.00000000000E+00 0. -1.
</event>
<event>
 7    1  0.4982578E-009  0.4614232E+02  0.7816164E-02  0.1320468E+00
        -11   -1    0    0    0    0  0.00000000000E+00  0.00000000000E+00  0.45593999997E+02  0.45594000000E+02  0.51100000000E-03 0. -1.
         11   -1    0    0    0    0 -0.00000000000E+00 -0.00000000000E+00 -0.45593999997E+02  0.45594000000E+02  0.51100000000E-03 0.  1.
    9900012    2    1    2    0    0 -0.75348272383E+01  0.26364974767E+02 -0.35738326229E+02  0.46142317880E+02  0.10000001082E+02 0.  0.
         12    1    1    2    0    0  0.75348272383E+01 -0.26364974767E+02  0.35738326229E+02  0.45045682120E+02  0.00000000000E+00 0. -1.
         11    1    3    3    0    0  0.18914641201E+01  0.22194368823E+01 -0.24259075354E+01  0.37932260970E+01  0.51100000000E-03 0. -1.
        -11    1    3    3    0    0 -0.25825277338E+01  0.10813125750E+02 -0.15418658369E+02  0.19008633937E+02  0.51100000000E-03 0.  1.
         12    1    3    3    0    0 -0.68437636245E+01  0.13332412135E+02 -0.17893760326E+02  0.23340457846E+02  0.00000000000E+00 0. -1.
</event>
<event>
 7    1  0.4623443E-009  0.4614232E+02  0.7816164E-02  0.1320468E+00
        -11   -1    0    0    0    0  0.00000000000E+00  0.00000000000E+00  0.45593999997E+02  0.45594000000E+02  0.51100000000E-03 0. -1.
         11   -1    0    0    0    0 -0.00000000000E+00 -0.00000000000E+00 -0.45593999997E+02  0.45594000000E+02  0.51100000000E-03 0.  1.
    9900012    2    1    2    0    0  0.11354564978E+02 -0.18228531409E+02 -0.39596818009E+02  0.46142317636E+02  0.99999988618E+01 0.  0.
         12    1    1    2    0    0 -0.11354564978E+02  0.18228531409E+02  0.39596818009E+02  0.45045682364E+02  0.00000000000E+00 0. -1.
         11    1    3    3    0    0  0.37881889269E+00  0.76425909392E-01 -0.37897543651E+01  0.38094071825E+01  0.51100000000E-03 0. -1.
        -11    1    3    3    0    0  0.47442577325E+00  0.56602591143E+00 -0.27441348317E+01  0.28417848937E+01  0.51100000000E-03 0.  1.
        -12    1    3    3    0    0  0.10501320312E+02 -0.18870983229E+02 -0.33062928812E+02  0.39491125560E+02  0.00000000000E+00 0.  1.
</event>
<event>
 7    1  0.4623443E-009  0.4614232E+02  0.7816164E-02  0.1320468E+00
        -11   -1    0    0    0    0  0.00000000000E+00  0.00000000000E+00  0.45593999997E+02  0.45594000000E+02  0.51100000000E-03 0. -1.
         11   -1    0    0    0    0 -0.00000000000E+00 -0.00000000000E+00 -0.45593999997E+02  0.45594000000E+02  0.51100000000E-03 0.  1.
    9900012    2    1    2    0    0  0.24902729721E+02 -0.57138860739E+01  0.37098774429E+02  0.46142317568E+02  0.99999982409E+01 0.  0.
        -12    1    1    2    0    0 -0.24902729721E+02  0.57138860739E+01 -0.37098774429E+02  0.45045682432E+02  0.00000000000E+00 0.  1.
         11    1    3    3    0    0  0.42764749773E+01 -0.34522830648E+01  0.12747174162E+02  0.13881532551E+02  0.51100000000E-03 0. -1.
        -11    1    3    3    0    0  0.17932696529E+01 -0.81029064551E+00  0.42139234402E+01  0.46507567125E+01  0.51100000000E-03 0.  1.
         12    1    3    3    0    0  0.18832985090E+02 -0.14513123636E+01  0.20137676827E+02  0.27610028305E+02  0.00000000000E+00 0. -1.
</event>
<event>
 7    1  0.4623443E-009  0.4614232E+02  0.7816164E-02  0.1320468E+00
        -11   -1    0    0    0    0  0.00000000000E+00  0.00000000000E+00  0.45593999997E+02  0.45594000000E+02  0.51100000000E-03 0. -1.
         11   -1    0    0    0    0 -0.00000000000E+00 -0.00000000000E+00 -0.45593999997E+02  0.45594000000E+02  0.51100000000E-03 0.  1.
    9900012    2    1    2    0    0  0.20451559166E+01  0.94969116120E+01  0.43985668537E+02  0.46142322854E+02  0.10000046441E+02 0.  0.
        -12    1    1    2    0    0 -0.20451559166E+01 -0.94969116120E+01 -0.43985668537E+02  0.45045677146E+02  0.00000000000E+00 0.  1.
         11    1    3    3    0    0  0.22215655598E+01  0.56175130184E+01  0.32256184616E+02  0.32816965922E+02  0.51100000000E-03 0. -1.
        -11    1    3    3    0    0  0.75914249530E+00  0.32690376633E+01  0.11737934210E+02  0.12208276059E+02  0.51100000000E-03 0.  1.
        -12    1    3    3    0    0 -0.93555213842E+00  0.61036093035E+00 -0.84502888567E-02  0.11170808728E+01  0.00000000000E+00 0.  1.
</event>
<event>
 7    1  0.4623443E-009  0.4614232E+02  0.7816164E-02  0.1320468E+00
        -11   -1    0    0    0    0  0.00000000000E+00  0.00000000000E+00  0.45593999997E+02  0.45594000000E+02  0.51100000000E-03 0. -1.
         11   -1    0    0    0    0 -0.00000000000E+00 -0.00000000000E+00 -0.45593999997E+02  0.45594000000E+02  0.51100000000E-03 0.  1.
    9900012    2    1    2    0    0 -0.29524678746E+02  0.11632444378E+02 -0.31970188718E+02  0.46142318920E+02  0.10000010568E+02 0.  0.
         12    1    1    2    0    0  0.29524678746E+02 -0.11632444378E+02  0.31970188718E+02  0.45045681080E+02  0.00000000000E+00 0. -1.
         11    1    3    3    0    0 -0.42065273219E+01  0.28522800706E+01 -0.87350136919E+01  0.10105980317E+02  0.51100000000E-03 0. -1.
        -11    1    3    3    0    0 -0.31853526884E+01  0.10866637795E+01 -0.52737402601E+00  0.34066748515E+01  0.51100000000E-03 0.  1.
        -12    1    3    3    0    0 -0.22132798736E+02  0.76935005283E+01 -0.22707801000E+02  0.32629663751E+02  0.00000000000E+00 0.  1.
</event>
<event>
 7    1  0.4623443E-009  0.4614232E+02  0.7816164E-02  0.1320468E+00
        -11   -1    0    0    0    0  0.00000000000E+00  0.00000000000E+00  0.45593999997E+02  0.45594000000E+02  0.51100000000E-03 0. -1.
         11   -1    0    0    0    0 -0.00000000000E+00 -0.00000000000E+00 -0.45593999997E+02  0.45594000000E+02  0.51100000000E-03 0.  1.
    9900012    2    1    2    0    0  0.72901268903E+01  0.40459546926E+02  0.18411751515E+02  0.46142317839E+02  0.10000000706E+02 0.  0.
        -12    1    1    2    0    0 -0.72901268903E+01 -0.40459546926E+02 -0.18411751515E+02  0.45045682161E+02  0.00000000000E+00 0.  1.
         11    1    3    3    0    0  0.67514374608E+01  0.20818525914E+02  0.59257662562E+01  0.22673941761E+02  0.51100000000E-03 0. -1.
        -11    1    3    3    0    0 -0.44916109812E+00  0.86788671368E+01  0.39821642345E+01  0.95593991820E+01  0.51100000000E-03 0.  1.
        -12    1    3    3    0    0  0.98785052763E+00  0.10962153876E+02  0.85038210247E+01  0.13908976895E+02  0.00000000000E+00 0.  1.
</event>
<event>
 7    1  0.4623443E-009  0.4614232E+02  0.7816164E-02  0.1320468E+00
        -11   -1    0    0    0    0  0.00000000000E+00  0.00000000000E+00  0.45593999997E+02  0.45594000000E+02  0.51100000000E-03 0. -1.
         11   -1    0    0    0    0 -0.00000000000E+00 -0.00000000000E+00 -0.45593999997E+02  0.45594000000E+02  0.51100000000E-03 0.  1.
    9900012    2    1    2    0    0 -0.12556767779E+02  0.97604452308E+01  0.42144687181E+02  0.46142319122E+02  0.10000012411E+02 0.  0.
        -12    1    1    2    0    0  0.12556767779E+02 -0.97604452308E+01 -0.42144687181E+02  0.45045680878E+02  0.00000000000E+00 0.  1.
         11    1    3    3    0    0 -0.13954002024E+02  0.77793594072E+01  0.33995132150E+02  0.37561970334E+02  0.51100000000E-03 0. -1.
        -11    1    3    3    0    0 -0.50015145125E-01  0.83917827621E+00  0.26254547421E+01  0.27567616070E+01  0.51100000000E-03 0.  1.
         12    1    3    3    0    0  0.14472493904E+01  0.11419075475E+01  0.55241002894E+01  0.58235871807E+01  0.00000000000E+00 0. -1.
</event>
<event>
 7    1  0.4623443E-009  0.4614231E+02  0.7816164E-02  0.1320468E+00
        -11   -1    0    0    0    0  0.00000000000E+00  0.00000000000E+00  0.45593999997E+02  0.45594000000E+02  0.51100000000E-03 0. -1.
         11   -1    0    0    0    0 -0.00000000000E+00 -0.00000000000E+00 -0.45593999997E+02  0.45594000000E+02  0.51100000000E-03 0.  1.
    9900012    2    1    2    0    0  0.20015935442E+02 -0.13575640826E+02  0.38002345188E+02  0.46142312801E+02  0.99999547721E+01 0.  0.
        -12    1    1    2    0    0 -0.20015935442E+02  0.13575640826E+02 -0.38002345188E+02  0.45045687199E+02  0.00000000000E+00 0.  1.
         11    1    3    3    0    0  0.54141003623E+00 -0.92718697958E+00 -0.30276002049E+00  0.11155556524E+01  0.51100000000E-03 0. -1.
        -11    1    3    3    0    0  0.28992443028E+01 -0.24641997925E+01  0.35842896560E+01  0.52273349562E+01  0.51100000000E-03 0.  1.
         12    1    3    3    0    0  0.16575281103E+02 -0.10184254054E+02  0.34720815552E+02  0.39799422193E+02  0.00000000000E+00 0. -1.
</event>
<event>
 7    1  0.4623443E-009  0.4614232E+02  0.7816164E-02  0.1320468E+00
        -11   -1    0    0    0    0  0.00000000000E+00  0.00000000000E+00  0.45593999997E+02  0.45594000000E+02  0.51100000000E-03 0. -1.
         11   -1    0    0    0    0 -0.00000000000E+00 -0.00000000000E+00 -0.45593999997E+02  0.45594000000E+02  0.51100000000E-03 0.  1.
    9900012    2    1    2    0    0  0.39205167759E+02 -0.98721797906E+00  0.22160633849E+02  0.46142317954E+02  0.10000001759E+02 0.  0.
        -12    1    1    2    0    0 -0.39205167759E+02  0.98721797906E+00 -0.22160633849E+02  0.45045682046E+02  0.00000000000E+00 0.  1.
         11    1    3    3    0    0  0.24323355445E+02 -0.20086479747E+01  0.15190743935E+02  0.28747504037E+02  0.51100000000E-03 0. -1.
        -11    1    3    3    0    0  0.34699279322E+01 -0.92805988927E+00  0.41318237848E+01  0.54748208247E+01  0.51100000000E-03 0.  1.
        -12    1    3    3    0    0  0.11411884382E+02  0.19494898849E+01  0.28380661293E+01  0.11919993092E+02  0.00000000000E+00 0.  1.
</event>
<event>
 7    1  0.4623443E-009  0.4614232E+02  0.7816164E-02  0.1320468E+00
        -11   -1    0    0    0    0  0.00000000000E+00  0.00000000000E+00  0.45593999997E+02  0.45594000000E+02  0.51100000000E-03 0. -1.
         11   -1    0    0    0    0 -0.00000000000E+00 -0.00000000000E+00 -0.45593999997E+02  0.45594000000E+02  0.51100000000E-03 0.  1.
    9900012    2    1    2    0    0 -0.42549087193E+02 -0.89774799471E+01 -0.11751319164E+02  0.46142317973E+02  0.10000001931E+02 0.  0.
         12    1    1    2    0    0  0.42549087193E+02  0.89774799471E+01  0.11751319164E+02  0.45045682027E+02  0.00000000000E+00 0. -1.
         11    1    3    3    0    0 -0.20582682130E+02 -0.66589306183E+01 -0.22873785533E+01  0.21753626400E+02  0.51100000000E-03 0. -1.
        -11    1    3    3    0    0 -0.45525547536E+01  0.11391430018E+01 -0.25061289307E+01  0.53201582722E+01  0.51100000000E-03 0.  1.
         12    1    3    3    0    0 -0.17413850310E+02 -0.34576923305E+01 -0.69578116801E+01  0.19068533300E+02  0.00000000000E+00 0. -1.
</event>
<event>
 7    1  0.4623443E-009  0.4614232E+02  0.7816164E-02  0.1320468E+00
        -11   -1    0    0    0    0  0.00000000000E+00  0.00000000000E+00  0.45593999997E+02  0.45594000000E+02  0.51100000000E-03 0. -1.
         11   -1    0    0    0    0 -0.00000000000E+00 -0.00000000000E+00 -0.45593999997E+02  0.45594000000E+02  0.51100000000E-03 0.  1.
    9900012    2    1    2    0    0  0.33183529559E+02  0.79886904121E+01  0.29396389595E+02  0.46142317302E+02  0.99999958132E+01 0.  0.
        -12    1    1    2    0    0 -0.33183529559E+02 -0.79886904121E+01 -0.29396389595E+02  0.45045682698E+02  0.00000000000E+00 0.  1.
         11    1    3    3    0    0  0.57866115670E+01  0.34429188143E+01  0.28952848253E+01  0.73294773259E+01  0.51100000000E-03 0. -1.
        -11    1    3    3    0    0  0.19332988393E+02  0.27363964906E+01  0.14863490061E+02  0.24539267369E+02  0.51100000000E-03 0.  1.
         12    1    3    3    0    0  0.80639295994E+01  0.18093751072E+01  0.11637614709E+02  0.14273572607E+02  0.00000000000E+00 0. -1.
</event>
<event>
 7    1  0.4623443E-009  0.4614232E+02  0.7816164E-02  0.1320468E+00
        -11   -1    0    0    0    0  0.00000000000E+00  0.00000000000E+00  0.45593999997E+02  0.45594000000E+02  0.51100000000E-03 0. -1.
         11   -1    0    0    0    0 -0.00000000000E+00 -0.00000000000E+00 -0.45593999997E+02  0.45594000000E+02  0.51100000000E-03 0.  1.
    9900012    2    1    2    0    0  0.44407914444E+02 -0.70626870052E+01 -0.26775240094E+01  0.46142317101E+02  0.99999939827E+01 0.  0.
         12    1    1    2    0    0 -0.44407914444E+02  0.70626870052E+01  0.26775240094E+01  0.45045682899E+02  0.00000000000E+00 0. -1.
         11    1    3    3    0    0  0.24965511882E+02 -0.12107074904E+01  0.76903892790E+00  0.25006679453E+02  0.51100000000E-03 0. -1.
        -11    1    3    3    0    0  0.91040435575E+01 -0.16908823264E+01  0.60053435126E+00  0.92791882138E+01  0.51100000000E-03 0.  1.
        -12    1    3    3    0    0  0.10338359005E+02 -0.41610971885E+01 -0.40470972886E+01  0.11856449434E+02  0.00000000000E+00 0.  1.
</event>
<event>
 7    1  0.4623443E-009  0.4614232E+02  0.7816164E-02  0.1320468E+00
        -11   -1    0    0    0    0  0.00000000000E+00  0.00000000000E+00  0.45593999997E+02  0.45594000000E+02  0.51100000000E-03 0. -1.
         11   -1    0    0    0    0 -0.00000000000E+00 -0.00000000000E+00 -0.45593999997E+02  0.45594000000E+02  0.51100000000E-03 0.  1.
    9900012    2    1    2    0    0  0.28135766442E+02  0.58012376669E+01  0.34696365815E+02  0.46142317493E+02  0.99999975532E+01 0.  0.
        -12    1    1    2    0    0 -0.28135766442E+02 -0.58012376669E+01 -0.34696365815E+02  0.45045682507E+02  0.00000000000E+00 0.  1.
         11    1    3    3    0    0  0.14097542770E+02  0.43387256262E+01  0.11490483650E+02  0.18697498950E+02  0.51100000000E-03 0. -1.
        -11    1    3    3    0    0  0.70432396215E+01  0.42066050191E-02  0.80980613339E+01  0.10732466617E+02  0.51100000000E-03 0.  1.
        -12    1    3    3    0    0  0.69949840507E+01  0.14583054357E+01  0.15107820832E+02  0.16712351926E+02  0.00000000000E+00 0.  1.
</event>
<event>
 7    1  0.4623443E-009  0.4614232E+02  0.7816164E-02  0.1320468E+00
        -11   -1    0    0    0    0  0.00000000000E+00  0.00000000000E+00  0.45593999997E+02  0.45594000000E+02  0.51100000000E-03 0. -1.
         11   -1    0    0    0    0 -0.00000000000E+00 -0.00000000000E+00 -0.45593999997E+02  0.45594000000E+02  0.51100000000E-03 0.  1.
    9900012    2    1    2    0    0  0.64737071827E+01 -0.32490197683E+02  0.30521990154E+02  0.46142315266E+02  0.99999772478E+01 0.  0.
        -12    1    1    2    0    0 -0.64737071827E+01  0.32490197683E+02 -0.30521990154E+02  0.45045684734E+02  0.00000000000E+00 0.  1.
         11    1    3    3    0    0  0.19960092207E+01 -0.33860369585E+01  0.76094154438E+01  0.85646075655E+01  0.51100000000E-03 0. -1.
        -11    1    3    3    0    0  0.38103327033E+01 -0.12691886899E+02  0.86587312311E+01  0.15829600600E+02  0.51100000000E-03 0.  1.
         12    1    3    3    0    0  0.66736525869E+00 -0.16412273826E+02  0.14253843479E+02  0.21748107101E+02  0.00000000000E+00 0. -1.
</event>
<event>
 7    1  0.5036380E-009  0.4614232E+02  0.7816164E-02  0.1320468E+00
        -11   -1    0    0    0    0  0.00000000000E+00  0.00000000000E+00  0.45593999997E+02  0.45594000000E+02  0.51100000000E-03 0. -1.
         11   -1    0    0    0    0 -0.00000000000E+00 -0.00000000000E+00 -0.45593999997E+02  0.45594000000E+02  0.51100000000E-03 0.  1.
    9900012    2    1    2    0    0 -0.23138910255E+01 -0.21843605358E+02 -0.39327043356E+02  0.46142317345E+02  0.99999962059E+01 0.  0.
         12    1    1    2    0    0  0.23138910255E+01  0.21843605358E+02  0.39327043356E+02  0.45045682655E+02  0.00000000000E+00 0. -1.
         11    1    3    3    0    0 -0.11777459634E+01 -0.38833587521E+01 -0.31848041804E+01  0.51585403633E+01  0.51100000000E-03 0. -1.
        -11    1    3    3    0    0 -0.22781102965E-01 -0.15138234131E+02 -0.23283886549E+02  0.27772396811E+02  0.51100000000E-03 0.  1.
         12    1    3    3    0    0 -0.11133639591E+01 -0.28220124746E+01 -0.12858352627E+02  0.13211380170E+02  0.00000000000E+00 0. -1.
</event>
<event>
 7    1  0.4623443E-009  0.4614232E+02  0.7816164E-02  0.1320468E+00
        -11   -1    0    0    0    0  0.00000000000E+00  0.00000000000E+00  0.45593999997E+02  0.45594000000E+02  0.51100000000E-03 0. -1.
         11   -1    0    0    0    0 -0.00000000000E+00 -0.00000000000E+00 -0.45593999997E+02  0.45594000000E+02  0.51100000000E-03 0.  1.
    9900012    2    1    2    0    0  0.98228639594E+01  0.32059822382E+02  0.30079770997E+02  0.46142317734E+02  0.99999997544E+01 0.  0.
        -12    1    1    2    0    0 -0.98228639594E+01 -0.32059822382E+02 -0.30079770997E+02  0.45045682266E+02  0.00000000000E+00 0.  1.
         11    1    3    3    0    0  0.81550778887E+01  0.17965561224E+02  0.16584562008E+02  0.25774296940E+02  0.51100000000E-03 0. -1.
        -11    1    3    3    0    0  0.27489625746E+00  0.10959413914E+02  0.69554075148E+01  0.12983143504E+02  0.51100000000E-03 0.  1.
        -12    1    3    3    0    0  0.13928898132E+01  0.31348472446E+01  0.65398014739E+01  0.73848772906E+01  0.00000000000E+00 0.  1.
</event>
<event>
 7    1  0.4623443E-009  0.4614232E+02  0.7816164E-02  0.1320468E+00
        -11   -1    0    0    0    0  0.00000000000E+00  0.00000000000E+00  0.45593999997E+02  0.45594000000E+02  0.51100000000E-03 0.  1.
         11   -1    0    0    0    0 -0.00000000000E+00 -0.00000000000E+00 -0.45593999997E+02  0.45594000000E+02  0.51100000000E-03 0. -1.
    9900012    2    1    2    0    0  0.13669357047E+02 -0.42526263454E+02  0.58119791689E+01  0.46142317551E+02  0.99999980851E+01 0.  0.
        -12    1    1    2    0    0 -0.13669357047E+02  0.42526263454E+02 -0.58119791689E+01  0.45045682449E+02  0.00000000000E+00 0.  1.
         11    1    3    3    0    0 -0.40038130042E+00 -0.77932585017E+01 -0.94721118877E+00  0.78608137337E+01  0.51100000000E-03 0. -1.
        -11    1    3    3    0    0  0.72692878591E+01 -0.22571480495E+02  0.34805858397E+01  0.23967243391E+02  0.51100000000E-03 0.  1.
        -12    1    3    3    0    0  0.68004504888E+01 -0.12161524458E+02  0.32786045180E+01  0.14314260427E+02  0.00000000000E+00 0.  1.
</event>
<event>
 7    1  0.4623443E-009  0.4614232E+02  0.7816164E-02  0.1320468E+00
        -11   -1    0    0    0    0  0.00000000000E+00  0.00000000000E+00  0.45593999997E+02  0.45594000000E+02  0.51100000000E-03 0. -1.
         11   -1    0    0    0    0 -0.00000000000E+00 -0.00000000000E+00 -0.45593999997E+02  0.45594000000E+02  0.51100000000E-03 0.  1.
    9900012    2    1    2    0    0 -0.16920160129E+02 -0.82409303233E+01 -0.40925649113E+02  0.46142317558E+02  0.99999981435E+01 0.  0.
         12    1    1    2    0    0  0.16920160129E+02  0.82409303233E+01  0.40925649113E+02  0.45045682442E+02  0.00000000000E+00 0. -1.
         11    1    3    3    0    0 -0.34696831038E+01 -0.66444135749E+00 -0.18906786238E+01  0.40068502689E+01  0.51100000000E-03 0. -1.
        -11    1    3    3    0    0 -0.22145916113E+01  0.15572554403E+00 -0.51186360079E+01  0.55793459556E+01  0.51100000000E-03 0.  1.
         12    1    3    3    0    0 -0.11235885414E+02 -0.77322145099E+01 -0.33916334481E+02  0.36556121333E+02  0.00000000000E+00 0. -1.
</event>
<event>
 7    1  0.4623443E-009  0.4614232E+02  0.7816164E-02  0.1320468E+00
        -11   -1    0    0    0    0  0.00000000000E+00  0.00000000000E+00  0.45593999997E+02  0.45594000000E+02  0.51100000000E-03 0. -1.
         11   -1    0    0    0    0 -0.00000000000E+00 -0.00000000000E+00 -0.45593999997E+02  0.45594000000E+02  0.51100000000E-03 0.  1.
    9900012    2    1    2    0    0 -0.39821963855E+02 -0.19541458167E+02 -0.78393887873E+01  0.46142318640E+02  0.10000008017E+02 0.  0.
         12    1    1    2    0    0  0.39821963855E+02  0.19541458167E+02  0.78393887873E+01  0.45045681360E+02  0.00000000000E+00 0. -1.
         11    1    3    3    0    0 -0.81631440709E+01 -0.31088460031E+00 -0.11018491793E+01  0.82430359839E+01  0.51100000000E-03 0. -1.
        -11    1    3    3    0    0 -0.24986324290E+01 -0.40456573884E+00  0.54153659567E-01  0.25317524232E+01  0.51100000000E-03 0.  1.
        -12    1    3    3    0    0 -0.29160187355E+02 -0.18826007828E+02 -0.67916932676E+01  0.35367530233E+02  0.00000000000E+00 0.  1.
</event>
<event>
 7    1  0.4623443E-009  0.4614232E+02  0.7816164E-02  0.1320468E+00
        -11   -1    0    0    0    0  0.00000000000E+00  0.00000000000E+00  0.45593999997E+02  0.45594000000E+02  0.51100000000E-03 0.  1.
         11   -1    0    0    0    0 -0.00000000000E+00 -0.00000000000E+00 -0.45593999997E+02  0.45594000000E+02  0.51100000000E-03 0. -1.
    9900012    2    1    2    0    0 -0.31672998653E+02  0.16521270977E+02  0.27440521227E+02  0.46142318259E+02  0.10000004539E+02 0.  0.
        -12    1    1    2    0    0  0.31672998653E+02 -0.16521270977E+02 -0.27440521227E+02  0.45045681741E+02  0.00000000000E+00 0.  1.
         11    1    3    3    0    0 -0.20506303616E+02  0.12876095237E+02  0.15655960152E+02  0.28834205470E+02  0.51100000000E-03 0. -1.
        -11    1    3    3    0    0 -0.71392790148E+01  0.51885485146E-01  0.79621573586E+01  0.10694295069E+02  0.51100000000E-03 0.  1.
        -12    1    3    3    0    0 -0.40274160216E+01  0.35932902544E+01  0.38224037165E+01  0.66138177201E+01  0.00000000000E+00 0.  1.
</event>
<event>
 7    1  0.4623443E-009  0.4614232E+02  0.7816164E-02  0.1320468E+00
        -11   -1    0    0    0    0  0.00000000000E+00  0.00000000000E+00  0.45593999997E+02  0.45594000000E+02  0.51100000000E-03 0. -1.
         11   -1    0    0    0    0 -0.00000000000E+00 -0.00000000000E+00 -0.45593999997E+02  0.45594000000E+02  0.51100000000E-03 0.  1.
    9900012    2    1    2    0    0 -0.10032252346E+02  0.12557180778E+02  0.42080692455E+02  0.46142317036E+02  0.99999933871E+01 0.  0.
        -12    1    1    2    0    0  0.10032252346E+02 -0.12557180778E+02 -0.42080692455E+02  0.45045682964E+02  0.00000000000E+00 0.  1.
         11    1    3    3    0    0 -0.27890581987E+01  0.29377664273E+01  0.27849501419E+01  0.49158178130E+01  0.51100000000E-03 0. -1.
        -11    1    3    3    0    0 -0.70727075992E+00 -0.80677195988E-01  0.33799388571E+01  0.34540885450E+01  0.51100000000E-03 0.  1.
         12    1    3    3    0    0 -0.65359233869E+01  0.97000915471E+01  0.35915803456E+02  0.37772410678E+02  0.00000000000E+00 0. -1.
</event>
<event>
 7    1  0.4623443E-009  0.4614232E+02  0.7816164E-02  0.1320468E+00
        -11   -1    0    0    0    0  0.00000000000E+00  0.00000000000E+00  0.45593999997E+02  0.45594000000E+02  0.51100000000E-03 0. -1.
         11   -1    0    0    0    0 -0.00000000000E+00 -0.00000000000E+00 -0.45593999997E+02  0.45594000000E+02  0.51100000000E-03 0.  1.
    9900012    2    1    2    0    0  0.21827806110E+02  0.98200710468E+01 -0.38160536198E+02  0.46142318322E+02  0.10000005112E+02 0.  0.
         12    1    1    2    0    0 -0.21827806110E+02 -0.98200710468E+01  0.38160536198E+02  0.45045681678E+02  0.00000000000E+00 0. -1.
         11    1    3    3    0    0  0.58719744631E+01  0.15742737192E+01 -0.84825794105E+01  0.10436118797E+02  0.51100000000E-03 0.  1.
        -11    1    3    3    0    0  0.11376025611E+02  0.71797475402E+01 -0.27305549765E+02  0.30439378799E+02  0.51100000000E-03 0. -1.
         12    1    3    3    0    0  0.45798060353E+01  0.10660497874E+01 -0.23724070228E+01  0.52668207252E+01  0.00000000000E+00 0. -1.
</event>
<event>
 7    1  0.4623443E-009  0.4614232E+02  0.7816164E-02  0.1320468E+00
        -11   -1    0    0    0    0  0.00000000000E+00  0.00000000000E+00  0.45593999997E+02  0.45594000000E+02  0.51100000000E-03 0. -1.
         11   -1    0    0    0    0 -0.00000000000E+00 -0.00000000000E+00 -0.45593999997E+02  0.45594000000E+02  0.51100000000E-03 0.  1.
    9900012    2    1    2    0    0  0.44938624861E+02  0.10446147237E+01  0.29227103220E+01  0.46142318076E+02  0.10000002875E+02 0.  0.
         12    1    1    2    0    0 -0.44938624861E+02 -0.10446147237E+01 -0.29227103220E+01  0.45045681924E+02  0.00000000000E+00 0. -1.
         11    1    3    3    0    0  0.11533186865E+02 -0.16390042574E+01  0.67914763812E+00  0.11668846387E+02  0.51100000000E-03 0. -1.
        -11    1    3    3    0    0  0.82054958281E+00  0.15014372647E+01 -0.40962803183E+00  0.17593779763E+01  0.51100000000E-03 0.  1.
        -12    1    3    3    0    0  0.32584888413E+02  0.11821817163E+01  0.26531907157E+01  0.32714093713E+02  0.00000000000E+00 0.  1.
</event>
<event>
 7    1  0.4623443E-009  0.4614232E+02  0.7816164E-02  0.1320468E+00
        -11   -1    0    0    0    0  0.00000000000E+00  0.00000000000E+00  0.45593999997E+02  0.45594000000E+02  0.51100000000E-03 0. -1.
         11   -1    0    0    0    0 -0.00000000000E+00 -0.00000000000E+00 -0.45593999997E+02  0.45594000000E+02  0.51100000000E-03 0.  1.
    9900012    2    1    2    0    0  0.13653350215E+02 -0.20117718573E+01 -0.42879508863E+02  0.46142317871E+02  0.10000001003E+02 0.  0.
         12    1    1    2    0    0 -0.13653350215E+02  0.20117718573E+01  0.42879508863E+02  0.45045682129E+02  0.00000000000E+00 0. -1.
         11    1    3    3    0    0  0.76297426827E+01 -0.15875220008E+01 -0.11143845814E+02  0.13598474153E+02  0.51100000000E-03 0. -1.
        -11    1    3    3    0    0  0.36734527157E+01  0.14090018875E+01 -0.13333650868E+02  0.13902006578E+02  0.51100000000E-03 0.  1.
         12    1    3    3    0    0  0.23501548166E+01 -0.18332517441E+01 -0.18402012181E+02  0.18641837140E+02  0.00000000000E+00 0. -1.
</event>
<event>
 7    1  0.4623443E-009  0.4614232E+02  0.7816164E-02  0.1320468E+00
        -11   -1    0    0    0    0  0.00000000000E+00  0.00000000000E+00  0.45593999997E+02  0.45594000000E+02  0.51100000000E-03 0. -1.
         11   -1    0    0    0    0 -0.00000000000E+00 -0.00000000000E+00 -0.45593999997E+02  0.45594000000E+02  0.51100000000E-03 0.  1.
    9900012    2    1    2    0    0  0.42035425088E+02  0.13156631926E+02  0.94360681673E+01  0.46142319758E+02  0.10000018212E+02 0.  0.
        -12    1    1    2    0    0 -0.42035425088E+02 -0.13156631926E+02 -0.94360681673E+01  0.45045680242E+02  0.00000000000E+00 0.  1.
         11    1    3    3    0    0  0.73126033658E+01  0.29189130652E+00  0.77930282890E+00  0.73598017419E+01  0.51100000000E-03 0. -1.
        -11    1    3    3    0    0  0.20626598414E+02  0.84457952158E+01  0.14236610386E+01  0.22334162845E+02  0.51100000000E-03 0.  1.
        -12    1    3    3    0    0  0.14096223308E+02  0.44189454038E+01  0.72331042998E+01  0.16448355172E+02  0.00000000000E+00 0.  1.
</event>
<event>
 7    1  0.4623443E-009  0.4614232E+02  0.7816164E-02  0.1320468E+00
        -11   -1    0    0    0    0  0.00000000000E+00  0.00000000000E+00  0.45593999997E+02  0.45594000000E+02  0.51100000000E-03 0. -1.
         11   -1    0    0    0    0 -0.00000000000E+00 -0.00000000000E+00 -0.45593999997E+02  0.45594000000E+02  0.51100000000E-03 0.  1.
    9900012    2    1    2    0    0  0.88194111990E+01  0.22236384475E+02  0.38169027644E+02  0.46142317858E+02  0.10000000880E+02 0.  0.
        -12    1    1    2    0    0 -0.88194111990E+01 -0.22236384475E+02 -0.38169027644E+02  0.45045682142E+02  0.00000000000E+00 0.  1.
         11    1    3    3    0    0  0.46523111425E+01  0.10726743853E+02  0.13834504589E+02  0.18113546040E+02  0.51100000000E-03 0. -1.
        -11    1    3    3    0    0 -0.61988803153E+00  0.74304264132E+01  0.11045433371E+02  0.13326556062E+02  0.51100000000E-03 0.  1.
        -12    1    3    3    0    0  0.47869880880E+01  0.40792142085E+01  0.13289089684E+02  0.14702215756E+02  0.00000000000E+00 0.  1.
</event>
<event>
 7    1  0.4623443E-009  0.4614232E+02  0.7816164E-02  0.1320468E+00
        -11   -1    0    0    0    0  0.00000000000E+00  0.00000000000E+00  0.45593999997E+02  0.45594000000E+02  0.51100000000E-03 0. -1.
         11   -1    0    0    0    0 -0.00000000000E+00 -0.00000000000E+00 -0.45593999997E+02  0.45594000000E+02  0.51100000000E-03 0.  1.
    9900012    2    1    2    0    0  0.99815371004E+01  0.93369069333E+00 -0.43915948844E+02  0.46142318475E+02  0.10000006510E+02 0.  0.
         12    1    1    2    0    0 -0.99815371004E+01 -0.93369069333E+00  0.43915948844E+02  0.45045681525E+02  0.00000000000E+00 0. -1.
         11    1    3    3    0    0 -0.68007420585E+00 -0.14312467309E+01 -0.26557233603E+01  0.30925450615E+01  0.51100000000E-03 0. -1.
        -11    1    3    3    0    0  0.87552592947E+00  0.59145531426E+00 -0.65237292989E+00  0.12417551058E+01  0.51100000000E-03 0.  1.
        -12    1    3    3    0    0  0.97860853768E+01  0.17734821100E+01 -0.40607852554E+02  0.41808018308E+02  0.00000000000E+00 0.  1.
</event>
<event>
 7    1  0.4623443E-009  0.4614232E+02  0.7816164E-02  0.1320468E+00
        -11   -1    0    0    0    0  0.00000000000E+00  0.00000000000E+00  0.45593999997E+02  0.45594000000E+02  0.51100000000E-03 0. -1.
         11   -1    0    0    0    0 -0.00000000000E+00 -0.00000000000E+00 -0.45593999997E+02  0.45594000000E+02  0.51100000000E-03 0.  1.
    9900012    2    1    2    0    0  0.21360879147E+02  0.14008105783E+02 -0.37102551845E+02  0.46142317200E+02  0.99999948806E+01 0.  0.
         12    1    1    2    0    0 -0.21360879147E+02 -0.14008105783E+02  0.37102551845E+02  0.45045682800E+02  0.00000000000E+00 0. -1.
         11    1    3    3    0    0  0.56642023135E+01  0.48994042452E+01 -0.11476727127E+02  0.13704109442E+02  0.51100000000E-03 0. -1.
        -11    1    3    3    0    0  0.11631335893E+02  0.92473020501E+01 -0.15244410310E+02  0.21288321113E+02  0.51100000000E-03 0.  1.
         12    1    3    3    0    0  0.40653409409E+01 -0.13860051264E+00 -0.10381414408E+02  0.11149886644E+02  0.00000000000E+00 0. -1.
</event>
<event>
 7    1  0.4623443E-009  0.4614232E+02  0.7816164E-02  0.1320468E+00
        -11   -1    0    0    0    0  0.00000000000E+00  0.00000000000E+00  0.45593999997E+02  0.45594000000E+02  0.51100000000E-03 0. -1.
         11   -1    0    0    0    0 -0.00000000000E+00 -0.00000000000E+00 -0.45593999997E+02  0.45594000000E+02  0.51100000000E-03 0.  1.
    9900012    2    1    2    0    0  0.35990276313E+02  0.84334998985E+01  0.25742754846E+02  0.46142319445E+02  0.10000015353E+02 0.  0.
        -12    1    1    2    0    0 -0.35990276313E+02 -0.84334998985E+01 -0.25742754846E+02  0.45045680555E+02  0.00000000000E+00 0.  1.
         11    1    3    3    0    0  0.20194587830E+01  0.11364830817E+01  0.78997256063E-01  0.23186307164E+01  0.51100000000E-03 0. -1.
        -11    1    3    3    0    0  0.35441377317E+01  0.30964084810E+01  0.23359158081E+01  0.52540613497E+01  0.51100000000E-03 0.  1.
         12    1    3    3    0    0  0.30426679798E+02  0.42006083359E+01  0.23327841782E+02  0.38569627379E+02  0.00000000000E+00 0. -1.
</event>
<event>
 7    1  0.4623443E-009  0.4614232E+02  0.7816164E-02  0.1320468E+00
        -11   -1    0    0    0    0  0.00000000000E+00  0.00000000000E+00  0.45593999997E+02  0.45594000000E+02  0.51100000000E-03 0. -1.
         11   -1    0    0    0    0 -0.00000000000E+00 -0.00000000000E+00 -0.45593999997E+02  0.45594000000E+02  0.51100000000E-03 0.  1.
    9900012    2    1    2    0    0  0.59320033281E+01 -0.65921061073E+01 -0.44164114123E+02  0.46142317602E+02  0.99999985498E+01 0.  0.
         12    1    1    2    0    0 -0.59320033281E+01  0.65921061073E+01  0.44164114123E+02  0.45045682398E+02  0.00000000000E+00 0. -1.
         11    1    3    3    0    0 -0.11820192461E+00  0.12851397185E+01 -0.14222107403E+01  0.19204789616E+01  0.51100000000E-03 0. -1.
        -11    1    3    3    0    0 -0.54138359196E+00 -0.21514489290E+01 -0.14264772103E+02  0.14436258245E+02  0.51100000000E-03 0.  1.
        -12    1    3    3    0    0  0.65915888447E+01 -0.57257968968E+01 -0.28477131279E+02  0.29785580396E+02  0.00000000000E+00 0.  1.
</event>
<event>
 7    1  0.4623443E-009  0.4614232E+02  0.7816164E-02  0.1320468E+00
        -11   -1    0    0    0    0  0.00000000000E+00  0.00000000000E+00  0.45593999997E+02  0.45594000000E+02  0.51100000000E-03 0. -1.
         11   -1    0    0    0    0 -0.00000000000E+00 -0.00000000000E+00 -0.45593999997E+02  0.45594000000E+02  0.51100000000E-03 0.  1.
    9900012    2    1    2    0    0  0.21433959846E+01  0.23581598661E+01 -0.44932820470E+02  0.46142318524E+02  0.10000006954E+02 0.  0.
         12    1    1    2    0    0 -0.21433959846E+01 -0.23581598661E+01  0.44932820470E+02  0.45045681476E+02  0.00000000000E+00 0. -1.
         11    1    3    3    0    0 -0.13797120289E+01 -0.61910860683E+00 -0.98650370667E+01  0.99802734100E+01  0.51100000000E-03 0. -1.
        -11    1    3    3    0    0 -0.55260177658E+00 -0.21479551026E+01 -0.10865564151E+02  0.11089615162E+02  0.51100000000E-03 0.  1.
         12    1    3    3    0    0  0.40757097901E+01  0.51252235756E+01 -0.24202219252E+02  0.25072429952E+02  0.00000000000E+00 0. -1.
</event>
<event>
 7    1  0.4623443E-009  0.4614232E+02  0.7816164E-02  0.1320468E+00
        -11   -1    0    0    0    0  0.00000000000E+00  0.00000000000E+00  0.45593999997E+02  0.45594000000E+02  0.51100000000E-03 0. -1.
         11   -1    0    0    0    0 -0.00000000000E+00 -0.00000000000E+00 -0.45593999997E+02  0.45594000000E+02  0.51100000000E-03 0.  1.
    9900012    2    1    2    0    0  0.29304983829E+02 -0.17816524243E+02  0.29204496538E+02  0.46142320614E+02  0.10000026016E+02 0.  0.
        -12    1    1    2    0    0 -0.29304983829E+02  0.17816524243E+02 -0.29204496538E+02  0.45045679386E+02  0.00000000000E+00 0.  1.
         11    1    3    3    0    0  0.88999918036E+01 -0.62158507185E+01  0.13388665379E+02  0.17236676453E+02  0.51100000000E-03 0. -1.
        -11    1    3    3    0    0  0.24675283379E+01 -0.39648717646E+01  0.36358693792E+01  0.59184838102E+01  0.51100000000E-03 0.  1.
         12    1    3    3    0    0  0.17937463687E+02 -0.76358017595E+01  0.12179961781E+02  0.22987160351E+02  0.00000000000E+00 0. -1.
</event>
<event>
 7    1  0.4623443E-009  0.4614232E+02  0.7816164E-02  0.1320468E+00
        -11   -1    0    0    0    0  0.00000000000E+00  0.00000000000E+00  0.45593999997E+02  0.45594000000E+02  0.51100000000E-03 0. -1.
         11   -1    0    0    0    0 -0.00000000000E+00 -0.00000000000E+00 -0.45593999997E+02  0.45594000000E+02  0.51100000000E-03 0.  1.
    9900012    2    1    2    0    0 -0.89802851036E+01 -0.22559663364E+02 -0.37941132525E+02  0.46142317977E+02  0.10000001968E+02 0.  0.
         12    1    1    2    0    0  0.89802851036E+01  0.22559663364E+02  0.37941132525E+02  0.45045682023E+02  0.00000000000E+00 0. -1.
         11    1    3    3    0    0 -0.49432284474E+01 -0.83772029300E+01 -0.17236617321E+02  0.19791766302E+02  0.51100000000E-03 0. -1.
        -11    1    3    3    0    0 -0.23891237266E+01 -0.13815591914E+02 -0.20199089598E+02  0.24588243389E+02  0.51100000000E-03 0.  1.
        -12    1    3    3    0    0 -0.16479329296E+01 -0.36686852046E+00 -0.50542560547E+00  0.17623082858E+01  0.00000000000E+00 0.  1.
</event>
<event>
 7    1  0.4623443E-009  0.4614232E+02  0.7816164E-02  0.1320468E+00
        -11   -1    0    0    0    0  0.00000000000E+00  0.00000000000E+00  0.45593999997E+02  0.45594000000E+02  0.51100000000E-03 0. -1.
         11   -1    0    0    0    0 -0.00000000000E+00 -0.00000000000E+00 -0.45593999997E+02  0.45594000000E+02  0.51100000000E-03 0.  1.
    9900012    2    1    2    0    0  0.31030550913E+02  0.31240658333E+02 -0.94994579601E+01  0.46142317359E+02  0.99999963374E+01 0.  0.
         12    1    1    2    0    0 -0.31030550913E+02 -0.31240658333E+02  0.94994579601E+01  0.45045682641E+02  0.00000000000E+00 0. -1.
         11    1    3    3    0    0  0.25164408096E+01  0.32249344964E+01 -0.20518593867E+01  0.45763308511E+01  0.51100000000E-03 0. -1.
        -11    1    3    3    0    0  0.19561396088E+02  0.24312320234E+02 -0.56424796550E+01  0.31710797987E+02  0.51100000000E-03 0.  1.
         12    1    3    3    0    0  0.89527140152E+01  0.37034036027E+01 -0.18051189184E+01  0.98551885214E+01  0.00000000000E+00 0. -1.
</event>
<event>
 7    1  0.4623443E-009  0.4614232E+02  0.7816164E-02  0.1320468E+00
        -11   -1    0    0    0    0  0.00000000000E+00  0.00000000000E+00  0.45593999997E+02  0.45594000000E+02  0.51100000000E-03 0. -1.
         11   -1    0    0    0    0 -0.00000000000E+00 -0.00000000000E+00 -0.45593999997E+02  0.45594000000E+02  0.51100000000E-03 0.  1.
    9900012    2    1    2    0    0  0.46313682900E+01 -0.44778120267E+02  0.16074427432E+01  0.46142317642E+02  0.99999989158E+01 0.  0.
         12    1    1    2    0    0 -0.46313682900E+01  0.44778120267E+02 -0.16074427432E+01  0.45045682358E+02  0.00000000000E+00 0. -1.
         11    1    3    3    0    0  0.22277983022E+01 -0.34214817311E+01  0.76646526122E-01  0.40835643086E+01  0.51100000000E-03 0. -1.
        -11    1    3    3    0    0 -0.26273064378E+00 -0.43954098972E+00  0.91698775496E+00  0.10502811417E+01  0.51100000000E-03 0.  1.
        -12    1    3    3    0    0  0.26663006316E+01 -0.40917097546E+02  0.61380846212E+00  0.41008472192E+02  0.00000000000E+00 0.  1.
</event>
<event>
 7    1  0.4623443E-009  0.4614232E+02  0.7816164E-02  0.1320468E+00
        -11   -1    0    0    0    0  0.00000000000E+00  0.00000000000E+00  0.45593999997E+02  0.45594000000E+02  0.51100000000E-03 0. -1.
         11   -1    0    0    0    0 -0.00000000000E+00 -0.00000000000E+00 -0.45593999997E+02  0.45594000000E+02  0.51100000000E-03 0.  1.
    9900012    2    1    2    0    0  0.29286149553E+02 -0.24711680324E+02  0.23680537217E+02  0.46142317155E+02  0.99999944709E+01 0.  0.
        -12    1    1    2    0    0 -0.29286149553E+02  0.24711680324E+02 -0.23680537217E+02  0.45045682845E+02  0.00000000000E+00 0.  1.
         11    1    3    3    0    0 -0.23375661814E-01  0.26431510144E+00  0.68683721372E+00  0.73631142439E+00  0.51100000000E-03 0. -1.
        -11    1    3    3    0    0  0.21968942076E+01 -0.23517274867E-01  0.56174291098E+00  0.22676976388E+01  0.51100000000E-03 0.  1.
         12    1    3    3    0    0  0.27112631008E+02 -0.24952478151E+02  0.22431957092E+02  0.43138308092E+02  0.00000000000E+00 0. -1.
</event>
<event>
 7    1  0.4623443E-009  0.4614232E+02  0.7816164E-02  0.1320468E+00
        -11   -1    0    0    0    0  0.00000000000E+00  0.00000000000E+00  0.45593999997E+02  0.45594000000E+02  0.51100000000E-03 0. -1.
         11   -1    0    0    0    0 -0.00000000000E+00 -0.00000000000E+00 -0.45593999997E+02  0.45594000000E+02  0.51100000000E-03 0.  1.
    9900012    2    1    2    0    0 -0.26421809479E+02 -0.16713897169E+02  0.32429106812E+02  0.46142319371E+02  0.10000014678E+02 0.  0.
        -12    1    1    2    0    0  0.26421809479E+02  0.16713897169E+02 -0.32429106812E+02  0.45045680629E+02  0.00000000000E+00 0.  1.
         11    1    3    3    0    0 -0.94589856596E+01 -0.84556393074E+01  0.14824684622E+02  0.19512599012E+02  0.51100000000E-03 0. -1.
        -11    1    3    3    0    0 -0.66964322467E+01 -0.37262712492E+01  0.30423996924E+01  0.82452106344E+01  0.51100000000E-03 0.  1.
        -12    1    3    3    0    0 -0.10266391573E+02 -0.45319866125E+01  0.14562022497E+02  0.18384509724E+02  0.00000000000E+00 0.  1.
</event>
<event>
 7    1  0.4623443E-009  0.4614231E+02  0.7816164E-02  0.1320468E+00
        -11   -1    0    0    0    0  0.00000000000E+00  0.00000000000E+00  0.45593999997E+02  0.45594000000E+02  0.51100000000E-03 0. -1.
         11   -1    0    0    0    0 -0.00000000000E+00 -0.00000000000E+00 -0.45593999997E+02  0.45594000000E+02  0.51100000000E-03 0.  1.
    9900012    2    1    2    0    0 -0.21668241855E+02  0.18905821324E+02  0.34672340987E+02  0.46142311921E+02  0.99999467480E+01 0.  0.
        -12    1    1    2    0    0  0.21668241855E+02 -0.18905821324E+02 -0.34672340987E+02  0.45045688079E+02  0.00000000000E+00 0.  1.
         11    1    3    3    0    0 -0.97601563465E+01  0.93242301815E+01  0.10091992222E+02  0.16853789712E+02  0.51100000000E-03 0. -1.
        -11    1    3    3    0    0 -0.67589190752E+01  0.35602517203E+01  0.89657744104E+01  0.11778942670E+02  0.51100000000E-03 0.  1.
        -12    1    3    3    0    0 -0.51491664328E+01  0.60213394218E+01  0.15614574355E+02  0.17509579540E+02  0.00000000000E+00 0.  1.
</event>
<event>
 7    1  0.4623443E-009  0.4614232E+02  0.7816164E-02  0.1320468E+00
        -11   -1    0    0    0    0  0.00000000000E+00  0.00000000000E+00  0.45593999997E+02  0.45594000000E+02  0.51100000000E-03 0. -1.
         11   -1    0    0    0    0 -0.00000000000E+00 -0.00000000000E+00 -0.45593999997E+02  0.45594000000E+02  0.51100000000E-03 0.  1.
    9900012    2    1    2    0    0  0.29850816346E+02 -0.12862293526E+02  0.31186595213E+02  0.46142317052E+02  0.99999935363E+01 0.  0.
        -12    1    1    2    0    0 -0.29850816346E+02  0.12862293526E+02 -0.31186595213E+02  0.45045682948E+02  0.00000000000E+00 0.  1.
         11    1    3    3    0    0  0.15256264467E+02 -0.79688790131E+01  0.10217211207E+02  0.20016194527E+02  0.51100000000E-03 0. -1.
        -11    1    3    3    0    0  0.96884169088E+00 -0.15916632593E+00  0.25375690234E+01  0.27208904702E+01  0.51100000000E-03 0.  1.
         12    1    3    3    0    0  0.13625710187E+02 -0.47342481867E+01  0.18431814983E+02  0.23405232055E+02  0.00000000000E+00 0. -1.
</event>
<event>
 7    1  0.4623443E-009  0.4614232E+02  0.7816164E-02  0.1320468E+00
        -11   -1    0    0    0    0  0.00000000000E+00  0.00000000000E+00  0.45593999997E+02  0.45594000000E+02  0.51100000000E-03 0. -1.
         11   -1    0    0    0    0 -0.00000000000E+00 -0.00000000000E+00 -0.45593999997E+02  0.45594000000E+02  0.51100000000E-03 0.  1.
    9900012    2    1    2    0    0 -0.98854317975E+00 -0.56867069299E+01  0.44674348483E+02  0.46142320233E+02  0.10000022538E+02 0.  0.
        -12    1    1    2    0    0  0.98854317975E+00  0.56867069299E+01 -0.44674348483E+02  0.45045679767E+02  0.00000000000E+00 0.  1.
         11    1    3    3    0    0  0.38173122291E+00  0.19716861628E+01  0.14167613867E+02  0.14309246940E+02  0.51100000000E-03 0.  1.
        -11    1    3    3    0    0 -0.25584084636E+01 -0.20292681483E+01  0.13069267968E+02  0.13471048532E+02  0.51100000000E-03 0. -1.
        -12    1    3    3    0    0  0.11881340609E+01 -0.56291249443E+01  0.17437466648E+02  0.18362024760E+02  0.00000000000E+00 0.  1.
</event>
<event>
 7    1  0.4623443E-009  0.4614232E+02  0.7816164E-02  0.1320468E+00
        -11   -1    0    0    0    0  0.00000000000E+00  0.00000000000E+00  0.45593999997E+02  0.45594000000E+02  0.51100000000E-03 0. -1.
         11   -1    0    0    0    0 -0.00000000000E+00 -0.00000000000E+00 -0.45593999997E+02  0.45594000000E+02  0.51100000000E-03 0.  1.
    9900012    2    1    2    0    0 -0.39842589675E+02 -0.14661828458E+01  0.20965002366E+02  0.46142323533E+02  0.10000052637E+02 0.  0.
        -12    1    1    2    0    0  0.39842589675E+02  0.14661828458E+01 -0.20965002366E+02  0.45045676467E+02  0.00000000000E+00 0.  1.
         11    1    3    3    0    0 -0.14161798582E+02  0.13859904178E+00  0.57459958786E+01  0.15283723946E+02  0.51100000000E-03 0. -1.
        -11    1    3    3    0    0 -0.21835674556E+02 -0.15546565470E+01  0.92652504448E+01  0.23770959307E+02  0.51100000000E-03 0.  1.
        -12    1    3    3    0    0 -0.38451165365E+01 -0.50125340554E-01  0.59537560423E+01  0.70876402801E+01  0.00000000000E+00 0.  1.
</event>
<event>
 7    1  0.4623443E-009  0.4614232E+02  0.7816164E-02  0.1320468E+00
        -11   -1    0    0    0    0  0.00000000000E+00  0.00000000000E+00  0.45593999997E+02  0.45594000000E+02  0.51100000000E-03 0. -1.
         11   -1    0    0    0    0 -0.00000000000E+00 -0.00000000000E+00 -0.45593999997E+02  0.45594000000E+02  0.51100000000E-03 0.  1.
    9900012    2    1    2    0    0 -0.17367041350E+02  0.10460116264E+02 -0.40225430105E+02  0.46142318913E+02  0.10000010499E+02 0.  0.
         12    1    1    2    0    0  0.17367041350E+02 -0.10460116264E+02  0.40225430105E+02  0.45045681087E+02  0.00000000000E+00 0. -1.
         11    1    3    3    0    0 -0.50116239281E+01  0.48047004702E+01 -0.15371145394E+02  0.16866346137E+02  0.51100000000E-03 0. -1.
        -11    1    3    3    0    0 -0.61148462752E+00  0.26470854136E+01 -0.18944881367E+01  0.33121081199E+01  0.51100000000E-03 0.  1.
        -12    1    3    3    0    0 -0.11743932795E+02  0.30083303797E+01 -0.22959796574E+02  0.25963864656E+02  0.00000000000E+00 0.  1.
</event>
<event>
 7    1  0.4623443E-009  0.4614232E+02  0.7816164E-02  0.1320468E+00
        -11   -1    0    0    0    0  0.00000000000E+00  0.00000000000E+00  0.45593999997E+02  0.45594000000E+02  0.51100000000E-03 0. -1.
         11   -1    0    0    0    0 -0.00000000000E+00 -0.00000000000E+00 -0.45593999997E+02  0.45594000000E+02  0.51100000000E-03 0.  1.
    9900012    2    1    2    0    0 -0.27377069507E+01 -0.98492114385E+01  0.43870394557E+02  0.46142317367E+02  0.99999964053E+01 0.  0.
        -12    1    1    2    0    0  0.27377069507E+01  0.98492114385E+01 -0.43870394557E+02  0.45045682633E+02  0.00000000000E+00 0.  1.
         11    1    3    3    0    0 -0.48317345983E+00 -0.85997818635E+00  0.48593048969E+01  0.49584133970E+01  0.51100000000E-03 0. -1.
        -11    1    3    3    0    0 -0.54266715532E+01 -0.67844435346E+01  0.32222112366E+02  0.33372772791E+02  0.51100000000E-03 0.  1.
         12    1    3    3    0    0  0.31721380624E+01 -0.22047897176E+01  0.67889772942E+01  0.78111311784E+01  0.00000000000E+00 0. -1.
</event>
<event>
 7    1  0.4954898E-009  0.4614232E+02  0.7816164E-02  0.1320468E+00
        -11   -1    0    0    0    0  0.00000000000E+00  0.00000000000E+00  0.45593999997E+02  0.45594000000E+02  0.51100000000E-03 0. -1.
         11   -1    0    0    0    0 -0.00000000000E+00 -0.00000000000E+00 -0.45593999997E+02  0.45594000000E+02  0.51100000000E-03 0.  1.
    9900012    2    1    2    0    0  0.10837335217E+02 -0.43367744506E+01 -0.43506988464E+02  0.46142317715E+02  0.99999995838E+01 0.  0.
         12    1    1    2    0    0 -0.10837335217E+02  0.43367744506E+01  0.43506988464E+02  0.45045682285E+02  0.00000000000E+00 0. -1.
         11    1    3    3    0    0  0.14904870617E+00 -0.17615746817E+01 -0.11690590513E+01  0.21194480891E+01  0.51100000000E-03 0. -1.
        -11    1    3    3    0    0  0.66309899240E+01 -0.49112767565E+00 -0.16569094638E+02  0.17853462722E+02  0.51100000000E-03 0.  1.
         12    1    3    3    0    0  0.40572965866E+01 -0.20840720933E+01 -0.25768834775E+02  0.26169406905E+02  0.00000000000E+00 0. -1.
</event>
<event>
 7    1  0.4623443E-009  0.4614232E+02  0.7816164E-02  0.1320468E+00
        -11   -1    0    0    0    0  0.00000000000E+00  0.00000000000E+00  0.45593999997E+02  0.45594000000E+02  0.51100000000E-03 0. -1.
         11   -1    0    0    0    0 -0.00000000000E+00 -0.00000000000E+00 -0.45593999997E+02  0.45594000000E+02  0.51100000000E-03 0.  1.
    9900012    2    1    2    0    0  0.21711830744E+02  0.12307602787E+02  0.37499772069E+02  0.46142316679E+02  0.99999901320E+01 0.  0.
        -12    1    1    2    0    0 -0.21711830744E+02 -0.12307602787E+02 -0.37499772069E+02  0.45045683321E+02  0.00000000000E+00 0.  1.
         11    1    3    3    0    0  0.30057467916E-02  0.30038850359E+01  0.33879971459E+01  0.45278978859E+01  0.51100000000E-03 0. -1.
        -11    1    3    3    0    0  0.14624197152E+02  0.49474048619E+01  0.23766328464E+02  0.28340471523E+02  0.51100000000E-03 0.  1.
         12    1    3    3    0    0  0.70846278456E+01  0.43563128892E+01  0.10345446459E+02  0.13273947270E+02  0.00000000000E+00 0. -1.
</event>
<event>
 7    1  0.4623443E-009  0.4614232E+02  0.7816164E-02  0.1320468E+00
        -11   -1    0    0    0    0  0.00000000000E+00  0.00000000000E+00  0.45593999997E+02  0.45594000000E+02  0.51100000000E-03 0. -1.
         11   -1    0    0    0    0 -0.00000000000E+00 -0.00000000000E+00 -0.45593999997E+02  0.45594000000E+02  0.51100000000E-03 0.  1.
    9900012    2    1    2    0    0 -0.36604247440E+02  0.28271515752E+01 -0.26100763783E+02  0.46142316669E+02  0.99999900449E+01 0.  0.
         12    1    1    2    0    0  0.36604247440E+02 -0.28271515752E+01  0.26100763783E+02  0.45045683331E+02  0.00000000000E+00 0. -1.
         11    1    3    3    0    0 -0.21690514434E+02 -0.18015223645E+01 -0.14733549327E+02  0.26283100564E+02  0.51100000000E-03 0.  1.
        -11    1    3    3    0    0 -0.79608335540E+01  0.20217150237E+00 -0.65598621254E+01  0.10317341496E+02  0.51100000000E-03 0. -1.
        -12    1    3    3    0    0 -0.69528994513E+01  0.44265024373E+01 -0.48073523311E+01  0.95418746085E+01  0.00000000000E+00 0.  1.
</event>
<event>
 7    1  0.4623443E-009  0.4614232E+02  0.7816164E-02  0.1320468E+00
        -11   -1    0    0    0    0  0.00000000000E+00  0.00000000000E+00  0.45593999997E+02  0.45594000000E+02  0.51100000000E-03 0. -1.
         11   -1    0    0    0    0 -0.00000000000E+00 -0.00000000000E+00 -0.45593999997E+02  0.45594000000E+02  0.51100000000E-03 0.  1.
    9900012    2    1    2    0    0 -0.81740687129E+01 -0.19227810939E+02  0.39907258345E+02  0.46142318948E+02  0.10000010821E+02 0.  0.
        -12    1    1    2    0    0  0.81740687129E+01  0.19227810939E+02 -0.39907258345E+02  0.45045681052E+02  0.00000000000E+00 0.  1.
         11    1    3    3    0    0 -0.68175236163E+01 -0.91530656813E+01  0.21583689453E+02  0.24415423205E+02  0.51100000000E-03 0. -1.
        -11    1    3    3    0    0 -0.39798978363E+00 -0.46421348648E+00  0.61832091145E+01  0.62133698782E+01  0.51100000000E-03 0.  1.
        -12    1    3    3    0    0 -0.95855531290E+00 -0.96105317709E+01  0.12140359778E+02  0.15513525865E+02  0.00000000000E+00 0.  1.
</event>
<event>
 7    1  0.4623443E-009  0.4614232E+02  0.7816164E-02  0.1320468E+00
        -11   -1    0    0    0    0  0.00000000000E+00  0.00000000000E+00  0.45593999997E+02  0.45594000000E+02  0.51100000000E-03 0. -1.
         11   -1    0    0    0    0 -0.00000000000E+00 -0.00000000000E+00 -0.45593999997E+02  0.45594000000E+02  0.51100000000E-03 0.  1.
    9900012    2    1    2    0    0 -0.10389386919E+01 -0.44990406082E+02 -0.19741775205E+01  0.46142318632E+02  0.10000007939E+02 0.  0.
         12    1    1    2    0    0  0.10389386919E+01  0.44990406082E+02  0.19741775205E+01  0.45045681368E+02  0.00000000000E+00 0. -1.
         11    1    3    3    0    0  0.58154903010E+00 -0.20705095969E+01 -0.96839313311E+00  0.23586001753E+01  0.51100000000E-03 0. -1.
        -11    1    3    3    0    0  0.29688785920E+01 -0.20222736918E+02  0.14865074578E+01  0.20493487581E+02  0.51100000000E-03 0.  1.
        -12    1    3    3    0    0 -0.45893663140E+01 -0.22697159567E+02 -0.24922918451E+01  0.23290230875E+02  0.00000000000E+00 0.  1.
</event>
<event>
 7    1  0.4623443E-009  0.4614232E+02  0.7816164E-02  0.1320468E+00
        -11   -1    0    0    0    0  0.00000000000E+00  0.00000000000E+00  0.45593999997E+02  0.45594000000E+02  0.51100000000E-03 0. -1.
         11   -1    0    0    0    0 -0.00000000000E+00 -0.00000000000E+00 -0.45593999997E+02  0.45594000000E+02  0.51100000000E-03 0.  1.
    9900012    2    1    2    0    0 -0.10306598274E+01 -0.39569724309E+02  0.21500887698E+02  0.46142317483E+02  0.99999974685E+01 0.  0.
        -12    1    1    2    0    0  0.10306598274E+01  0.39569724309E+02 -0.21500887698E+02  0.45045682517E+02  0.00000000000E+00 0.  1.
         11    1    3    3    0    0  0.12634350482E+01 -0.41082964268E+01  0.26713046105E+01  0.50606557120E+01  0.51100000000E-03 0. -1.
        -11    1    3    3    0    0 -0.41272603441E+01 -0.25358877036E+02  0.16557870297E+02  0.30565830457E+02  0.51100000000E-03 0.  1.
        -12    1    3    3    0    0  0.18331654685E+01 -0.10102550846E+02  0.22717127900E+01  0.10515831315E+02  0.00000000000E+00 0.  1.
</event>
<event>
 7    1  0.4623443E-009  0.4614232E+02  0.7816164E-02  0.1320468E+00
        -11   -1    0    0    0    0  0.00000000000E+00  0.00000000000E+00  0.45593999997E+02  0.45594000000E+02  0.51100000000E-03 0. -1.
         11   -1    0    0    0    0 -0.00000000000E+00 -0.00000000000E+00 -0.45593999997E+02  0.45594000000E+02  0.51100000000E-03 0.  1.
    9900012    2    1    2    0    0 -0.20768286287E+02  0.46218366100E+01  0.39704287262E+02  0.46142317455E+02  0.99999972053E+01 0.  0.
        -12    1    1    2    0    0  0.20768286287E+02 -0.46218366100E+01 -0.39704287262E+02  0.45045682545E+02  0.00000000000E+00 0.  1.
         11    1    3    3    0    0 -0.52349020490E+01 -0.27471473593E+01  0.11671594526E+02  0.13083468084E+02  0.51100000000E-03 0. -1.
        -11    1    3    3    0    0 -0.61499101387E+01  0.25836198621E+01  0.14046228820E+02  0.15549695516E+02  0.51100000000E-03 0.  1.
         12    1    3    3    0    0 -0.93834740994E+01  0.47853641071E+01  0.13986463916E+02  0.17509153854E+02  0.00000000000E+00 0. -1.
</event>
<event>
 7    1  0.4623443E-009  0.4614232E+02  0.7816164E-02  0.1320468E+00
        -11   -1    0    0    0    0  0.00000000000E+00  0.00000000000E+00  0.45593999997E+02  0.45594000000E+02  0.51100000000E-03 0. -1.
         11   -1    0    0    0    0 -0.00000000000E+00 -0.00000000000E+00 -0.45593999997E+02  0.45594000000E+02  0.51100000000E-03 0.  1.
    9900012    2    1    2    0    0  0.37183367832E+01 -0.44880654707E+02  0.10071549325E+01  0.46142317006E+02  0.99999931112E+01 0.  0.
        -12    1    1    2    0    0 -0.37183367832E+01  0.44880654707E+02 -0.10071549325E+01  0.45045682994E+02  0.00000000000E+00 0.  1.
         11    1    3    3    0    0  0.36433747883E+01 -0.31166382521E+02 -0.86111215048E+00  0.31390429970E+02  0.51100000000E-03 0. -1.
        -11    1    3    3    0    0 -0.11050063177E+01 -0.13281544146E+02  0.13616616169E+01  0.13396812177E+02  0.51100000000E-03 0.  1.
        -12    1    3    3    0    0  0.11799683126E+01 -0.43272803919E+00  0.50660546606E+00  0.13550748588E+01  0.00000000000E+00 0.  1.
</event>
<event>
 7    1  0.4623443E-009  0.4614232E+02  0.7816164E-02  0.1320468E+00
        -11   -1    0    0    0    0  0.00000000000E+00  0.00000000000E+00  0.45593999997E+02  0.45594000000E+02  0.51100000000E-03 0. -1.
         11   -1    0    0    0    0 -0.00000000000E+00 -0.00000000000E+00 -0.45593999997E+02  0.45594000000E+02  0.51100000000E-03 0.  1.
    9900012    2    1    2    0    0  0.14126165892E+02 -0.30806569030E+02  0.29673562889E+02  0.46142316603E+02  0.99999894387E+01 0.  0.
        -12    1    1    2    0    0 -0.14126165892E+02  0.30806569030E+02 -0.29673562889E+02  0.45045683397E+02  0.00000000000E+00 0.  1.
         11    1    3    3    0    0  0.38167297901E+01 -0.60573715500E+01  0.49011321741E+01  0.86764205312E+01  0.51100000000E-03 0. -1.
        -11    1    3    3    0    0  0.88571993440E+01 -0.22406752248E+02  0.24974842673E+02  0.34702381667E+02  0.51100000000E-03 0.  1.
        -12    1    3    3    0    0  0.14522367580E+01 -0.23424452321E+01 -0.20241195871E+00  0.27635144052E+01  0.00000000000E+00 0.  1.
</event>
<event>
 7    1  0.4623443E-009  0.4614232E+02  0.7816164E-02  0.1320468E+00
        -11   -1    0    0    0    0  0.00000000000E+00  0.00000000000E+00  0.45593999997E+02  0.45594000000E+02  0.51100000000E-03 0. -1.
         11   -1    0    0    0    0 -0.00000000000E+00 -0.00000000000E+00 -0.45593999997E+02  0.45594000000E+02  0.51100000000E-03 0.  1.
    9900012    2    1    2    0    0  0.32863404775E+02 -0.46664628528E+01 -0.30452162376E+02  0.46142318272E+02  0.10000004663E+02 0.  0.
         12    1    1    2    0    0 -0.32863404775E+02  0.46664628528E+01  0.30452162376E+02  0.45045681728E+02  0.00000000000E+00 0. -1.
         11    1    3    3    0    0  0.21781606733E+00 -0.78575247392E+00 -0.81946814433E-01  0.81949150756E+00  0.51100000000E-03 0. -1.
        -11    1    3    3    0    0  0.12837535770E+02 -0.18616311105E+01 -0.16810031465E+02  0.21233114542E+02  0.51100000000E-03 0.  1.
         12    1    3    3    0    0  0.19808052937E+02 -0.20190792683E+01 -0.13560184097E+02  0.24089712223E+02  0.00000000000E+00 0. -1.
</event>
<event>
 7    1  0.4623443E-009  0.4614232E+02  0.7816164E-02  0.1320468E+00
        -11   -1    0    0    0    0  0.00000000000E+00  0.00000000000E+00  0.45593999997E+02  0.45594000000E+02  0.51100000000E-03 0. -1.
         11   -1    0    0    0    0 -0.00000000000E+00 -0.00000000000E+00 -0.45593999997E+02  0.45594000000E+02  0.51100000000E-03 0.  1.
    9900012    2    1    2    0    0  0.17786040321E+02  0.36375079156E+02  0.19738886811E+02  0.46142320224E+02  0.10000022462E+02 0.  0.
        -12    1    1    2    0    0 -0.17786040321E+02 -0.36375079156E+02 -0.19738886811E+02  0.45045679776E+02  0.00000000000E+00 0.  1.
         11    1    3    3    0    0  0.39745411254E+01  0.40230681148E+01  0.23041255086E+00  0.56599597541E+01  0.51100000000E-03 0. -1.
        -11    1    3    3    0    0  0.45059390162E+01  0.58699137481E+01  0.42567910350E+01  0.85369575379E+01  0.51100000000E-03 0.  1.
         12    1    3    3    0    0  0.93055601792E+01  0.26482097293E+02  0.15251683225E+02  0.31945402932E+02  0.00000000000E+00 0. -1.
</event>
<event>
 7    1  0.4623443E-009  0.4614232E+02  0.7816164E-02  0.1320468E+00
        -11   -1    0    0    0    0  0.00000000000E+00  0.00000000000E+00  0.45593999997E+02  0.45594000000E+02  0.51100000000E-03 0. -1.
         11   -1    0    0    0    0 -0.00000000000E+00 -0.00000000000E+00 -0.45593999997E+02  0.45594000000E+02  0.51100000000E-03 0.  1.
    9900012    2    1    2    0    0 -0.17308769002E+02  0.12014382069E+02  0.39814250587E+02  0.46142318624E+02  0.10000007865E+02 0.  0.
        -12    1    1    2    0    0  0.17308769002E+02 -0.12014382069E+02 -0.39814250587E+02  0.45045681376E+02  0.00000000000E+00 0.  1.
         11    1    3    3    0    0 -0.76836169412E+01  0.27158732561E+01  0.18478110201E+02  0.20195407738E+02  0.51100000000E-03 0.  1.
        -11    1    3    3    0    0 -0.47338548062E+01  0.15711163379E+01  0.11396095225E+02  0.12439806048E+02  0.51100000000E-03 0. -1.
        -12    1    3    3    0    0 -0.48912972543E+01  0.77273924747E+01  0.99400451616E+01  0.13507104838E+02  0.00000000000E+00 0.  1.
</event>
<event>
 7    1  0.4623443E-009  0.4614232E+02  0.7816164E-02  0.1320468E+00
        -11   -1    0    0    0    0  0.00000000000E+00  0.00000000000E+00  0.45593999997E+02  0.45594000000E+02  0.51100000000E-03 0. -1.
         11   -1    0    0    0    0 -0.00000000000E+00 -0.00000000000E+00 -0.45593999997E+02  0.45594000000E+02  0.51100000000E-03 0.  1.
    9900012    2    1    2    0    0 -0.12126561537E+02  0.69198998490E+01  0.42827269753E+02  0.46142317154E+02  0.99999944595E+01 0.  0.
        -12    1    1    2    0    0  0.12126561537E+02 -0.69198998490E+01 -0.42827269753E+02  0.45045682846E+02  0.00000000000E+00 0.  1.
         11    1    3    3    0    0 -0.53434107776E+00  0.30472468084E+01  0.12955093080E+02  0.13319372000E+02  0.51100000000E-03 0. -1.
        -11    1    3    3    0    0 -0.80124738347E+01  0.55471578516E+00  0.23237147388E+02  0.24586021751E+02  0.51100000000E-03 0.  1.
        -12    1    3    3    0    0 -0.35797466248E+01  0.33179372555E+01  0.66350292841E+01  0.82369234020E+01  0.00000000000E+00 0.  1.
</event>
<event>
 7    1  0.4623443E-009  0.4614232E+02  0.7816164E-02  0.1320468E+00
        -11   -1    0    0    0    0  0.00000000000E+00  0.00000000000E+00  0.45593999997E+02  0.45594000000E+02  0.51100000000E-03 0.  1.
         11   -1    0    0    0    0 -0.00000000000E+00 -0.00000000000E+00 -0.45593999997E+02  0.45594000000E+02  0.51100000000E-03 0. -1.
    9900012    2    1    2    0    0  0.12696429309E+02 -0.42147972411E+02 -0.95636093999E+01  0.46142317406E+02  0.99999967660E+01 0.  0.
        -12    1    1    2    0    0 -0.12696429309E+02  0.42147972411E+02  0.95636093999E+01  0.45045682594E+02  0.00000000000E+00 0.  1.
         11    1    3    3    0    0  0.10385488758E+02 -0.22239953332E+02 -0.57602561963E+01  0.25212188573E+02  0.51100000000E-03 0. -1.
        -11    1    3    3    0    0  0.24402939542E+01 -0.17775412330E+02 -0.47992217957E+01  0.18572906294E+02  0.51100000000E-03 0.  1.
         12    1    3    3    0    0 -0.12935340270E+00 -0.21326067490E+01  0.99586859206E+00  0.23572225396E+01  0.00000000000E+00 0. -1.
</event>
<event>
 7    1  0.4623443E-009  0.4614232E+02  0.7816164E-02  0.1320468E+00
        -11   -1    0    0    0    0  0.00000000000E+00  0.00000000000E+00  0.45593999997E+02  0.45594000000E+02  0.51100000000E-03 0. -1.
         11   -1    0    0    0    0 -0.00000000000E+00 -0.00000000000E+00 -0.45593999997E+02  0.45594000000E+02  0.51100000000E-03 0.  1.
    9900012    2    1    2    0    0  0.34137979334E+01 -0.27772998687E+02 -0.35300423895E+02  0.46142318747E+02  0.10000008989E+02 0.  0.
         12    1    1    2    0    0 -0.34137979334E+01  0.27772998687E+02  0.35300423895E+02  0.45045681253E+02  0.00000000000E+00 0. -1.
         11    1    3    3    0    0  0.36855891070E+00 -0.10940258751E+01  0.97695414685E-01  0.11585650353E+01  0.51100000000E-03 0. -1.
        -11    1    3    3    0    0  0.17217432745E+00 -0.18083129634E+02 -0.18886335364E+02  0.26148095247E+02  0.51100000000E-03 0.  1.
         12    1    3    3    0    0  0.28730646952E+01 -0.85958431779E+01 -0.16511783946E+02  0.18835658464E+02  0.00000000000E+00 0. -1.
</event>
<event>
 7    1  0.4623443E-009  0.4614232E+02  0.7816164E-02  0.1320468E+00
        -11   -1    0    0    0    0  0.00000000000E+00  0.00000000000E+00  0.45593999997E+02  0.45594000000E+02  0.51100000000E-03 0. -1.
         11   -1    0    0    0    0 -0.00000000000E+00 -0.00000000000E+00 -0.45593999997E+02  0.45594000000E+02  0.51100000000E-03 0.  1.
    9900012    2    1    2    0    0 -0.20969783982E+02 -0.21961990319E+02 -0.33272400708E+02  0.46142317544E+02  0.99999980203E+01 0.  0.
         12    1    1    2    0    0  0.20969783982E+02  0.21961990319E+02  0.33272400708E+02  0.45045682456E+02  0.00000000000E+00 0. -1.
         11    1    3    3    0    0 -0.58240267102E+01 -0.18792978504E+01 -0.62263833687E+01  0.87303435011E+01  0.51100000000E-03 0. -1.
        -11    1    3    3    0    0 -0.10970564909E+01  0.15331489920E+00 -0.56236678413E+00  0.12422942742E+01  0.51100000000E-03 0.  1.
        -12    1    3    3    0    0 -0.14048700781E+02 -0.20236007368E+02 -0.26483650555E+02  0.36169679769E+02  0.00000000000E+00 0.  1.
</event>
<event>
 7    1  0.4623443E-009  0.4614231E+02  0.7816164E-02  0.1320468E+00
        -11   -1    0    0    0    0  0.00000000000E+00  0.00000000000E+00  0.45593999997E+02  0.45594000000E+02  0.51100000000E-03 0. -1.
         11   -1    0    0    0    0 -0.00000000000E+00 -0.00000000000E+00 -0.45593999997E+02  0.45594000000E+02  0.51100000000E-03 0.  1.
    9900012    2    1    2    0    0  0.38698796419E+01 -0.20640950985E+02 -0.39850835040E+02  0.46142313421E+02  0.99999604235E+01 0.  0.
         12    1    1    2    0    0 -0.38698796419E+01  0.20640950985E+02  0.39850835040E+02  0.45045686579E+02  0.00000000000E+00 0. -1.
         11    1    3    3    0    0 -0.22132404101E+01 -0.78212265899E+01 -0.12971704556E+02  0.15308008944E+02  0.51100000000E-03 0. -1.
        -11    1    3    3    0    0  0.54983920529E+01 -0.58195941356E+01 -0.12749693675E+02  0.15055054970E+02  0.51100000000E-03 0.  1.
         12    1    3    3    0    0  0.58472799915E+00 -0.70001302594E+01 -0.14129436808E+02  0.15779249507E+02  0.00000000000E+00 0. -1.
</event>
<event>
 7    1  0.4623443E-009  0.4614232E+02  0.7816164E-02  0.1320468E+00
        -11   -1    0    0    0    0  0.00000000000E+00  0.00000000000E+00  0.45593999997E+02  0.45594000000E+02  0.51100000000E-03 0. -1.
         11   -1    0    0    0    0 -0.00000000000E+00 -0.00000000000E+00 -0.45593999997E+02  0.45594000000E+02  0.51100000000E-03 0.  1.
    9900012    2    1    2    0    0  0.26127980224E+02  0.30232355735E+02  0.20795356638E+02  0.46142317171E+02  0.99999946162E+01 0.  0.
        -12    1    1    2    0    0 -0.26127980224E+02 -0.30232355735E+02 -0.20795356638E+02  0.45045682829E+02  0.00000000000E+00 0.  1.
         11    1    3    3    0    0  0.15959908796E+02  0.19504250983E+02  0.13452677758E+02  0.28567622133E+02  0.51100000000E-03 0. -1.
        -11    1    3    3    0    0  0.97443265642E+01  0.10717160323E+02  0.51991032449E+01  0.15389610144E+02  0.51100000000E-03 0.  1.
        -12    1    3    3    0    0  0.42374486431E+00  0.10944428050E-01  0.21435756348E+01  0.21850848937E+01  0.00000000000E+00 0.  1.
</event>
<event>
 7    1  0.4623443E-009  0.4614232E+02  0.7816164E-02  0.1320468E+00
        -11   -1    0    0    0    0  0.00000000000E+00  0.00000000000E+00  0.45593999997E+02  0.45594000000E+02  0.51100000000E-03 0.  1.
         11   -1    0    0    0    0 -0.00000000000E+00 -0.00000000000E+00 -0.45593999997E+02  0.45594000000E+02  0.51100000000E-03 0. -1.
    9900012    2    1    2    0    0 -0.40769596347E+02  0.19128332161E+02 -0.10297957652E+01  0.46142317000E+02  0.99999930615E+01 0.  0.
         12    1    1    2    0    0  0.40769596347E+02 -0.19128332161E+02  0.10297957652E+01  0.45045683000E+02  0.00000000000E+00 0. -1.
         11    1    3    3    0    0 -0.14665413769E+02  0.11119463755E+02  0.20202471433E+01  0.18514811206E+02  0.51100000000E-03 0. -1.
        -11    1    3    3    0    0 -0.89104450842E+01  0.39212080641E+01 -0.28268321559E+00  0.97391896143E+01  0.51100000000E-03 0.  1.
         12    1    3    3    0    0 -0.17193737494E+02  0.40876603427E+01 -0.27673596930E+01  0.17888316180E+02  0.00000000000E+00 0. -1.
</event>
<event>
 7    1  0.4623443E-009  0.4614232E+02  0.7816164E-02  0.1320468E+00
        -11   -1    0    0    0    0  0.00000000000E+00  0.00000000000E+00  0.45593999997E+02  0.45594000000E+02  0.51100000000E-03 0.  1.
         11   -1    0    0    0    0 -0.00000000000E+00 -0.00000000000E+00 -0.45593999997E+02  0.45594000000E+02  0.51100000000E-03 0. -1.
    9900012    2    1    2    0    0  0.19103721742E+02 -0.40558788099E+02 -0.43756242834E+01  0.46142316918E+02  0.99999923106E+01 0.  0.
         12    1    1    2    0    0 -0.19103721742E+02  0.40558788099E+02  0.43756242834E+01  0.45045683082E+02  0.00000000000E+00 0. -1.
         11    1    3    3    0    0  0.73964242845E+01 -0.99459768383E+01  0.17510124209E+01  0.12517811000E+02  0.51100000000E-03 0. -1.
        -11    1    3    3    0    0  0.21719614927E+01 -0.84293615433E+01  0.35007420307E-01  0.87047560870E+01  0.51100000000E-03 0.  1.
         12    1    3    3    0    0  0.95353359651E+01 -0.22183449717E+02 -0.61616441246E+01  0.24919749831E+02  0.00000000000E+00 0. -1.
</event>
<event>
 7    1  0.4623443E-009  0.4614232E+02  0.7816164E-02  0.1320468E+00
        -11   -1    0    0    0    0  0.00000000000E+00  0.00000000000E+00  0.45593999997E+02  0.45594000000E+02  0.51100000000E-03 0. -1.
         11   -1    0    0    0    0 -0.00000000000E+00 -0.00000000000E+00 -0.45593999997E+02  0.45594000000E+02  0.51100000000E-03 0.  1.
    9900012    2    1    2    0    0 -0.16653347458E+02 -0.19981977289E+02 -0.36776353223E+02  0.46142317029E+02  0.99999933264E+01 0.  0.
         12    1    1    2    0    0  0.16653347458E+02  0.19981977289E+02  0.36776353223E+02  0.45045682971E+02  0.00000000000E+00 0. -1.
         11    1    3    3    0    0 -0.10032114480E+01 -0.14060400642E+01 -0.85297377980E+01  0.87028621174E+01  0.51100000000E-03 0. -1.
        -11    1    3    3    0    0 -0.43696662304E+01 -0.28562318609E+01 -0.62979470085E+01  0.81802310597E+01  0.51100000000E-03 0.  1.
         12    1    3    3    0    0 -0.11280469779E+02 -0.15719705364E+02 -0.21948668416E+02  0.29259223852E+02  0.00000000000E+00 0. -1.
</event>
<event>
 7    1  0.4623443E-009  0.4614232E+02  0.7816164E-02  0.1320468E+00
        -11   -1    0    0    0    0  0.00000000000E+00  0.00000000000E+00  0.45593999997E+02  0.45594000000E+02  0.51100000000E-03 0. -1.
         11   -1    0    0    0    0 -0.00000000000E+00 -0.00000000000E+00 -0.45593999997E+02  0.45594000000E+02  0.51100000000E-03 0.  1.
    9900012    2    1    2    0    0  0.13600163174E+01 -0.22222376195E+02 -0.39159032641E+02  0.46142317792E+02  0.10000000284E+02 0.  0.
         12    1    1    2    0    0 -0.13600163174E+01  0.22222376195E+02  0.39159032641E+02  0.45045682208E+02  0.00000000000E+00 0. -1.
         11    1    3    3    0    0  0.14354173945E+01 -0.10157932671E+02 -0.12403092161E+02  0.16095984427E+02  0.51100000000E-03 0. -1.
        -11    1    3    3    0    0 -0.27109675308E+01 -0.87371138444E+01 -0.20894533378E+02  0.22809384661E+02  0.51100000000E-03 0.  1.
        -12    1    3    3    0    0  0.26355664537E+01 -0.33273296794E+01 -0.58614071028E+01  0.72369487045E+01  0.00000000000E+00 0.  1.
</event>
<event>
 7    1  0.4623443E-009  0.4614232E+02  0.7816164E-02  0.1320468E+00
        -11   -1    0    0    0    0  0.00000000000E+00  0.00000000000E+00  0.45593999997E+02  0.45594000000E+02  0.51100000000E-03 0. -1.
         11   -1    0    0    0    0 -0.00000000000E+00 -0.00000000000E+00 -0.45593999997E+02  0.45594000000E+02  0.51100000000E-03 0.  1.
    9900012    2    1    2    0    0  0.27161378294E+02  0.50728872905E+01 -0.35575818503E+02  0.46142317427E+02  0.99999969550E+01 0.  0.
         12    1    1    2    0    0 -0.27161378294E+02 -0.50728872905E+01  0.35575818503E+02  0.45045682573E+02  0.00000000000E+00 0. -1.
         11    1    3    3    0    0  0.41855926404E+01  0.32016215517E+01 -0.67087246480E+01  0.85309174756E+01  0.51100000000E-03 0. -1.
        -11    1    3    3    0    0  0.20665558255E+02  0.35727883383E+01 -0.23299606565E+02  0.31348074595E+02  0.51100000000E-03 0.  1.
        -12    1    3    3    0    0  0.23102273983E+01 -0.17015225994E+01 -0.55674872904E+01  0.62633253562E+01  0.00000000000E+00 0.  1.
</event>
<event>
 7    1  0.4623443E-009  0.4614232E+02  0.7816164E-02  0.1320468E+00
        -11   -1    0    0    0    0  0.00000000000E+00  0.00000000000E+00  0.45593999997E+02  0.45594000000E+02  0.51100000000E-03 0. -1.
         11   -1    0    0    0    0 -0.00000000000E+00 -0.00000000000E+00 -0.45593999997E+02  0.45594000000E+02  0.51100000000E-03 0.  1.
    9900012    2    1    2    0    0  0.61344051723E+01 -0.36937708986E+02  0.25041729912E+02  0.46142317533E+02  0.99999979158E+01 0.  0.
        -12    1    1    2    0    0 -0.61344051723E+01  0.36937708986E+02 -0.25041729912E+02  0.45045682467E+02  0.00000000000E+00 0.  1.
         11    1    3    3    0    0  0.51766444912E+01 -0.19359546445E+02  0.17669288580E+02  0.26716913106E+02  0.51100000000E-03 0. -1.
        -11    1    3    3    0    0 -0.13153084898E+01 -0.62271615808E+01  0.20724442880E+01  0.66934746854E+01  0.51100000000E-03 0.  1.
         12    1    3    3    0    0  0.22730691709E+01 -0.11351000961E+02  0.52999970442E+01  0.12731929741E+02  0.00000000000E+00 0. -1.
</event>
<event>
 7    1  0.4623443E-009  0.4614232E+02  0.7816164E-02  0.1320468E+00
        -11   -1    0    0    0    0  0.00000000000E+00  0.00000000000E+00  0.45593999997E+02  0.45594000000E+02  0.51100000000E-03 0. -1.
         11   -1    0    0    0    0 -0.00000000000E+00 -0.00000000000E+00 -0.45593999997E+02  0.45594000000E+02  0.51100000000E-03 0.  1.
    9900012    2    1    2    0    0  0.17395580647E+02 -0.16452833640E+02  0.38155097993E+02  0.46142318035E+02  0.10000002498E+02 0.  0.
        -12    1    1    2    0    0 -0.17395580647E+02  0.16452833640E+02 -0.38155097993E+02  0.45045681965E+02  0.00000000000E+00 0.  1.
         11    1    3    3    0    0  0.58289603149E+01 -0.41037473194E+01  0.11695383574E+02  0.13696697325E+02  0.51100000000E-03 0. -1.
        -11    1    3    3    0    0  0.78655527916E+01 -0.11254226173E+02  0.24574626441E+02  0.28150253861E+02  0.51100000000E-03 0.  1.
        -12    1    3    3    0    0  0.37010675401E+01 -0.10948601481E+01  0.18850879780E+01  0.42953668487E+01  0.00000000000E+00 0.  1.
</event>
<event>
 7    1  0.4623443E-009  0.4614232E+02  0.7816164E-02  0.1320468E+00
        -11   -1    0    0    0    0  0.00000000000E+00  0.00000000000E+00  0.45593999997E+02  0.45594000000E+02  0.51100000000E-03 0. -1.
         11   -1    0    0    0    0 -0.00000000000E+00 -0.00000000000E+00 -0.45593999997E+02  0.45594000000E+02  0.51100000000E-03 0.  1.
    9900012    2    1    2    0    0 -0.35358518375E+02  0.26545307330E+01  0.27782048835E+02  0.46142316605E+02  0.99999894559E+01 0.  0.
        -12    1    1    2    0    0  0.35358518375E+02 -0.26545307330E+01 -0.27782048835E+02  0.45045683395E+02  0.00000000000E+00 0.  1.
         11    1    3    3    0    0 -0.10322252342E+02  0.14545648211E+01  0.43540716320E+01  0.11297016963E+02  0.51100000000E-03 0. -1.
        -11    1    3    3    0    0 -0.16389054333E+00  0.22759526072E+00  0.19453404566E+01  0.19654540101E+01  0.51100000000E-03 0.  1.
         12    1    3    3    0    0 -0.24872375490E+02  0.97237065122E+00  0.21482636746E+02  0.32879845632E+02  0.00000000000E+00 0. -1.
</event>
<event>
 7    1  0.4623443E-009  0.4614232E+02  0.7816164E-02  0.1320468E+00
        -11   -1    0    0    0    0  0.00000000000E+00  0.00000000000E+00  0.45593999997E+02  0.45594000000E+02  0.51100000000E-03 0.  1.
         11   -1    0    0    0    0 -0.00000000000E+00 -0.00000000000E+00 -0.45593999997E+02  0.45594000000E+02  0.51100000000E-03 0. -1.
    9900012    2    1    2    0    0  0.42782248903E+02  0.23988171482E+01  0.13893822639E+02  0.46142318160E+02  0.10000003637E+02 0.  0.
        -12    1    1    2    0    0 -0.42782248903E+02 -0.23988171482E+01 -0.13893822639E+02  0.45045681840E+02  0.00000000000E+00 0.  1.
         11    1    3    3    0    0  0.67114244863E+01  0.15414285830E+01  0.70711376178E+00  0.69223717644E+01  0.51100000000E-03 0.  1.
        -11    1    3    3    0    0  0.18372206098E+02  0.43755794939E+01  0.64004738208E+01  0.19941156391E+02  0.51100000000E-03 0. -1.
        -12    1    3    3    0    0  0.17698618318E+02 -0.35181909288E+01  0.67862350561E+01  0.19278790004E+02  0.00000000000E+00 0.  1.
</event>
<event>
 7    1  0.4623443E-009  0.4614232E+02  0.7816164E-02  0.1320468E+00
        -11   -1    0    0    0    0  0.00000000000E+00  0.00000000000E+00  0.45593999997E+02  0.45594000000E+02  0.51100000000E-03 0. -1.
         11   -1    0    0    0    0 -0.00000000000E+00 -0.00000000000E+00 -0.45593999997E+02  0.45594000000E+02  0.51100000000E-03 0.  1.
    9900012    2    1    2    0    0 -0.21495703847E+02 -0.15425319409E+02  0.36456930381E+02  0.46142317237E+02  0.99999952230E+01 0.  0.
        -12    1    1    2    0    0  0.21495703847E+02  0.15425319409E+02 -0.36456930381E+02  0.45045682763E+02  0.00000000000E+00 0.  1.
         11    1    3    3    0    0 -0.11116478128E+02 -0.10116941938E+02  0.24538873100E+02  0.28776464227E+02  0.51100000000E-03 0. -1.
        -11    1    3    3    0    0 -0.81598787232E+01 -0.25037577162E+01  0.10467629762E+02  0.13506431674E+02  0.51100000000E-03 0.  1.
         12    1    3    3    0    0 -0.22193469966E+01 -0.28046197547E+01  0.14504275192E+01  0.38594213359E+01  0.00000000000E+00 0. -1.
</event>
<event>
 7    1  0.4623443E-009  0.4614232E+02  0.7816164E-02  0.1320468E+00
        -11   -1    0    0    0    0  0.00000000000E+00  0.00000000000E+00  0.45593999997E+02  0.45594000000E+02  0.51100000000E-03 0. -1.
         11   -1    0    0    0    0 -0.00000000000E+00 -0.00000000000E+00 -0.45593999997E+02  0.45594000000E+02  0.51100000000E-03 0.  1.
    9900012    2    1    2    0    0  0.26640150018E+02 -0.17813765722E+02  0.31655736461E+02  0.46142317709E+02  0.99999995265E+01 0.  0.
        -12    1    1    2    0    0 -0.26640150018E+02  0.17813765722E+02 -0.31655736461E+02  0.45045682291E+02  0.00000000000E+00 0.  1.
         11    1    3    3    0    0  0.12984897241E+02 -0.82826665685E+01  0.15177065048E+02  0.21622983734E+02  0.51100000000E-03 0. -1.
        -11    1    3    3    0    0  0.22436656971E+01 -0.22622402917E+01  0.78502649975E+01  0.84722150403E+01  0.51100000000E-03 0.  1.
        -12    1    3    3    0    0  0.11411587080E+02 -0.72688588621E+01  0.86284064156E+01  0.16047118935E+02  0.00000000000E+00 0.  1.
</event>
<event>
 7    1  0.4623443E-009  0.4614232E+02  0.7816164E-02  0.1320468E+00
        -11   -1    0    0    0    0  0.00000000000E+00  0.00000000000E+00  0.45593999997E+02  0.45594000000E+02  0.51100000000E-03 0. -1.
         11   -1    0    0    0    0 -0.00000000000E+00 -0.00000000000E+00 -0.45593999997E+02  0.45594000000E+02  0.51100000000E-03 0.  1.
    9900012    2    1    2    0    0 -0.14385693866E+02 -0.30940814296E+01 -0.42574545848E+02  0.46142317831E+02  0.10000000638E+02 0.  0.
         12    1    1    2    0    0  0.14385693866E+02  0.30940814296E+01  0.42574545848E+02  0.45045682169E+02  0.00000000000E+00 0. -1.
         11    1    3    3    0    0 -0.20501124722E+01  0.23764178644E+01 -0.54460984803E+01  0.62857228648E+01  0.51100000000E-03 0. -1.
        -11    1    3    3    0    0  0.52931635220E+00 -0.15883781625E+00 -0.18863774851E+01  0.19656616011E+01  0.51100000000E-03 0.  1.
        -12    1    3    3    0    0 -0.12864897746E+02 -0.53116614778E+01 -0.35242069882E+02  0.37890933365E+02  0.00000000000E+00 0.  1.
</event>
<event>
 7    1  0.4623443E-009  0.4614230E+02  0.7816164E-02  0.1320468E+00
        -11   -1    0    0    0    0  0.00000000000E+00  0.00000000000E+00  0.45593999997E+02  0.45594000000E+02  0.51100000000E-03 0. -1.
         11   -1    0    0    0    0 -0.00000000000E+00 -0.00000000000E+00 -0.45593999997E+02  0.45594000000E+02  0.51100000000E-03 0.  1.
    9900012    2    1    2    0    0  0.86263343169E+01 -0.11983766406E+02  0.42556907620E+02  0.46142304454E+02  0.99998786585E+01 0.  0.
        -12    1    1    2    0    0 -0.86263343169E+01  0.11983766406E+02 -0.42556907620E+02  0.45045695546E+02  0.00000000000E+00 0.  1.
         11    1    3    3    0    0 -0.45243846987E+00 -0.40103727304E+01  0.18310431834E+02  0.18749925445E+02  0.51100000000E-03 0. -1.
        -11    1    3    3    0    0  0.71506898569E+01 -0.36950387408E+01  0.14986754831E+02  0.17011422555E+02  0.51100000000E-03 0.  1.
         12    1    3    3    0    0  0.19280829299E+01 -0.42783549348E+01  0.92597209555E+01  0.10380956454E+02  0.00000000000E+00 0. -1.
</event>
<event>
 7    1  0.4623443E-009  0.4614232E+02  0.7816164E-02  0.1320468E+00
        -11   -1    0    0    0    0  0.00000000000E+00  0.00000000000E+00  0.45593999997E+02  0.45594000000E+02  0.51100000000E-03 0. -1.
         11   -1    0    0    0    0 -0.00000000000E+00 -0.00000000000E+00 -0.45593999997E+02  0.45594000000E+02  0.51100000000E-03 0.  1.
    9900012    2    1    2    0    0  0.41324106159E+01 -0.10278251013E+02  0.43662273978E+02  0.46142318405E+02  0.10000005875E+02 0.  0.
        -12    1    1    2    0    0 -0.41324106159E+01  0.10278251013E+02 -0.43662273978E+02  0.45045681595E+02  0.00000000000E+00 0.  1.
         11    1    3    3    0    0  0.40819086731E+00 -0.39094463015E+01  0.16789045001E+02  0.17243039827E+02  0.51100000000E-03 0. -1.
        -11    1    3    3    0    0  0.49742271868E+01 -0.11525870095E+01  0.10617687973E+02  0.11781625146E+02  0.51100000000E-03 0.  1.
        -12    1    3    3    0    0 -0.12500074382E+01 -0.52162177017E+01  0.16255541004E+02  0.17117653432E+02  0.00000000000E+00 0.  1.
</event>
<event>
 7    1  0.4623443E-009  0.4614232E+02  0.7816164E-02  0.1320468E+00
        -11   -1    0    0    0    0  0.00000000000E+00  0.00000000000E+00  0.45593999997E+02  0.45594000000E+02  0.51100000000E-03 0. -1.
         11   -1    0    0    0    0 -0.00000000000E+00 -0.00000000000E+00 -0.45593999997E+02  0.45594000000E+02  0.51100000000E-03 0.  1.
    9900012    2    1    2    0    0  0.35079214798E+01 -0.20380872419E+02  0.40017845703E+02  0.46142318205E+02  0.10000004045E+02 0.  0.
        -12    1    1    2    0    0 -0.35079214798E+01  0.20380872419E+02 -0.40017845703E+02  0.45045681795E+02  0.00000000000E+00 0.  1.
         11    1    3    3    0    0  0.83431197916E+00  0.30046505203E+00  0.39089175200E+00  0.96909873025E+00  0.51100000000E-03 0. -1.
        -11    1    3    3    0    0 -0.11606104551E+01 -0.30261006802E+01  0.34363654625E+01  0.47236542854E+01  0.51100000000E-03 0.  1.
         12    1    3    3    0    0  0.38342199557E+01 -0.17655236791E+02  0.36190588489E+02  0.40449565189E+02  0.00000000000E+00 0. -1.
</event>
<event>
 7    1  0.4623443E-009  0.4614232E+02  0.7816164E-02  0.1320468E+00
        -11   -1    0    0    0    0  0.00000000000E+00  0.00000000000E+00  0.45593999997E+02  0.45594000000E+02  0.51100000000E-03 0. -1.
         11   -1    0    0    0    0 -0.00000000000E+00 -0.00000000000E+00 -0.45593999997E+02  0.45594000000E+02  0.51100000000E-03 0.  1.
    9900012    2    1    2    0    0 -0.91589215937E+00  0.44208927780E+02 -0.85933304290E+01  0.46142317835E+02  0.10000000670E+02 0.  0.
         12    1    1    2    0    0  0.91589215937E+00 -0.44208927780E+02  0.85933304290E+01  0.45045682165E+02  0.00000000000E+00 0. -1.
         11    1    3    3    0    0 -0.32290134954E+01  0.89465214082E+01 -0.16935315506E+01  0.96609949195E+01  0.51100000000E-03 0. -1.
        -11    1    3    3    0    0 -0.13638329952E+01  0.18730454202E+02 -0.22205114347E+01  0.18910860011E+02  0.51100000000E-03 0.  1.
        -12    1    3    3    0    0  0.36769543312E+01  0.16531952169E+02 -0.46792874437E+01  0.17570462904E+02  0.00000000000E+00 0.  1.
</event>
<event>
 7    1  0.4623443E-009  0.4614232E+02  0.7816164E-02  0.1320468E+00
        -11   -1    0    0    0    0  0.00000000000E+00  0.00000000000E+00  0.45593999997E+02  0.45594000000E+02  0.51100000000E-03 0. -1.
         11   -1    0    0    0    0 -0.00000000000E+00 -0.00000000000E+00 -0.45593999997E+02  0.45594000000E+02  0.51100000000E-03 0.  1.
    9900012    2    1    2    0    0 -0.39141199592E+02  0.15026683987E+02 -0.16470538997E+02  0.46142318831E+02  0.10000009758E+02 0.  0.
         12    1    1    2    0    0  0.39141199592E+02 -0.15026683987E+02  0.16470538997E+02  0.45045681169E+02  0.00000000000E+00 0. -1.
         11    1    3    3    0    0 -0.23254006641E+02  0.86566636305E+01 -0.81697062636E+01  0.26123375562E+02  0.51100000000E-03 0. -1.
        -11    1    3    3    0    0 -0.14903354786E+02  0.39731431295E+01 -0.59865869429E+01  0.16544941031E+02  0.51100000000E-03 0.  1.
        -12    1    3    3    0    0 -0.98383816413E+00  0.23968772268E+01 -0.23142457905E+01  0.34740022384E+01  0.00000000000E+00 0.  1.
</event>
<event>
 7    1  0.4623443E-009  0.4614232E+02  0.7816164E-02  0.1320468E+00
        -11   -1    0    0    0    0  0.00000000000E+00  0.00000000000E+00  0.45593999997E+02  0.45594000000E+02  0.51100000000E-03 0. -1.
         11   -1    0    0    0    0 -0.00000000000E+00 -0.00000000000E+00 -0.45593999997E+02  0.45594000000E+02  0.51100000000E-03 0.  1.
    9900012    2    1    2    0    0 -0.35882946193E+02 -0.19216397587E+02  0.19293981883E+02  0.46142317625E+02  0.99999987602E+01 0.  0.
        -12    1    1    2    0    0  0.35882946193E+02  0.19216397587E+02 -0.19293981883E+02  0.45045682375E+02  0.00000000000E+00 0.  1.
         11    1    3    3    0    0 -0.13603787438E+02 -0.10814107180E+02  0.78219669971E+01  0.19057573684E+02  0.51100000000E-03 0. -1.
        -11    1    3    3    0    0 -0.18557266744E+02 -0.89016392864E+01  0.83880300552E+01  0.22225444415E+02  0.51100000000E-03 0.  1.
         12    1    3    3    0    0 -0.37218920112E+01  0.49934887924E+00  0.30839848306E+01  0.48592995258E+01  0.00000000000E+00 0. -1.
</event>
<event>
 7    1  0.4623443E-009  0.4614232E+02  0.7816164E-02  0.1320468E+00
        -11   -1    0    0    0    0  0.00000000000E+00  0.00000000000E+00  0.45593999997E+02  0.45594000000E+02  0.51100000000E-03 0. -1.
         11   -1    0    0    0    0 -0.00000000000E+00 -0.00000000000E+00 -0.45593999997E+02  0.45594000000E+02  0.51100000000E-03 0.  1.
    9900012    2    1    2    0    0 -0.17843931258E+02  0.32879188335E+02  0.25093159800E+02  0.46142316776E+02  0.99999910191E+01 0.  0.
        -12    1    1    2    0    0  0.17843931258E+02 -0.32879188335E+02 -0.25093159800E+02  0.45045683224E+02  0.00000000000E+00 0.  1.
         11    1    3    3    0    0 -0.22115668666E+01  0.12022628901E+02  0.65852622177E+01  0.13885255216E+02  0.51100000000E-03 0. -1.
        -11    1    3    3    0    0 -0.15687398720E+01  0.64843214917E+00  0.19580418526E+01  0.25913967653E+01  0.51100000000E-03 0.  1.
        -12    1    3    3    0    0 -0.14063624519E+02  0.20208127285E+02  0.16549855730E+02  0.29665664794E+02  0.00000000000E+00 0.  1.
</event>
<event>
 7    1  0.4623443E-009  0.4614232E+02  0.7816164E-02  0.1320468E+00
        -11   -1    0    0    0    0  0.00000000000E+00  0.00000000000E+00  0.45593999997E+02  0.45594000000E+02  0.51100000000E-03 0. -1.
         11   -1    0    0    0    0 -0.00000000000E+00 -0.00000000000E+00 -0.45593999997E+02  0.45594000000E+02  0.51100000000E-03 0.  1.
    9900012    2    1    2    0    0  0.96510500481E+01  0.16332470091E+01  0.43969345052E+02  0.46142316887E+02  0.99999920267E+01 0.  0.
        -12    1    1    2    0    0 -0.96510500481E+01 -0.16332470091E+01 -0.43969345052E+02  0.45045683113E+02  0.00000000000E+00 0.  1.
         11    1    3    3    0    0  0.39175586468E+01  0.33419346842E+00  0.49041269163E+01  0.62856512867E+01  0.51100000000E-03 0. -1.
        -11    1    3    3    0    0  0.14533612434E+01  0.51716354191E+00  0.19457812736E+01  0.24830992850E+01  0.51100000000E-03 0.  1.
         12    1    3    3    0    0  0.42801301579E+01  0.78188999874E+00  0.37119436862E+02  0.37373566315E+02  0.00000000000E+00 0. -1.
</event>
<event>
 7    1  0.4623443E-009  0.4614232E+02  0.7816164E-02  0.1320468E+00
        -11   -1    0    0    0    0  0.00000000000E+00  0.00000000000E+00  0.45593999997E+02  0.45594000000E+02  0.51100000000E-03 0. -1.
         11   -1    0    0    0    0 -0.00000000000E+00 -0.00000000000E+00 -0.45593999997E+02  0.45594000000E+02  0.51100000000E-03 0.  1.
    9900012    2    1    2    0    0  0.27512774478E+02  0.34137197959E+02 -0.10335012419E+02  0.46142317347E+02  0.99999962270E+01 0.  0.
         12    1    1    2    0    0 -0.27512774478E+02 -0.34137197959E+02  0.10335012419E+02  0.45045682653E+02  0.00000000000E+00 0. -1.
         11    1    3    3    0    0  0.48756606386E+01  0.64717320087E+01  0.10361123303E+01  0.81687765839E+01  0.51100000000E-03 0. -1.
        -11    1    3    3    0    0  0.10834498998E+02  0.15606322132E+02 -0.33550833137E+01  0.19292491890E+02  0.51100000000E-03 0.  1.
        -12    1    3    3    0    0  0.11802614842E+02  0.12059143818E+02 -0.80160414354E+01  0.18681048874E+02  0.00000000000E+00 0.  1.
</event>
<event>
 7    1  0.4623443E-009  0.4614232E+02  0.7816164E-02  0.1320468E+00
        -11   -1    0    0    0    0  0.00000000000E+00  0.00000000000E+00  0.45593999997E+02  0.45594000000E+02  0.51100000000E-03 0. -1.
         11   -1    0    0    0    0 -0.00000000000E+00 -0.00000000000E+00 -0.45593999997E+02  0.45594000000E+02  0.51100000000E-03 0.  1.
    9900012    2    1    2    0    0 -0.22765552164E+01  0.35671127817E+02  0.27413523120E+02  0.46142319705E+02  0.10000017722E+02 0.  0.
        -12    1    1    2    0    0  0.22765552164E+01 -0.35671127817E+02 -0.27413523120E+02  0.45045680295E+02  0.00000000000E+00 0.  1.
         11    1    3    3    0    0 -0.57749213363E+01  0.20628816183E+02  0.16320895525E+02  0.26930826288E+02  0.51100000000E-03 0. -1.
        -11    1    3    3    0    0  0.59407885174E+00  0.43984585646E+01  0.46815585409E+01  0.64510741787E+01  0.51100000000E-03 0.  1.
         12    1    3    3    0    0  0.29042872682E+01  0.10643853070E+02  0.64110690540E+01  0.12760419238E+02  0.00000000000E+00 0. -1.
</event>
<event>
 7    1  0.4623443E-009  0.4614232E+02  0.7816164E-02  0.1320468E+00
        -11   -1    0    0    0    0  0.00000000000E+00  0.00000000000E+00  0.45593999997E+02  0.45594000000E+02  0.51100000000E-03 0. -1.
         11   -1    0    0    0    0 -0.00000000000E+00 -0.00000000000E+00 -0.45593999997E+02  0.45594000000E+02  0.51100000000E-03 0.  1.
    9900012    2    1    2    0    0  0.31313670299E+02 -0.18944789374E+01  0.32326126935E+02  0.46142317847E+02  0.10000000779E+02 0.  0.
        -12    1    1    2    0    0 -0.31313670299E+02  0.18944789374E+01 -0.32326126935E+02  0.45045682153E+02  0.00000000000E+00 0.  1.
         11    1    3    3    0    0  0.14329795058E+02 -0.60364692868E-01  0.12811091560E+02  0.19221621615E+02  0.51100000000E-03 0. -1.
        -11    1    3    3    0    0  0.15567668115E+02 -0.36106092147E+01  0.15256900218E+02  0.22094383765E+02  0.51100000000E-03 0.  1.
        -12    1    3    3    0    0  0.14162071262E+01  0.17764949702E+01  0.42581351577E+01  0.48263124665E+01  0.00000000000E+00 0.  1.
</event>
<event>
 7    1  0.4623443E-009  0.4614230E+02  0.7816164E-02  0.1320468E+00
        -11   -1    0    0    0    0  0.00000000000E+00  0.00000000000E+00  0.45593999997E+02  0.45594000000E+02  0.51100000000E-03 0. -1.
         11   -1    0    0    0    0 -0.00000000000E+00 -0.00000000000E+00 -0.45593999997E+02  0.45594000000E+02  0.51100000000E-03 0.  1.
    9900012    2    1    2    0    0  0.58859996360E+01 -0.42964560255E+01 -0.44452338252E+02  0.46142302069E+02  0.99998569023E+01 0.  0.
         12    1    1    2    0    0 -0.58859996360E+01  0.42964560255E+01  0.44452338252E+02  0.45045697931E+02  0.00000000000E+00 0. -1.
         11    1    3    3    0    0 -0.98071205890E+00 -0.10183501669E+01 -0.51088217390E+00  0.15032744466E+01  0.51100000000E-03 0. -1.
        -11    1    3    3    0    0  0.10144403758E+01 -0.70233228152E+00 -0.12043087895E+02  0.12106127631E+02  0.51100000000E-03 0.  1.
         12    1    3    3    0    0  0.58522713191E+01 -0.25757735771E+01 -0.31898368182E+02  0.32532899991E+02  0.00000000000E+00 0. -1.
</event>
<event>
 7    1  0.4623443E-009  0.4614232E+02  0.7816164E-02  0.1320468E+00
        -11   -1    0    0    0    0  0.00000000000E+00  0.00000000000E+00  0.45593999997E+02  0.45594000000E+02  0.51100000000E-03 0.  1.
         11   -1    0    0    0    0 -0.00000000000E+00 -0.00000000000E+00 -0.45593999997E+02  0.45594000000E+02  0.51100000000E-03 0. -1.
    9900012    2    1    2    0    0 -0.25636723688E+02  0.21256574081E+02 -0.30331996531E+02  0.46142317003E+02  0.99999930858E+01 0.  0.
         12    1    1    2    0    0  0.25636723688E+02 -0.21256574081E+02  0.30331996531E+02  0.45045682997E+02  0.00000000000E+00 0. -1.
         11    1    3    3    0    0 -0.40806999753E+00  0.21045939954E+01 -0.27317639951E+01  0.34725166370E+01  0.51100000000E-03 0. -1.
        -11    1    3    3    0    0 -0.66371843319E+01  0.46795018327E+01 -0.11714498399E+02  0.14254102086E+02  0.51100000000E-03 0.  1.
        -12    1    3    3    0    0 -0.18591469359E+02  0.14472478253E+02 -0.15885734136E+02  0.28415698280E+02  0.00000000000E+00 0.  1.
</event>
<event>
 7    1  0.4623443E-009  0.4614232E+02  0.7816164E-02  0.1320468E+00
        -11   -1    0    0    0    0  0.00000000000E+00  0.00000000000E+00  0.45593999997E+02  0.45594000000E+02  0.51100000000E-03 0. -1.
         11   -1    0    0    0    0 -0.00000000000E+00 -0.00000000000E+00 -0.45593999997E+02  0.45594000000E+02  0.51100000000E-03 0.  1.
    9900012    2    1    2    0    0  0.32533031016E+02 -0.25715907781E+02  0.17589982482E+02  0.46142317590E+02  0.99999984383E+01 0.  0.
        -12    1    1    2    0    0 -0.32533031016E+02  0.25715907781E+02 -0.17589982482E+02  0.45045682410E+02  0.00000000000E+00 0.  1.
         11    1    3    3    0    0  0.12528801473E+02 -0.79251530514E+01  0.15503192400E+01  0.14905784355E+02  0.51100000000E-03 0. -1.
        -11    1    3    3    0    0  0.42101016801E+01 -0.42360449870E+01  0.40653319260E+01  0.72246769629E+01  0.51100000000E-03 0.  1.
         12    1    3    3    0    0  0.15794127863E+02 -0.13554709743E+02  0.11974331316E+02  0.24011856272E+02  0.00000000000E+00 0. -1.
</event>
<event>
 7    1  0.4623443E-009  0.4614232E+02  0.7816164E-02  0.1320468E+00
        -11   -1    0    0    0    0  0.00000000000E+00  0.00000000000E+00  0.45593999997E+02  0.45594000000E+02  0.51100000000E-03 0.  1.
         11   -1    0    0    0    0 -0.00000000000E+00 -0.00000000000E+00 -0.45593999997E+02  0.45594000000E+02  0.51100000000E-03 0. -1.
    9900012    2    1    2    0    0  0.26739204215E+02  0.15568215461E+02  0.32737732683E+02  0.46142317456E+02  0.99999972133E+01 0.  0.
        -12    1    1    2    0    0 -0.26739204215E+02 -0.15568215461E+02 -0.32737732683E+02  0.45045682544E+02  0.00000000000E+00 0.  1.
         11    1    3    3    0    0  0.58437229557E+00  0.20612271550E+01  0.49688814474E+01  0.54110933705E+01  0.51100000000E-03 0.  1.
        -11    1    3    3    0    0  0.16600046105E+02  0.96834691902E+01  0.20701379586E+02  0.28246738277E+02  0.51100000000E-03 0. -1.
         12    1    3    3    0    0  0.95547858142E+01  0.38235191153E+01  0.70674716500E+01  0.12484485809E+02  0.00000000000E+00 0. -1.
</event>
<event>
 7    1  0.4623443E-009  0.4614232E+02  0.7816164E-02  0.1320468E+00
        -11   -1    0    0    0    0  0.00000000000E+00  0.00000000000E+00  0.45593999997E+02  0.45594000000E+02  0.51100000000E-03 0. -1.
         11   -1    0    0    0    0 -0.00000000000E+00 -0.00000000000E+00 -0.45593999997E+02  0.45594000000E+02  0.51100000000E-03 0.  1.
    9900012    2    1    2    0    0 -0.33237786718E+00 -0.40646837159E+02 -0.19412306249E+02  0.46142317854E+02  0.10000000849E+02 0.  0.
         12    1    1    2    0    0  0.33237786718E+00  0.40646837159E+02  0.19412306249E+02  0.45045682146E+02  0.00000000000E+00 0. -1.
         11    1    3    3    0    0 -0.32554893410E+01 -0.16380797941E+02 -0.83519286132E+01  0.18673067875E+02  0.51100000000E-03 0. -1.
        -11    1    3    3    0    0  0.13198174480E+01 -0.23135048455E+02 -0.10395283596E+02  0.25397525596E+02  0.51100000000E-03 0.  1.
         12    1    3    3    0    0  0.16032940258E+01 -0.11309907633E+01 -0.66509404015E+00  0.20717243838E+01  0.00000000000E+00 0. -1.
</event>
<event>
 7    1  0.4623443E-009  0.4614232E+02  0.7816164E-02  0.1320468E+00
        -11   -1    0    0    0    0  0.00000000000E+00  0.00000000000E+00  0.45593999997E+02  0.45594000000E+02  0.51100000000E-03 0.  1.
         11   -1    0    0    0    0 -0.00000000000E+00 -0.00000000000E+00 -0.45593999997E+02  0.45594000000E+02  0.51100000000E-03 0. -1.
    9900012    2    1    2    0    0  0.38564152275E+02  0.22128383558E+02  0.72287183844E+01  0.46142316865E+02  0.99999918311E+01 0.  0.
         12    1    1    2    0    0 -0.38564152275E+02 -0.22128383558E+02 -0.72287183844E+01  0.45045683135E+02  0.00000000000E+00 0. -1.
         11    1    3    3    0    0  0.15519704813E+02  0.13403648549E+02  0.28340094743E+01  0.20701464727E+02  0.51100000000E-03 0. -1.
        -11    1    3    3    0    0  0.12999010052E+02  0.71605783171E+01  0.34045515946E+01  0.15226264019E+02  0.51100000000E-03 0.  1.
         12    1    3    3    0    0  0.10045437410E+02  0.15641566923E+01  0.99015731541E+00  0.10214588118E+02  0.00000000000E+00 0. -1.
</event>
<event>
 7    1  0.4623443E-009  0.4614232E+02  0.7816164E-02  0.1320468E+00
        -11   -1    0    0    0    0  0.00000000000E+00  0.00000000000E+00  0.45593999997E+02  0.45594000000E+02  0.51100000000E-03 0. -1.
         11   -1    0    0    0    0 -0.00000000000E+00 -0.00000000000E+00 -0.45593999997E+02  0.45594000000E+02  0.51100000000E-03 0.  1.
    9900012    2    1    2    0    0  0.59147750172E+01 -0.28565779182E+01  0.44564210758E+02  0.46142317838E+02  0.10000000705E+02 0.  0.
        -12    1    1    2    0    0 -0.59147750172E+01  0.28565779182E+01 -0.44564210758E+02  0.45045682162E+02  0.00000000000E+00 0.  1.
         11    1    3    3    0    0  0.23435583687E+01 -0.42855014306E+00  0.53450936077E+01  0.58520036730E+01  0.51100000000E-03 0. -1.
        -11    1    3    3    0    0 -0.20795285700E+00  0.18604843609E+01  0.24698712897E+01  0.30991790682E+01  0.51100000000E-03 0.  1.
         12    1    3    3    0    0  0.37791695054E+01 -0.42885121361E+01  0.36749245861E+02  0.37191135097E+02  0.00000000000E+00 0. -1.
</event>
<event>
 7    1  0.4623443E-009  0.4614232E+02  0.7816164E-02  0.1320468E+00
        -11   -1    0    0    0    0  0.00000000000E+00  0.00000000000E+00  0.45593999997E+02  0.45594000000E+02  0.51100000000E-03 0.  1.
         11   -1    0    0    0    0 -0.00000000000E+00 -0.00000000000E+00 -0.45593999997E+02  0.45594000000E+02  0.51100000000E-03 0. -1.
    9900012    2    1    2    0    0 -0.10502923533E+02 -0.43770614587E+02 -0.17132919488E+01  0.46142317927E+02  0.10000001517E+02 0.  0.
        -12    1    1    2    0    0  0.10502923533E+02  0.43770614587E+02  0.17132919488E+01  0.45045682073E+02  0.00000000000E+00 0.  1.
         11    1    3    3    0    0 -0.46998081798E+01 -0.32872327543E+02 -0.22068077727E+01  0.33279845489E+02  0.51100000000E-03 0. -1.
        -11    1    3    3    0    0 -0.51325479826E+01 -0.10928859375E+02  0.80514962182E-01  0.12074332236E+02  0.51100000000E-03 0.  1.
        -12    1    3    3    0    0 -0.67056737083E+00  0.30572330195E-01  0.41300086178E+00  0.78814020202E+00  0.00000000000E+00 0.  1.
</event>
<event>
 7    1  0.4623443E-009  0.4614232E+02  0.7816164E-02  0.1320468E+00
        -11   -1    0    0    0    0  0.00000000000E+00  0.00000000000E+00  0.45593999997E+02  0.45594000000E+02  0.51100000000E-03 0. -1.
         11   -1    0    0    0    0 -0.00000000000E+00 -0.00000000000E+00 -0.45593999997E+02  0.45594000000E+02  0.51100000000E-03 0.  1.
    9900012    2    1    2    0    0 -0.23895880621E+02  0.71764166900E+00 -0.38178336167E+02  0.46142317935E+02  0.10000001588E+02 0.  0.
         12    1    1    2    0    0  0.23895880621E+02 -0.71764166900E+00  0.38178336167E+02  0.45045682065E+02  0.00000000000E+00 0. -1.
         11    1    3    3    0    0 -0.90902110510E+01  0.28566390639E+01 -0.80021614748E+01  0.12442946284E+02  0.51100000000E-03 0. -1.
        -11    1    3    3    0    0 -0.64859634744E+01 -0.15002333506E+01 -0.13463191363E+02  0.15019185871E+02  0.51100000000E-03 0.  1.
         12    1    3    3    0    0 -0.83197060951E+01 -0.63876404436E+00 -0.16712983329E+02  0.18680185780E+02  0.00000000000E+00 0. -1.
</event>
<event>
 7    1  0.4623443E-009  0.4614232E+02  0.7816164E-02  0.1320468E+00
        -11   -1    0    0    0    0  0.00000000000E+00  0.00000000000E+00  0.45593999997E+02  0.45594000000E+02  0.51100000000E-03 0. -1.
         11   -1    0    0    0    0 -0.00000000000E+00 -0.00000000000E+00 -0.45593999997E+02  0.45594000000E+02  0.51100000000E-03 0.  1.
    9900012    2    1    2    0    0 -0.91276462622E+01 -0.26329656201E+02 -0.35391366242E+02  0.46142317339E+02  0.99999961500E+01 0.  0.
         12    1    1    2    0    0  0.91276462622E+01  0.26329656201E+02  0.35391366242E+02  0.45045682661E+02  0.00000000000E+00 0. -1.
         11    1    3    3    0    0 -0.19869192909E+01 -0.10347294423E+02 -0.10485979096E+02  0.14865063337E+02  0.51100000000E-03 0. -1.
        -11    1    3    3    0    0 -0.55316717634E-02  0.54021934893E+00 -0.24028383240E+01  0.24628235456E+01  0.51100000000E-03 0.  1.
         12    1    3    3    0    0 -0.71351952996E+01 -0.16522581127E+02 -0.22502548821E+02  0.28814430456E+02  0.00000000000E+00 0. -1.
</event>
<event>
 7    1  0.4623443E-009  0.4614232E+02  0.7816164E-02  0.1320468E+00
        -11   -1    0    0    0    0  0.00000000000E+00  0.00000000000E+00  0.45593999997E+02  0.45594000000E+02  0.51100000000E-03 0. -1.
         11   -1    0    0    0    0 -0.00000000000E+00 -0.00000000000E+00 -0.45593999997E+02  0.45594000000E+02  0.51100000000E-03 0.  1.
    9900012    2    1    2    0    0  0.29689392181E+01  0.32246685673E+02  0.31312144115E+02  0.46142315345E+02  0.99999779688E+01 0.  0.
        -12    1    1    2    0    0 -0.29689392181E+01 -0.32246685673E+02 -0.31312144115E+02  0.45045684655E+02  0.00000000000E+00 0.  1.
         11    1    3    3    0    0 -0.16485991495E+01  0.43605972476E+01  0.79351461611E+01  0.92032185875E+01  0.51100000000E-03 0.  1.
        -11    1    3    3    0    0  0.23507226439E+01  0.10244791462E+02  0.11342323670E+02  0.15463827325E+02  0.51100000000E-03 0. -1.
        -12    1    3    3    0    0  0.22668157237E+01  0.17641296964E+02  0.12034674283E+02  0.21475269432E+02  0.00000000000E+00 0.  1.
</event>
<event>
 7    1  0.4623443E-009  0.4614232E+02  0.7816164E-02  0.1320468E+00
        -11   -1    0    0    0    0  0.00000000000E+00  0.00000000000E+00  0.45593999997E+02  0.45594000000E+02  0.51100000000E-03 0. -1.
         11   -1    0    0    0    0 -0.00000000000E+00 -0.00000000000E+00 -0.45593999997E+02  0.45594000000E+02  0.51100000000E-03 0.  1.
    9900012    2    1    2    0    0 -0.82270908736E+01  0.27159051070E+02  0.34983058701E+02  0.46142317905E+02  0.10000001315E+02 0.  0.
        -12    1    1    2    0    0  0.82270908736E+01 -0.27159051070E+02 -0.34983058701E+02  0.45045682095E+02  0.00000000000E+00 0.  1.
         11    1    3    3    0    0 -0.40775498285E+01  0.21201561348E+01  0.52118183084E+01  0.69487067128E+01  0.51100000000E-03 0.  1.
        -11    1    3    3    0    0 -0.33542201508E+01  0.13060994422E+02  0.16014185237E+02  0.20935484164E+02  0.51100000000E-03 0. -1.
        -12    1    3    3    0    0 -0.79532089441E+00  0.11977900514E+02  0.13757055156E+02  0.18258127029E+02  0.00000000000E+00 0.  1.
</event>
<event>
 7    1  0.4623443E-009  0.4614232E+02  0.7816164E-02  0.1320468E+00
        -11   -1    0    0    0    0  0.00000000000E+00  0.00000000000E+00  0.45593999997E+02  0.45594000000E+02  0.51100000000E-03 0. -1.
         11   -1    0    0    0    0 -0.00000000000E+00 -0.00000000000E+00 -0.45593999997E+02  0.45594000000E+02  0.51100000000E-03 0.  1.
    9900012    2    1    2    0    0 -0.26394276878E+02 -0.10884036672E+02  0.34842408556E+02  0.46142317186E+02  0.99999947554E+01 0.  0.
        -12    1    1    2    0    0  0.26394276878E+02  0.10884036672E+02 -0.34842408556E+02  0.45045682814E+02  0.00000000000E+00 0.  1.
         11    1    3    3    0    0 -0.21531767745E+02 -0.71787928688E+01  0.22243541041E+02  0.31779351906E+02  0.51100000000E-03 0. -1.
        -11    1    3    3    0    0 -0.49641626312E+01 -0.30554501111E+01  0.12355801303E+02  0.13661790223E+02  0.51100000000E-03 0.  1.
        -12    1    3    3    0    0  0.10165349780E+00 -0.64979369225E+00  0.24306621155E+00  0.70117505610E+00  0.00000000000E+00 0.  1.
</event>
<event>
 7    1  0.4623443E-009  0.4614232E+02  0.7816164E-02  0.1320468E+00
        -11   -1    0    0    0    0  0.00000000000E+00  0.00000000000E+00  0.45593999997E+02  0.45594000000E+02  0.51100000000E-03 0. -1.
         11   -1    0    0    0    0 -0.00000000000E+00 -0.00000000000E+00 -0.45593999997E+02  0.45594000000E+02  0.51100000000E-03 0.  1.
    9900012    2    1    2    0    0 -0.17158629636E+02  0.87553451594E+01  0.40719023169E+02  0.46142317769E+02  0.10000000073E+02 0.  0.
        -12    1    1    2    0    0  0.17158629636E+02 -0.87553451594E+01 -0.40719023169E+02  0.45045682231E+02  0.00000000000E+00 0.  1.
         11    1    3    3    0    0 -0.56266903515E+01  0.19069904821E+01  0.17397255808E+02  0.18383709280E+02  0.51100000000E-03 0. -1.
        -11    1    3    3    0    0 -0.13959484147E+01  0.41364505630E+01  0.90174445458E+01  0.10018642704E+02  0.51100000000E-03 0.  1.
        -12    1    3    3    0    0 -0.10135990870E+02  0.27119041142E+01  0.14304322815E+02  0.17739965784E+02  0.00000000000E+00 0.  1.
</event>
<event>
 7    1  0.4623443E-009  0.4614232E+02  0.7816164E-02  0.1320468E+00
        -11   -1    0    0    0    0  0.00000000000E+00  0.00000000000E+00  0.45593999997E+02  0.45594000000E+02  0.51100000000E-03 0. -1.
         11   -1    0    0    0    0 -0.00000000000E+00 -0.00000000000E+00 -0.45593999997E+02  0.45594000000E+02  0.51100000000E-03 0.  1.
    9900012    2    1    2    0    0  0.47471136087E+01 -0.83479132403E+01 -0.44010122633E+02  0.46142316108E+02  0.99999849299E+01 0.  0.
         12    1    1    2    0    0 -0.47471136087E+01  0.83479132403E+01  0.44010122633E+02  0.45045683892E+02  0.00000000000E+00 0. -1.
         11    1    3    3    0    0 -0.10055248129E+01 -0.44088665515E+01 -0.79019077337E+01  0.91043577759E+01  0.51100000000E-03 0. -1.
        -11    1    3    3    0    0  0.19936797551E+01 -0.21025658026E+01 -0.62609019453E+01  0.68988720346E+01  0.51100000000E-03 0.  1.
        -12    1    3    3    0    0  0.37589586665E+01 -0.18364808862E+01 -0.29847312954E+02  0.30139086298E+02  0.00000000000E+00 0.  1.
</event>
<event>
 7    1  0.4623443E-009  0.4614232E+02  0.7816164E-02  0.1320468E+00
        -11   -1    0    0    0    0  0.00000000000E+00  0.00000000000E+00  0.45593999997E+02  0.45594000000E+02  0.51100000000E-03 0. -1.
         11   -1    0    0    0    0 -0.00000000000E+00 -0.00000000000E+00 -0.45593999997E+02  0.45594000000E+02  0.51100000000E-03 0.  1.
    9900012    2    1    2    0    0  0.31137188033E+01 -0.11228191606E+02 -0.43512595436E+02  0.46142317709E+02  0.99999995225E+01 0.  0.
         12    1    1    2    0    0 -0.31137188033E+01  0.11228191606E+02  0.43512595436E+02  0.45045682291E+02  0.00000000000E+00 0. -1.
         11    1    3    3    0    0  0.41501170968E+01 -0.23714697718E+01 -0.16857935670E+02  0.17522480878E+02  0.51100000000E-03 0. -1.
        -11    1    3    3    0    0 -0.95962591873E+00 -0.79478526298E+01 -0.26514886101E+02  0.27697083394E+02  0.51100000000E-03 0.  1.
         12    1    3    3    0    0 -0.76772374736E-01 -0.90886920434E+00 -0.13977366488E+00  0.92275343701E+00  0.00000000000E+00 0. -1.
</event>
<event>
 7    1  0.5394699E-009  0.4614232E+02  0.7816164E-02  0.1320468E+00
        -11   -1    0    0    0    0  0.00000000000E+00  0.00000000000E+00  0.45593999997E+02  0.45594000000E+02  0.51100000000E-03 0. -1.
         11   -1    0    0    0    0 -0.00000000000E+00 -0.00000000000E+00 -0.45593999997E+02  0.45594000000E+02  0.51100000000E-03 0.  1.
    9900012    2    1    2    0    0 -0.93882248340E+01  0.12315024745E+02 -0.42300294532E+02  0.46142317438E+02  0.99999970561E+01 0.  0.
         12    1    1    2    0    0  0.93882248340E+01 -0.12315024745E+02  0.42300294532E+02  0.45045682562E+02  0.00000000000E+00 0. -1.
         11    1    3    3    0    0 -0.22345744874E+01  0.60241496311E+01 -0.14743038929E+02  0.16082316345E+02  0.51100000000E-03 0. -1.
        -11    1    3    3    0    0 -0.29233511332E+00  0.47839274762E+01 -0.13879593432E+02  0.14683818850E+02  0.51100000000E-03 0.  1.
         12    1    3    3    0    0 -0.68613152333E+01  0.15069476372E+01 -0.13677662171E+02  0.15376182243E+02  0.00000000000E+00 0. -1.
</event>
<event>
 7    1  0.4623443E-009  0.4614231E+02  0.7816164E-02  0.1320468E+00
        -11   -1    0    0    0    0  0.00000000000E+00  0.00000000000E+00  0.45593999997E+02  0.45594000000E+02  0.51100000000E-03 0. -1.
         11   -1    0    0    0    0 -0.00000000000E+00 -0.00000000000E+00 -0.45593999997E+02  0.45594000000E+02  0.51100000000E-03 0.  1.
    9900012    2    1    2    0    0  0.59227418679E+01  0.15231792591E+02 -0.41976517046E+02  0.46142308085E+02  0.99999117670E+01 0.  0.
         12    1    1    2    0    0 -0.59227418679E+01 -0.15231792591E+02  0.41976517046E+02  0.45045691915E+02  0.00000000000E+00 0. -1.
         11    1    3    3    0    0  0.32125063808E+01  0.42458611307E+01 -0.76513754742E+01  0.93215385477E+01  0.51100000000E-03 0. -1.
        -11    1    3    3    0    0  0.33018382955E+01  0.26984703109E+01 -0.64373758394E+01  0.77216375276E+01  0.51100000000E-03 0.  1.
        -12    1    3    3    0    0 -0.59160280842E+00  0.82874611495E+01 -0.27887765732E+02  0.29099132010E+02  0.00000000000E+00 0.  1.
</event>
<event>
 7    1  0.4623443E-009  0.4614232E+02  0.7816164E-02  0.1320468E+00
        -11   -1    0    0    0    0  0.00000000000E+00  0.00000000000E+00  0.45593999997E+02  0.45594000000E+02  0.51100000000E-03 0. -1.
         11   -1    0    0    0    0 -0.00000000000E+00 -0.00000000000E+00 -0.45593999997E+02  0.45594000000E+02  0.51100000000E-03 0.  1.
    9900012    2    1    2    0    0  0.51566099943E+01 -0.39278197086E+02 -0.21441688790E+02  0.46142318619E+02  0.10000007823E+02 0.  0.
         12    1    1    2    0    0 -0.51566099943E+01  0.39278197086E+02  0.21441688790E+02  0.45045681381E+02  0.00000000000E+00 0. -1.
         11    1    3    3    0    0  0.56322416288E+01 -0.30061319433E+02 -0.17855206581E+02  0.35414876452E+02  0.51100000000E-03 0. -1.
        -11    1    3    3    0    0  0.42415518584E+00 -0.79803741255E+01 -0.42603524856E+01  0.90563172630E+01  0.51100000000E-03 0.  1.
         12    1    3    3    0    0 -0.89978682033E+00 -0.12365035271E+01  0.67387027674E+00  0.16711249039E+01  0.00000000000E+00 0. -1.
</event>
<event>
 7    1  0.4623443E-009  0.4614232E+02  0.7816164E-02  0.1320468E+00
        -11   -1    0    0    0    0  0.00000000000E+00  0.00000000000E+00  0.45593999997E+02  0.45594000000E+02  0.51100000000E-03 0. -1.
         11   -1    0    0    0    0 -0.00000000000E+00 -0.00000000000E+00 -0.45593999997E+02  0.45594000000E+02  0.51100000000E-03 0.  1.
    9900012    2    1    2    0    0 -0.20156857341E+02 -0.34911891699E+02  0.20099108848E+02  0.46142320337E+02  0.10000023489E+02 0.  0.
        -12    1    1    2    0    0  0.20156857341E+02  0.34911891699E+02 -0.20099108848E+02  0.45045679663E+02  0.00000000000E+00 0.  1.
         11    1    3    3    0    0 -0.33218107503E+01 -0.52894713018E+01  0.43446944554E+01  0.76085020526E+01  0.51100000000E-03 0. -1.
        -11    1    3    3    0    0 -0.11875001810E+02 -0.21883377850E+02  0.70554682395E+01  0.25878128341E+02  0.51100000000E-03 0.  1.
        -12    1    3    3    0    0 -0.49600447804E+01 -0.77390425474E+01  0.86989461526E+01  0.12655689943E+02  0.00000000000E+00 0.  1.
</event>
<event>
 7    1  0.4623443E-009  0.4614232E+02  0.7816164E-02  0.1320468E+00
        -11   -1    0    0    0    0  0.00000000000E+00  0.00000000000E+00  0.45593999997E+02  0.45594000000E+02  0.51100000000E-03 0. -1.
         11   -1    0    0    0    0 -0.00000000000E+00 -0.00000000000E+00 -0.45593999997E+02  0.45594000000E+02  0.51100000000E-03 0.  1.
    9900012    2    1    2    0    0  0.12311453097E+02  0.36185091708E+02 -0.23836542407E+02  0.46142317707E+02  0.99999995097E+01 0.  0.
         12    1    1    2    0    0 -0.12311453097E+02 -0.36185091708E+02  0.23836542407E+02  0.45045682293E+02  0.00000000000E+00 0. -1.
         11    1    3    3    0    0  0.26133207183E+01  0.84193143514E+01 -0.12387456954E+01  0.89021789740E+01  0.51100000000E-03 0. -1.
        -11    1    3    3    0    0  0.62519012153E+01  0.19347704903E+02 -0.13713138022E+02  0.24524887533E+02  0.51100000000E-03 0.  1.
        -12    1    3    3    0    0  0.34462311634E+01  0.84180724538E+01 -0.88846586891E+01  0.12715251200E+02  0.00000000000E+00 0.  1.
</event>
<event>
 7    1  0.4623443E-009  0.4614232E+02  0.7816164E-02  0.1320468E+00
        -11   -1    0    0    0    0  0.00000000000E+00  0.00000000000E+00  0.45593999997E+02  0.45594000000E+02  0.51100000000E-03 0. -1.
         11   -1    0    0    0    0 -0.00000000000E+00 -0.00000000000E+00 -0.45593999997E+02  0.45594000000E+02  0.51100000000E-03 0.  1.
    9900012    2    1    2    0    0  0.95376201696E+01 -0.24510408042E+02  0.36570306674E+02  0.46142316177E+02  0.99999855514E+01 0.  0.
        -12    1    1    2    0    0 -0.95376201696E+01  0.24510408042E+02 -0.36570306674E+02  0.45045683823E+02  0.00000000000E+00 0.  1.
         11    1    3    3    0    0  0.25777245944E+01 -0.37445698143E+01  0.10637395589E+02  0.11568087671E+02  0.51100000000E-03 0. -1.
        -11    1    3    3    0    0  0.23639780851E+01 -0.25525666322E+01  0.74462486835E+01  0.82189177217E+01  0.51100000000E-03 0.  1.
        -12    1    3    3    0    0  0.45959174901E+01 -0.18213271595E+02  0.18486662402E+02  0.26355310784E+02  0.00000000000E+00 0.  1.
</event>
<event>
 7    1  0.4623443E-009  0.4614232E+02  0.7816164E-02  0.1320468E+00
        -11   -1    0    0    0    0  0.00000000000E+00  0.00000000000E+00  0.45593999997E+02  0.45594000000E+02  0.51100000000E-03 0. -1.
         11   -1    0    0    0    0 -0.00000000000E+00 -0.00000000000E+00 -0.45593999997E+02  0.45594000000E+02  0.51100000000E-03 0.  1.
    9900012    2    1    2    0    0 -0.12704529930E+02 -0.42998830376E+02 -0.43369359923E+01  0.46142317541E+02  0.99999979888E+01 0.  0.
         12    1    1    2    0    0  0.12704529930E+02  0.42998830376E+02  0.43369359923E+01  0.45045682459E+02  0.00000000000E+00 0. -1.
         11    1    3    3    0    0 -0.47507686417E+01 -0.70333706006E+01 -0.37939735053E+01  0.92968994784E+01  0.51100000000E-03 0. -1.
        -11    1    3    3    0    0 -0.20902570086E+01 -0.81720889900E+01 -0.24381110110E+00  0.84386999554E+01  0.51100000000E-03 0.  1.
         12    1    3    3    0    0 -0.58635042800E+01 -0.27793370785E+02 -0.29915138589E+00  0.28406718107E+02  0.00000000000E+00 0. -1.
</event>
<event>
 7    1  0.4623443E-009  0.4614232E+02  0.7816164E-02  0.1320468E+00
        -11   -1    0    0    0    0  0.00000000000E+00  0.00000000000E+00  0.45593999997E+02  0.45594000000E+02  0.51100000000E-03 0. -1.
         11   -1    0    0    0    0 -0.00000000000E+00 -0.00000000000E+00 -0.45593999997E+02  0.45594000000E+02  0.51100000000E-03 0.  1.
    9900012    2    1    2    0    0  0.36759323881E+02  0.63325257248E+01  0.25254003887E+02  0.46142317781E+02  0.10000000186E+02 0.  0.
        -12    1    1    2    0    0 -0.36759323881E+02 -0.63325257248E+01 -0.25254003887E+02  0.45045682219E+02  0.00000000000E+00 0.  1.
         11    1    3    3    0    0  0.21818580484E+02  0.21632742177E+01  0.16272716229E+02  0.27304422781E+02  0.51100000000E-03 0. -1.
        -11    1    3    3    0    0  0.10103056026E+02 -0.82505619641E-01  0.50905093892E+01  0.11313347619E+02  0.51100000000E-03 0.  1.
        -12    1    3    3    0    0  0.48376873705E+01  0.42517571268E+01  0.38907782684E+01  0.75245473813E+01  0.00000000000E+00 0.  1.
</event>
<event>
 7    1  0.4623443E-009  0.4614232E+02  0.7816164E-02  0.1320468E+00
        -11   -1    0    0    0    0  0.00000000000E+00  0.00000000000E+00  0.45593999997E+02  0.45594000000E+02  0.51100000000E-03 0. -1.
         11   -1    0    0    0    0 -0.00000000000E+00 -0.00000000000E+00 -0.45593999997E+02  0.45594000000E+02  0.51100000000E-03 0.  1.
    9900012    2    1    2    0    0  0.15407523330E+02 -0.11198126709E+02  0.40820628458E+02  0.46142317358E+02  0.99999963242E+01 0.  0.
        -12    1    1    2    0    0 -0.15407523330E+02  0.11198126709E+02 -0.40820628458E+02  0.45045682642E+02  0.00000000000E+00 0.  1.
         11    1    3    3    0    0  0.11870958876E+01 -0.12371141683E+00  0.87189243339E+01  0.88002353925E+01  0.51100000000E-03 0. -1.
        -11    1    3    3    0    0  0.13559514199E+02 -0.84075144129E+01  0.29601105965E+02  0.33626956427E+02  0.51100000000E-03 0.  1.
         12    1    3    3    0    0  0.66091324369E+00 -0.26669008792E+01  0.25005981594E+01  0.37151255389E+01  0.00000000000E+00 0. -1.
</event>
<event>
 7    1  0.4623443E-009  0.4614232E+02  0.7816164E-02  0.1320468E+00
        -11   -1    0    0    0    0  0.00000000000E+00  0.00000000000E+00  0.45593999997E+02  0.45594000000E+02  0.51100000000E-03 0. -1.
         11   -1    0    0    0    0 -0.00000000000E+00 -0.00000000000E+00 -0.45593999997E+02  0.45594000000E+02  0.51100000000E-03 0.  1.
    9900012    2    1    2    0    0 -0.21060326255E+02  0.27636541272E+02 -0.28667014031E+02  0.46142318199E+02  0.10000003995E+02 0.  0.
         12    1    1    2    0    0  0.21060326255E+02 -0.27636541272E+02  0.28667014031E+02  0.45045681801E+02  0.00000000000E+00 0. -1.
         11    1    3    3    0    0 -0.86512326321E+00 -0.17607949445E+00  0.91947720578E-01  0.88763556337E+00  0.51100000000E-03 0. -1.
        -11    1    3    3    0    0 -0.15916886632E+02  0.23812249733E+02 -0.26357990419E+02  0.38924467583E+02  0.51100000000E-03 0.  1.
         12    1    3    3    0    0 -0.42783163600E+01  0.40003710332E+01 -0.24009713329E+01  0.63302150533E+01  0.00000000000E+00 0. -1.
</event>
<event>
 7    1  0.4623443E-009  0.4614232E+02  0.7816164E-02  0.1320468E+00
        -11   -1    0    0    0    0  0.00000000000E+00  0.00000000000E+00  0.45593999997E+02  0.45594000000E+02  0.51100000000E-03 0. -1.
         11   -1    0    0    0    0 -0.00000000000E+00 -0.00000000000E+00 -0.45593999997E+02  0.45594000000E+02  0.51100000000E-03 0.  1.
    9900012    2    1    2    0    0 -0.24703820678E+02 -0.19686529561E+02  0.32113473285E+02  0.46142319090E+02  0.10000012116E+02 0.  0.
        -12    1    1    2    0    0  0.24703820678E+02  0.19686529561E+02 -0.32113473285E+02  0.45045680910E+02  0.00000000000E+00 0.  1.
         11    1    3    3    0    0 -0.36898628924E+01 -0.66549121710E+01  0.54532419328E+01  0.93616660914E+01  0.51100000000E-03 0. -1.
        -11    1    3    3    0    0 -0.39456243847E+01 -0.28725942371E+01  0.24375809748E+01  0.54554148061E+01  0.51100000000E-03 0.  1.
         12    1    3    3    0    0 -0.17068333401E+02 -0.10159023152E+02  0.24222650377E+02  0.31325238192E+02  0.00000000000E+00 0. -1.
</event>
<event>
 7    1  0.4623443E-009  0.4614232E+02  0.7816164E-02  0.1320468E+00
        -11   -1    0    0    0    0  0.00000000000E+00  0.00000000000E+00  0.45593999997E+02  0.45594000000E+02  0.51100000000E-03 0. -1.
         11   -1    0    0    0    0 -0.00000000000E+00 -0.00000000000E+00 -0.45593999997E+02  0.45594000000E+02  0.51100000000E-03 0.  1.
    9900012    2    1    2    0    0  0.66391105676E+01 -0.12544526727E+01  0.44536075813E+02  0.46142317749E+02  0.99999998928E+01 0.  0.
        -12    1    1    2    0    0 -0.66391105676E+01  0.12544526727E+01 -0.44536075813E+02  0.45045682251E+02  0.00000000000E+00 0.  1.
         11    1    3    3    0    0  0.60245626606E-01 -0.17934743818E+01  0.12606147692E+01  0.21930184110E+01  0.51100000000E-03 0. -1.
        -11    1    3    3    0    0  0.21457583084E+01 -0.12877751481E+01  0.90505632581E+01  0.93901724744E+01  0.51100000000E-03 0.  1.
        -12    1    3    3    0    0  0.44331066326E+01  0.18267968572E+01  0.34224897785E+02  0.34559126864E+02  0.00000000000E+00 0.  1.
</event>
<event>
 7    1  0.4623443E-009  0.4614232E+02  0.7816164E-02  0.1320468E+00
        -11   -1    0    0    0    0  0.00000000000E+00  0.00000000000E+00  0.45593999997E+02  0.45594000000E+02  0.51100000000E-03 0.  1.
         11   -1    0    0    0    0 -0.00000000000E+00 -0.00000000000E+00 -0.45593999997E+02  0.45594000000E+02  0.51100000000E-03 0. -1.
    9900012    2    1    2    0    0  0.32294083540E+02  0.30543820425E+02  0.72993565466E+01  0.46142318699E+02  0.10000008555E+02 0.  0.
         12    1    1    2    0    0 -0.32294083540E+02 -0.30543820425E+02 -0.72993565466E+01  0.45045681301E+02  0.00000000000E+00 0. -1.
         11    1    3    3    0    0  0.21977955429E+00 -0.10346724428E+00  0.34331836834E+00  0.42056662526E+00  0.51100000000E-03 0. -1.
        -11    1    3    3    0    0  0.30658008894E+02  0.27670215576E+02  0.43645542102E+01  0.41528347825E+02  0.51100000000E-03 0.  1.
        -12    1    3    3    0    0  0.14162950912E+01  0.29770720934E+01  0.25914839680E+01  0.41934042485E+01  0.00000000000E+00 0.  1.
</event>
<event>
 7    1  0.4623443E-009  0.4614232E+02  0.7816164E-02  0.1320468E+00
        -11   -1    0    0    0    0  0.00000000000E+00  0.00000000000E+00  0.45593999997E+02  0.45594000000E+02  0.51100000000E-03 0. -1.
         11   -1    0    0    0    0 -0.00000000000E+00 -0.00000000000E+00 -0.45593999997E+02  0.45594000000E+02  0.51100000000E-03 0.  1.
    9900012    2    1    2    0    0 -0.19677860185E+02  0.14181662178E+02  0.37957552491E+02  0.46142317469E+02  0.99999973350E+01 0.  0.
        -12    1    1    2    0    0  0.19677860185E+02 -0.14181662178E+02 -0.37957552491E+02  0.45045682531E+02  0.00000000000E+00 0.  1.
         11    1    3    3    0    0 -0.20566624487E+01 -0.12694953713E+01  0.42175240319E+01  0.48609657627E+01  0.51100000000E-03 0. -1.
        -11    1    3    3    0    0 -0.33141128639E+01  0.29930463293E+01  0.39405474703E+01  0.59556347294E+01  0.51100000000E-03 0.  1.
         12    1    3    3    0    0 -0.14307084872E+02  0.12458111220E+02  0.29799480989E+02  0.35325716977E+02  0.00000000000E+00 0. -1.
</event>
<event>
 7    1  0.4623443E-009  0.4614232E+02  0.7816164E-02  0.1320468E+00
        -11   -1    0    0    0    0  0.00000000000E+00  0.00000000000E+00  0.45593999997E+02  0.45594000000E+02  0.51100000000E-03 0. -1.
         11   -1    0    0    0    0 -0.00000000000E+00 -0.00000000000E+00 -0.45593999997E+02  0.45594000000E+02  0.51100000000E-03 0.  1.
    9900012    2    1    2    0    0 -0.29974524681E+02  0.11347316087E+01 -0.33605861655E+02  0.46142315598E+02  0.99999802795E+01 0.  0.
         12    1    1    2    0    0  0.29974524681E+02 -0.11347316087E+01  0.33605861655E+02  0.45045684402E+02  0.00000000000E+00 0. -1.
         11    1    3    3    0    0 -0.95706641244E+01  0.10206911346E+01 -0.59836295192E+01  0.11333280401E+02  0.51100000000E-03 0. -1.
        -11    1    3    3    0    0 -0.86263948935E+01  0.28598521310E+01 -0.11712469670E+02  0.14824823408E+02  0.51100000000E-03 0.  1.
         12    1    3    3    0    0 -0.11777465663E+02 -0.27458116570E+01 -0.15909762466E+02  0.19984211789E+02  0.00000000000E+00 0. -1.
</event>
<event>
 7    1  0.6521391E-009  0.4614232E+02  0.7816164E-02  0.1320468E+00
        -11   -1    0    0    0    0  0.00000000000E+00  0.00000000000E+00  0.45593999997E+02  0.45594000000E+02  0.51100000000E-03 0. -1.
         11   -1    0    0    0    0 -0.00000000000E+00 -0.00000000000E+00 -0.45593999997E+02  0.45594000000E+02  0.51100000000E-03 0.  1.
    9900012    2    1    2    0    0  0.12041654491E+02 -0.85914713139E+01 -0.42547604497E+02  0.46142317957E+02  0.10000001790E+02 0.  0.
         12    1    1    2    0    0 -0.12041654491E+02  0.85914713139E+01  0.42547604497E+02  0.45045682043E+02  0.00000000000E+00 0. -1.
         11    1    3    3    0    0  0.24605468440E+01  0.49255479243E+00 -0.14258970456E+02  0.14478091715E+02  0.51100000000E-03 0. -1.
        -11    1    3    3    0    0  0.69344765354E+01 -0.50833581056E+01 -0.22840744484E+02  0.24405472814E+02  0.51100000000E-03 0.  1.
         12    1    3    3    0    0  0.26466311120E+01 -0.40006680007E+01 -0.54478895574E+01  0.72587534277E+01  0.00000000000E+00 0. -1.
</event>
<event>
 7    1  0.4623443E-009  0.4614232E+02  0.7816164E-02  0.1320468E+00
        -11   -1    0    0    0    0  0.00000000000E+00  0.00000000000E+00  0.45593999997E+02  0.45594000000E+02  0.51100000000E-03 0. -1.
         11   -1    0    0    0    0 -0.00000000000E+00 -0.00000000000E+00 -0.45593999997E+02  0.45594000000E+02  0.51100000000E-03 0.  1.
    9900012    2    1    2    0    0 -0.12870421794E+02 -0.32887869506E+02  0.27961648309E+02  0.46142317699E+02  0.99999994309E+01 0.  0.
        -12    1    1    2    0    0  0.12870421794E+02  0.32887869506E+02 -0.27961648309E+02  0.45045682301E+02  0.00000000000E+00 0.  1.
         11    1    3    3    0    0 -0.12764930825E+02 -0.21192395545E+02  0.18062396534E+02  0.30631866687E+02  0.51100000000E-03 0. -1.
        -11    1    3    3    0    0  0.18125500093E+00  0.37127156471E-01  0.28159442018E+00  0.33693839156E+00  0.51100000000E-03 0.  1.
        -12    1    3    3    0    0 -0.28674597002E+00 -0.11732601118E+02  0.96176573554E+01  0.15173512621E+02  0.00000000000E+00 0.  1.
</event>
<event>
 7    1  0.4623443E-009  0.4614232E+02  0.7816164E-02  0.1320468E+00
        -11   -1    0    0    0    0  0.00000000000E+00  0.00000000000E+00  0.45593999997E+02  0.45594000000E+02  0.51100000000E-03 0.  1.
         11   -1    0    0    0    0 -0.00000000000E+00 -0.00000000000E+00 -0.45593999997E+02  0.45594000000E+02  0.51100000000E-03 0. -1.
    9900012    2    1    2    0    0  0.14626355682E+02 -0.33227334990E+02  0.26666970880E+02  0.46142318665E+02  0.10000008241E+02 0.  0.
        -12    1    1    2    0    0 -0.14626355682E+02  0.33227334990E+02 -0.26666970880E+02  0.45045681335E+02  0.00000000000E+00 0.  1.
         11    1    3    3    0    0  0.58461450580E+01 -0.10508048980E+02  0.61008788355E+01  0.13483961890E+02  0.51100000000E-03 0. -1.
        -11    1    3    3    0    0  0.40306929570E+01 -0.69531492859E+01  0.29925195496E+01  0.85760098077E+01  0.51100000000E-03 0.  1.
         12    1    3    3    0    0  0.47495176673E+01 -0.15766136723E+02  0.17573572494E+02  0.24082346968E+02  0.00000000000E+00 0. -1.
</event>
<event>
 7    1  0.4623443E-009  0.4614232E+02  0.7816164E-02  0.1320468E+00
        -11   -1    0    0    0    0  0.00000000000E+00  0.00000000000E+00  0.45593999997E+02  0.45594000000E+02  0.51100000000E-03 0. -1.
         11   -1    0    0    0    0 -0.00000000000E+00 -0.00000000000E+00 -0.45593999997E+02  0.45594000000E+02  0.51100000000E-03 0.  1.
    9900012    2    1    2    0    0  0.12130330374E+02 -0.39748434581E+02 -0.17379008825E+02  0.46142324133E+02  0.10000058099E+02 0.  0.
         12    1    1    2    0    0 -0.12130330374E+02  0.39748434581E+02  0.17379008825E+02  0.45045675867E+02  0.00000000000E+00 0. -1.
         11    1    3    3    0    0  0.77301617505E+00 -0.11043139944E+02 -0.31502878895E+01  0.11509683222E+02  0.51100000000E-03 0. -1.
        -11    1    3    3    0    0  0.11400074921E+02 -0.22162175409E+02 -0.10071632148E+02  0.26880504114E+02  0.51100000000E-03 0.  1.
        -12    1    3    3    0    0 -0.42760722085E-01 -0.65431192284E+01 -0.41570887879E+01  0.77521367962E+01  0.00000000000E+00 0.  1.
</event>
<event>
 7    1  0.4623443E-009  0.4614232E+02  0.7816164E-02  0.1320468E+00
        -11   -1    0    0    0    0  0.00000000000E+00  0.00000000000E+00  0.45593999997E+02  0.45594000000E+02  0.51100000000E-03 0. -1.
         11   -1    0    0    0    0 -0.00000000000E+00 -0.00000000000E+00 -0.45593999997E+02  0.45594000000E+02  0.51100000000E-03 0.  1.
    9900012    2    1    2    0    0  0.11926780465E+02 -0.16513042166E+02  0.40176918798E+02  0.46142318099E+02  0.10000003084E+02 0.  0.
        -12    1    1    2    0    0 -0.11926780465E+02  0.16513042166E+02 -0.40176918798E+02  0.45045681901E+02  0.00000000000E+00 0.  1.
         11    1    3    3    0    0  0.97649853001E+00 -0.12348557512E+01  0.83870942346E+00  0.17837746112E+01  0.51100000000E-03 0. -1.
        -11    1    3    3    0    0  0.11711063490E+01 -0.17949243714E+01  0.65381327506E+00  0.22406953473E+01  0.51100000000E-03 0.  1.
         12    1    3    3    0    0  0.97791755856E+01 -0.13483262044E+02  0.38684396099E+02  0.42117848141E+02  0.00000000000E+00 0. -1.
</event>
<event>
 7    1  0.4623443E-009  0.4614232E+02  0.7816164E-02  0.1320468E+00
        -11   -1    0    0    0    0  0.00000000000E+00  0.00000000000E+00  0.45593999997E+02  0.45594000000E+02  0.51100000000E-03 0.  1.
         11   -1    0    0    0    0 -0.00000000000E+00 -0.00000000000E+00 -0.45593999997E+02  0.45594000000E+02  0.51100000000E-03 0. -1.
    9900012    2    1    2    0    0  0.35289055539E+02 -0.27176145369E+02  0.67270502691E+01  0.46142317373E+02  0.99999964644E+01 0.  0.
        -12    1    1    2    0    0 -0.35289055539E+02  0.27176145369E+02 -0.67270502691E+01  0.45045682627E+02  0.00000000000E+00 0.  1.
         11    1    3    3    0    0  0.85713319090E+01 -0.88585169763E+01 -0.55173956585E+00  0.12338779134E+02  0.51100000000E-03 0. -1.
        -11    1    3    3    0    0  0.58160975336E+01 -0.38626067931E+01 -0.10500478970E+01  0.70604052721E+01  0.51100000000E-03 0.  1.
         12    1    3    3    0    0  0.20901626097E+02 -0.14455021600E+02  0.83288377319E+01  0.26743132967E+02  0.00000000000E+00 0. -1.
</event>
<event>
 7    1  0.4623443E-009  0.4614232E+02  0.7816164E-02  0.1320468E+00
        -11   -1    0    0    0    0  0.00000000000E+00  0.00000000000E+00  0.45593999997E+02  0.45594000000E+02  0.51100000000E-03 0. -1.
         11   -1    0    0    0    0 -0.00000000000E+00 -0.00000000000E+00 -0.45593999997E+02  0.45594000000E+02  0.51100000000E-03 0.  1.
    9900012    2    1    2    0    0 -0.29813236279E+02  0.24668066104E+02  0.23060158031E+02  0.46142318396E+02  0.10000005789E+02 0.  0.
        -12    1    1    2    0    0  0.29813236279E+02 -0.24668066104E+02 -0.23060158031E+02  0.45045681604E+02  0.00000000000E+00 0.  1.
         11    1    3    3    0    0 -0.40308600744E+01  0.12085632357E+01  0.45366716254E+01  0.61878790980E+01  0.51100000000E-03 0.  1.
        -11    1    3    3    0    0 -0.16691210913E+02  0.18796041348E+02  0.12234508749E+02  0.27956589503E+02  0.51100000000E-03 0. -1.
        -12    1    3    3    0    0 -0.90911652919E+01  0.46634615209E+01  0.62889776569E+01  0.11997849794E+02  0.00000000000E+00 0.  1.
</event>
<event>
 7    1  0.4623443E-009  0.4614232E+02  0.7816164E-02  0.1320468E+00
        -11   -1    0    0    0    0  0.00000000000E+00  0.00000000000E+00  0.45593999997E+02  0.45594000000E+02  0.51100000000E-03 0. -1.
         11   -1    0    0    0    0 -0.00000000000E+00 -0.00000000000E+00 -0.45593999997E+02  0.45594000000E+02  0.51100000000E-03 0.  1.
    9900012    2    1    2    0    0 -0.33338895229E+02  0.22735733415E+02  0.20017946787E+02  0.46142315383E+02  0.99999783161E+01 0.  0.
        -12    1    1    2    0    0  0.33338895229E+02 -0.22735733415E+02 -0.20017946787E+02  0.45045684617E+02  0.00000000000E+00 0.  1.
         11    1    3    3    0    0 -0.16252765114E+02  0.14274870540E+02  0.12943645210E+02  0.25208376671E+02  0.51100000000E-03 0. -1.
        -11    1    3    3    0    0 -0.97469893895E+00 -0.65030026975E+00  0.65983980319E+00  0.13447368848E+01  0.51100000000E-03 0.  1.
        -12    1    3    3    0    0 -0.16111431176E+02  0.91111631451E+01  0.64144617738E+01  0.19589201827E+02  0.00000000000E+00 0.  1.
</event>
<event>
 7    1  0.4623443E-009  0.4614232E+02  0.7816164E-02  0.1320468E+00
        -11   -1    0    0    0    0  0.00000000000E+00  0.00000000000E+00  0.45593999997E+02  0.45594000000E+02  0.51100000000E-03 0. -1.
         11   -1    0    0    0    0 -0.00000000000E+00 -0.00000000000E+00 -0.45593999997E+02  0.45594000000E+02  0.51100000000E-03 0.  1.
    9900012    2    1    2    0    0  0.11405197032E+02 -0.20591773028E+02 -0.38405909170E+02  0.46142317688E+02  0.99999993317E+01 0.  0.
         12    1    1    2    0    0 -0.11405197032E+02  0.20591773028E+02  0.38405909170E+02  0.45045682312E+02  0.00000000000E+00 0. -1.
         11    1    3    3    0    0  0.30006487170E+01 -0.12751294276E+02 -0.15750411604E+02  0.20485967500E+02  0.51100000000E-03 0. -1.
        -11    1    3    3    0    0  0.33840350391E+01 -0.46793074053E+01 -0.14179180509E+02  0.15310021917E+02  0.51100000000E-03 0.  1.
         12    1    3    3    0    0  0.50205132757E+01 -0.31611713467E+01 -0.84763170569E+01  0.10346328271E+02  0.00000000000E+00 0. -1.
</event>
<event>
 7    1  0.4623443E-009  0.4614232E+02  0.7816164E-02  0.1320468E+00
        -11   -1    0    0    0    0  0.00000000000E+00  0.00000000000E+00  0.45593999997E+02  0.45594000000E+02  0.51100000000E-03 0. -1.
         11   -1    0    0    0    0 -0.00000000000E+00 -0.00000000000E+00 -0.45593999997E+02  0.45594000000E+02  0.51100000000E-03 0.  1.
    9900012    2    1    2    0    0  0.22980060293E+02 -0.10711639997E+02 -0.37232929755E+02  0.46142318069E+02  0.10000002808E+02 0.  0.
         12    1    1    2    0    0 -0.22980060293E+02  0.10711639997E+02  0.37232929755E+02  0.45045681931E+02  0.00000000000E+00 0. -1.
         11    1    3    3    0    0  0.14621092642E+01 -0.67160480343E+00 -0.12848469478E+01  0.20590406632E+01  0.51100000000E-03 0. -1.
        -11    1    3    3    0    0  0.78015628462E+01 -0.83868959235E+01 -0.19366929354E+02  0.22500719076E+02  0.51100000000E-03 0.  1.
        -12    1    3    3    0    0  0.13716388183E+02 -0.16531392702E+01 -0.16581153453E+02  0.21582558330E+02  0.00000000000E+00 0.  1.
</event>
<event>
 7    1  0.4623443E-009  0.4614232E+02  0.7816164E-02  0.1320468E+00
        -11   -1    0    0    0    0  0.00000000000E+00  0.00000000000E+00  0.45593999997E+02  0.45594000000E+02  0.51100000000E-03 0. -1.
         11   -1    0    0    0    0 -0.00000000000E+00 -0.00000000000E+00 -0.45593999997E+02  0.45594000000E+02  0.51100000000E-03 0.  1.
    9900012    2    1    2    0    0 -0.29926275897E+02 -0.20223230409E+02  0.26917510517E+02  0.46142318635E+02  0.10000007967E+02 0.  0.
        -12    1    1    2    0    0  0.29926275897E+02  0.20223230409E+02 -0.26917510517E+02  0.45045681365E+02  0.00000000000E+00 0.  1.
         11    1    3    3    0    0 -0.81774611096E+01 -0.10094089761E+02  0.69190397655E+01  0.14718513167E+02  0.51100000000E-03 0. -1.
        -11    1    3    3    0    0 -0.93354165183E+01 -0.54135529583E+01  0.71414669533E+01  0.12940521926E+02  0.51100000000E-03 0.  1.
        -12    1    3    3    0    0 -0.12413398269E+02 -0.47155876896E+01  0.12857003798E+02  0.18483283542E+02  0.00000000000E+00 0.  1.
</event>
<event>
 7    1  0.4623443E-009  0.4614232E+02  0.7816164E-02  0.1320468E+00
        -11   -1    0    0    0    0  0.00000000000E+00  0.00000000000E+00  0.45593999997E+02  0.45594000000E+02  0.51100000000E-03 0. -1.
         11   -1    0    0    0    0 -0.00000000000E+00 -0.00000000000E+00 -0.45593999997E+02  0.45594000000E+02  0.51100000000E-03 0.  1.
    9900012    2    1    2    0    0  0.38060439496E+02  0.29866880405E+01  0.23908075739E+02  0.46142318235E+02  0.10000004326E+02 0.  0.
        -12    1    1    2    0    0 -0.38060439496E+02 -0.29866880405E+01 -0.23908075739E+02  0.45045681765E+02  0.00000000000E+00 0.  1.
         11    1    3    3    0    0  0.18107416715E+01 -0.55971157216E+00  0.22167338336E+01  0.29164998877E+01  0.51100000000E-03 0. -1.
        -11    1    3    3    0    0  0.77512432220E+01  0.39562529454E+01  0.69542826457E+01  0.11139827478E+02  0.51100000000E-03 0.  1.
        -12    1    3    3    0    0  0.28498454603E+02 -0.40985333279E+00  0.14737059260E+02  0.32085990870E+02  0.00000000000E+00 0.  1.
</event>
<event>
 7    1  0.4623443E-009  0.4614232E+02  0.7816164E-02  0.1320468E+00
        -11   -1    0    0    0    0  0.00000000000E+00  0.00000000000E+00  0.45593999997E+02  0.45594000000E+02  0.51100000000E-03 0. -1.
         11   -1    0    0    0    0 -0.00000000000E+00 -0.00000000000E+00 -0.45593999997E+02  0.45594000000E+02  0.51100000000E-03 0.  1.
    9900012    2    1    2    0    0 -0.35139454738E+02  0.13785361307E+02 -0.24582433245E+02  0.46142317744E+02  0.99999998478E+01 0.  0.
         12    1    1    2    0    0  0.35139454738E+02 -0.13785361307E+02  0.24582433245E+02  0.45045682256E+02  0.00000000000E+00 0. -1.
         11    1    3    3    0    0 -0.24246049430E+02  0.62539829303E+01 -0.17276236688E+02  0.30421235508E+02  0.51100000000E-03 0.  1.
        -11    1    3    3    0    0 -0.10155743154E+02  0.54414400009E+01 -0.70060468533E+01  0.13484549716E+02  0.51100000000E-03 0. -1.
        -12    1    3    3    0    0 -0.73766215410E+00  0.20899383761E+01 -0.30014970363E+00  0.22365325203E+01  0.00000000000E+00 0.  1.
</event>
<event>
 7    1  0.4623443E-009  0.4614232E+02  0.7816164E-02  0.1320468E+00
        -11   -1    0    0    0    0  0.00000000000E+00  0.00000000000E+00  0.45593999997E+02  0.45594000000E+02  0.51100000000E-03 0. -1.
         11   -1    0    0    0    0 -0.00000000000E+00 -0.00000000000E+00 -0.45593999997E+02  0.45594000000E+02  0.51100000000E-03 0.  1.
    9900012    2    1    2    0    0  0.26436658302E+02 -0.26005675840E+00 -0.36471209014E+02  0.46142316315E+02  0.99999868159E+01 0.  0.
         12    1    1    2    0    0 -0.26436658302E+02  0.26005675840E+00  0.36471209014E+02  0.45045683685E+02  0.00000000000E+00 0. -1.
         11    1    3    3    0    0  0.70431994207E+01 -0.12332486991E+01 -0.83997589227E+01  0.11031024914E+02  0.51100000000E-03 0. -1.
        -11    1    3    3    0    0  0.18532463591E+02  0.31033681985E+01 -0.24856660948E+02  0.31159857103E+02  0.51100000000E-03 0.  1.
         12    1    3    3    0    0  0.86099529011E+00 -0.21301762578E+01 -0.32147891435E+01  0.39514342986E+01  0.00000000000E+00 0. -1.
</event>
<event>
 7    1  0.4623443E-009  0.4614232E+02  0.7816164E-02  0.1320468E+00
        -11   -1    0    0    0    0  0.00000000000E+00  0.00000000000E+00  0.45593999997E+02  0.45594000000E+02  0.51100000000E-03 0. -1.
         11   -1    0    0    0    0 -0.00000000000E+00 -0.00000000000E+00 -0.45593999997E+02  0.45594000000E+02  0.51100000000E-03 0.  1.
    9900012    2    1    2    0    0 -0.33736542378E+02  0.46822878702E+01 -0.29479404160E+02  0.46142318954E+02  0.10000010874E+02 0.  0.
         12    1    1    2    0    0  0.33736542378E+02 -0.46822878702E+01  0.29479404160E+02  0.45045681046E+02  0.00000000000E+00 0. -1.
         11    1    3    3    0    0 -0.17806134315E+02  0.22011342680E+01 -0.16857501335E+02  0.24618666958E+02  0.51100000000E-03 0.  1.
        -11    1    3    3    0    0 -0.14166764235E+02  0.35405305693E+01 -0.84477050618E+01  0.16869981822E+02  0.51100000000E-03 0. -1.
         12    1    3    3    0    0 -0.17636438276E+01 -0.10593769672E+01 -0.41741977633E+01  0.46536701727E+01  0.00000000000E+00 0. -1.
</event>
<event>
 7    1  0.4623443E-009  0.4614232E+02  0.7816164E-02  0.1320468E+00
        -11   -1    0    0    0    0  0.00000000000E+00  0.00000000000E+00  0.45593999997E+02  0.45594000000E+02  0.51100000000E-03 0. -1.
         11   -1    0    0    0    0 -0.00000000000E+00 -0.00000000000E+00 -0.45593999997E+02  0.45594000000E+02  0.51100000000E-03 0.  1.
    9900012    2    1    2    0    0  0.25146929872E+02  0.36486562048E+02 -0.80917372950E+01  0.46142317582E+02  0.99999983697E+01 0.  0.
         12    1    1    2    0    0 -0.25146929872E+02 -0.36486562048E+02  0.80917372950E+01  0.45045682418E+02  0.00000000000E+00 0. -1.
         11    1    3    3    0    0  0.82766341607E+00  0.12484031668E+01  0.11089133864E+01  0.18636593994E+01  0.51100000000E-03 0. -1.
        -11    1    3    3    0    0  0.20593995849E+02  0.24892794277E+02 -0.72613286582E+01  0.33113301951E+02  0.51100000000E-03 0.  1.
         12    1    3    3    0    0  0.37252706066E+01  0.10345364604E+02 -0.19393220232E+01  0.11165356232E+02  0.00000000000E+00 0. -1.
</event>
<event>
 7    1  0.4623443E-009  0.4614232E+02  0.7816164E-02  0.1320468E+00
        -11   -1    0    0    0    0  0.00000000000E+00  0.00000000000E+00  0.45593999997E+02  0.45594000000E+02  0.51100000000E-03 0. -1.
         11   -1    0    0    0    0 -0.00000000000E+00 -0.00000000000E+00 -0.45593999997E+02  0.45594000000E+02  0.51100000000E-03 0.  1.
    9900012    2    1    2    0    0 -0.14007888106E+02 -0.17358323554E+02 -0.39135421295E+02  0.46142317346E+02  0.99999962184E+01 0.  0.
         12    1    1    2    0    0  0.14007888106E+02  0.17358323554E+02  0.39135421295E+02  0.45045682654E+02  0.00000000000E+00 0. -1.
         11    1    3    3    0    0 -0.23145537583E+01 -0.32785511459E+01 -0.14819916166E+02  0.15353695716E+02  0.51100000000E-03 0. -1.
        -11    1    3    3    0    0 -0.23329378249E+01 -0.21925676817E+01 -0.75755999096E+01  0.82243337837E+01  0.51100000000E-03 0.  1.
        -12    1    3    3    0    0 -0.93603965223E+01 -0.11887204726E+02 -0.16739905219E+02  0.22564287846E+02  0.00000000000E+00 0.  1.
</event>
<event>
 7    1  0.4623443E-009  0.4614231E+02  0.7816164E-02  0.1320468E+00
        -11   -1    0    0    0    0  0.00000000000E+00  0.00000000000E+00  0.45593999997E+02  0.45594000000E+02  0.51100000000E-03 0.  1.
         11   -1    0    0    0    0 -0.00000000000E+00 -0.00000000000E+00 -0.45593999997E+02  0.45594000000E+02  0.51100000000E-03 0. -1.
    9900012    2    1    2    0    0 -0.41366861877E+02  0.17164609199E+02  0.48241839503E+01  0.46142314065E+02  0.99999662990E+01 0.  0.
        -12    1    1    2    0    0  0.41366861877E+02 -0.17164609199E+02 -0.48241839503E+01  0.45045685935E+02  0.00000000000E+00 0.  1.
         11    1    3    3    0    0 -0.14658434858E+02  0.76849076040E+01  0.23396940189E+01  0.16715312912E+02  0.51100000000E-03 0. -1.
        -11    1    3    3    0    0 -0.24880944867E+02  0.79933232026E+01  0.18350129371E+00  0.26134044966E+02  0.51100000000E-03 0.  1.
        -12    1    3    3    0    0 -0.18274821520E+01  0.14863783929E+01  0.23009886378E+01  0.32929561876E+01  0.00000000000E+00 0.  1.
</event>
<event>
 7    1  0.4623443E-009  0.4614232E+02  0.7816164E-02  0.1320468E+00
        -11   -1    0    0    0    0  0.00000000000E+00  0.00000000000E+00  0.45593999997E+02  0.45594000000E+02  0.51100000000E-03 0. -1.
         11   -1    0    0    0    0 -0.00000000000E+00 -0.00000000000E+00 -0.45593999997E+02  0.45594000000E+02  0.51100000000E-03 0.  1.
    9900012    2    1    2    0    0 -0.78969610577E+01 -0.15648935500E+02  0.41495331714E+02  0.46142315076E+02  0.99999755160E+01 0.  0.
        -12    1    1    2    0    0  0.78969610577E+01  0.15648935500E+02 -0.41495331714E+02  0.45045684924E+02  0.00000000000E+00 0.  1.
         11    1    3    3    0    0 -0.50127903733E+01 -0.40752766479E+01  0.12585538367E+02  0.14146791980E+02  0.51100000000E-03 0. -1.
        -11    1    3    3    0    0  0.17731123584E+01 -0.30001596795E+01  0.11749590378E+02  0.12255519566E+02  0.51100000000E-03 0.  1.
        -12    1    3    3    0    0 -0.46572830429E+01 -0.85734991728E+01  0.17160202969E+02  0.19740003529E+02  0.00000000000E+00 0.  1.
</event>
<event>
 7    1  0.4623443E-009  0.4614232E+02  0.7816164E-02  0.1320468E+00
        -11   -1    0    0    0    0  0.00000000000E+00  0.00000000000E+00  0.45593999997E+02  0.45594000000E+02  0.51100000000E-03 0. -1.
         11   -1    0    0    0    0 -0.00000000000E+00 -0.00000000000E+00 -0.45593999997E+02  0.45594000000E+02  0.51100000000E-03 0.  1.
    9900012    2    1    2    0    0 -0.17237791291E+02 -0.42116377011E+01  0.41403303707E+02  0.46142324308E+02  0.10000059701E+02 0.  0.
        -12    1    1    2    0    0  0.17237791291E+02  0.42116377011E+01 -0.41403303707E+02  0.45045675692E+02  0.00000000000E+00 0.  1.
         11    1    3    3    0    0  0.14980559894E+00 -0.38141877241E+00  0.46681658903E+00  0.62116019378E+00  0.51100000000E-03 0. -1.
        -11    1    3    3    0    0 -0.30291697056E+01 -0.33073556317E+01  0.44962152398E+01  0.63506237586E+01  0.51100000000E-03 0.  1.
         12    1    3    3    0    0 -0.14358427184E+02 -0.52286329693E+00  0.36440271878E+02  0.39170540356E+02  0.00000000000E+00 0. -1.
</event>
<event>
 7    1  0.4623443E-009  0.4614232E+02  0.7816164E-02  0.1320468E+00
        -11   -1    0    0    0    0  0.00000000000E+00  0.00000000000E+00  0.45593999997E+02  0.45594000000E+02  0.51100000000E-03 0. -1.
         11   -1    0    0    0    0 -0.00000000000E+00 -0.00000000000E+00 -0.45593999997E+02  0.45594000000E+02  0.51100000000E-03 0.  1.
    9900012    2    1    2    0    0 -0.17927286561E+02 -0.29584280310E+02  0.28853010678E+02  0.46142317964E+02  0.10000001854E+02 0.  0.
        -12    1    1    2    0    0  0.17927286561E+02  0.29584280310E+02 -0.28853010678E+02  0.45045682036E+02  0.00000000000E+00 0.  1.
         11    1    3    3    0    0 -0.72447299940E+01 -0.15523472003E+02  0.12882090230E+02  0.21433911091E+02  0.51100000000E-03 0. -1.
        -11    1    3    3    0    0 -0.51166461856E+01 -0.88573902507E+01  0.50913228166E+01  0.11426066625E+02  0.51100000000E-03 0.  1.
        -12    1    3    3    0    0 -0.55659103810E+01 -0.52034180561E+01  0.10879597632E+02  0.13282340248E+02  0.00000000000E+00 0.  1.
</event>
<event>
 7    1  0.4623443E-009  0.4614232E+02  0.7816164E-02  0.1320468E+00
        -11   -1    0    0    0    0  0.00000000000E+00  0.00000000000E+00  0.45593999997E+02  0.45594000000E+02  0.51100000000E-03 0. -1.
         11   -1    0    0    0    0 -0.00000000000E+00 -0.00000000000E+00 -0.45593999997E+02  0.45594000000E+02  0.51100000000E-03 0.  1.
    9900012    2    1    2    0    0  0.19729540313E+02  0.10994368556E+02 -0.38974124227E+02  0.46142320294E+02  0.10000023099E+02 0.  0.
         12    1    1    2    0    0 -0.19729540313E+02 -0.10994368556E+02  0.38974124227E+02  0.45045679706E+02  0.00000000000E+00 0. -1.
         11    1    3    3    0    0  0.22861524741E+01  0.20679470147E+01 -0.24228819344E+01  0.39208742800E+01  0.51100000000E-03 0. -1.
        -11    1    3    3    0    0  0.22930194120E+01  0.48601778441E+01 -0.10927280862E+02  0.12177221933E+02  0.51100000000E-03 0.  1.
        -12    1    3    3    0    0  0.15150368427E+02  0.40662436972E+01 -0.25623961430E+02  0.30044224082E+02  0.00000000000E+00 0.  1.
</event>
<event>
 7    1  0.4623443E-009  0.4614232E+02  0.7816164E-02  0.1320468E+00
        -11   -1    0    0    0    0  0.00000000000E+00  0.00000000000E+00  0.45593999997E+02  0.45594000000E+02  0.51100000000E-03 0. -1.
         11   -1    0    0    0    0 -0.00000000000E+00 -0.00000000000E+00 -0.45593999997E+02  0.45594000000E+02  0.51100000000E-03 0.  1.
    9900012    2    1    2    0    0  0.16857721610E+02 -0.18118057773E+02 -0.37638636074E+02  0.46142315180E+02  0.99999764635E+01 0.  0.
         12    1    1    2    0    0 -0.16857721610E+02  0.18118057773E+02  0.37638636074E+02  0.45045684820E+02  0.00000000000E+00 0. -1.
         11    1    3    3    0    0  0.57129466047E+00 -0.19131320007E+00 -0.30671900162E+01  0.31258012071E+01  0.51100000000E-03 0. -1.
        -11    1    3    3    0    0  0.58214196806E+01 -0.12495121253E+02 -0.17736691877E+02  0.22463464141E+02  0.51100000000E-03 0.  1.
        -12    1    3    3    0    0  0.10465007269E+02 -0.54316233195E+01 -0.16834754181E+02  0.20553049832E+02  0.00000000000E+00 0.  1.
</event>
<event>
 7    1  0.4623443E-009  0.4614232E+02  0.7816164E-02  0.1320468E+00
        -11   -1    0    0    0    0  0.00000000000E+00  0.00000000000E+00  0.45593999997E+02  0.45594000000E+02  0.51100000000E-03 0. -1.
         11   -1    0    0    0    0 -0.00000000000E+00 -0.00000000000E+00 -0.45593999997E+02  0.45594000000E+02  0.51100000000E-03 0.  1.
    9900012    2    1    2    0    0  0.22417485815E+02 -0.21852688451E+02  0.32388728222E+02  0.46142318979E+02  0.10000011109E+02 0.  0.
        -12    1    1    2    0    0 -0.22417485815E+02  0.21852688451E+02 -0.32388728222E+02  0.45045681021E+02  0.00000000000E+00 0.  1.
         11    1    3    3    0    0  0.96740469482E+01 -0.11779405402E+02  0.18190769745E+02  0.23732797563E+02  0.51100000000E-03 0. -1.
        -11    1    3    3    0    0  0.12994242490E+02 -0.92900563504E+01  0.11757362186E+02  0.19834088099E+02  0.51100000000E-03 0.  1.
         12    1    3    3    0    0 -0.25080362358E+00 -0.78322669892E+00  0.24405962908E+01  0.25754333177E+01  0.00000000000E+00 0. -1.
</event>
<event>
 7    1  0.4623443E-009  0.4614232E+02  0.7816164E-02  0.1320468E+00
        -11   -1    0    0    0    0  0.00000000000E+00  0.00000000000E+00  0.45593999997E+02  0.45594000000E+02  0.51100000000E-03 0. -1.
         11   -1    0    0    0    0 -0.00000000000E+00 -0.00000000000E+00 -0.45593999997E+02  0.45594000000E+02  0.51100000000E-03 0.  1.
    9900012    2    1    2    0    0 -0.12244535799E+02 -0.32418395034E+02  0.28779028552E+02  0.46142317877E+02  0.10000001057E+02 0.  0.
        -12    1    1    2    0    0  0.12244535799E+02  0.32418395034E+02 -0.28779028552E+02  0.45045682123E+02  0.00000000000E+00 0.  1.
         11    1    3    3    0    0 -0.36093121835E+01 -0.52581446218E+01  0.65428666494E+01  0.91369756240E+01  0.51100000000E-03 0. -1.
        -11    1    3    3    0    0 -0.47012766990E+01 -0.45131434589E+01  0.60472801649E+01  0.88904479153E+01  0.51100000000E-03 0.  1.
         12    1    3    3    0    0 -0.39339469166E+01 -0.22647106953E+02  0.16188881738E+02  0.28114894338E+02  0.00000000000E+00 0. -1.
</event>
<event>
 7    1  0.4623443E-009  0.4614231E+02  0.7816164E-02  0.1320468E+00
        -11   -1    0    0    0    0  0.00000000000E+00  0.00000000000E+00  0.45593999997E+02  0.45594000000E+02  0.51100000000E-03 0. -1.
         11   -1    0    0    0    0 -0.00000000000E+00 -0.00000000000E+00 -0.45593999997E+02  0.45594000000E+02  0.51100000000E-03 0.  1.
    9900012    2    1    2    0    0 -0.17270909635E+02 -0.29421070865E+02 -0.29414792597E+02  0.46142314813E+02  0.99999731165E+01 0.  0.
         12    1    1    2    0    0  0.17270909635E+02  0.29421070865E+02  0.29414792597E+02  0.45045685187E+02  0.00000000000E+00 0. -1.
         11    1    3    3    0    0 -0.42764409854E+01 -0.42511244631E+01 -0.27618179557E+01  0.66323182511E+01  0.51100000000E-03 0. -1.
        -11    1    3    3    0    0 -0.92291245229E+00 -0.11178071105E+00 -0.25186176147E+01  0.26847154919E+01  0.51100000000E-03 0.  1.
        -12    1    3    3    0    0 -0.12071556197E+02 -0.25058165690E+02 -0.24134357027E+02  0.36825281070E+02  0.00000000000E+00 0.  1.
</event>
<event>
 7    1  0.4623443E-009  0.4614232E+02  0.7816164E-02  0.1320468E+00
        -11   -1    0    0    0    0  0.00000000000E+00  0.00000000000E+00  0.45593999997E+02  0.45594000000E+02  0.51100000000E-03 0. -1.
         11   -1    0    0    0    0 -0.00000000000E+00 -0.00000000000E+00 -0.45593999997E+02  0.45594000000E+02  0.51100000000E-03 0.  1.
    9900012    2    1    2    0    0 -0.60842222461E+01 -0.11575672728E+02 -0.43105678171E+02  0.46142318186E+02  0.10000003878E+02 0.  0.
         12    1    1    2    0    0  0.60842222461E+01  0.11575672728E+02  0.43105678171E+02  0.45045681814E+02  0.00000000000E+00 0. -1.
         11    1    3    3    0    0 -0.11888584311E+01 -0.40672908651E+01 -0.55617013158E+01  0.69920498524E+01  0.51100000000E-03 0. -1.
        -11    1    3    3    0    0 -0.51649330213E+00 -0.39370578556E+01 -0.25956527229E+02  0.26258493786E+02  0.51100000000E-03 0.  1.
        -12    1    3    3    0    0 -0.43788705129E+01 -0.35713240069E+01 -0.11587449627E+02  0.12891774548E+02  0.00000000000E+00 0.  1.
</event>
<event>
 7    1  0.4623443E-009  0.4614232E+02  0.7816164E-02  0.1320468E+00
        -11   -1    0    0    0    0  0.00000000000E+00  0.00000000000E+00  0.45593999997E+02  0.45594000000E+02  0.51100000000E-03 0. -1.
         11   -1    0    0    0    0 -0.00000000000E+00 -0.00000000000E+00 -0.45593999997E+02  0.45594000000E+02  0.51100000000E-03 0.  1.
    9900012    2    1    2    0    0 -0.24937684543E+02  0.83101134063E+01 -0.36580971137E+02  0.46142317138E+02  0.99999943186E+01 0.  0.
         12    1    1    2    0    0  0.24937684543E+02 -0.83101134063E+01  0.36580971137E+02  0.45045682862E+02  0.00000000000E+00 0. -1.
         11    1    3    3    0    0 -0.52856991588E+01  0.49770291324E+01 -0.65736841750E+01  0.97940164629E+01  0.51100000000E-03 0. -1.
        -11    1    3    3    0    0 -0.16374013486E+02  0.43879747880E+01 -0.26287451395E+02  0.31279270156E+02  0.51100000000E-03 0.  1.
         12    1    3    3    0    0 -0.32779718976E+01 -0.10548905141E+01 -0.37198355669E+01  0.50690305191E+01  0.00000000000E+00 0. -1.
</event>
<event>
 7    1  0.4623443E-009  0.4614232E+02  0.7816164E-02  0.1320468E+00
        -11   -1    0    0    0    0  0.00000000000E+00  0.00000000000E+00  0.45593999997E+02  0.45594000000E+02  0.51100000000E-03 0.  1.
         11   -1    0    0    0    0 -0.00000000000E+00 -0.00000000000E+00 -0.45593999997E+02  0.45594000000E+02  0.51100000000E-03 0. -1.
    9900012    2    1    2    0    0 -0.19228487514E+02  0.40673907794E+02 -0.22387489183E+01  0.46142317587E+02  0.99999984126E+01 0.  0.
         12    1    1    2    0    0  0.19228487514E+02 -0.40673907794E+02  0.22387489183E+01  0.45045682413E+02  0.00000000000E+00 0. -1.
         11    1    3    3    0    0 -0.10984228406E+02  0.16967631841E+02 -0.69264883736E+00  0.20224578280E+02  0.51100000000E-03 0. -1.
        -11    1    3    3    0    0 -0.77049679101E+01  0.14197756579E+02 -0.25010015305E+01  0.16346187056E+02  0.51100000000E-03 0.  1.
         12    1    3    3    0    0 -0.53929119800E+00  0.95085193752E+01  0.95490144958E+00  0.95715522504E+01  0.00000000000E+00 0. -1.
</event>
<event>
 7    1  0.4623443E-009  0.4614232E+02  0.7816164E-02  0.1320468E+00
        -11   -1    0    0    0    0  0.00000000000E+00  0.00000000000E+00  0.45593999997E+02  0.45594000000E+02  0.51100000000E-03 0. -1.
         11   -1    0    0    0    0 -0.00000000000E+00 -0.00000000000E+00 -0.45593999997E+02  0.45594000000E+02  0.51100000000E-03 0.  1.
    9900012    2    1    2    0    0 -0.22220956864E+02 -0.35966730577E+02 -0.15547889365E+02  0.46142317676E+02  0.99999992239E+01 0.  0.
         12    1    1    2    0    0  0.22220956864E+02  0.35966730577E+02  0.15547889365E+02  0.45045682324E+02  0.00000000000E+00 0. -1.
         11    1    3    3    0    0 -0.49656619112E+01 -0.81287338760E+01 -0.77913479864E+01  0.12306064210E+02  0.51100000000E-03 0. -1.
        -11    1    3    3    0    0 -0.63169281545E+01 -0.93824468847E+01 -0.10526788665E+01  0.11359666540E+02  0.51100000000E-03 0.  1.
        -12    1    3    3    0    0 -0.10938366799E+02 -0.18455549816E+02 -0.67038625123E+01  0.22476586925E+02  0.00000000000E+00 0.  1.
</event>
<event>
 7    1  0.4623443E-009  0.4614232E+02  0.7816164E-02  0.1320468E+00
        -11   -1    0    0    0    0  0.00000000000E+00  0.00000000000E+00  0.45593999997E+02  0.45594000000E+02  0.51100000000E-03 0. -1.
         11   -1    0    0    0    0 -0.00000000000E+00 -0.00000000000E+00 -0.45593999997E+02  0.45594000000E+02  0.51100000000E-03 0.  1.
    9900012    2    1    2    0    0 -0.55305608968E+01 -0.18642650384E+02  0.40632227683E+02  0.46142318257E+02  0.10000004523E+02 0.  0.
        -12    1    1    2    0    0  0.55305608968E+01  0.18642650384E+02 -0.40632227683E+02  0.45045681743E+02  0.00000000000E+00 0.  1.
         11    1    3    3    0    0 -0.25542115612E+01 -0.38215000011E+01  0.46559572996E+01  0.65426139726E+01  0.51100000000E-03 0.  1.
        -11    1    3    3    0    0  0.93500962797E+00 -0.11056729325E+02  0.25130447425E+02  0.27471164780E+02  0.51100000000E-03 0. -1.
         12    1    3    3    0    0 -0.39113589636E+01 -0.37644210584E+01  0.10845822959E+02  0.12128539504E+02  0.00000000000E+00 0. -1.
</event>
<event>
 7    1  0.4623443E-009  0.4614232E+02  0.7816164E-02  0.1320468E+00
        -11   -1    0    0    0    0  0.00000000000E+00  0.00000000000E+00  0.45593999997E+02  0.45594000000E+02  0.51100000000E-03 0. -1.
         11   -1    0    0    0    0 -0.00000000000E+00 -0.00000000000E+00 -0.45593999997E+02  0.45594000000E+02  0.51100000000E-03 0.  1.
    9900012    2    1    2    0    0 -0.15443222463E+02 -0.20581005165E+02  0.36973539091E+02  0.46142317782E+02  0.10000000187E+02 0.  0.
        -12    1    1    2    0    0  0.15443222463E+02  0.20581005165E+02 -0.36973539091E+02  0.45045682218E+02  0.00000000000E+00 0.  1.
         11    1    3    3    0    0 -0.44536514817E+01 -0.75012781487E+01  0.12531932809E+02  0.15269365591E+02  0.51100000000E-03 0. -1.
        -11    1    3    3    0    0 -0.47304494776E+01 -0.11395614169E+02  0.15039316521E+02  0.19452974483E+02  0.51100000000E-03 0.  1.
         12    1    3    3    0    0 -0.62591215041E+01 -0.16841128467E+01  0.94022897606E+01  0.11419977707E+02  0.00000000000E+00 0. -1.
</event>
<event>
 7    1  0.4623443E-009  0.4614232E+02  0.7816164E-02  0.1320468E+00
        -11   -1    0    0    0    0  0.00000000000E+00  0.00000000000E+00  0.45593999997E+02  0.45594000000E+02  0.51100000000E-03 0. -1.
         11   -1    0    0    0    0 -0.00000000000E+00 -0.00000000000E+00 -0.45593999997E+02  0.45594000000E+02  0.51100000000E-03 0.  1.
    9900012    2    1    2    0    0 -0.41119960608E+01 -0.36383150021E+02  0.26238738031E+02  0.46142317737E+02  0.99999997810E+01 0.  0.
        -12    1    1    2    0    0  0.41119960608E+01  0.36383150021E+02 -0.26238738031E+02  0.45045682263E+02  0.00000000000E+00 0.  1.
         11    1    3    3    0    0 -0.33732006070E+01 -0.12101554384E+02  0.10691295533E+02  0.16496360243E+02  0.51100000000E-03 0. -1.
        -11    1    3    3    0    0 -0.21190415752E+01 -0.24622870328E+01  0.10538856644E+01  0.34152408237E+01  0.51100000000E-03 0.  1.
        -12    1    3    3    0    0  0.13802461215E+01 -0.21819308605E+02  0.14493556834E+02  0.26230716671E+02  0.00000000000E+00 0.  1.
</event>
<event>
 7    1  0.4623443E-009  0.4614232E+02  0.7816164E-02  0.1320468E+00
        -11   -1    0    0    0    0  0.00000000000E+00  0.00000000000E+00  0.45593999997E+02  0.45594000000E+02  0.51100000000E-03 0.  1.
         11   -1    0    0    0    0 -0.00000000000E+00 -0.00000000000E+00 -0.45593999997E+02  0.45594000000E+02  0.51100000000E-03 0. -1.
    9900012    2    1    2    0    0 -0.23301055128E+02 -0.22937493211E+02 -0.30984604594E+02  0.46142317779E+02  0.10000000163E+02 0.  0.
         12    1    1    2    0    0  0.23301055128E+02  0.22937493211E+02  0.30984604594E+02  0.45045682221E+02  0.00000000000E+00 0. -1.
         11    1    3    3    0    0 -0.77849421596E+01 -0.70696020142E+01 -0.11153271815E+02  0.15329059642E+02  0.51100000000E-03 0. -1.
        -11    1    3    3    0    0 -0.13753364946E+02 -0.10658683671E+02 -0.11594198715E+02  0.20909041801E+02  0.51100000000E-03 0.  1.
         12    1    3    3    0    0 -0.17627480231E+01 -0.52092075252E+01 -0.82371340647E+01  0.99042163361E+01  0.00000000000E+00 0. -1.
</event>
<event>
 7    1  0.4623443E-009  0.4614232E+02  0.7816164E-02  0.1320468E+00
        -11   -1    0    0    0    0  0.00000000000E+00  0.00000000000E+00  0.45593999997E+02  0.45594000000E+02  0.51100000000E-03 0. -1.
         11   -1    0    0    0    0 -0.00000000000E+00 -0.00000000000E+00 -0.45593999997E+02  0.45594000000E+02  0.51100000000E-03 0.  1.
    9900012    2    1    2    0    0  0.37578109918E+02 -0.69462334103E+01 -0.23848462202E+02  0.46142315934E+02  0.99999833375E+01 0.  0.
         12    1    1    2    0    0 -0.37578109918E+02  0.69462334103E+01  0.23848462202E+02  0.45045684066E+02  0.00000000000E+00 0. -1.
         11    1    3    3    0    0  0.50229248669E+01 -0.53526869722E+00 -0.11811593494E+01  0.51876222363E+01  0.51100000000E-03 0. -1.
        -11    1    3    3    0    0  0.73343932395E+01  0.58345595930E+00 -0.20529633311E+01  0.76386126848E+01  0.51100000000E-03 0.  1.
         12    1    3    3    0    0  0.25220791811E+02 -0.69944206724E+01 -0.20614339522E+02  0.33316081013E+02  0.00000000000E+00 0. -1.
</event>
<event>
 7    1  0.4623443E-009  0.4614232E+02  0.7816164E-02  0.1320468E+00
        -11   -1    0    0    0    0  0.00000000000E+00  0.00000000000E+00  0.45593999997E+02  0.45594000000E+02  0.51100000000E-03 0. -1.
         11   -1    0    0    0    0 -0.00000000000E+00 -0.00000000000E+00 -0.45593999997E+02  0.45594000000E+02  0.51100000000E-03 0.  1.
    9900012    2    1    2    0    0 -0.27793884299E+02  0.16824484821E+01 -0.35408796048E+02  0.46142317911E+02  0.10000001364E+02 0.  0.
         12    1    1    2    0    0  0.27793884299E+02 -0.16824484821E+01  0.35408796048E+02  0.45045682089E+02  0.00000000000E+00 0. -1.
         11    1    3    3    0    0 -0.71161599892E+01  0.40691874365E+01 -0.90287457793E+01  0.12194928044E+02  0.51100000000E-03 0. -1.
        -11    1    3    3    0    0 -0.22597122824E+01 -0.49251149550E+00 -0.59080562951E+01  0.63446037401E+01  0.51100000000E-03 0.  1.
         12    1    3    3    0    0 -0.18418012027E+02 -0.18942274588E+01 -0.20471993974E+02  0.27602786127E+02  0.00000000000E+00 0. -1.
</event>
<event>
 7    1  0.4623443E-009  0.4614232E+02  0.7816164E-02  0.1320468E+00
        -11   -1    0    0    0    0  0.00000000000E+00  0.00000000000E+00  0.45593999997E+02  0.45594000000E+02  0.51100000000E-03 0. -1.
         11   -1    0    0    0    0 -0.00000000000E+00 -0.00000000000E+00 -0.45593999997E+02  0.45594000000E+02  0.51100000000E-03 0.  1.
    9900012    2    1    2    0    0 -0.10548794104E+02  0.35054790423E+02 -0.26248767487E+02  0.46142321148E+02  0.10000030885E+02 0.  0.
         12    1    1    2    0    0  0.10548794104E+02 -0.35054790423E+02  0.26248767487E+02  0.45045678852E+02  0.00000000000E+00 0. -1.
         11    1    3    3    0    0 -0.33754827084E+01  0.28351755569E+01 -0.37183437570E+01  0.57669909407E+01  0.51100000000E-03 0. -1.
        -11    1    3    3    0    0 -0.23985672420E-01 -0.22582901268E+00  0.94299672640E-02  0.22729549237E+00  0.51100000000E-03 0.  1.
        -12    1    3    3    0    0 -0.71493257231E+01  0.32445443879E+02 -0.22539853697E+02  0.40148034715E+02  0.00000000000E+00 0.  1.
</event>
<event>
 7    1  0.4623443E-009  0.4614232E+02  0.7816164E-02  0.1320468E+00
        -11   -1    0    0    0    0  0.00000000000E+00  0.00000000000E+00  0.45593999997E+02  0.45594000000E+02  0.51100000000E-03 0.  1.
         11   -1    0    0    0    0 -0.00000000000E+00 -0.00000000000E+00 -0.45593999997E+02  0.45594000000E+02  0.51100000000E-03 0. -1.
    9900012    2    1    2    0    0 -0.38379847963E+02 -0.20707021314E+02  0.11283615969E+02  0.46142318179E+02  0.10000003810E+02 0.  0.
        -12    1    1    2    0    0  0.38379847963E+02  0.20707021314E+02 -0.11283615969E+02  0.45045681821E+02  0.00000000000E+00 0.  1.
         11    1    3    3    0    0 -0.86732070054E+01 -0.30057180907E+01  0.37089586698E+01  0.99002644245E+01  0.51100000000E-03 0.  1.
        -11    1    3    3    0    0 -0.16796252091E+02 -0.54948685818E+01  0.39780483242E+01  0.18114428883E+02  0.51100000000E-03 0. -1.
         12    1    3    3    0    0 -0.12910388867E+02 -0.12206434641E+02  0.35966089751E+01  0.18127624871E+02  0.00000000000E+00 0. -1.
</event>
<event>
 7    1  0.4623443E-009  0.4614232E+02  0.7816164E-02  0.1320468E+00
        -11   -1    0    0    0    0  0.00000000000E+00  0.00000000000E+00  0.45593999997E+02  0.45594000000E+02  0.51100000000E-03 0. -1.
         11   -1    0    0    0    0 -0.00000000000E+00 -0.00000000000E+00 -0.45593999997E+02  0.45594000000E+02  0.51100000000E-03 0.  1.
    9900012    2    1    2    0    0 -0.39971099429E+02 -0.12447911566E+02  0.16627512717E+02  0.46142317954E+02  0.10000001755E+02 0.  0.
        -12    1    1    2    0    0  0.39971099429E+02  0.12447911566E+02 -0.16627512717E+02  0.45045682046E+02  0.00000000000E+00 0.  1.
         11    1    3    3    0    0 -0.15380147677E+02 -0.24299980616E+01  0.81794987328E+01  0.17588576773E+02  0.51100000000E-03 0. -1.
        -11    1    3    3    0    0 -0.10464983692E+01  0.50740506920E+00  0.13959854004E+01  0.18169739239E+01  0.51100000000E-03 0.  1.
         12    1    3    3    0    0 -0.23544453383E+02 -0.10525318573E+02  0.70520285836E+01  0.26736767256E+02  0.00000000000E+00 0. -1.
</event>
<event>
 7    1  0.4623443E-009  0.4614232E+02  0.7816164E-02  0.1320468E+00
        -11   -1    0    0    0    0  0.00000000000E+00  0.00000000000E+00  0.45593999997E+02  0.45594000000E+02  0.51100000000E-03 0. -1.
         11   -1    0    0    0    0 -0.00000000000E+00 -0.00000000000E+00 -0.45593999997E+02  0.45594000000E+02  0.51100000000E-03 0.  1.
    9900012    2    1    2    0    0 -0.32097645414E+02 -0.15982231088E+02 -0.27265782887E+02  0.46142317986E+02  0.10000002053E+02 0.  0.
         12    1    1    2    0    0  0.32097645414E+02  0.15982231088E+02  0.27265782887E+02  0.45045682014E+02  0.00000000000E+00 0. -1.
         11    1    3    3    0    0 -0.18734089722E+01 -0.32998771928E+00 -0.35002311554E+01  0.39837383793E+01  0.51100000000E-03 0. -1.
        -11    1    3    3    0    0 -0.15362443155E+02 -0.10998435191E+02 -0.10017549608E+02  0.21385077432E+02  0.51100000000E-03 0.  1.
        -12    1    3    3    0    0 -0.14861793287E+02 -0.46538081771E+01 -0.13748002123E+02  0.20773502175E+02  0.00000000000E+00 0.  1.
</event>
<event>
 7    1  0.4623443E-009  0.4614232E+02  0.7816164E-02  0.1320468E+00
        -11   -1    0    0    0    0  0.00000000000E+00  0.00000000000E+00  0.45593999997E+02  0.45594000000E+02  0.51100000000E-03 0. -1.
         11   -1    0    0    0    0 -0.00000000000E+00 -0.00000000000E+00 -0.45593999997E+02  0.45594000000E+02  0.51100000000E-03 0.  1.
    9900012    2    1    2    0    0 -0.58976287511E+01 -0.44653021161E+01 -0.44434136407E+02  0.46142318452E+02  0.10000006302E+02 0.  0.
         12    1    1    2    0    0  0.58976287511E+01  0.44653021161E+01  0.44434136407E+02  0.45045681548E+02  0.00000000000E+00 0. -1.
         11    1    3    3    0    0 -0.13978979211E+01 -0.57509355636E+01 -0.20308372802E+02  0.21153188520E+02  0.51100000000E-03 0. -1.
        -11    1    3    3    0    0 -0.44250546797E+01  0.17009774077E+00 -0.22923668074E+02  0.23347475247E+02  0.51100000000E-03 0.  1.
        -12    1    3    3    0    0 -0.74676150200E-01  0.11155357067E+01 -0.12020955310E+01  0.16416546854E+01  0.00000000000E+00 0.  1.
</event>
<event>
 7    1  0.4623443E-009  0.4614232E+02  0.7816164E-02  0.1320468E+00
        -11   -1    0    0    0    0  0.00000000000E+00  0.00000000000E+00  0.45593999997E+02  0.45594000000E+02  0.51100000000E-03 0. -1.
         11   -1    0    0    0    0 -0.00000000000E+00 -0.00000000000E+00 -0.45593999997E+02  0.45594000000E+02  0.51100000000E-03 0.  1.
    9900012    2    1    2    0    0  0.40808461308E+02  0.18811076462E+02  0.31505831531E+01  0.46142320005E+02  0.10000020464E+02 0.  0.
         12    1    1    2    0    0 -0.40808461308E+02 -0.18811076462E+02 -0.31505831531E+01  0.45045679995E+02  0.00000000000E+00 0. -1.
         11    1    3    3    0    0  0.18249456313E+02  0.77536055128E+01  0.27343908239E+00  0.19830174567E+02  0.51100000000E-03 0. -1.
        -11    1    3    3    0    0  0.96672571976E+01  0.87672877147E+01  0.18011299118E+01  0.13174417058E+02  0.51100000000E-03 0.  1.
        -12    1    3    3    0    0  0.12891747797E+02  0.22901832343E+01  0.10760141589E+01  0.13137728380E+02  0.00000000000E+00 0.  1.
</event>
<event>
 7    1  0.4623443E-009  0.4614232E+02  0.7816164E-02  0.1320468E+00
        -11   -1    0    0    0    0  0.00000000000E+00  0.00000000000E+00  0.45593999997E+02  0.45594000000E+02  0.51100000000E-03 0. -1.
         11   -1    0    0    0    0 -0.00000000000E+00 -0.00000000000E+00 -0.45593999997E+02  0.45594000000E+02  0.51100000000E-03 0.  1.
    9900012    2    1    2    0    0 -0.29450355633E+01  0.35948116315E+02 -0.26984684833E+02  0.46142317448E+02  0.99999971428E+01 0.  0.
         12    1    1    2    0    0  0.29450355633E+01 -0.35948116315E+02  0.26984684833E+02  0.45045682552E+02  0.00000000000E+00 0. -1.
         11    1    3    3    0    0 -0.36483948979E+01  0.13610844996E+02 -0.12114335908E+02  0.18582869035E+02  0.51100000000E-03 0. -1.
        -11    1    3    3    0    0 -0.19373536439E+01  0.96620445970E+01 -0.39313098902E+01  0.10609601437E+02  0.51100000000E-03 0.  1.
         12    1    3    3    0    0  0.26407129786E+01  0.12675226723E+02 -0.10939039035E+02  0.16949846976E+02  0.00000000000E+00 0. -1.
</event>
<event>
 7    1  0.4623443E-009  0.4614232E+02  0.7816164E-02  0.1320468E+00
        -11   -1    0    0    0    0  0.00000000000E+00  0.00000000000E+00  0.45593999997E+02  0.45594000000E+02  0.51100000000E-03 0. -1.
         11   -1    0    0    0    0 -0.00000000000E+00 -0.00000000000E+00 -0.45593999997E+02  0.45594000000E+02  0.51100000000E-03 0.  1.
    9900012    2    1    2    0    0 -0.84115617103E+00  0.37904956265E+02 -0.24323243546E+02  0.46142318412E+02  0.10000005932E+02 0.  0.
         12    1    1    2    0    0  0.84115617103E+00 -0.37904956265E+02  0.24323243546E+02  0.45045681588E+02  0.00000000000E+00 0. -1.
         11    1    3    3    0    0  0.61236662183E+00  0.33376453104E+01 -0.50666738212E+01  0.60980368127E+01  0.51100000000E-03 0. -1.
        -11    1    3    3    0    0 -0.28886575637E+01  0.24608518205E+02 -0.15887287904E+02  0.29433474616E+02  0.51100000000E-03 0.  1.
         12    1    3    3    0    0  0.14351347708E+01  0.99587927495E+01 -0.33692818206E+01  0.10610806983E+02  0.00000000000E+00 0. -1.
</event>
<event>
 7    1  0.4623443E-009  0.4614231E+02  0.7816164E-02  0.1320468E+00
        -11   -1    0    0    0    0  0.00000000000E+00  0.00000000000E+00  0.45593999997E+02  0.45594000000E+02  0.51100000000E-03 0. -1.
         11   -1    0    0    0    0 -0.00000000000E+00 -0.00000000000E+00 -0.45593999997E+02  0.45594000000E+02  0.51100000000E-03 0.  1.
    9900012    2    1    2    0    0 -0.27397484239E+02 -0.10270970317E+02  0.34249071726E+02  0.46142313326E+02  0.99999595545E+01 0.  0.
        -12    1    1    2    0    0  0.27397484239E+02  0.10270970317E+02 -0.34249071726E+02  0.45045686674E+02  0.00000000000E+00 0.  1.
         11    1    3    3    0    0 -0.58076610330E+01 -0.11533155891E+01  0.29175113273E+01  0.66008284425E+01  0.51100000000E-03 0.  1.
        -11    1    3    3    0    0 -0.15364925811E+02 -0.38491396074E+01  0.18710104395E+02  0.24514583978E+02  0.51100000000E-03 0. -1.
         12    1    3    3    0    0 -0.62248973947E+01 -0.52685151208E+01  0.12621456004E+02  0.15026900905E+02  0.00000000000E+00 0. -1.
</event>
<event>
 7    1  0.4623443E-009  0.4614232E+02  0.7816164E-02  0.1320468E+00
        -11   -1    0    0    0    0  0.00000000000E+00  0.00000000000E+00  0.45593999997E+02  0.45594000000E+02  0.51100000000E-03 0. -1.
         11   -1    0    0    0    0 -0.00000000000E+00 -0.00000000000E+00 -0.45593999997E+02  0.45594000000E+02  0.51100000000E-03 0.  1.
    9900012    2    1    2    0    0 -0.16590822427E+02 -0.22821731546E+02 -0.35114479777E+02  0.46142317526E+02  0.99999978538E+01 0.  0.
         12    1    1    2    0    0  0.16590822427E+02  0.22821731546E+02  0.35114479777E+02  0.45045682474E+02  0.00000000000E+00 0. -1.
         11    1    3    3    0    0 -0.84939763458E+01 -0.15789692111E+02 -0.17542647829E+02  0.25083989002E+02  0.51100000000E-03 0. -1.
        -11    1    3    3    0    0 -0.16938443691E+01 -0.43404131329E+01 -0.69707937820E+01  0.83845250983E+01  0.51100000000E-03 0.  1.
         12    1    3    3    0    0 -0.64030017122E+01 -0.26916263020E+01 -0.10601038166E+02  0.12673803426E+02  0.00000000000E+00 0. -1.
</event>
<event>
 7    1  0.4623443E-009  0.4614232E+02  0.7816164E-02  0.1320468E+00
        -11   -1    0    0    0    0  0.00000000000E+00  0.00000000000E+00  0.45593999997E+02  0.45594000000E+02  0.51100000000E-03 0. -1.
         11   -1    0    0    0    0 -0.00000000000E+00 -0.00000000000E+00 -0.45593999997E+02  0.45594000000E+02  0.51100000000E-03 0.  1.
    9900012    2    1    2    0    0 -0.17165780112E+01 -0.19918055265E+02  0.40366296541E+02  0.46142318053E+02  0.10000002662E+02 0.  0.
        -12    1    1    2    0    0  0.17165780112E+01  0.19918055265E+02 -0.40366296541E+02  0.45045681947E+02  0.00000000000E+00 0.  1.
         11    1    3    3    0    0 -0.12548237576E+01 -0.25788074655E+01  0.41245240422E+01  0.50235972612E+01  0.51100000000E-03 0. -1.
        -11    1    3    3    0    0  0.21284073157E+01 -0.64692196673E+01  0.67837281387E+01  0.96124860742E+01  0.51100000000E-03 0.  1.
         12    1    3    3    0    0 -0.25901615694E+01 -0.10870028132E+02  0.29458044360E+02  0.31506234718E+02  0.00000000000E+00 0. -1.
</event>
<event>
 7    1  0.4623443E-009  0.4614231E+02  0.7816164E-02  0.1320468E+00
        -11   -1    0    0    0    0  0.00000000000E+00  0.00000000000E+00  0.45593999997E+02  0.45594000000E+02  0.51100000000E-03 0. -1.
         11   -1    0    0    0    0 -0.00000000000E+00 -0.00000000000E+00 -0.45593999997E+02  0.45594000000E+02  0.51100000000E-03 0.  1.
    9900012    2    1    2    0    0  0.21897405583E+02 -0.15217119906E+02  0.36305049780E+02  0.46142314868E+02  0.99999736174E+01 0.  0.
        -12    1    1    2    0    0 -0.21897405583E+02  0.15217119906E+02 -0.36305049780E+02  0.45045685132E+02  0.00000000000E+00 0.  1.
         11    1    3    3    0    0  0.49935335771E+01  0.56588134543E+00  0.74303116584E+01  0.89702358321E+01  0.51100000000E-03 0. -1.
        -11    1    3    3    0    0  0.75391886184E+01 -0.66498707300E+01  0.97709128134E+01  0.14018947294E+02  0.51100000000E-03 0.  1.
         12    1    3    3    0    0  0.93646833871E+01 -0.91331305214E+01  0.19103825308E+02  0.23153131742E+02  0.00000000000E+00 0. -1.
</event>
<event>
 7    1  0.4623443E-009  0.4614232E+02  0.7816164E-02  0.1320468E+00
        -11   -1    0    0    0    0  0.00000000000E+00  0.00000000000E+00  0.45593999997E+02  0.45594000000E+02  0.51100000000E-03 0. -1.
         11   -1    0    0    0    0 -0.00000000000E+00 -0.00000000000E+00 -0.45593999997E+02  0.45594000000E+02  0.51100000000E-03 0.  1.
    9900012    2    1    2    0    0  0.37523716134E+02 -0.30244158896E+01 -0.24737361736E+02  0.46142318413E+02  0.10000005943E+02 0.  0.
         12    1    1    2    0    0 -0.37523716134E+02  0.30244158896E+01  0.24737361736E+02  0.45045681587E+02  0.00000000000E+00 0. -1.
         11    1    3    3    0    0  0.13785972892E+02 -0.48262797029E+01 -0.74120753125E+01  0.16379404295E+02  0.51100000000E-03 0. -1.
        -11    1    3    3    0    0  0.14057214004E+02  0.22535039350E+01 -0.80830595255E+01  0.16371297966E+02  0.51100000000E-03 0.  1.
         12    1    3    3    0    0  0.96805292381E+01 -0.45164012174E+00 -0.92422268977E+01  0.13391616152E+02  0.00000000000E+00 0. -1.
</event>
<event>
 7    1  0.4623443E-009  0.4614232E+02  0.7816164E-02  0.1320468E+00
        -11   -1    0    0    0    0  0.00000000000E+00  0.00000000000E+00  0.45593999997E+02  0.45594000000E+02  0.51100000000E-03 0. -1.
         11   -1    0    0    0    0 -0.00000000000E+00 -0.00000000000E+00 -0.45593999997E+02  0.45594000000E+02  0.51100000000E-03 0.  1.
    9900012    2    1    2    0    0  0.22676405109E+01  0.35153567258E+02 -0.28074868251E+02  0.46142315282E+02  0.99999773928E+01 0.  0.
         12    1    1    2    0    0 -0.22676405109E+01 -0.35153567258E+02  0.28074868251E+02  0.45045684718E+02  0.00000000000E+00 0. -1.
         11    1    3    3    0    0 -0.15865235725E+01  0.11405496124E+02 -0.71770480539E+01  0.13568803113E+02  0.51100000000E-03 0. -1.
        -11    1    3    3    0    0  0.26108127733E+01  0.23001441039E+02 -0.20798030677E+02  0.31119780101E+02  0.51100000000E-03 0.  1.
        -12    1    3    3    0    0  0.12433513101E+01  0.74663009402E+00 -0.99789519638E-01  0.14537320681E+01  0.00000000000E+00 0.  1.
</event>
<event>
 7    1  0.4910085E-009  0.4614232E+02  0.7816164E-02  0.1320468E+00
        -11   -1    0    0    0    0  0.00000000000E+00  0.00000000000E+00  0.45593999997E+02  0.45594000000E+02  0.51100000000E-03 0. -1.
         11   -1    0    0    0    0 -0.00000000000E+00 -0.00000000000E+00 -0.45593999997E+02  0.45594000000E+02  0.51100000000E-03 0.  1.
    9900012    2    1    2    0    0 -0.21456650248E+01 -0.40429962809E+01 -0.44812541411E+02  0.46142316910E+02  0.99999922363E+01 0.  0.
         12    1    1    2    0    0  0.21456650248E+01  0.40429962809E+01  0.44812541411E+02  0.45045683090E+02  0.00000000000E+00 0. -1.
         11    1    3    3    0    0 -0.12946089235E+01  0.15242678181E+01 -0.55306340353E+01  0.58810983446E+01  0.51100000000E-03 0. -1.
        -11    1    3    3    0    0 -0.10976785641E+01 -0.35063374121E+01 -0.36978517761E+02  0.37160598439E+02  0.51100000000E-03 0.  1.
         12    1    3    3    0    0  0.24662246277E+00 -0.20609266869E+01 -0.23033896153E+01  0.31006201263E+01  0.00000000000E+00 0. -1.
</event>
<event>
 7    1  0.7162117E-009  0.4614232E+02  0.7816164E-02  0.1320468E+00
        -11   -1    0    0    0    0  0.00000000000E+00  0.00000000000E+00  0.45593999997E+02  0.45594000000E+02  0.51100000000E-03 0. -1.
         11   -1    0    0    0    0 -0.00000000000E+00 -0.00000000000E+00 -0.45593999997E+02  0.45594000000E+02  0.51100000000E-03 0.  1.
    9900012    2    1    2    0    0 -0.53483337052E+00  0.45715097701E+01 -0.44809916813E+02  0.46142318819E+02  0.10000009643E+02 0.  0.
         12    1    1    2    0    0  0.53483337052E+00 -0.45715097701E+01  0.44809916813E+02  0.45045681181E+02  0.00000000000E+00 0. -1.
         11    1    3    3    0    0  0.16152141911E+01  0.52858309750E+01 -0.17706562209E+02  0.18549158242E+02  0.51100000000E-03 0. -1.
        -11    1    3    3    0    0  0.32141449992E+00  0.10804104913E+01 -0.17021668726E+02  0.17058950747E+02  0.51100000000E-03 0.  1.
         12    1    3    3    0    0 -0.24714620615E+01 -0.17947316963E+01 -0.10081685878E+02  0.10534209829E+02  0.00000000000E+00 0. -1.
</event>
<event>
 7    1  0.4623443E-009  0.4614232E+02  0.7816164E-02  0.1320468E+00
        -11   -1    0    0    0    0  0.00000000000E+00  0.00000000000E+00  0.45593999997E+02  0.45594000000E+02  0.51100000000E-03 0. -1.
         11   -1    0    0    0    0 -0.00000000000E+00 -0.00000000000E+00 -0.45593999997E+02  0.45594000000E+02  0.51100000000E-03 0.  1.
    9900012    2    1    2    0    0 -0.32564730139E+02 -0.35104746826E+01 -0.30924562131E+02  0.46142316250E+02  0.99999862196E+01 0.  0.
         12    1    1    2    0    0  0.32564730139E+02  0.35104746826E+01  0.30924562131E+02  0.45045683750E+02  0.00000000000E+00 0. -1.
         11    1    3    3    0    0 -0.10959772931E+02 -0.49742707283E+00 -0.66817032458E+01  0.12845591264E+02  0.51100000000E-03 0. -1.
        -11    1    3    3    0    0 -0.77533918139E+01  0.20823146104E+01 -0.76437064059E+01  0.11085006389E+02  0.51100000000E-03 0.  1.
        -12    1    3    3    0    0 -0.13851565394E+02 -0.50953622202E+01 -0.16599152479E+02  0.22211718598E+02  0.00000000000E+00 0.  1.
</event>
<event>
 7    1  0.4623443E-009  0.4614233E+02  0.7816164E-02  0.1320468E+00
        -11   -1    0    0    0    0  0.00000000000E+00  0.00000000000E+00  0.45593999997E+02  0.45594000000E+02  0.51100000000E-03 0. -1.
         11   -1    0    0    0    0 -0.00000000000E+00 -0.00000000000E+00 -0.45593999997E+02  0.45594000000E+02  0.51100000000E-03 0.  1.
    9900012    2    1    2    0    0  0.24239267971E+01  0.48423861922E+01  0.44718995534E+02  0.46142326659E+02  0.10000081139E+02 0.  0.
        -12    1    1    2    0    0 -0.24239267971E+01 -0.48423861922E+01 -0.44718995534E+02  0.45045673341E+02  0.00000000000E+00 0.  1.
         11    1    3    3    0    0  0.21803490812E+01 -0.20883402777E+01  0.82264906222E+01  0.87630037915E+01  0.51100000000E-03 0. -1.
        -11    1    3    3    0    0 -0.38876432646E-01  0.63067109579E+01  0.22420629538E+02  0.23290786668E+02  0.51100000000E-03 0.  1.
        -12    1    3    3    0    0  0.28245414854E+00  0.62401551201E+00  0.14071875374E+02  0.14088536199E+02  0.00000000000E+00 0.  1.
</event>
<event>
 7    1  0.4623443E-009  0.4614232E+02  0.7816164E-02  0.1320468E+00
        -11   -1    0    0    0    0  0.00000000000E+00  0.00000000000E+00  0.45593999997E+02  0.45594000000E+02  0.51100000000E-03 0. -1.
         11   -1    0    0    0    0 -0.00000000000E+00 -0.00000000000E+00 -0.45593999997E+02  0.45594000000E+02  0.51100000000E-03 0.  1.
    9900012    2    1    2    0    0  0.12450274454E+02 -0.15983503729E+02  0.40232223825E+02  0.46142316974E+02  0.99999928198E+01 0.  0.
        -12    1    1    2    0    0 -0.12450274454E+02  0.15983503729E+02 -0.40232223825E+02  0.45045683026E+02  0.00000000000E+00 0.  1.
         11    1    3    3    0    0  0.80599113954E+01 -0.10785349158E+02  0.19232571872E+02  0.23477175069E+02  0.51100000000E-03 0. -1.
        -11    1    3    3    0    0  0.41156658932E+01 -0.61351666511E+01  0.16785705900E+02  0.18339544662E+02  0.51100000000E-03 0.  1.
        -12    1    3    3    0    0  0.27469716553E+00  0.93701208008E+00  0.42139460528E+01  0.43255972428E+01  0.00000000000E+00 0.  1.
</event>
<event>
 7    1  0.4623443E-009  0.4614232E+02  0.7816164E-02  0.1320468E+00
        -11   -1    0    0    0    0  0.00000000000E+00  0.00000000000E+00  0.45593999997E+02  0.45594000000E+02  0.51100000000E-03 0. -1.
         11   -1    0    0    0    0 -0.00000000000E+00 -0.00000000000E+00 -0.45593999997E+02  0.45594000000E+02  0.51100000000E-03 0.  1.
    9900012    2    1    2    0    0  0.20389191181E+02  0.34512460645E+02  0.20549560181E+02  0.46142317850E+02  0.10000000808E+02 0.  0.
        -12    1    1    2    0    0 -0.20389191181E+02 -0.34512460645E+02 -0.20549560181E+02  0.45045682150E+02  0.00000000000E+00 0.  1.
         11    1    3    3    0    0  0.12548573737E+02  0.17445858861E+02  0.79461007894E+01  0.22912119331E+02  0.51100000000E-03 0. -1.
        -11    1    3    3    0    0  0.32093140107E+01  0.20958534515E+01  0.27789781852E+01  0.47344501396E+01  0.51100000000E-03 0.  1.
         12    1    3    3    0    0  0.46313034325E+01  0.14970748332E+02  0.98244812064E+01  0.18495748379E+02  0.00000000000E+00 0. -1.
</event>
<event>
 7    1  0.4623443E-009  0.4614232E+02  0.7816164E-02  0.1320468E+00
        -11   -1    0    0    0    0  0.00000000000E+00  0.00000000000E+00  0.45593999997E+02  0.45594000000E+02  0.51100000000E-03 0. -1.
         11   -1    0    0    0    0 -0.00000000000E+00 -0.00000000000E+00 -0.45593999997E+02  0.45594000000E+02  0.51100000000E-03 0.  1.
    9900012    2    1    2    0    0  0.10724357141E+02 -0.89242408257E+01  0.42830591600E+02  0.46142317774E+02  0.10000000120E+02 0.  0.
        -12    1    1    2    0    0 -0.10724357141E+02  0.89242408257E+01 -0.42830591600E+02  0.45045682226E+02  0.00000000000E+00 0.  1.
         11    1    3    3    0    0  0.33016940628E+01 -0.32295230796E+01  0.89544012598E+01  0.10075331518E+02  0.51100000000E-03 0. -1.
        -11    1    3    3    0    0 -0.11518251777E+01  0.64610175120E+00  0.75188774612E+01  0.76339810879E+01  0.51100000000E-03 0.  1.
        -12    1    3    3    0    0  0.85744882555E+01 -0.63408194973E+01  0.26357312879E+02  0.28433005169E+02  0.00000000000E+00 0.  1.
</event>
<event>
 7    1  0.4623443E-009  0.4614232E+02  0.7816164E-02  0.1320468E+00
        -11   -1    0    0    0    0  0.00000000000E+00  0.00000000000E+00  0.45593999997E+02  0.45594000000E+02  0.51100000000E-03 0.  1.
         11   -1    0    0    0    0 -0.00000000000E+00 -0.00000000000E+00 -0.45593999997E+02  0.45594000000E+02  0.51100000000E-03 0. -1.
    9900012    2    1    2    0    0  0.28030816057E+02 -0.34473349984E+02  0.74145269761E+01  0.46142315210E+02  0.99999767348E+01 0.  0.
        -12    1    1    2    0    0 -0.28030816057E+02  0.34473349984E+02 -0.74145269761E+01  0.45045684790E+02  0.00000000000E+00 0.  1.
         11    1    3    3    0    0  0.59044601185E+01 -0.67717867507E+01  0.60836063185E+00  0.90049901725E+01  0.51100000000E-03 0. -1.
        -11    1    3    3    0    0  0.97605336182E+01 -0.93625674137E+01  0.65255691596E+01  0.15016948365E+02  0.51100000000E-03 0.  1.
        -12    1    3    3    0    0  0.12365822320E+02 -0.18338995820E+02  0.28059718471E+00  0.22120376672E+02  0.00000000000E+00 0.  1.
</event>
<event>
 7    1  0.4623443E-009  0.4614232E+02  0.7816164E-02  0.1320468E+00
        -11   -1    0    0    0    0  0.00000000000E+00  0.00000000000E+00  0.45593999997E+02  0.45594000000E+02  0.51100000000E-03 0. -1.
         11   -1    0    0    0    0 -0.00000000000E+00 -0.00000000000E+00 -0.45593999997E+02  0.45594000000E+02  0.51100000000E-03 0.  1.
    9900012    2    1    2    0    0 -0.35534527649E+02  0.13447328130E+02 -0.24198764275E+02  0.46142317837E+02  0.10000000695E+02 0.  0.
         12    1    1    2    0    0  0.35534527649E+02 -0.13447328130E+02  0.24198764275E+02  0.45045682163E+02  0.00000000000E+00 0. -1.
         11    1    3    3    0    0 -0.65859980309E+01  0.46565188216E+01 -0.41119957151E+01  0.90535654093E+01  0.51100000000E-03 0. -1.
        -11    1    3    3    0    0  0.40791621046E+00 -0.21737612196E+00 -0.41028885867E+00  0.61804953023E+00  0.51100000000E-03 0.  1.
        -12    1    3    3    0    0 -0.29356445829E+02  0.90081854302E+01 -0.19676479701E+02  0.36470702898E+02  0.00000000000E+00 0.  1.
</event>
<event>
 7    1  0.4623443E-009  0.4614232E+02  0.7816164E-02  0.1320468E+00
        -11   -1    0    0    0    0  0.00000000000E+00  0.00000000000E+00  0.45593999997E+02  0.45594000000E+02  0.51100000000E-03 0. -1.
         11   -1    0    0    0    0 -0.00000000000E+00 -0.00000000000E+00 -0.45593999997E+02  0.45594000000E+02  0.51100000000E-03 0.  1.
    9900012    2    1    2    0    0 -0.38291033900E+02 -0.21158811166E+02 -0.10733821947E+02  0.46142317624E+02  0.99999987512E+01 0.  0.
         12    1    1    2    0    0  0.38291033900E+02  0.21158811166E+02  0.10733821947E+02  0.45045682376E+02  0.00000000000E+00 0. -1.
         11    1    3    3    0    0 -0.26640859461E+02 -0.10846505436E+02 -0.82158728616E+01  0.29914589085E+02  0.51100000000E-03 0. -1.
        -11    1    3    3    0    0 -0.74007564891E+01 -0.41011334293E+01 -0.19344738313E+01  0.86794401478E+01  0.51100000000E-03 0.  1.
         12    1    3    3    0    0 -0.42494179505E+01 -0.62111723007E+01 -0.58347525428E+00  0.75482883914E+01  0.00000000000E+00 0. -1.
</event>
<event>
 7    1  0.4623443E-009  0.4614232E+02  0.7816164E-02  0.1320468E+00
        -11   -1    0    0    0    0  0.00000000000E+00  0.00000000000E+00  0.45593999997E+02  0.45594000000E+02  0.51100000000E-03 0. -1.
         11   -1    0    0    0    0 -0.00000000000E+00 -0.00000000000E+00 -0.45593999997E+02  0.45594000000E+02  0.51100000000E-03 0.  1.
    9900012    2    1    2    0    0 -0.14977289855E+02  0.10454470194E+02  0.41176426843E+02  0.46142320007E+02  0.10000020483E+02 0.  0.
        -12    1    1    2    0    0  0.14977289855E+02 -0.10454470194E+02 -0.41176426843E+02  0.45045679993E+02  0.00000000000E+00 0.  1.
         11    1    3    3    0    0 -0.81529888290E+01  0.63644959488E+01  0.14659966599E+02  0.17941367185E+02  0.51100000000E-03 0. -1.
        -11    1    3    3    0    0 -0.25257122882E+01  0.84435184286E+00  0.27358779466E+01  0.38180074643E+01  0.51100000000E-03 0.  1.
         12    1    3    3    0    0 -0.42985887377E+01  0.32456224022E+01  0.23780582298E+02  0.24382945358E+02  0.00000000000E+00 0. -1.
</event>
<event>
 7    1  0.4623443E-009  0.4614232E+02  0.7816164E-02  0.1320468E+00
        -11   -1    0    0    0    0  0.00000000000E+00  0.00000000000E+00  0.45593999997E+02  0.45594000000E+02  0.51100000000E-03 0. -1.
         11   -1    0    0    0    0 -0.00000000000E+00 -0.00000000000E+00 -0.45593999997E+02  0.45594000000E+02  0.51100000000E-03 0.  1.
    9900012    2    1    2    0    0  0.74249459603E+01  0.35642928503E+02 -0.26524804740E+02  0.46142318284E+02  0.10000004764E+02 0.  0.
         12    1    1    2    0    0 -0.74249459603E+01 -0.35642928503E+02  0.26524804740E+02  0.45045681716E+02  0.00000000000E+00 0. -1.
         11    1    3    3    0    0  0.45138489836E+01  0.70289829271E+01 -0.82000931662E+01  0.11705680751E+02  0.51100000000E-03 0. -1.
        -11    1    3    3    0    0 -0.88666200344E+00  0.11135806689E+02 -0.56782396999E+01  0.12531351342E+02  0.51100000000E-03 0.  1.
        -12    1    3    3    0    0  0.37977589801E+01  0.17478138887E+02 -0.12646471874E+02  0.21905286191E+02  0.00000000000E+00 0.  1.
</event>
<event>
 7    1  0.4623443E-009  0.4614232E+02  0.7816164E-02  0.1320468E+00
        -11   -1    0    0    0    0  0.00000000000E+00  0.00000000000E+00  0.45593999997E+02  0.45594000000E+02  0.51100000000E-03 0. -1.
         11   -1    0    0    0    0 -0.00000000000E+00 -0.00000000000E+00 -0.45593999997E+02  0.45594000000E+02  0.51100000000E-03 0.  1.
    9900012    2    1    2    0    0 -0.18970119900E+02  0.18926997044E+02  0.36207967455E+02  0.46142316818E+02  0.99999913984E+01 0.  0.
        -12    1    1    2    0    0  0.18970119900E+02 -0.18926997044E+02 -0.36207967455E+02  0.45045683182E+02  0.00000000000E+00 0.  1.
         11    1    3    3    0    0 -0.90783640221E+01  0.59704840584E+01  0.19766302911E+02  0.22555932795E+02  0.51100000000E-03 0. -1.
        -11    1    3    3    0    0 -0.55751346529E+01  0.10430539324E+02  0.12589217321E+02  0.17273293548E+02  0.51100000000E-03 0.  1.
        -12    1    3    3    0    0 -0.43166212251E+01  0.25259736616E+01  0.38524472232E+01  0.63130904751E+01  0.00000000000E+00 0.  1.
</event>
<event>
 7    1  0.4623443E-009  0.4614232E+02  0.7816164E-02  0.1320468E+00
        -11   -1    0    0    0    0  0.00000000000E+00  0.00000000000E+00  0.45593999997E+02  0.45594000000E+02  0.51100000000E-03 0. -1.
         11   -1    0    0    0    0 -0.00000000000E+00 -0.00000000000E+00 -0.45593999997E+02  0.45594000000E+02  0.51100000000E-03 0.  1.
    9900012    2    1    2    0    0 -0.90865756255E+01 -0.17277288625E+02  0.40596095642E+02  0.46142317186E+02  0.99999947568E+01 0.  0.
        -12    1    1    2    0    0  0.90865756255E+01  0.17277288625E+02 -0.40596095642E+02  0.45045682814E+02  0.00000000000E+00 0.  1.
         11    1    3    3    0    0 -0.52264644404E+01 -0.90088859709E+01  0.18853306032E+02  0.21538874288E+02  0.51100000000E-03 0. -1.
        -11    1    3    3    0    0 -0.25789387835E+01  0.51250100278E+00  0.54353112625E+01  0.60378962651E+01  0.51100000000E-03 0.  1.
        -12    1    3    3    0    0 -0.12811724016E+01 -0.87809036569E+01  0.16307478347E+02  0.18565546633E+02  0.00000000000E+00 0.  1.
</event>
<event>
 7    1  0.4623443E-009  0.4614232E+02  0.7816164E-02  0.1320468E+00
        -11   -1    0    0    0    0  0.00000000000E+00  0.00000000000E+00  0.45593999997E+02  0.45594000000E+02  0.51100000000E-03 0. -1.
         11   -1    0    0    0    0 -0.00000000000E+00 -0.00000000000E+00 -0.45593999997E+02  0.45594000000E+02  0.51100000000E-03 0.  1.
    9900012    2    1    2    0    0  0.10526341580E+02  0.34985476072E+02  0.26350071960E+02  0.46142315464E+02  0.99999790511E+01 0.  0.
        -12    1    1    2    0    0 -0.10526341580E+02 -0.34985476072E+02 -0.26350071960E+02  0.45045684536E+02  0.00000000000E+00 0.  1.
         11    1    3    3    0    0  0.44298767080E+01  0.59342627508E+01  0.27124873815E+01  0.78864992297E+01  0.51100000000E-03 0. -1.
        -11    1    3    3    0    0 -0.47291259359E+00  0.21374428904E+01  0.29815579844E+01  0.36989183157E+01  0.51100000000E-03 0.  1.
        -12    1    3    3    0    0  0.65693774651E+01  0.26913770431E+02  0.20656026594E+02  0.34556897918E+02  0.00000000000E+00 0.  1.
</event>
<event>
 7    1  0.4623443E-009  0.4614232E+02  0.7816164E-02  0.1320468E+00
        -11   -1    0    0    0    0  0.00000000000E+00  0.00000000000E+00  0.45593999997E+02  0.45594000000E+02  0.51100000000E-03 0.  1.
         11   -1    0    0    0    0 -0.00000000000E+00 -0.00000000000E+00 -0.45593999997E+02  0.45594000000E+02  0.51100000000E-03 0. -1.
    9900012    2    1    2    0    0  0.15305636012E+02 -0.39694649540E+02 -0.14804926798E+02  0.46142317040E+02  0.99999934279E+01 0.  0.
         12    1    1    2    0    0 -0.15305636012E+02  0.39694649540E+02  0.14804926798E+02  0.45045682960E+02  0.00000000000E+00 0. -1.
         11    1    3    3    0    0  0.98185353337E+00 -0.60296999207E+01 -0.30668948133E+01  0.68357268488E+01  0.51100000000E-03 0. -1.
        -11    1    3    3    0    0  0.98179321628E+01 -0.30405191392E+02 -0.99158121536E+01  0.33454308937E+02  0.51100000000E-03 0.  1.
         12    1    3    3    0    0  0.45058503157E+01 -0.32597582265E+01 -0.18222198314E+01  0.58522812541E+01  0.00000000000E+00 0. -1.
</event>
<event>
 7    1  0.4623443E-009  0.4614232E+02  0.7816164E-02  0.1320468E+00
        -11   -1    0    0    0    0  0.00000000000E+00  0.00000000000E+00  0.45593999997E+02  0.45594000000E+02  0.51100000000E-03 0. -1.
         11   -1    0    0    0    0 -0.00000000000E+00 -0.00000000000E+00 -0.45593999997E+02  0.45594000000E+02  0.51100000000E-03 0.  1.
    9900012    2    1    2    0    0  0.35712807290E+02  0.69694232096E+01  0.26554397794E+02  0.46142317559E+02  0.99999981555E+01 0.  0.
        -12    1    1    2    0    0 -0.35712807290E+02 -0.69694232096E+01 -0.26554397794E+02  0.45045682441E+02  0.00000000000E+00 0.  1.
         11    1    3    3    0    0  0.22262181040E+02  0.23104114643E+01  0.20818666991E+02  0.30567296271E+02  0.51100000000E-03 0. -1.
        -11    1    3    3    0    0  0.57429085425E+01  0.73735601828E+00  0.17200442935E+01  0.60401361788E+01  0.51100000000E-03 0.  1.
         12    1    3    3    0    0  0.77077177075E+01  0.39216557271E+01  0.40156865097E+01  0.95348851091E+01  0.00000000000E+00 0. -1.
</event>
<event>
 7    1  0.4623443E-009  0.4614232E+02  0.7816164E-02  0.1320468E+00
        -11   -1    0    0    0    0  0.00000000000E+00  0.00000000000E+00  0.45593999997E+02  0.45594000000E+02  0.51100000000E-03 0. -1.
         11   -1    0    0    0    0 -0.00000000000E+00 -0.00000000000E+00 -0.45593999997E+02  0.45594000000E+02  0.51100000000E-03 0.  1.
    9900012    2    1    2    0    0 -0.36949095529E+02  0.24495951858E+02  0.79891289026E+01  0.46142317649E+02  0.99999989743E+01 0.  0.
        -12    1    1    2    0    0  0.36949095529E+02 -0.24495951858E+02 -0.79891289026E+01  0.45045682351E+02  0.00000000000E+00 0.  1.
         11    1    3    3    0    0 -0.58317380533E+01  0.36990868628E+01 -0.38871904073E+00  0.69169006856E+01  0.51100000000E-03 0.  1.
        -11    1    3    3    0    0 -0.70446298921E+00 -0.60238344856E+00  0.90415544313E+00  0.12948479636E+01  0.51100000000E-03 0. -1.
         12    1    3    3    0    0 -0.30412894487E+02  0.21399248444E+02  0.74736925002E+01  0.37930568999E+02  0.00000000000E+00 0. -1.
</event>
<event>
 7    1  0.4623443E-009  0.4614232E+02  0.7816164E-02  0.1320468E+00
        -11   -1    0    0    0    0  0.00000000000E+00  0.00000000000E+00  0.45593999997E+02  0.45594000000E+02  0.51100000000E-03 0. -1.
         11   -1    0    0    0    0 -0.00000000000E+00 -0.00000000000E+00 -0.45593999997E+02  0.45594000000E+02  0.51100000000E-03 0.  1.
    9900012    2    1    2    0    0 -0.13639378928E+02  0.98416796415E+01  0.41787824720E+02  0.46142316405E+02  0.99999876362E+01 0.  0.
        -12    1    1    2    0    0  0.13639378928E+02 -0.98416796415E+01 -0.41787824720E+02  0.45045683595E+02  0.00000000000E+00 0.  1.
         11    1    3    3    0    0 -0.17457210246E+01  0.38685691290E+01  0.13071058046E+02  0.13742850058E+02  0.51100000000E-03 0. -1.
        -11    1    3    3    0    0 -0.24796895022E+01  0.45336922154E+01  0.13418779175E+02  0.14379390110E+02  0.51100000000E-03 0.  1.
         12    1    3    3    0    0 -0.94139684012E+01  0.14394182971E+01  0.15297987498E+02  0.18020076237E+02  0.00000000000E+00 0. -1.
</event>
<event>
 7    1  0.4623443E-009  0.4614232E+02  0.7816164E-02  0.1320468E+00
        -11   -1    0    0    0    0  0.00000000000E+00  0.00000000000E+00  0.45593999997E+02  0.45594000000E+02  0.51100000000E-03 0. -1.
         11   -1    0    0    0    0 -0.00000000000E+00 -0.00000000000E+00 -0.45593999997E+02  0.45594000000E+02  0.51100000000E-03 0.  1.
    9900012    2    1    2    0    0  0.84585271811E+01  0.17071715622E+02 -0.40818172618E+02  0.46142319050E+02  0.10000011757E+02 0.  0.
         12    1    1    2    0    0 -0.84585271811E+01 -0.17071715622E+02  0.40818172618E+02  0.45045680950E+02  0.00000000000E+00 0. -1.
         11    1    3    3    0    0  0.99183574741E+00 -0.13890493811E+00 -0.28323335977E+00  0.10407949505E+01  0.51100000000E-03 0. -1.
        -11    1    3    3    0    0  0.45280708613E+01  0.11814901733E+02 -0.33223500399E+02  0.35551319352E+02  0.51100000000E-03 0.  1.
        -12    1    3    3    0    0  0.29386205724E+01  0.53957188270E+01 -0.73114388594E+01  0.95502047477E+01  0.00000000000E+00 0.  1.
</event>
<event>
 7    1  0.4623443E-009  0.4614231E+02  0.7816164E-02  0.1320468E+00
        -11   -1    0    0    0    0  0.00000000000E+00  0.00000000000E+00  0.45593999997E+02  0.45594000000E+02  0.51100000000E-03 0. -1.
         11   -1    0    0    0    0 -0.00000000000E+00 -0.00000000000E+00 -0.45593999997E+02  0.45594000000E+02  0.51100000000E-03 0.  1.
    9900012    2    1    2    0    0  0.24314407041E+02 -0.29678709068E+02  0.23602932682E+02  0.46142305501E+02  0.99998882027E+01 0.  0.
        -12    1    1    2    0    0 -0.24314407041E+02  0.29678709068E+02 -0.23602932682E+02  0.45045694499E+02  0.00000000000E+00 0.  1.
         11    1    3    3    0    0  0.14443112798E+02 -0.12009404242E+02  0.12078591495E+02  0.22332077160E+02  0.51100000000E-03 0. -1.
        -11    1    3    3    0    0  0.48342366062E+01 -0.70106271388E+01  0.22432615848E+01  0.88063022457E+01  0.51100000000E-03 0.  1.
         12    1    3    3    0    0  0.50370576370E+01 -0.10658677687E+02  0.92810796028E+01  0.15003926095E+02  0.00000000000E+00 0. -1.
</event>
<event>
 7    1  0.4623443E-009  0.4614232E+02  0.7816164E-02  0.1320468E+00
        -11   -1    0    0    0    0  0.00000000000E+00  0.00000000000E+00  0.45593999997E+02  0.45594000000E+02  0.51100000000E-03 0. -1.
         11   -1    0    0    0    0 -0.00000000000E+00 -0.00000000000E+00 -0.45593999997E+02  0.45594000000E+02  0.51100000000E-03 0.  1.
    9900012    2    1    2    0    0  0.39139022093E+02  0.13026743965E+02  0.18098462300E+02  0.46142318228E+02  0.10000004257E+02 0.  0.
        -12    1    1    2    0    0 -0.39139022093E+02 -0.13026743965E+02 -0.18098462300E+02  0.45045681772E+02  0.00000000000E+00 0.  1.
         11    1    3    3    0    0  0.24027957555E+02  0.52215429487E+01  0.10676780005E+02  0.26806732113E+02  0.51100000000E-03 0. -1.
        -11    1    3    3    0    0  0.56542204864E+01  0.15971360394E+00  0.29428673333E+01  0.63762203653E+01  0.51100000000E-03 0.  1.
        -12    1    3    3    0    0  0.94568440513E+01  0.76454874120E+01  0.44788149616E+01  0.12959365750E+02  0.00000000000E+00 0.  1.
</event>
<event>
 7    1  0.4623443E-009  0.4614232E+02  0.7816164E-02  0.1320468E+00
        -11   -1    0    0    0    0  0.00000000000E+00  0.00000000000E+00  0.45593999997E+02  0.45594000000E+02  0.51100000000E-03 0. -1.
         11   -1    0    0    0    0 -0.00000000000E+00 -0.00000000000E+00 -0.45593999997E+02  0.45594000000E+02  0.51100000000E-03 0.  1.
    9900012    2    1    2    0    0 -0.37633318666E+01 -0.60327013203E+01  0.44480976645E+02  0.46142318350E+02  0.10000005373E+02 0.  0.
        -12    1    1    2    0    0  0.37633318666E+01  0.60327013203E+01 -0.44480976645E+02  0.45045681650E+02  0.00000000000E+00 0.  1.
         11    1    3    3    0    0 -0.34506921975E+01 -0.12171806374E+01  0.32515279259E+02  0.32720516361E+02  0.51100000000E-03 0.  1.
        -11    1    3    3    0    0 -0.64370754006E+00 -0.45006539112E+01  0.12115915727E+02  0.12940852336E+02  0.51100000000E-03 0. -1.
        -12    1    3    3    0    0  0.33106787095E+00 -0.31486677166E+00 -0.15021834084E+00  0.48094965329E+00  0.00000000000E+00 0.  1.
</event>
<event>
 7    1  0.4623443E-009  0.4614232E+02  0.7816164E-02  0.1320468E+00
        -11   -1    0    0    0    0  0.00000000000E+00  0.00000000000E+00  0.45593999997E+02  0.45594000000E+02  0.51100000000E-03 0. -1.
         11   -1    0    0    0    0 -0.00000000000E+00 -0.00000000000E+00 -0.45593999997E+02  0.45594000000E+02  0.51100000000E-03 0.  1.
    9900012    2    1    2    0    0 -0.29017773484E+02  0.10922241596E+02  0.32677013203E+02  0.46142315065E+02  0.99999754107E+01 0.  0.
        -12    1    1    2    0    0  0.29017773484E+02 -0.10922241596E+02 -0.32677013203E+02  0.45045684935E+02  0.00000000000E+00 0.  1.
         11    1    3    3    0    0 -0.15327070372E+02  0.94273326596E+01  0.19202618273E+02  0.26316045221E+02  0.51100000000E-03 0. -1.
        -11    1    3    3    0    0 -0.48935127135E+01 -0.27985837510E+00  0.20864415405E+01  0.53271029604E+01  0.51100000000E-03 0.  1.
        -12    1    3    3    0    0 -0.87971903988E+01  0.17747673115E+01  0.11387953389E+02  0.14499166884E+02  0.00000000000E+00 0.  1.
</event>
<event>
 7    1  0.4623443E-009  0.4614232E+02  0.7816164E-02  0.1320468E+00
        -11   -1    0    0    0    0  0.00000000000E+00  0.00000000000E+00  0.45593999997E+02  0.45594000000E+02  0.51100000000E-03 0. -1.
         11   -1    0    0    0    0 -0.00000000000E+00 -0.00000000000E+00 -0.45593999997E+02  0.45594000000E+02  0.51100000000E-03 0.  1.
    9900012    2    1    2    0    0 -0.15057352777E+02  0.21072837752E+02  0.36855463546E+02  0.46142317002E+02  0.99999930799E+01 0.  0.
        -12    1    1    2    0    0  0.15057352777E+02 -0.21072837752E+02 -0.36855463546E+02  0.45045682998E+02  0.00000000000E+00 0.  1.
         11    1    3    3    0    0 -0.66912124439E+01  0.74999844153E+01  0.16850345953E+02  0.19620301965E+02  0.51100000000E-03 0. -1.
        -11    1    3    3    0    0 -0.19985991919E+01  0.92797526135E+01  0.13215636062E+02  0.16271485614E+02  0.51100000000E-03 0.  1.
         12    1    3    3    0    0 -0.63675411414E+01  0.42931007229E+01  0.67894815307E+01  0.10250529423E+02  0.00000000000E+00 0. -1.
</event>
<event>
 7    1  0.4623443E-009  0.4614232E+02  0.7816164E-02  0.1320468E+00
        -11   -1    0    0    0    0  0.00000000000E+00  0.00000000000E+00  0.45593999997E+02  0.45594000000E+02  0.51100000000E-03 0. -1.
         11   -1    0    0    0    0 -0.00000000000E+00 -0.00000000000E+00 -0.45593999997E+02  0.45594000000E+02  0.51100000000E-03 0.  1.
    9900012    2    1    2    0    0  0.78880129725E+01  0.37578261831E+01  0.44190173967E+02  0.46142317837E+02  0.10000000693E+02 0.  0.
        -12    1    1    2    0    0 -0.78880129725E+01 -0.37578261831E+01 -0.44190173967E+02  0.45045682163E+02  0.00000000000E+00 0.  1.
         11    1    3    3    0    0  0.56861937455E+01  0.28027279389E+01  0.19411970656E+02  0.20420888527E+02  0.51100000000E-03 0. -1.
        -11    1    3    3    0    0 -0.22161964810E+01 -0.30375632671E+00  0.99292028393E+01  0.10178057970E+02  0.51100000000E-03 0.  1.
        -12    1    3    3    0    0  0.44180157080E+01  0.12588545709E+01  0.14849000471E+02  0.15543371340E+02  0.00000000000E+00 0.  1.
</event>
<event>
 7    1  0.4623443E-009  0.4614232E+02  0.7816164E-02  0.1320468E+00
        -11   -1    0    0    0    0  0.00000000000E+00  0.00000000000E+00  0.45593999997E+02  0.45594000000E+02  0.51100000000E-03 0. -1.
         11   -1    0    0    0    0 -0.00000000000E+00 -0.00000000000E+00 -0.45593999997E+02  0.45594000000E+02  0.51100000000E-03 0.  1.
    9900012    2    1    2    0    0 -0.10473332998E+02  0.32167040572E+02 -0.29743980791E+02  0.46142316561E+02  0.99999890524E+01 0.  0.
         12    1    1    2    0    0  0.10473332998E+02 -0.32167040572E+02  0.29743980791E+02  0.45045683439E+02  0.00000000000E+00 0. -1.
         11    1    3    3    0    0 -0.20504744601E+01  0.87930418436E+01 -0.54376608816E+01  0.10539932946E+02  0.51100000000E-03 0. -1.
        -11    1    3    3    0    0 -0.88088832377E+01  0.23245626260E+02 -0.21800748032E+02  0.33064001257E+02  0.51100000000E-03 0.  1.
         12    1    3    3    0    0  0.38602469974E+00  0.12837246764E+00 -0.25055718777E+01  0.25383823576E+01  0.00000000000E+00 0. -1.
</event>
<event>
 7    1  0.4623443E-009  0.4614232E+02  0.7816164E-02  0.1320468E+00
        -11   -1    0    0    0    0  0.00000000000E+00  0.00000000000E+00  0.45593999997E+02  0.45594000000E+02  0.51100000000E-03 0. -1.
         11   -1    0    0    0    0 -0.00000000000E+00 -0.00000000000E+00 -0.45593999997E+02  0.45594000000E+02  0.51100000000E-03 0.  1.
    9900012    2    1    2    0    0 -0.10914623606E+02 -0.25802781464E+02 -0.35273234609E+02  0.46142316305E+02  0.99999867258E+01 0.  0.
         12    1    1    2    0    0  0.10914623606E+02  0.25802781464E+02  0.35273234609E+02  0.45045683695E+02  0.00000000000E+00 0. -1.
         11    1    3    3    0    0 -0.51059016195E+00 -0.17042565788E+01  0.24257052764E-01  0.17792643046E+01  0.51100000000E-03 0. -1.
        -11    1    3    3    0    0 -0.25632122563E+01 -0.12038207778E+02 -0.13738083096E+02  0.18445146542E+02  0.51100000000E-03 0.  1.
        -12    1    3    3    0    0 -0.78408211882E+01 -0.12060317108E+02 -0.21559408566E+02  0.25917905458E+02  0.00000000000E+00 0.  1.
</event>
<event>
 7    1  0.4623443E-009  0.4614232E+02  0.7816164E-02  0.1320468E+00
        -11   -1    0    0    0    0  0.00000000000E+00  0.00000000000E+00  0.45593999997E+02  0.45594000000E+02  0.51100000000E-03 0.  1.
         11   -1    0    0    0    0 -0.00000000000E+00 -0.00000000000E+00 -0.45593999997E+02  0.45594000000E+02  0.51100000000E-03 0. -1.
    9900012    2    1    2    0    0 -0.41930772564E+02 -0.10728406968E+02 -0.12482991807E+02  0.46142317761E+02  0.10000000003E+02 0.  0.
         12    1    1    2    0    0  0.41930772564E+02  0.10728406968E+02  0.12482991807E+02  0.45045682239E+02  0.00000000000E+00 0. -1.
         11    1    3    3    0    0 -0.75339564156E+01 -0.27214026941E+01 -0.16935206352E+01  0.81874626289E+01  0.51100000000E-03 0. -1.
        -11    1    3    3    0    0 -0.22037361987E+02 -0.64539952638E+01 -0.11076586022E+02  0.25494904126E+02  0.51100000000E-03 0.  1.
         12    1    3    3    0    0 -0.12359454161E+02 -0.15530090106E+01  0.28711485064E+00  0.12459951007E+02  0.00000000000E+00 0. -1.
</event>
<event>
 7    1  0.4684965E-009  0.4614231E+02  0.7816164E-02  0.1320468E+00
        -11   -1    0    0    0    0  0.00000000000E+00  0.00000000000E+00  0.45593999997E+02  0.45594000000E+02  0.51100000000E-03 0. -1.
         11   -1    0    0    0    0 -0.00000000000E+00 -0.00000000000E+00 -0.45593999997E+02  0.45594000000E+02  0.51100000000E-03 0.  1.
    9900012    2    1    2    0    0  0.22492212671E+02  0.31764593430E+01 -0.38898899221E+02  0.46142313354E+02  0.99999598152E+01 0.  0.
         12    1    1    2    0    0 -0.22492212671E+02 -0.31764593430E+01  0.38898899221E+02  0.45045686646E+02  0.00000000000E+00 0. -1.
         11    1    3    3    0    0  0.64633104631E+01 -0.20207631592E+01 -0.83232557172E+01  0.10730072315E+02  0.51100000000E-03 0. -1.
        -11    1    3    3    0    0  0.11616933754E+02  0.13298529809E+01 -0.23268413719E+02  0.26041135461E+02  0.51100000000E-03 0.  1.
         12    1    3    3    0    0  0.44119684533E+01  0.38673695213E+01 -0.73072297845E+01  0.93711055789E+01  0.00000000000E+00 0. -1.
</event>
<event>
 7    1  0.4623443E-009  0.4614232E+02  0.7816164E-02  0.1320468E+00
        -11   -1    0    0    0    0  0.00000000000E+00  0.00000000000E+00  0.45593999997E+02  0.45594000000E+02  0.51100000000E-03 0. -1.
         11   -1    0    0    0    0 -0.00000000000E+00 -0.00000000000E+00 -0.45593999997E+02  0.45594000000E+02  0.51100000000E-03 0.  1.
    9900012    2    1    2    0    0  0.38024648714E+02 -0.15858478503E+02 -0.18213960403E+02  0.46142316480E+02  0.99999883158E+01 0.  0.
         12    1    1    2    0    0 -0.38024648714E+02  0.15858478503E+02  0.18213960403E+02  0.45045683520E+02  0.00000000000E+00 0. -1.
         11    1    3    3    0    0  0.38331405987E+01 -0.41194454444E+01 -0.25208143954E+01  0.61658173097E+01  0.51100000000E-03 0. -1.
        -11    1    3    3    0    0  0.28279105648E+02 -0.77887201010E+01 -0.14658675238E+02  0.32790985606E+02  0.51100000000E-03 0.  1.
        -12    1    3    3    0    0  0.59124024676E+01 -0.39503129577E+01 -0.10344707693E+01  0.71855135638E+01  0.00000000000E+00 0.  1.
</event>
<event>
 7    1  0.4623443E-009  0.4614232E+02  0.7816164E-02  0.1320468E+00
        -11   -1    0    0    0    0  0.00000000000E+00  0.00000000000E+00  0.45593999997E+02  0.45594000000E+02  0.51100000000E-03 0. -1.
         11   -1    0    0    0    0 -0.00000000000E+00 -0.00000000000E+00 -0.45593999997E+02  0.45594000000E+02  0.51100000000E-03 0.  1.
    9900012    2    1    2    0    0 -0.17586363965E+02 -0.37935695754E+02  0.16754590513E+02  0.46142317486E+02  0.99999974948E+01 0.  0.
        -12    1    1    2    0    0  0.17586363965E+02  0.37935695754E+02 -0.16754590513E+02  0.45045682514E+02  0.00000000000E+00 0.  1.
         11    1    3    3    0    0 -0.32446977612E+01 -0.15568621346E+02  0.75729988338E+01  0.17614208634E+02  0.51100000000E-03 0. -1.
        -11    1    3    3    0    0 -0.12029764717E+02 -0.21287779688E+02  0.85035324116E+01  0.25888122121E+02  0.51100000000E-03 0.  1.
        -12    1    3    3    0    0 -0.23119014864E+01 -0.10792947196E+01  0.67805926715E+00  0.26399867319E+01  0.00000000000E+00 0.  1.
</event>
<event>
 7    1  0.4623443E-009  0.4614232E+02  0.7816164E-02  0.1320468E+00
        -11   -1    0    0    0    0  0.00000000000E+00  0.00000000000E+00  0.45593999997E+02  0.45594000000E+02  0.51100000000E-03 0.  1.
         11   -1    0    0    0    0 -0.00000000000E+00 -0.00000000000E+00 -0.45593999997E+02  0.45594000000E+02  0.51100000000E-03 0. -1.
    9900012    2    1    2    0    0  0.18788405715E+02  0.40144773256E+02  0.80315886268E+01  0.46142318465E+02  0.10000006419E+02 0.  0.
        -12    1    1    2    0    0 -0.18788405715E+02 -0.40144773256E+02 -0.80315886268E+01  0.45045681535E+02  0.00000000000E+00 0.  1.
         11    1    3    3    0    0  0.57658862843E+01  0.93862571492E+01  0.38357495942E+01  0.11664486406E+02  0.51100000000E-03 0. -1.
        -11    1    3    3    0    0  0.12412591861E+02  0.20764359414E+02  0.24683134733E+01  0.24317146836E+02  0.51100000000E-03 0.  1.
        -12    1    3    3    0    0  0.60992756979E+00  0.99941566924E+01  0.17275255593E+01  0.10160685223E+02  0.00000000000E+00 0.  1.
</event>
<event>
 7    1  0.4623443E-009  0.4614232E+02  0.7816164E-02  0.1320468E+00
        -11   -1    0    0    0    0  0.00000000000E+00  0.00000000000E+00  0.45593999997E+02  0.45594000000E+02  0.51100000000E-03 0. -1.
         11   -1    0    0    0    0 -0.00000000000E+00 -0.00000000000E+00 -0.45593999997E+02  0.45594000000E+02  0.51100000000E-03 0.  1.
    9900012    2    1    2    0    0  0.13067929103E+02 -0.13471478764E+02 -0.40949505373E+02  0.46142317616E+02  0.99999986739E+01 0.  0.
         12    1    1    2    0    0 -0.13067929103E+02  0.13471478764E+02  0.40949505373E+02  0.45045682384E+02  0.00000000000E+00 0. -1.
         11    1    3    3    0    0  0.59645438260E+01 -0.33352166309E+01 -0.92698165062E+01  0.11516464360E+02  0.51100000000E-03 0. -1.
        -11    1    3    3    0    0  0.49137917827E+01 -0.18333738510E+01 -0.96744510636E+01  0.11004617804E+02  0.51100000000E-03 0.  1.
         12    1    3    3    0    0  0.21895934942E+01 -0.83028882824E+01 -0.22005237804E+02  0.23621235452E+02  0.00000000000E+00 0. -1.
</event>
<event>
 7    1  0.4623443E-009  0.4614231E+02  0.7816164E-02  0.1320468E+00
        -11   -1    0    0    0    0  0.00000000000E+00  0.00000000000E+00  0.45593999997E+02  0.45594000000E+02  0.51100000000E-03 0.  1.
         11   -1    0    0    0    0 -0.00000000000E+00 -0.00000000000E+00 -0.45593999997E+02  0.45594000000E+02  0.51100000000E-03 0. -1.
    9900012    2    1    2    0    0 -0.15828628921E+02 -0.17613623417E+02  0.38318778003E+02  0.46142312404E+02  0.99999511510E+01 0.  0.
        -12    1    1    2    0    0  0.15828628921E+02  0.17613623417E+02 -0.38318778003E+02  0.45045687596E+02  0.00000000000E+00 0.  1.
         11    1    3    3    0    0 -0.54254510433E+01 -0.65517078306E+01  0.89117078672E+01  0.12319859248E+02  0.51100000000E-03 0. -1.
        -11    1    3    3    0    0 -0.57894169229E+01 -0.13923026906E+01  0.93994879281E+01  0.11126824734E+02  0.51100000000E-03 0.  1.
         12    1    3    3    0    0 -0.46137609544E+01 -0.96696128955E+01  0.20007582207E+02  0.22695628422E+02  0.00000000000E+00 0. -1.
</event>
<event>
 7    1  0.5957826E-009  0.4614232E+02  0.7816164E-02  0.1320468E+00
        -11   -1    0    0    0    0  0.00000000000E+00  0.00000000000E+00  0.45593999997E+02  0.45594000000E+02  0.51100000000E-03 0. -1.
         11   -1    0    0    0    0 -0.00000000000E+00 -0.00000000000E+00 -0.45593999997E+02  0.45594000000E+02  0.51100000000E-03 0.  1.
    9900012    2    1    2    0    0  0.31842236579E+02 -0.82693621066E+00 -0.31851243458E+02  0.46142316925E+02  0.99999923757E+01 0.  0.
         12    1    1    2    0    0 -0.31842236579E+02  0.82693621066E+00  0.31851243458E+02  0.45045683075E+02  0.00000000000E+00 0. -1.
         11    1    3    3    0    0  0.10423699147E+02  0.12824493604E+01 -0.94005842037E+01  0.14095004927E+02  0.51100000000E-03 0. -1.
        -11    1    3    3    0    0  0.15797249483E+02  0.18984785753E+01 -0.16651974584E+02  0.23031403994E+02  0.51100000000E-03 0.  1.
         12    1    3    3    0    0  0.56212879492E+01 -0.40078641463E+01 -0.57986846705E+01  0.90159080037E+01  0.00000000000E+00 0. -1.
</event>
<event>
 7    1  0.4623443E-009  0.4614231E+02  0.7816164E-02  0.1320468E+00
        -11   -1    0    0    0    0  0.00000000000E+00  0.00000000000E+00  0.45593999997E+02  0.45594000000E+02  0.51100000000E-03 0. -1.
         11   -1    0    0    0    0 -0.00000000000E+00 -0.00000000000E+00 -0.45593999997E+02  0.45594000000E+02  0.51100000000E-03 0.  1.
    9900012    2    1    2    0    0  0.14639014784E+02 -0.18747379399E+02 -0.38253747709E+02  0.46142309840E+02  0.99999277701E+01 0.  0.
         12    1    1    2    0    0 -0.14639014784E+02  0.18747379399E+02  0.38253747709E+02  0.45045690160E+02  0.00000000000E+00 0. -1.
         11    1    3    3    0    0  0.19566395960E+01  0.55740205330E-01 -0.54292364027E+01  0.57713216560E+01  0.51100000000E-03 0. -1.
        -11    1    3    3    0    0  0.96529430141E+00 -0.32490404996E+00 -0.12457144890E+00  0.10260965047E+01  0.51100000000E-03 0.  1.
        -12    1    3    3    0    0  0.11717080886E+02 -0.18478215554E+02 -0.32699939858E+02  0.39344891679E+02  0.00000000000E+00 0.  1.
</event>
<event>
 7    1  0.4623443E-009  0.4614232E+02  0.7816164E-02  0.1320468E+00
        -11   -1    0    0    0    0  0.00000000000E+00  0.00000000000E+00  0.45593999997E+02  0.45594000000E+02  0.51100000000E-03 0. -1.
         11   -1    0    0    0    0 -0.00000000000E+00 -0.00000000000E+00 -0.45593999997E+02  0.45594000000E+02  0.51100000000E-03 0.  1.
    9900012    2    1    2    0    0 -0.10566602832E+02 -0.37350573869E+02 -0.22855962093E+02  0.46142317999E+02  0.10000002168E+02 0.  0.
         12    1    1    2    0    0  0.10566602832E+02  0.37350573869E+02  0.22855962093E+02  0.45045682001E+02  0.00000000000E+00 0. -1.
         11    1    3    3    0    0  0.16191731792E+01 -0.45524113581E+01 -0.26874471059E+01  0.55288826327E+01  0.51100000000E-03 0. -1.
        -11    1    3    3    0    0 -0.50838118177E+01 -0.18040046152E+02 -0.90132567638E+01  0.20797288418E+02  0.51100000000E-03 0.  1.
         12    1    3    3    0    0 -0.71019641935E+01 -0.14758116358E+02 -0.11155258223E+02  0.19816146948E+02  0.00000000000E+00 0. -1.
</event>
<event>
 7    1  0.4623443E-009  0.4614232E+02  0.7816164E-02  0.1320468E+00
        -11   -1    0    0    0    0  0.00000000000E+00  0.00000000000E+00  0.45593999997E+02  0.45594000000E+02  0.51100000000E-03 0. -1.
         11   -1    0    0    0    0 -0.00000000000E+00 -0.00000000000E+00 -0.45593999997E+02  0.45594000000E+02  0.51100000000E-03 0.  1.
    9900012    2    1    2    0    0  0.41586184200E+02 -0.10251173984E+01 -0.17281550450E+02  0.46142316877E+02  0.99999919397E+01 0.  0.
         12    1    1    2    0    0 -0.41586184200E+02  0.10251173984E+01  0.17281550450E+02  0.45045683123E+02  0.00000000000E+00 0. -1.
         11    1    3    3    0    0  0.12317509531E+02  0.17405056464E+01 -0.25523466031E+01  0.12699010765E+02  0.51100000000E-03 0. -1.
        -11    1    3    3    0    0  0.95176407374E+01 -0.33086695288E+01 -0.32258500160E+01  0.10580117572E+02  0.51100000000E-03 0.  1.
        -12    1    3    3    0    0  0.19751033932E+02  0.54304648394E+00 -0.11503353831E+02  0.22863188540E+02  0.00000000000E+00 0.  1.
</event>
<event>
 7    1  0.4623443E-009  0.4614232E+02  0.7816164E-02  0.1320468E+00
        -11   -1    0    0    0    0  0.00000000000E+00  0.00000000000E+00  0.45593999997E+02  0.45594000000E+02  0.51100000000E-03 0. -1.
         11   -1    0    0    0    0 -0.00000000000E+00 -0.00000000000E+00 -0.45593999997E+02  0.45594000000E+02  0.51100000000E-03 0.  1.
    9900012    2    1    2    0    0 -0.78131408943E+00 -0.19340262336E+02 -0.40675020658E+02  0.46142317582E+02  0.99999983701E+01 0.  0.
         12    1    1    2    0    0  0.78131408943E+00  0.19340262336E+02  0.40675020658E+02  0.45045682418E+02  0.00000000000E+00 0. -1.
         11    1    3    3    0    0  0.17532297986E+01 -0.63749583321E+01 -0.13078850311E+02  0.14655041255E+02  0.51100000000E-03 0. -1.
        -11    1    3    3    0    0 -0.47322316878E+01 -0.11159681846E+02 -0.24129762427E+02  0.27003295182E+02  0.51100000000E-03 0.  1.
         12    1    3    3    0    0  0.21976877998E+01 -0.18056221583E+01 -0.34664079198E+01  0.44839811452E+01  0.00000000000E+00 0. -1.
</event>
<event>
 7    1  0.4623443E-009  0.4614232E+02  0.7816164E-02  0.1320468E+00
        -11   -1    0    0    0    0  0.00000000000E+00  0.00000000000E+00  0.45593999997E+02  0.45594000000E+02  0.51100000000E-03 0. -1.
         11   -1    0    0    0    0 -0.00000000000E+00 -0.00000000000E+00 -0.45593999997E+02  0.45594000000E+02  0.51100000000E-03 0.  1.
    9900012    2    1    2    0    0  0.24219630804E+02  0.26931193756E+02 -0.26781221291E+02  0.46142317330E+02  0.99999960714E+01 0.  0.
         12    1    1    2    0    0 -0.24219630804E+02 -0.26931193756E+02  0.26781221291E+02  0.45045682670E+02  0.00000000000E+00 0. -1.
         11    1    3    3    0    0  0.20329635127E+00  0.24057953877E+01 -0.23480850501E+01  0.33678902176E+01  0.51100000000E-03 0. -1.
        -11    1    3    3    0    0  0.77465344302E+01  0.13131099340E+02 -0.10744254120E+02  0.18651368915E+02  0.51100000000E-03 0.  1.
         12    1    3    3    0    0  0.16269800022E+02  0.11394299029E+02 -0.13688882120E+02  0.24123058198E+02  0.00000000000E+00 0. -1.
</event>
<event>
 7    1  0.4623443E-009  0.4614232E+02  0.7816164E-02  0.1320468E+00
        -11   -1    0    0    0    0  0.00000000000E+00  0.00000000000E+00  0.45593999997E+02  0.45594000000E+02  0.51100000000E-03 0.  1.
         11   -1    0    0    0    0 -0.00000000000E+00 -0.00000000000E+00 -0.45593999997E+02  0.45594000000E+02  0.51100000000E-03 0. -1.
    9900012    2    1    2    0    0  0.35050325179E+02  0.16362958686E+02 -0.23083367661E+02  0.46142316803E+02  0.99999912602E+01 0.  0.
         12    1    1    2    0    0 -0.35050325179E+02 -0.16362958686E+02  0.23083367661E+02  0.45045683197E+02  0.00000000000E+00 0. -1.
         11    1    3    3    0    0  0.11301609265E+02  0.68989383361E+01 -0.46937632806E+01  0.14048243169E+02  0.51100000000E-03 0. -1.
        -11    1    3    3    0    0  0.50746823708E+01  0.41641171148E+01 -0.25583675776E+01  0.70453898000E+01  0.51100000000E-03 0.  1.
        -12    1    3    3    0    0  0.18674033543E+02  0.52999032352E+01 -0.15831236803E+02  0.25048683833E+02  0.00000000000E+00 0.  1.
</event>
<event>
 7    1  0.4623443E-009  0.4614232E+02  0.7816164E-02  0.1320468E+00
        -11   -1    0    0    0    0  0.00000000000E+00  0.00000000000E+00  0.45593999997E+02  0.45594000000E+02  0.51100000000E-03 0. -1.
         11   -1    0    0    0    0 -0.00000000000E+00 -0.00000000000E+00 -0.45593999997E+02  0.45594000000E+02  0.51100000000E-03 0.  1.
    9900012    2    1    2    0    0  0.37828462794E+02 -0.17149155900E+01  0.24396311753E+02  0.46142316967E+02  0.99999927545E+01 0.  0.
        -12    1    1    2    0    0 -0.37828462794E+02  0.17149155900E+01 -0.24396311753E+02  0.45045683033E+02  0.00000000000E+00 0.  1.
         11    1    3    3    0    0  0.23221107623E+01 -0.96181811256E+00  0.17407405749E+01  0.30573633223E+01  0.51100000000E-03 0. -1.
        -11    1    3    3    0    0  0.19177445227E+02 -0.41132340850E+01  0.92141481137E+01  0.21670109040E+02  0.51100000000E-03 0.  1.
         12    1    3    3    0    0  0.16328906804E+02  0.33601366076E+01  0.13441423064E+02  0.21414844605E+02  0.00000000000E+00 0. -1.
</event>
<event>
 7    1  0.4623443E-009  0.4614232E+02  0.7816164E-02  0.1320468E+00
        -11   -1    0    0    0    0  0.00000000000E+00  0.00000000000E+00  0.45593999997E+02  0.45594000000E+02  0.51100000000E-03 0. -1.
         11   -1    0    0    0    0 -0.00000000000E+00 -0.00000000000E+00 -0.45593999997E+02  0.45594000000E+02  0.51100000000E-03 0.  1.
    9900012    2    1    2    0    0  0.23063625556E+01 -0.29268106069E+02 -0.34163900937E+02  0.46142317984E+02  0.10000002031E+02 0.  0.
         12    1    1    2    0    0 -0.23063625556E+01  0.29268106069E+02  0.34163900937E+02  0.45045682016E+02  0.00000000000E+00 0. -1.
         11    1    3    3    0    0  0.71001262766E+00 -0.11036658474E+02 -0.81518117960E+01  0.13739140585E+02  0.51100000000E-03 0. -1.
        -11    1    3    3    0    0  0.10028107238E+00 -0.51635596715E+01 -0.12601889567E+02  0.13619105173E+02  0.51100000000E-03 0.  1.
        -12    1    3    3    0    0  0.14960688555E+01 -0.13067887924E+02 -0.13410199574E+02  0.18784072226E+02  0.00000000000E+00 0.  1.
</event>
<event>
 7    1  0.4623443E-009  0.4614232E+02  0.7816164E-02  0.1320468E+00
        -11   -1    0    0    0    0  0.00000000000E+00  0.00000000000E+00  0.45593999997E+02  0.45594000000E+02  0.51100000000E-03 0. -1.
         11   -1    0    0    0    0 -0.00000000000E+00 -0.00000000000E+00 -0.45593999997E+02  0.45594000000E+02  0.51100000000E-03 0.  1.
    9900012    2    1    2    0    0  0.14320535092E+02 -0.26691410972E+02  0.33340730969E+02  0.46142317782E+02  0.10000000186E+02 0.  0.
        -12    1    1    2    0    0 -0.14320535092E+02  0.26691410972E+02 -0.33340730969E+02  0.45045682218E+02  0.00000000000E+00 0.  1.
         11    1    3    3    0    0  0.10172926310E+02 -0.17374723428E+02  0.27391420250E+02  0.33994990035E+02  0.51100000000E-03 0. -1.
        -11    1    3    3    0    0  0.29453418311E+01 -0.31689108381E+01  0.23969827613E+01  0.49459641144E+01  0.51100000000E-03 0.  1.
         12    1    3    3    0    0  0.12022669514E+01 -0.61477767053E+01  0.35523279574E+01  0.72013636318E+01  0.00000000000E+00 0. -1.
</event>
<event>
 7    1  0.4623443E-009  0.4614231E+02  0.7816164E-02  0.1320468E+00
        -11   -1    0    0    0    0  0.00000000000E+00  0.00000000000E+00  0.45593999997E+02  0.45594000000E+02  0.51100000000E-03 0. -1.
         11   -1    0    0    0    0 -0.00000000000E+00 -0.00000000000E+00 -0.45593999997E+02  0.45594000000E+02  0.51100000000E-03 0.  1.
    9900012    2    1    2    0    0  0.48186791069E-01  0.17837081919E+02 -0.41363634614E+02  0.46142311174E+02  0.99999399345E+01 0.  0.
         12    1    1    2    0    0 -0.48186791069E-01 -0.17837081919E+02  0.41363634614E+02  0.45045688826E+02  0.00000000000E+00 0. -1.
         11    1    3    3    0    0 -0.31249007419E+01  0.11405696477E+02 -0.25164115353E+02  0.27804453214E+02  0.51100000000E-03 0. -1.
        -11    1    3    3    0    0 -0.36841743217E+00  0.45634419977E+01 -0.91141719746E+01  0.10199454167E+02  0.51100000000E-03 0.  1.
         12    1    3    3    0    0  0.35415049652E+01  0.18679434446E+01 -0.70853472859E+01  0.81384037927E+01  0.00000000000E+00 0. -1.
</event>
<event>
 7    1  0.4623443E-009  0.4614232E+02  0.7816164E-02  0.1320468E+00
        -11   -1    0    0    0    0  0.00000000000E+00  0.00000000000E+00  0.45593999997E+02  0.45594000000E+02  0.51100000000E-03 0. -1.
         11   -1    0    0    0    0 -0.00000000000E+00 -0.00000000000E+00 -0.45593999997E+02  0.45594000000E+02  0.51100000000E-03 0.  1.
    9900012    2    1    2    0    0 -0.21935115701E+02  0.13191262726E+02 -0.37066894942E+02  0.46142318589E+02  0.10000007548E+02 0.  0.
         12    1    1    2    0    0  0.21935115701E+02 -0.13191262726E+02  0.37066894942E+02  0.45045681411E+02  0.00000000000E+00 0. -1.
         11    1    3    3    0    0 -0.62556855463E-01  0.38125446889E+00 -0.35782066231E+00  0.52659682653E+00  0.51100000000E-03 0. -1.
        -11    1    3    3    0    0 -0.91732439908E+01  0.97977490745E+01 -0.13806310546E+02  0.19255090325E+02  0.51100000000E-03 0.  1.
        -12    1    3    3    0    0 -0.12699314855E+02  0.30122591829E+01 -0.22902763733E+02  0.26360631438E+02  0.00000000000E+00 0.  1.
</event>
<event>
 7    1  0.4623443E-009  0.4614232E+02  0.7816164E-02  0.1320468E+00
        -11   -1    0    0    0    0  0.00000000000E+00  0.00000000000E+00  0.45593999997E+02  0.45594000000E+02  0.51100000000E-03 0. -1.
         11   -1    0    0    0    0 -0.00000000000E+00 -0.00000000000E+00 -0.45593999997E+02  0.45594000000E+02  0.51100000000E-03 0.  1.
    9900012    2    1    2    0    0 -0.16619217225E+02 -0.13138659812E+01  0.41847207032E+02  0.46142319170E+02  0.10000012850E+02 0.  0.
        -12    1    1    2    0    0  0.16619217225E+02  0.13138659812E+01 -0.41847207032E+02  0.45045680830E+02  0.00000000000E+00 0.  1.
         11    1    3    3    0    0 -0.49715553918E+01 -0.42543043030E+01  0.14634898313E+02  0.16031085959E+02  0.51100000000E-03 0. -1.
        -11    1    3    3    0    0 -0.79654349317E+01  0.93504152961E-01  0.14062832767E+02  0.16162306839E+02  0.51100000000E-03 0.  1.
         12    1    3    3    0    0 -0.36822269018E+01  0.28469341688E+01  0.13149475952E+02  0.13948926372E+02  0.00000000000E+00 0. -1.
</event>
<event>
 7    1  0.4623443E-009  0.4614232E+02  0.7816164E-02  0.1320468E+00
        -11   -1    0    0    0    0  0.00000000000E+00  0.00000000000E+00  0.45593999997E+02  0.45594000000E+02  0.51100000000E-03 0. -1.
         11   -1    0    0    0    0 -0.00000000000E+00 -0.00000000000E+00 -0.45593999997E+02  0.45594000000E+02  0.51100000000E-03 0.  1.
    9900012    2    1    2    0    0  0.11506373186E+02  0.42781618083E+02 -0.81516881910E+01  0.46142317742E+02  0.99999998251E+01 0.  0.
         12    1    1    2    0    0 -0.11506373186E+02 -0.42781618083E+02  0.81516881910E+01  0.45045682258E+02  0.00000000000E+00 0. -1.
         11    1    3    3    0    0 -0.21844350518E+00  0.10267050747E+02 -0.35821883763E+01  0.10876218205E+02  0.51100000000E-03 0. -1.
        -11    1    3    3    0    0  0.79571424028E+01  0.27826780993E+02 -0.34265019535E+01  0.29144240796E+02  0.51100000000E-03 0.  1.
        -12    1    3    3    0    0  0.37676742882E+01  0.46877863429E+01 -0.11429978611E+01  0.61218587414E+01  0.00000000000E+00 0.  1.
</event>
<event>
 7    1  0.4623443E-009  0.4614232E+02  0.7816164E-02  0.1320468E+00
        -11   -1    0    0    0    0  0.00000000000E+00  0.00000000000E+00  0.45593999997E+02  0.45594000000E+02  0.51100000000E-03 0. -1.
         11   -1    0    0    0    0 -0.00000000000E+00 -0.00000000000E+00 -0.45593999997E+02  0.45594000000E+02  0.51100000000E-03 0.  1.
    9900012    2    1    2    0    0 -0.68276668081E+01 -0.16073992322E+01  0.44496211331E+02  0.46142316643E+02  0.99999898032E+01 0.  0.
        -12    1    1    2    0    0  0.68276668081E+01  0.16073992322E+01 -0.44496211331E+02  0.45045683357E+02  0.00000000000E+00 0.  1.
         11    1    3    3    0    0 -0.37811374727E+01  0.25445118322E+01  0.25711611410E+02  0.26112420467E+02  0.51100000000E-03 0. -1.
        -11    1    3    3    0    0 -0.20872534116E+01  0.38379682314E+00  0.39001917767E+01  0.44402052838E+01  0.51100000000E-03 0.  1.
        -12    1    3    3    0    0 -0.95927592375E+00 -0.45357078875E+01  0.14884408144E+02  0.15589690892E+02  0.00000000000E+00 0.  1.
</event>
<event>
 7    1  0.4623443E-009  0.4614232E+02  0.7816164E-02  0.1320468E+00
        -11   -1    0    0    0    0  0.00000000000E+00  0.00000000000E+00  0.45593999997E+02  0.45594000000E+02  0.51100000000E-03 0. -1.
         11   -1    0    0    0    0 -0.00000000000E+00 -0.00000000000E+00 -0.45593999997E+02  0.45594000000E+02  0.51100000000E-03 0.  1.
    9900012    2    1    2    0    0  0.13334350167E+02 -0.29704831242E+02 -0.31127663182E+02  0.46142319756E+02  0.10000018188E+02 0.  0.
         12    1    1    2    0    0 -0.13334350167E+02  0.29704831242E+02  0.31127663182E+02  0.45045680244E+02  0.00000000000E+00 0. -1.
         11    1    3    3    0    0  0.43862932136E+01 -0.60265209926E+01 -0.65303596449E+01  0.99097992301E+01  0.51100000000E-03 0. -1.
        -11    1    3    3    0    0 -0.11609710078E+00 -0.23592184079E+00  0.59259966506E+00  0.64831495118E+00  0.51100000000E-03 0.  1.
        -12    1    3    3    0    0  0.90641540539E+01 -0.23442388409E+02 -0.25189903202E+02  0.35584205574E+02  0.00000000000E+00 0.  1.
</event>
<event>
 7    1  0.4692726E-009  0.4614233E+02  0.7816164E-02  0.1320468E+00
        -11   -1    0    0    0    0  0.00000000000E+00  0.00000000000E+00  0.45593999997E+02  0.45594000000E+02  0.51100000000E-03 0. -1.
         11   -1    0    0    0    0 -0.00000000000E+00 -0.00000000000E+00 -0.45593999997E+02  0.45594000000E+02  0.51100000000E-03 0.  1.
    9900012    2    1    2    0    0  0.44507135218E+02 -0.47518297114E+01 -0.50643245307E+01  0.46142330354E+02  0.10000114833E+02 0.  0.
         12    1    1    2    0    0 -0.44507135218E+02  0.47518297114E+01  0.50643245307E+01  0.45045669646E+02  0.00000000000E+00 0. -1.
         11    1    3    3    0    0  0.16010911805E+02 -0.30344060627E+01 -0.21646358124E+01  0.16439056099E+02  0.51100000000E-03 0. -1.
        -11    1    3    3    0    0  0.27474958703E+02 -0.33052390094E+01 -0.26743273764E+01  0.27801978128E+02  0.51100000000E-03 0.  1.
         12    1    3    3    0    0  0.10212647093E+01  0.15878153608E+01 -0.22536134194E+00  0.19012961266E+01  0.00000000000E+00 0. -1.
</event>
<event>
 7    1  0.6221784E-009  0.4614232E+02  0.7816164E-02  0.1320468E+00
        -11   -1    0    0    0    0  0.00000000000E+00  0.00000000000E+00  0.45593999997E+02  0.45594000000E+02  0.51100000000E-03 0. -1.
         11   -1    0    0    0    0 -0.00000000000E+00 -0.00000000000E+00 -0.45593999997E+02  0.45594000000E+02  0.51100000000E-03 0.  1.
    9900012    2    1    2    0    0  0.23562886847E+02 -0.20077397757E+02 -0.32723109028E+02  0.46142318723E+02  0.10000008769E+02 0.  0.
         12    1    1    2    0    0 -0.23562886847E+02  0.20077397757E+02  0.32723109028E+02  0.45045681277E+02  0.00000000000E+00 0. -1.
         11    1    3    3    0    0  0.26111562202E+01 -0.14408152819E+01 -0.74791164685E+01  0.80517866895E+01  0.51100000000E-03 0. -1.
        -11    1    3    3    0    0  0.11687956809E+02 -0.11049047738E+02 -0.17802996585E+02  0.23992425429E+02  0.51100000000E-03 0.  1.
         12    1    3    3    0    0  0.92637738181E+01 -0.75875347370E+01 -0.74409959745E+01  0.14098106604E+02  0.00000000000E+00 0. -1.
</event>
<event>
 7    1  0.4623443E-009  0.4614232E+02  0.7816164E-02  0.1320468E+00
        -11   -1    0    0    0    0  0.00000000000E+00  0.00000000000E+00  0.45593999997E+02  0.45594000000E+02  0.51100000000E-03 0. -1.
         11   -1    0    0    0    0 -0.00000000000E+00 -0.00000000000E+00 -0.45593999997E+02  0.45594000000E+02  0.51100000000E-03 0.  1.
    9900012    2    1    2    0    0 -0.25725927131E+02 -0.30820619908E+02  0.20429869003E+02  0.46142317790E+02  0.10000000268E+02 0.  0.
        -12    1    1    2    0    0  0.25725927131E+02  0.30820619908E+02 -0.20429869003E+02  0.45045682210E+02  0.00000000000E+00 0.  1.
         11    1    3    3    0    0 -0.65029962379E+01 -0.68755860615E+01  0.89294211038E+01  0.13011425951E+02  0.51100000000E-03 0. -1.
        -11    1    3    3    0    0 -0.77704471537E+01 -0.70140431082E+01  0.55159135191E+01  0.11832242049E+02  0.51100000000E-03 0.  1.
         12    1    3    3    0    0 -0.11452483739E+02 -0.16930990738E+02  0.59845343802E+01  0.21298649791E+02  0.00000000000E+00 0. -1.
</event>
<event>
 7    1  0.4623443E-009  0.4614232E+02  0.7816164E-02  0.1320468E+00
        -11   -1    0    0    0    0  0.00000000000E+00  0.00000000000E+00  0.45593999997E+02  0.45594000000E+02  0.51100000000E-03 0. -1.
         11   -1    0    0    0    0 -0.00000000000E+00 -0.00000000000E+00 -0.45593999997E+02  0.45594000000E+02  0.51100000000E-03 0.  1.
    9900012    2    1    2    0    0 -0.11462715499E+02  0.14667817774E+02  0.41019201035E+02  0.46142316761E+02  0.99999908845E+01 0.  0.
        -12    1    1    2    0    0  0.11462715499E+02 -0.14667817774E+02 -0.41019201035E+02  0.45045683239E+02  0.00000000000E+00 0.  1.
         11    1    3    3    0    0 -0.21314030021E+01  0.18555132867E+01  0.12498030885E+01  0.30899540993E+01  0.51100000000E-03 0. -1.
        -11    1    3    3    0    0 -0.43390022714E+00  0.13848887880E+01  0.80936959259E+01  0.82227793576E+01  0.51100000000E-03 0.  1.
         12    1    3    3    0    0 -0.88974122692E+01  0.11427415699E+02  0.31675702021E+02  0.34829583305E+02  0.00000000000E+00 0. -1.
</event>
<event>
 7    1  0.4623443E-009  0.4614232E+02  0.7816164E-02  0.1320468E+00
        -11   -1    0    0    0    0  0.00000000000E+00  0.00000000000E+00  0.45593999997E+02  0.45594000000E+02  0.51100000000E-03 0. -1.
         11   -1    0    0    0    0 -0.00000000000E+00 -0.00000000000E+00 -0.45593999997E+02  0.45594000000E+02  0.51100000000E-03 0.  1.
    9900012    2    1    2    0    0 -0.10514134357E+02  0.33305919723E+02  0.28447884591E+02  0.46142318214E+02  0.10000004131E+02 0.  0.
        -12    1    1    2    0    0  0.10514134357E+02 -0.33305919723E+02 -0.28447884591E+02  0.45045681786E+02  0.00000000000E+00 0.  1.
         11    1    3    3    0    0 -0.53251867402E+01  0.17684725017E+02  0.14230570723E+02  0.23315579687E+02  0.51100000000E-03 0. -1.
        -11    1    3    3    0    0 -0.23464879418E+01  0.10210386807E+01  0.41162937014E+01  0.48468958877E+01  0.51100000000E-03 0.  1.
        -12    1    3    3    0    0 -0.28424596745E+01  0.14600156025E+02  0.10101020167E+02  0.17979842640E+02  0.00000000000E+00 0.  1.
</event>
<event>
 7    1  0.4623443E-009  0.4614232E+02  0.7816164E-02  0.1320468E+00
        -11   -1    0    0    0    0  0.00000000000E+00  0.00000000000E+00  0.45593999997E+02  0.45594000000E+02  0.51100000000E-03 0. -1.
         11   -1    0    0    0    0 -0.00000000000E+00 -0.00000000000E+00 -0.45593999997E+02  0.45594000000E+02  0.51100000000E-03 0.  1.
    9900012    2    1    2    0    0  0.21804937954E+01 -0.10533461516E+02 -0.43742486643E+02  0.46142317605E+02  0.99999985750E+01 0.  0.
         12    1    1    2    0    0 -0.21804937954E+01  0.10533461516E+02  0.43742486643E+02  0.45045682395E+02  0.00000000000E+00 0. -1.
         11    1    3    3    0    0  0.24388338537E+01 -0.70425840251E+00 -0.47785100073E+01  0.54109193872E+01  0.51100000000E-03 0. -1.
        -11    1    3    3    0    0  0.28291457716E+01 -0.71615143542E+01 -0.23024731941E+02  0.24278171984E+02  0.51100000000E-03 0.  1.
        -12    1    3    3    0    0 -0.30874858298E+01 -0.26676887591E+01 -0.15939244695E+02  0.16453226234E+02  0.00000000000E+00 0.  1.
</event>
<event>
 7    1  0.4623443E-009  0.4614232E+02  0.7816164E-02  0.1320468E+00
        -11   -1    0    0    0    0  0.00000000000E+00  0.00000000000E+00  0.45593999997E+02  0.45594000000E+02  0.51100000000E-03 0. -1.
         11   -1    0    0    0    0 -0.00000000000E+00 -0.00000000000E+00 -0.45593999997E+02  0.45594000000E+02  0.51100000000E-03 0.  1.
    9900012    2    1    2    0    0 -0.25278356179E+02  0.26140375046E+02 -0.26585690654E+02  0.46142318229E+02  0.10000004268E+02 0.  0.
         12    1    1    2    0    0  0.25278356179E+02 -0.26140375046E+02  0.26585690654E+02  0.45045681771E+02  0.00000000000E+00 0. -1.
         11    1    3    3    0    0 -0.93030864707E+01  0.12988778390E+02 -0.87466520092E+01  0.18214271975E+02  0.51100000000E-03 0. -1.
        -11    1    3    3    0    0 -0.96950110358E+01  0.10880038374E+02 -0.14083576182E+02  0.20266119321E+02  0.51100000000E-03 0.  1.
         12    1    3    3    0    0 -0.62802586724E+01  0.22715582822E+01 -0.37554624627E+01  0.76619269332E+01  0.00000000000E+00 0. -1.
</event>
<event>
 7    1  0.4623443E-009  0.4614232E+02  0.7816164E-02  0.1320468E+00
        -11   -1    0    0    0    0  0.00000000000E+00  0.00000000000E+00  0.45593999997E+02  0.45594000000E+02  0.51100000000E-03 0.  1.
         11   -1    0    0    0    0 -0.00000000000E+00 -0.00000000000E+00 -0.45593999997E+02  0.45594000000E+02  0.51100000000E-03 0. -1.
    9900012    2    1    2    0    0  0.38625228916E+02 -0.66434806312E+01 -0.22205166891E+02  0.46142316740E+02  0.99999906900E+01 0.  0.
         12    1    1    2    0    0 -0.38625228916E+02  0.66434806312E+01  0.22205166891E+02  0.45045683260E+02  0.00000000000E+00 0. -1.
         11    1    3    3    0    0  0.10928552692E+02 -0.48458234649E+00 -0.47719940617E+01  0.11934823484E+02  0.51100000000E-03 0.  1.
        -11    1    3    3    0    0  0.26247469621E+00  0.62105366965E+00  0.40724273230E+00  0.78768491852E+00  0.51100000000E-03 0. -1.
        -12    1    3    3    0    0  0.27434201527E+02 -0.67799519544E+01 -0.17840415561E+02  0.33419808338E+02  0.00000000000E+00 0.  1.
</event>
<event>
 7    1  0.4623443E-009  0.4614232E+02  0.7816164E-02  0.1320468E+00
        -11   -1    0    0    0    0  0.00000000000E+00  0.00000000000E+00  0.45593999997E+02  0.45594000000E+02  0.51100000000E-03 0.  1.
         11   -1    0    0    0    0 -0.00000000000E+00 -0.00000000000E+00 -0.45593999997E+02  0.45594000000E+02  0.51100000000E-03 0. -1.
    9900012    2    1    2    0    0  0.52736730038E+01  0.26564449022E+02 -0.35994884581E+02  0.46142319910E+02  0.10000019591E+02 0.  0.
         12    1    1    2    0    0 -0.52736730038E+01 -0.26564449022E+02  0.35994884581E+02  0.45045680090E+02  0.00000000000E+00 0. -1.
         11    1    3    3    0    0 -0.21732696981E+00 -0.23103710044E+00 -0.10322380453E+00  0.33356344003E+00  0.51100000000E-03 0. -1.
        -11    1    3    3    0    0  0.37590370557E+01  0.36923732865E+01 -0.74542877729E+01  0.91285478875E+01  0.51100000000E-03 0.  1.
        -12    1    3    3    0    0  0.17319629179E+01  0.23103112836E+02 -0.28437373003E+02  0.36680208582E+02  0.00000000000E+00 0.  1.
</event>
<event>
 7    1  0.4623443E-009  0.4614232E+02  0.7816164E-02  0.1320468E+00
        -11   -1    0    0    0    0  0.00000000000E+00  0.00000000000E+00  0.45593999997E+02  0.45594000000E+02  0.51100000000E-03 0. -1.
         11   -1    0    0    0    0 -0.00000000000E+00 -0.00000000000E+00 -0.45593999997E+02  0.45594000000E+02  0.51100000000E-03 0.  1.
    9900012    2    1    2    0    0 -0.33233282113E+02 -0.29927603522E+02  0.53852535909E+01  0.46142318200E+02  0.10000004003E+02 0.  0.
         12    1    1    2    0    0  0.33233282113E+02  0.29927603522E+02 -0.53852535909E+01  0.45045681800E+02  0.00000000000E+00 0. -1.
         11    1    3    3    0    0 -0.12688122477E+02 -0.10985444296E+02 -0.85932893021E+00  0.16804966077E+02  0.51100000000E-03 0.  1.
        -11    1    3    3    0    0 -0.23903973177E+01 -0.27474082639E+01 -0.12988271326E+01  0.38664200091E+01  0.51100000000E-03 0. -1.
         12    1    3    3    0    0 -0.18154762318E+02 -0.16194750963E+02  0.75434096538E+01  0.25470932114E+02  0.00000000000E+00 0. -1.
</event>
<event>
 7    1  0.4623443E-009  0.4614232E+02  0.7816164E-02  0.1320468E+00
        -11   -1    0    0    0    0  0.00000000000E+00  0.00000000000E+00  0.45593999997E+02  0.45594000000E+02  0.51100000000E-03 0. -1.
         11   -1    0    0    0    0 -0.00000000000E+00 -0.00000000000E+00 -0.45593999997E+02  0.45594000000E+02  0.51100000000E-03 0.  1.
    9900012    2    1    2    0    0 -0.12914177934E+02 -0.18343707938E+02 -0.39062077724E+02  0.46142317313E+02  0.99999959146E+01 0.  0.
         12    1    1    2    0    0  0.12914177934E+02  0.18343707938E+02  0.39062077724E+02  0.45045682687E+02  0.00000000000E+00 0. -1.
         11    1    3    3    0    0  0.59778876983E+00 -0.15866932799E+01 -0.41826487091E+01  0.45132579655E+01  0.51100000000E-03 0. -1.
        -11    1    3    3    0    0 -0.10123346899E+02 -0.14174545509E+02 -0.32161544844E+02  0.36575468005E+02  0.51100000000E-03 0.  1.
        -12    1    3    3    0    0 -0.33886198050E+01 -0.25824691483E+01 -0.27178841714E+01  0.50535913422E+01  0.00000000000E+00 0.  1.
</event>
<event>
 7    1  0.4623443E-009  0.4614232E+02  0.7816164E-02  0.1320468E+00
        -11   -1    0    0    0    0  0.00000000000E+00  0.00000000000E+00  0.45593999997E+02  0.45594000000E+02  0.51100000000E-03 0.  1.
         11   -1    0    0    0    0 -0.00000000000E+00 -0.00000000000E+00 -0.45593999997E+02  0.45594000000E+02  0.51100000000E-03 0. -1.
    9900012    2    1    2    0    0  0.70381128749E+01 -0.42494407880E+02 -0.13183463879E+02  0.46142318145E+02  0.10000003504E+02 0.  0.
         12    1    1    2    0    0 -0.70381128749E+01  0.42494407880E+02  0.13183463879E+02  0.45045681855E+02  0.00000000000E+00 0. -1.
         11    1    3    3    0    0 -0.11879050992E+01 -0.53704364041E+01  0.64057235858E+00  0.55374216837E+01  0.51100000000E-03 0. -1.
        -11    1    3    3    0    0  0.64956590878E+01 -0.27011973385E+02 -0.85393531655E+01  0.29064769840E+02  0.51100000000E-03 0.  1.
        -12    1    3    3    0    0  0.17303588863E+01 -0.10111998091E+02 -0.52846830717E+01  0.11540126621E+02  0.00000000000E+00 0.  1.
</event>
<event>
 7    1  0.4623443E-009  0.4614232E+02  0.7816164E-02  0.1320468E+00
        -11   -1    0    0    0    0  0.00000000000E+00  0.00000000000E+00  0.45593999997E+02  0.45594000000E+02  0.51100000000E-03 0. -1.
         11   -1    0    0    0    0 -0.00000000000E+00 -0.00000000000E+00 -0.45593999997E+02  0.45594000000E+02  0.51100000000E-03 0.  1.
    9900012    2    1    2    0    0  0.61610841456E+01 -0.11324600176E+02 -0.43161417032E+02  0.46142318218E+02  0.10000004164E+02 0.  0.
         12    1    1    2    0    0 -0.61610841456E+01  0.11324600176E+02  0.43161417032E+02  0.45045681782E+02  0.00000000000E+00 0. -1.
         11    1    3    3    0    0  0.48749116042E+01 -0.38991894563E+01 -0.13345891985E+02  0.14733678248E+02  0.51100000000E-03 0. -1.
        -11    1    3    3    0    0  0.26186752625E+01 -0.35281142581E+01 -0.73062030893E+01  0.85255882021E+01  0.51100000000E-03 0.  1.
        -12    1    3    3    0    0 -0.13325027211E+01 -0.38972964611E+01 -0.22509321958E+02  0.22883051768E+02  0.00000000000E+00 0.  1.
</event>
<event>
 7    1  0.4623443E-009  0.4614232E+02  0.7816164E-02  0.1320468E+00
        -11   -1    0    0    0    0  0.00000000000E+00  0.00000000000E+00  0.45593999997E+02  0.45594000000E+02  0.51100000000E-03 0. -1.
         11   -1    0    0    0    0 -0.00000000000E+00 -0.00000000000E+00 -0.45593999997E+02  0.45594000000E+02  0.51100000000E-03 0.  1.
    9900012    2    1    2    0    0 -0.18945146078E+02 -0.32421809753E+02 -0.24880136622E+02  0.46142317566E+02  0.99999982201E+01 0.  0.
         12    1    1    2    0    0  0.18945146078E+02  0.32421809753E+02  0.24880136622E+02  0.45045682434E+02  0.00000000000E+00 0. -1.
         11    1    3    3    0    0 -0.23367432001E+01 -0.33820346638E+01 -0.63208256139E+01  0.75399843470E+01  0.51100000000E-03 0. -1.
        -11    1    3    3    0    0 -0.14284907204E+02 -0.21389303168E+02 -0.15569501599E+02  0.30066097920E+02  0.51100000000E-03 0.  1.
         12    1    3    3    0    0 -0.23234956735E+01 -0.76504719222E+01 -0.29898094099E+01  0.85362352992E+01  0.00000000000E+00 0. -1.
</event>
<event>
 7    1  0.4623443E-009  0.4614232E+02  0.7816164E-02  0.1320468E+00
        -11   -1    0    0    0    0  0.00000000000E+00  0.00000000000E+00  0.45593999997E+02  0.45594000000E+02  0.51100000000E-03 0. -1.
         11   -1    0    0    0    0 -0.00000000000E+00 -0.00000000000E+00 -0.45593999997E+02  0.45594000000E+02  0.51100000000E-03 0.  1.
    9900012    2    1    2    0    0  0.13363478650E+02  0.23443879723E+01  0.42953867865E+02  0.46142317841E+02  0.10000000732E+02 0.  0.
        -12    1    1    2    0    0 -0.13363478650E+02 -0.23443879723E+01 -0.42953867865E+02  0.45045682159E+02  0.00000000000E+00 0.  1.
         11    1    3    3    0    0  0.44769299435E+01 -0.69682527523E+00  0.12953729885E+02  0.13723249811E+02  0.51100000000E-03 0. -1.
        -11    1    3    3    0    0  0.74050285638E+01  0.54883606232E+01  0.20074423540E+02  0.22089342025E+02  0.51100000000E-03 0.  1.
        -12    1    3    3    0    0  0.14815201425E+01 -0.24471473757E+01  0.99257144392E+01  0.10329726005E+02  0.00000000000E+00 0.  1.
</event>
<event>
 7    1  0.4623443E-009  0.4614232E+02  0.7816164E-02  0.1320468E+00
        -11   -1    0    0    0    0  0.00000000000E+00  0.00000000000E+00  0.45593999997E+02  0.45594000000E+02  0.51100000000E-03 0. -1.
         11   -1    0    0    0    0 -0.00000000000E+00 -0.00000000000E+00 -0.45593999997E+02  0.45594000000E+02  0.51100000000E-03 0.  1.
    9900012    2    1    2    0    0  0.23152115242E+02 -0.26377282922E+02  0.28237067084E+02  0.46142318164E+02  0.10000003673E+02 0.  0.
        -12    1    1    2    0    0 -0.23152115242E+02  0.26377282922E+02 -0.28237067084E+02  0.45045681836E+02  0.00000000000E+00 0.  1.
         11    1    3    3    0    0  0.59815714349E+01 -0.25365871306E+01  0.42063767938E+01  0.77399662205E+01  0.51100000000E-03 0. -1.
        -11    1    3    3    0    0  0.96057950834E+01 -0.16144139486E+02  0.12255383260E+02  0.22429867544E+02  0.51100000000E-03 0.  1.
        -12    1    3    3    0    0  0.75647487241E+01 -0.76965563054E+01  0.11775307031E+02  0.15972484399E+02  0.00000000000E+00 0.  1.
</event>
<event>
 7    1  0.4623443E-009  0.4614232E+02  0.7816164E-02  0.1320468E+00
        -11   -1    0    0    0    0  0.00000000000E+00  0.00000000000E+00  0.45593999997E+02  0.45594000000E+02  0.51100000000E-03 0. -1.
         11   -1    0    0    0    0 -0.00000000000E+00 -0.00000000000E+00 -0.45593999997E+02  0.45594000000E+02  0.51100000000E-03 0.  1.
    9900012    2    1    2    0    0  0.17463409398E+02 -0.18878633068E+02  0.36982969585E+02  0.46142317703E+02  0.99999994666E+01 0.  0.
        -12    1    1    2    0    0 -0.17463409398E+02  0.18878633068E+02 -0.36982969585E+02  0.45045682297E+02  0.00000000000E+00 0.  1.
         11    1    3    3    0    0  0.15980275222E+01  0.23139889500E+00  0.23214967013E+01  0.28278232982E+01  0.51100000000E-03 0. -1.
        -11    1    3    3    0    0  0.16581847063E+02 -0.19007104859E+02  0.33324218881E+02  0.41793914048E+02  0.51100000000E-03 0.  1.
        -12    1    3    3    0    0 -0.71646518746E+00 -0.10292710416E+00  0.13372540022E+01  0.15205803564E+01  0.00000000000E+00 0.  1.
</event>
<event>
 7    1  0.4623443E-009  0.4614232E+02  0.7816164E-02  0.1320468E+00
        -11   -1    0    0    0    0  0.00000000000E+00  0.00000000000E+00  0.45593999997E+02  0.45594000000E+02  0.51100000000E-03 0. -1.
         11   -1    0    0    0    0 -0.00000000000E+00 -0.00000000000E+00 -0.45593999997E+02  0.45594000000E+02  0.51100000000E-03 0.  1.
    9900012    2    1    2    0    0 -0.77026267126E+01 -0.57770666173E+01  0.44004642630E+02  0.46142317299E+02  0.99999957891E+01 0.  0.
        -12    1    1    2    0    0  0.77026267126E+01  0.57770666173E+01 -0.44004642630E+02  0.45045682701E+02  0.00000000000E+00 0.  1.
         11    1    3    3    0    0 -0.25355092882E+01 -0.37433799082E+01  0.18501990798E+02  0.19046400296E+02  0.51100000000E-03 0. -1.
        -11    1    3    3    0    0  0.16023014780E+01 -0.27649717916E-01  0.20411687214E+01  0.25950923960E+01  0.51100000000E-03 0.  1.
        -12    1    3    3    0    0 -0.67694189024E+01 -0.20060369911E+01  0.23461483110E+02  0.24500824607E+02  0.00000000000E+00 0.  1.
</event>
<event>
 7    1  0.4623443E-009  0.4614232E+02  0.7816164E-02  0.1320468E+00
        -11   -1    0    0    0    0  0.00000000000E+00  0.00000000000E+00  0.45593999997E+02  0.45594000000E+02  0.51100000000E-03 0. -1.
         11   -1    0    0    0    0 -0.00000000000E+00 -0.00000000000E+00 -0.45593999997E+02  0.45594000000E+02  0.51100000000E-03 0.  1.
    9900012    2    1    2    0    0  0.16020852704E+02  0.42505289675E+01 -0.41885305746E+02  0.46142317018E+02  0.99999932261E+01 0.  0.
         12    1    1    2    0    0 -0.16020852704E+02 -0.42505289675E+01  0.41885305746E+02  0.45045682982E+02  0.00000000000E+00 0. -1.
         11    1    3    3    0    0  0.86373216833E+01  0.61207002670E+01 -0.20292534089E+02  0.22887840388E+02  0.51100000000E-03 0. -1.
        -11    1    3    3    0    0  0.15567133315E+01  0.11916973523E+01 -0.64896184432E+01  0.67792806975E+01  0.51100000000E-03 0.  1.
        -12    1    3    3    0    0  0.58268176890E+01 -0.30618686517E+01 -0.15103153214E+02  0.16475195933E+02  0.00000000000E+00 0.  1.
</event>
<event>
 7    1  0.4623443E-009  0.4614232E+02  0.7816164E-02  0.1320468E+00
        -11   -1    0    0    0    0  0.00000000000E+00  0.00000000000E+00  0.45593999997E+02  0.45594000000E+02  0.51100000000E-03 0. -1.
         11   -1    0    0    0    0 -0.00000000000E+00 -0.00000000000E+00 -0.45593999997E+02  0.45594000000E+02  0.51100000000E-03 0.  1.
    9900012    2    1    2    0    0 -0.42521804937E+01  0.29295901060E+00  0.44843581843E+02  0.46142315452E+02  0.99999789410E+01 0.  0.
        -12    1    1    2    0    0  0.42521804937E+01 -0.29295901060E+00 -0.44843581843E+02  0.45045684548E+02  0.00000000000E+00 0.  1.
         11    1    3    3    0    0 -0.82699652135E+00  0.13747374218E+01  0.30154297702E+02  0.30196945150E+02  0.51100000000E-03 0. -1.
        -11    1    3    3    0    0 -0.19873469315E+01 -0.31007782792E+01  0.78571493335E+01  0.86775094165E+01  0.51100000000E-03 0.  1.
        -12    1    3    3    0    0 -0.14378370409E+01  0.20189998680E+01  0.68321348074E+01  0.72678608854E+01  0.00000000000E+00 0.  1.
</event>
<event>
 7    1  0.6150973E-009  0.4614232E+02  0.7816164E-02  0.1320468E+00
        -11   -1    0    0    0    0  0.00000000000E+00  0.00000000000E+00  0.45593999997E+02  0.45594000000E+02  0.51100000000E-03 0.  1.
         11   -1    0    0    0    0 -0.00000000000E+00 -0.00000000000E+00 -0.45593999997E+02  0.45594000000E+02  0.51100000000E-03 0. -1.
    9900012    2    1    2    0    0  0.31429589233E+02  0.22919828937E+02 -0.22715101258E+02  0.46142318042E+02  0.10000002565E+02 0.  0.
         12    1    1    2    0    0 -0.31429589233E+02 -0.22919828937E+02  0.22715101258E+02  0.45045681958E+02  0.00000000000E+00 0. -1.
         11    1    3    3    0    0  0.15933832035E+02  0.11130830189E+02 -0.14530160870E+02  0.24267425887E+02  0.51100000000E-03 0. -1.
        -11    1    3    3    0    0  0.15534676900E+02  0.10750365227E+02 -0.85982597371E+01  0.20756363113E+02  0.51100000000E-03 0.  1.
         12    1    3    3    0    0 -0.38919702098E-01  0.10386335220E+01  0.41331934870E+00  0.11185290431E+01  0.00000000000E+00 0. -1.
</event>
<event>
 7    1  0.4623443E-009  0.4614232E+02  0.7816164E-02  0.1320468E+00
        -11   -1    0    0    0    0  0.00000000000E+00  0.00000000000E+00  0.45593999997E+02  0.45594000000E+02  0.51100000000E-03 0.  1.
         11   -1    0    0    0    0 -0.00000000000E+00 -0.00000000000E+00 -0.45593999997E+02  0.45594000000E+02  0.51100000000E-03 0. -1.
    9900012    2    1    2    0    0 -0.37841368925E+02 -0.17338628098E+01 -0.24374946175E+02  0.46142317816E+02  0.10000000504E+02 0.  0.
         12    1    1    2    0    0  0.37841368925E+02  0.17338628098E+01  0.24374946175E+02  0.45045682184E+02  0.00000000000E+00 0. -1.
         11    1    3    3    0    0 -0.93872550347E+01 -0.35884618117E+01 -0.58606841049E+01  0.11633797046E+02  0.51100000000E-03 0. -1.
        -11    1    3    3    0    0 -0.28245060998E+02  0.10505761827E+01 -0.17724852224E+02  0.33362517407E+02  0.51100000000E-03 0.  1.
         12    1    3    3    0    0 -0.20905289241E+00  0.80402281919E+00 -0.78940984577E+00  0.11460033640E+01  0.00000000000E+00 0. -1.
</event>
<event>
 7    1  0.4623443E-009  0.4614232E+02  0.7816164E-02  0.1320468E+00
        -11   -1    0    0    0    0  0.00000000000E+00  0.00000000000E+00  0.45593999997E+02  0.45594000000E+02  0.51100000000E-03 0.  1.
         11   -1    0    0    0    0 -0.00000000000E+00 -0.00000000000E+00 -0.45593999997E+02  0.45594000000E+02  0.51100000000E-03 0. -1.
    9900012    2    1    2    0    0  0.17093759553E+02  0.26182877013E+02 -0.32424894673E+02  0.46142318089E+02  0.10000002987E+02 0.  0.
         12    1    1    2    0    0 -0.17093759553E+02 -0.26182877013E+02  0.32424894673E+02  0.45045681911E+02  0.00000000000E+00 0. -1.
         11    1    3    3    0    0  0.73652286638E+01  0.48062681521E+01 -0.99123084605E+01  0.13251440152E+02  0.51100000000E-03 0. -1.
        -11    1    3    3    0    0  0.63375555081E+01  0.81571297163E+01 -0.94983766685E+01  0.14032908987E+02  0.51100000000E-03 0.  1.
        -12    1    3    3    0    0  0.33909753813E+01  0.13219479144E+02 -0.13014209544E+02  0.18857968950E+02  0.00000000000E+00 0.  1.
</event>
<event>
 7    1  0.4623443E-009  0.4614232E+02  0.7816164E-02  0.1320468E+00
        -11   -1    0    0    0    0  0.00000000000E+00  0.00000000000E+00  0.45593999997E+02  0.45594000000E+02  0.51100000000E-03 0. -1.
         11   -1    0    0    0    0 -0.00000000000E+00 -0.00000000000E+00 -0.45593999997E+02  0.45594000000E+02  0.51100000000E-03 0.  1.
    9900012    2    1    2    0    0 -0.27281424654E+02 -0.27406951582E+02  0.23101873135E+02  0.46142315762E+02  0.99999817660E+01 0.  0.
        -12    1    1    2    0    0  0.27281424654E+02  0.27406951582E+02 -0.23101873135E+02  0.45045684238E+02  0.00000000000E+00 0.  1.
         11    1    3    3    0    0 -0.10464648683E+02 -0.12677838409E+02  0.10727783968E+02  0.19629615582E+02  0.51100000000E-03 0. -1.
        -11    1    3    3    0    0 -0.13485232322E+02 -0.96045404620E+01  0.58158813224E+01  0.17547739572E+02  0.51100000000E-03 0.  1.
        -12    1    3    3    0    0 -0.33315436490E+01 -0.51245727111E+01  0.65582078453E+01  0.89649606077E+01  0.00000000000E+00 0.  1.
</event>
<event>
 7    1  0.4623443E-009  0.4614232E+02  0.7816164E-02  0.1320468E+00
        -11   -1    0    0    0    0  0.00000000000E+00  0.00000000000E+00  0.45593999997E+02  0.45594000000E+02  0.51100000000E-03 0. -1.
         11   -1    0    0    0    0 -0.00000000000E+00 -0.00000000000E+00 -0.45593999997E+02  0.45594000000E+02  0.51100000000E-03 0.  1.
    9900012    2    1    2    0    0 -0.11551484739E+02  0.31459630778E+01  0.43425564003E+02  0.46142317717E+02  0.99999995948E+01 0.  0.
        -12    1    1    2    0    0  0.11551484739E+02 -0.31459630778E+01 -0.43425564003E+02  0.45045682283E+02  0.00000000000E+00 0.  1.
         11    1    3    3    0    0 -0.61039158680E+01  0.34516944511E+00  0.22003673019E+02  0.22837218689E+02  0.51100000000E-03 0. -1.
        -11    1    3    3    0    0 -0.92288235751E+00 -0.55721858860E+00 -0.76306955984E-01  0.10807531698E+01  0.51100000000E-03 0.  1.
         12    1    3    3    0    0 -0.45246865138E+01  0.33580122213E+01  0.21498197940E+02  0.22224345858E+02  0.00000000000E+00 0. -1.
</event>
<event>
 7    1  0.4623443E-009  0.4614232E+02  0.7816164E-02  0.1320468E+00
        -11   -1    0    0    0    0  0.00000000000E+00  0.00000000000E+00  0.45593999997E+02  0.45594000000E+02  0.51100000000E-03 0. -1.
         11   -1    0    0    0    0 -0.00000000000E+00 -0.00000000000E+00 -0.45593999997E+02  0.45594000000E+02  0.51100000000E-03 0.  1.
    9900012    2    1    2    0    0  0.76948910054E+00 -0.27032279345E+02  0.36024675681E+02  0.46142317654E+02  0.99999990250E+01 0.  0.
        -12    1    1    2    0    0 -0.76948910054E+00  0.27032279345E+02 -0.36024675681E+02  0.45045682346E+02  0.00000000000E+00 0.  1.
         11    1    3    3    0    0 -0.15686372087E+01 -0.71265462998E+01  0.12410866600E+02  0.14397148846E+02  0.51100000000E-03 0. -1.
        -11    1    3    3    0    0  0.13295939944E+01 -0.18617867457E+01  0.39421055088E+00  0.23215237014E+01  0.51100000000E-03 0.  1.
        -12    1    3    3    0    0  0.10085323149E+01 -0.18043946299E+02  0.23219598530E+02  0.29423645107E+02  0.00000000000E+00 0.  1.
</event>
<event>
 7    1  0.4623443E-009  0.4614232E+02  0.7816164E-02  0.1320468E+00
        -11   -1    0    0    0    0  0.00000000000E+00  0.00000000000E+00  0.45593999997E+02  0.45594000000E+02  0.51100000000E-03 0. -1.
         11   -1    0    0    0    0 -0.00000000000E+00 -0.00000000000E+00 -0.45593999997E+02  0.45594000000E+02  0.51100000000E-03 0.  1.
    9900012    2    1    2    0    0 -0.11079350531E+02  0.41186022992E+02  0.14493895252E+02  0.46142317658E+02  0.99999990599E+01 0.  0.
        -12    1    1    2    0    0  0.11079350531E+02 -0.41186022992E+02 -0.14493895252E+02  0.45045682342E+02  0.00000000000E+00 0.  1.
         11    1    3    3    0    0 -0.49182046207E+01  0.14354703724E+02  0.75821117359E+01  0.16962743715E+02  0.51100000000E-03 0. -1.
        -11    1    3    3    0    0  0.66507315084E+00  0.94134025387E+01  0.39869988396E+01  0.10244541457E+02  0.51100000000E-03 0.  1.
        -12    1    3    3    0    0 -0.68262190615E+01  0.17417916729E+02  0.29247846761E+01  0.18935032487E+02  0.00000000000E+00 0.  1.
</event>
<event>
 7    1  0.4623443E-009  0.4614232E+02  0.7816164E-02  0.1320468E+00
        -11   -1    0    0    0    0  0.00000000000E+00  0.00000000000E+00  0.45593999997E+02  0.45594000000E+02  0.51100000000E-03 0. -1.
         11   -1    0    0    0    0 -0.00000000000E+00 -0.00000000000E+00 -0.45593999997E+02  0.45594000000E+02  0.51100000000E-03 0.  1.
    9900012    2    1    2    0    0  0.42790097553E+02  0.70739504322E+01  0.12168824126E+02  0.46142317589E+02  0.99999984299E+01 0.  0.
        -12    1    1    2    0    0 -0.42790097553E+02 -0.70739504322E+01 -0.12168824126E+02  0.45045682411E+02  0.00000000000E+00 0.  1.
         11    1    3    3    0    0  0.21537305322E+02  0.44093462985E+01  0.55686782124E+01  0.22678360448E+02  0.51100000000E-03 0.  1.
        -11    1    3    3    0    0  0.79444103856E+01  0.26939018999E+01 -0.45512302337E+00  0.84010654710E+01  0.51100000000E-03 0. -1.
        -12    1    3    3    0    0  0.13308381845E+02 -0.29297766246E-01  0.70552689365E+01  0.15062891670E+02  0.00000000000E+00 0.  1.
</event>
<event>
 7    1  0.4623443E-009  0.4614232E+02  0.7816164E-02  0.1320468E+00
        -11   -1    0    0    0    0  0.00000000000E+00  0.00000000000E+00  0.45593999997E+02  0.45594000000E+02  0.51100000000E-03 0. -1.
         11   -1    0    0    0    0 -0.00000000000E+00 -0.00000000000E+00 -0.45593999997E+02  0.45594000000E+02  0.51100000000E-03 0.  1.
    9900012    2    1    2    0    0 -0.32079763761E+02 -0.27430139404E+02  0.15734982316E+02  0.46142318085E+02  0.10000002957E+02 0.  0.
        -12    1    1    2    0    0  0.32079763761E+02  0.27430139404E+02 -0.15734982316E+02  0.45045681915E+02  0.00000000000E+00 0.  1.
         11    1    3    3    0    0 -0.13889266309E+02 -0.13147498513E+02  0.94275879689E+01  0.21322472908E+02  0.51100000000E-03 0. -1.
        -11    1    3    3    0    0 -0.20880780307E+00 -0.15252283116E+01 -0.69217118697E+00  0.16879050075E+01  0.51100000000E-03 0.  1.
         12    1    3    3    0    0 -0.17981689649E+02 -0.12757412579E+02  0.69995655343E+01  0.23131940170E+02  0.00000000000E+00 0. -1.
</event>
<event>
 7    1  0.4646724E-009  0.4614232E+02  0.7816164E-02  0.1320468E+00
        -11   -1    0    0    0    0  0.00000000000E+00  0.00000000000E+00  0.45593999997E+02  0.45594000000E+02  0.51100000000E-03 0. -1.
         11   -1    0    0    0    0 -0.00000000000E+00 -0.00000000000E+00 -0.45593999997E+02  0.45594000000E+02  0.51100000000E-03 0.  1.
    9900012    2    1    2    0    0  0.17560074274E+02  0.19390756674E+01 -0.41436666396E+02  0.46142317133E+02  0.99999942753E+01 0.  0.
         12    1    1    2    0    0 -0.17560074274E+02 -0.19390756674E+01  0.41436666396E+02  0.45045682867E+02  0.00000000000E+00 0. -1.
         11    1    3    3    0    0  0.52188774970E+01  0.43791468630E+01 -0.16659032942E+02  0.17998249593E+02  0.51100000000E-03 0. -1.
        -11    1    3    3    0    0  0.38074064312E+01  0.92700839580E+00 -0.10119969665E+02  0.10852164511E+02  0.51100000000E-03 0.  1.
         12    1    3    3    0    0  0.85337903454E+01 -0.33670795913E+01 -0.14657663788E+02  0.17291903029E+02  0.00000000000E+00 0. -1.
</event>
<event>
 7    1  0.4623443E-009  0.4614232E+02  0.7816164E-02  0.1320468E+00
        -11   -1    0    0    0    0  0.00000000000E+00  0.00000000000E+00  0.45593999997E+02  0.45594000000E+02  0.51100000000E-03 0. -1.
         11   -1    0    0    0    0 -0.00000000000E+00 -0.00000000000E+00 -0.45593999997E+02  0.45594000000E+02  0.51100000000E-03 0.  1.
    9900012    2    1    2    0    0  0.21553875738E+02  0.26525874482E+02 -0.29341469269E+02  0.46142318795E+02  0.10000009427E+02 0.  0.
         12    1    1    2    0    0 -0.21553875738E+02 -0.26525874482E+02  0.29341469269E+02  0.45045681205E+02  0.00000000000E+00 0. -1.
         11    1    3    3    0    0  0.59646625400E+01  0.11566121249E+02 -0.13750574070E+02  0.18932264721E+02  0.51100000000E-03 0. -1.
        -11    1    3    3    0    0  0.13894123094E+02  0.10356674002E+02 -0.12993075310E+02  0.21659348079E+02  0.51100000000E-03 0.  1.
        -12    1    3    3    0    0  0.16950901045E+01  0.46030792300E+01 -0.25978198899E+01  0.55507059948E+01  0.00000000000E+00 0.  1.
</event>
<event>
 7    1  0.6094402E-009  0.4614232E+02  0.7816164E-02  0.1320468E+00
        -11   -1    0    0    0    0  0.00000000000E+00  0.00000000000E+00  0.45593999997E+02  0.45594000000E+02  0.51100000000E-03 0. -1.
         11   -1    0    0    0    0 -0.00000000000E+00 -0.00000000000E+00 -0.45593999997E+02  0.45594000000E+02  0.51100000000E-03 0.  1.
    9900012    2    1    2    0    0 -0.27205553609E+02 -0.17516821728E+02 -0.31338988877E+02  0.46142318582E+02  0.10000007484E+02 0.  0.
         12    1    1    2    0    0  0.27205553609E+02  0.17516821728E+02  0.31338988877E+02  0.45045681418E+02  0.00000000000E+00 0. -1.
         11    1    3    3    0    0 -0.58467467959E+01 -0.66689779868E+01 -0.87535150555E+01  0.12461289723E+02  0.51100000000E-03 0. -1.
        -11    1    3    3    0    0 -0.16346616401E+02 -0.11092834026E+02 -0.16124880391E+02  0.25500482395E+02  0.51100000000E-03 0.  1.
         12    1    3    3    0    0 -0.50121904116E+01  0.24499028524E+00 -0.64605934303E+01  0.81805464630E+01  0.00000000000E+00 0. -1.
</event>
<event>
 7    1  0.4623443E-009  0.4614232E+02  0.7816164E-02  0.1320468E+00
        -11   -1    0    0    0    0  0.00000000000E+00  0.00000000000E+00  0.45593999997E+02  0.45594000000E+02  0.51100000000E-03 0. -1.
         11   -1    0    0    0    0 -0.00000000000E+00 -0.00000000000E+00 -0.45593999997E+02  0.45594000000E+02  0.51100000000E-03 0.  1.
    9900012    2    1    2    0    0 -0.14387907054E+02  0.33442187605E+02  0.26527752725E+02  0.46142318234E+02  0.10000004309E+02 0.  0.
        -12    1    1    2    0    0  0.14387907054E+02 -0.33442187605E+02 -0.26527752725E+02  0.45045681766E+02  0.00000000000E+00 0.  1.
         11    1    3    3    0    0 -0.20109204067E+01  0.54258902641E+01  0.66553273325E+01  0.88191534857E+01  0.51100000000E-03 0. -1.
        -11    1    3    3    0    0 -0.16383121198E+00  0.84744802598E+01  0.64848965713E+01  0.10672279051E+02  0.51100000000E-03 0.  1.
         12    1    3    3    0    0 -0.12213155435E+02  0.19541817081E+02  0.13387528821E+02  0.26650885697E+02  0.00000000000E+00 0. -1.
</event>
<event>
 7    1  0.4623443E-009  0.4614233E+02  0.7816164E-02  0.1320468E+00
        -11   -1    0    0    0    0  0.00000000000E+00  0.00000000000E+00  0.45593999997E+02  0.45594000000E+02  0.51100000000E-03 0.  1.
         11   -1    0    0    0    0 -0.00000000000E+00 -0.00000000000E+00 -0.45593999997E+02  0.45594000000E+02  0.51100000000E-03 0. -1.
    9900012    2    1    2    0    0  0.35458493760E+02 -0.26894516774E+02  0.69636656521E+01  0.46142329270E+02  0.10000104944E+02 0.  0.
         12    1    1    2    0    0 -0.35458493760E+02  0.26894516774E+02 -0.69636656521E+01  0.45045670730E+02  0.00000000000E+00 0. -1.
         11    1    3    3    0    0  0.15201135175E+01 -0.36073015958E+01  0.44237024992E+00  0.39394240199E+01  0.51100000000E-03 0. -1.
        -11    1    3    3    0    0  0.14839798401E+02 -0.13325128107E+02  0.52550338737E+01  0.20625082713E+02  0.51100000000E-03 0.  1.
        -12    1    3    3    0    0  0.19098581841E+02 -0.99620870719E+01  0.12662615285E+01  0.21577822537E+02  0.00000000000E+00 0.  1.
</event>
<event>
 7    1  0.4623443E-009  0.4614233E+02  0.7816164E-02  0.1320468E+00
        -11   -1    0    0    0    0  0.00000000000E+00  0.00000000000E+00  0.45593999997E+02  0.45594000000E+02  0.51100000000E-03 0. -1.
         11   -1    0    0    0    0 -0.00000000000E+00 -0.00000000000E+00 -0.45593999997E+02  0.45594000000E+02  0.51100000000E-03 0.  1.
    9900012    2    1    2    0    0  0.95868169404E+00  0.11744532237E+02  0.43477110780E+02  0.46142331286E+02  0.10000123332E+02 0.  0.
        -12    1    1    2    0    0 -0.95868169404E+00 -0.11744532237E+02 -0.43477110780E+02  0.45045668714E+02  0.00000000000E+00 0.  1.
         11    1    3    3    0    0  0.17144373421E+01  0.78969243584E+01  0.30414199347E+02  0.31469417406E+02  0.51100000000E-03 0. -1.
        -11    1    3    3    0    0  0.32617743414E+00  0.47648313431E+01  0.71939342064E+01  0.86349695468E+01  0.51100000000E-03 0.  1.
         12    1    3    3    0    0 -0.10819330822E+01 -0.91722346419E+00  0.58689772272E+01  0.60379443332E+01  0.00000000000E+00 0. -1.
</event>
<event>
 7    1  0.4623443E-009  0.4614231E+02  0.7816164E-02  0.1320468E+00
        -11   -1    0    0    0    0  0.00000000000E+00  0.00000000000E+00  0.45593999997E+02  0.45594000000E+02  0.51100000000E-03 0. -1.
         11   -1    0    0    0    0 -0.00000000000E+00 -0.00000000000E+00 -0.45593999997E+02  0.45594000000E+02  0.51100000000E-03 0.  1.
    9900012    2    1    2    0    0 -0.55723505097E+01 -0.40558596772E+02 -0.18789973720E+02  0.46142312363E+02  0.99999507756E+01 0.  0.
         12    1    1    2    0    0  0.55723505097E+01  0.40558596772E+02  0.18789973720E+02  0.45045687637E+02  0.00000000000E+00 0. -1.
         11    1    3    3    0    0 -0.54656833493E+01 -0.25625936554E+02 -0.10589301693E+02  0.28261203607E+02  0.51100000000E-03 0. -1.
        -11    1    3    3    0    0  0.51260582970E+00 -0.11201615381E+02 -0.85237957149E+01  0.14085242118E+02  0.51100000000E-03 0.  1.
         12    1    3    3    0    0 -0.61927299012E+00 -0.37310448368E+01  0.32312368770E+00  0.37958666373E+01  0.00000000000E+00 0. -1.
</event>
<event>
 7    1  0.6116405E-009  0.4614232E+02  0.7816164E-02  0.1320468E+00
        -11   -1    0    0    0    0  0.00000000000E+00  0.00000000000E+00  0.45593999997E+02  0.45594000000E+02  0.51100000000E-03 0. -1.
         11   -1    0    0    0    0 -0.00000000000E+00 -0.00000000000E+00 -0.45593999997E+02  0.45594000000E+02  0.51100000000E-03 0.  1.
    9900012    2    1    2    0    0 -0.16754299321E+02 -0.85869406191E+01 -0.40922748222E+02  0.46142318554E+02  0.10000007229E+02 0.  0.
         12    1    1    2    0    0  0.16754299321E+02  0.85869406191E+01  0.40922748222E+02  0.45045681446E+02  0.00000000000E+00 0. -1.
         11    1    3    3    0    0 -0.43430263377E+01 -0.24383475752E+01 -0.63631864325E+01  0.80806904719E+01  0.51100000000E-03 0. -1.
        -11    1    3    3    0    0 -0.12110992913E+02 -0.41310809009E+01 -0.22968557828E+02  0.26292520376E+02  0.51100000000E-03 0.  1.
         12    1    3    3    0    0 -0.30028006963E+00 -0.20175121430E+01 -0.11591003961E+02  0.11769107706E+02  0.00000000000E+00 0. -1.
</event>
<event>
 7    1  0.4623443E-009  0.4614232E+02  0.7816164E-02  0.1320468E+00
        -11   -1    0    0    0    0  0.00000000000E+00  0.00000000000E+00  0.45593999997E+02  0.45594000000E+02  0.51100000000E-03 0. -1.
         11   -1    0    0    0    0 -0.00000000000E+00 -0.00000000000E+00 -0.45593999997E+02  0.45594000000E+02  0.51100000000E-03 0.  1.
    9900012    2    1    2    0    0  0.16568370114E+01  0.23968988167E+01 -0.44951342069E+02  0.46142318891E+02  0.10000010301E+02 0.  0.
         12    1    1    2    0    0 -0.16568370114E+01 -0.23968988167E+01  0.44951342069E+02  0.45045681109E+02  0.00000000000E+00 0. -1.
         11    1    3    3    0    0  0.48027083178E+00  0.10147131116E-01 -0.22601828273E+02  0.22606932666E+02  0.51100000000E-03 0. -1.
        -11    1    3    3    0    0 -0.93394140720E+00  0.26356144234E+01 -0.31233829972E+01  0.41921631110E+01  0.51100000000E-03 0.  1.
        -12    1    3    3    0    0  0.21105075868E+01 -0.24886273782E+00 -0.19226130799E+02  0.19343223114E+02  0.00000000000E+00 0.  1.
</event>
<event>
 7    1  0.4623443E-009  0.4614232E+02  0.7816164E-02  0.1320468E+00
        -11   -1    0    0    0    0  0.00000000000E+00  0.00000000000E+00  0.45593999997E+02  0.45594000000E+02  0.51100000000E-03 0. -1.
         11   -1    0    0    0    0 -0.00000000000E+00 -0.00000000000E+00 -0.45593999997E+02  0.45594000000E+02  0.51100000000E-03 0.  1.
    9900012    2    1    2    0    0 -0.18795279110E+02 -0.37867015962E+01 -0.40761648163E+02  0.46142316669E+02  0.99999900414E+01 0.  0.
         12    1    1    2    0    0  0.18795279110E+02  0.37867015962E+01  0.40761648163E+02  0.45045683331E+02  0.00000000000E+00 0. -1.
         11    1    3    3    0    0 -0.64139247820E+01 -0.49330208011E+01 -0.10538950531E+02  0.13286933577E+02  0.51100000000E-03 0. -1.
        -11    1    3    3    0    0 -0.11122797820E+02  0.12907217757E-01 -0.27274641269E+02  0.29455438454E+02  0.51100000000E-03 0.  1.
         12    1    3    3    0    0 -0.12585565088E+01  0.11334119871E+01 -0.29480563635E+01  0.33999446379E+01  0.00000000000E+00 0. -1.
</event>
<event>
 7    1  0.4623443E-009  0.4614232E+02  0.7816164E-02  0.1320468E+00
        -11   -1    0    0    0    0  0.00000000000E+00  0.00000000000E+00  0.45593999997E+02  0.45594000000E+02  0.51100000000E-03 0. -1.
         11   -1    0    0    0    0 -0.00000000000E+00 -0.00000000000E+00 -0.45593999997E+02  0.45594000000E+02  0.51100000000E-03 0.  1.
    9900012    2    1    2    0    0 -0.12222387640E+02 -0.21014170541E+02  0.37922702605E+02  0.46142317677E+02  0.99999992294E+01 0.  0.
        -12    1    1    2    0    0  0.12222387640E+02  0.21014170541E+02 -0.37922702605E+02  0.45045682323E+02  0.00000000000E+00 0.  1.
         11    1    3    3    0    0 -0.82126618456E+01 -0.67181670980E+01  0.14683932147E+02  0.18116275757E+02  0.51100000000E-03 0. -1.
        -11    1    3    3    0    0 -0.20218254555E+01 -0.20115437537E+01  0.22804372521E+01  0.36516408322E+01  0.51100000000E-03 0.  1.
         12    1    3    3    0    0 -0.19879003387E+01 -0.12284459689E+02  0.20958333205E+02  0.24374401087E+02  0.00000000000E+00 0. -1.
</event>
<event>
 7    1  0.4623443E-009  0.4614232E+02  0.7816164E-02  0.1320468E+00
        -11   -1    0    0    0    0  0.00000000000E+00  0.00000000000E+00  0.45593999997E+02  0.45594000000E+02  0.51100000000E-03 0. -1.
         11   -1    0    0    0    0 -0.00000000000E+00 -0.00000000000E+00 -0.45593999997E+02  0.45594000000E+02  0.51100000000E-03 0.  1.
    9900012    2    1    2    0    0  0.23299414716E+02 -0.35072699260E+02 -0.16004887396E+02  0.46142318964E+02  0.10000010966E+02 0.  0.
         12    1    1    2    0    0 -0.23299414716E+02  0.35072699260E+02  0.16004887396E+02  0.45045681036E+02  0.00000000000E+00 0. -1.
         11    1    3    3    0    0  0.94178122711E+01 -0.20917702784E+02 -0.53912486709E+01  0.23565038516E+02  0.51100000000E-03 0.  1.
        -11    1    3    3    0    0  0.74195012151E+01 -0.79556481526E+01 -0.47291122293E+01  0.11861949188E+02  0.51100000000E-03 0. -1.
        -12    1    3    3    0    0  0.64621012296E+01 -0.61993483230E+01 -0.58845264954E+01  0.10715331260E+02  0.00000000000E+00 0.  1.
</event>
<event>
 7    1  0.4623443E-009  0.4614232E+02  0.7816164E-02  0.1320468E+00
        -11   -1    0    0    0    0  0.00000000000E+00  0.00000000000E+00  0.45593999997E+02  0.45594000000E+02  0.51100000000E-03 0. -1.
         11   -1    0    0    0    0 -0.00000000000E+00 -0.00000000000E+00 -0.45593999997E+02  0.45594000000E+02  0.51100000000E-03 0.  1.
    9900012    2    1    2    0    0 -0.73651246193E+00 -0.33379757239E+01  0.44915798618E+02  0.46142317653E+02  0.99999990178E+01 0.  0.
        -12    1    1    2    0    0  0.73651246193E+00  0.33379757239E+01 -0.44915798618E+02  0.45045682347E+02  0.00000000000E+00 0.  1.
         11    1    3    3    0    0 -0.69327879361E+00 -0.23873059099E+01  0.63086702515E+01  0.67807953513E+01  0.51100000000E-03 0. -1.
        -11    1    3    3    0    0  0.70365089541E+00 -0.11677014280E+01  0.87192243866E+00  0.16183016430E+01  0.51100000000E-03 0.  1.
         12    1    3    3    0    0 -0.74688456372E+00  0.21703161398E+00  0.37735205928E+02  0.37743220659E+02  0.00000000000E+00 0. -1.
</event>
<event>
 7    1  0.4623443E-009  0.4614232E+02  0.7816164E-02  0.1320468E+00
        -11   -1    0    0    0    0  0.00000000000E+00  0.00000000000E+00  0.45593999997E+02  0.45594000000E+02  0.51100000000E-03 0. -1.
         11   -1    0    0    0    0 -0.00000000000E+00 -0.00000000000E+00 -0.45593999997E+02  0.45594000000E+02  0.51100000000E-03 0.  1.
    9900012    2    1    2    0    0 -0.28940221859E+02 -0.82095646444E+01 -0.33528795895E+02  0.46142317110E+02  0.99999940582E+01 0.  0.
         12    1    1    2    0    0  0.28940221859E+02  0.82095646444E+01  0.33528795895E+02  0.45045682890E+02  0.00000000000E+00 0. -1.
         11    1    3    3    0    0 -0.91349251023E+01 -0.66871220908E+00 -0.80487999401E+01  0.12193326592E+02  0.51100000000E-03 0. -1.
        -11    1    3    3    0    0 -0.19249885253E+01  0.14221426313E+01 -0.21304091384E+01  0.32041713195E+01  0.51100000000E-03 0.  1.
         12    1    3    3    0    0 -0.17880308231E+02 -0.89629950666E+01 -0.23349586817E+02  0.30744819198E+02  0.00000000000E+00 0. -1.
</event>
<event>
 7    1  0.4623443E-009  0.4614232E+02  0.7816164E-02  0.1320468E+00
        -11   -1    0    0    0    0  0.00000000000E+00  0.00000000000E+00  0.45593999997E+02  0.45594000000E+02  0.51100000000E-03 0. -1.
         11   -1    0    0    0    0 -0.00000000000E+00 -0.00000000000E+00 -0.45593999997E+02  0.45594000000E+02  0.51100000000E-03 0.  1.
    9900012    2    1    2    0    0 -0.94158144214E+01  0.18655135301E+02 -0.39905411097E+02  0.46142317975E+02  0.10000001950E+02 0.  0.
         12    1    1    2    0    0  0.94158144214E+01 -0.18655135301E+02  0.39905411097E+02  0.45045682025E+02  0.00000000000E+00 0. -1.
         11    1    3    3    0    0 -0.48762257516E+01  0.44112248377E+01 -0.95402587862E+01  0.11586760553E+02  0.51100000000E-03 0. -1.
        -11    1    3    3    0    0 -0.37709400207E+01  0.51711826363E+01 -0.70301663317E+01  0.95070688128E+01  0.51100000000E-03 0.  1.
        -12    1    3    3    0    0 -0.76864864902E+00  0.90727278266E+01 -0.23334985979E+02  0.25048488609E+02  0.00000000000E+00 0.  1.
</event>
<event>
 7    1  0.4623443E-009  0.4614231E+02  0.7816164E-02  0.1320468E+00
        -11   -1    0    0    0    0  0.00000000000E+00  0.00000000000E+00  0.45593999997E+02  0.45594000000E+02  0.51100000000E-03 0. -1.
         11   -1    0    0    0    0 -0.00000000000E+00 -0.00000000000E+00 -0.45593999997E+02  0.45594000000E+02  0.51100000000E-03 0.  1.
    9900012    2    1    2    0    0 -0.23990191706E+02 -0.41116459673E+01  0.37903546564E+02  0.46142314604E+02  0.99999712147E+01 0.  0.
        -12    1    1    2    0    0  0.23990191706E+02  0.41116459673E+01 -0.37903546564E+02  0.45045685396E+02  0.00000000000E+00 0.  1.
         11    1    3    3    0    0 -0.76232342709E+01 -0.53066094870E+01  0.12870031845E+02  0.15871720920E+02  0.51100000000E-03 0. -1.
        -11    1    3    3    0    0 -0.14581611665E+02  0.67961283362E+00  0.19016440737E+02  0.23973116003E+02  0.51100000000E-03 0.  1.
         12    1    3    3    0    0 -0.17853457708E+01  0.51535068605E+00  0.60170739815E+01  0.62974776816E+01  0.00000000000E+00 0. -1.
</event>
<event>
 7    1  0.4623443E-009  0.4614232E+02  0.7816164E-02  0.1320468E+00
        -11   -1    0    0    0    0  0.00000000000E+00  0.00000000000E+00  0.45593999997E+02  0.45594000000E+02  0.51100000000E-03 0. -1.
         11   -1    0    0    0    0 -0.00000000000E+00 -0.00000000000E+00 -0.45593999997E+02  0.45594000000E+02  0.51100000000E-03 0.  1.
    9900012    2    1    2    0    0 -0.28465064347E+02  0.37176845578E+01 -0.34713577266E+02  0.46142317484E+02  0.99999974747E+01 0.  0.
         12    1    1    2    0    0  0.28465064347E+02 -0.37176845578E+01  0.34713577266E+02  0.45045682516E+02  0.00000000000E+00 0. -1.
         11    1    3    3    0    0  0.29898538920E+00 -0.27536134747E+00 -0.86116809580E+00  0.95227458486E+00  0.51100000000E-03 0. -1.
        -11    1    3    3    0    0 -0.14997261923E+02  0.53998501879E+01 -0.20417713666E+02  0.25902881671E+02  0.51100000000E-03 0.  1.
         12    1    3    3    0    0 -0.13766787813E+02 -0.14068042826E+01 -0.13434695503E+02  0.19287161228E+02  0.00000000000E+00 0. -1.
</event>
<event>
 7    1  0.4623443E-009  0.4614232E+02  0.7816164E-02  0.1320468E+00
        -11   -1    0    0    0    0  0.00000000000E+00  0.00000000000E+00  0.45593999997E+02  0.45594000000E+02  0.51100000000E-03 0. -1.
         11   -1    0    0    0    0 -0.00000000000E+00 -0.00000000000E+00 -0.45593999997E+02  0.45594000000E+02  0.51100000000E-03 0.  1.
    9900012    2    1    2    0    0  0.36823410609E+01  0.44558225009E+01  0.44673252957E+02  0.46142317414E+02  0.99999968366E+01 0.  0.
        -12    1    1    2    0    0 -0.36823410609E+01 -0.44558225009E+01 -0.44673252957E+02  0.45045682586E+02  0.00000000000E+00 0.  1.
         11    1    3    3    0    0  0.11300231115E+01  0.62827067241E+01  0.28283801430E+02  0.28995219945E+02  0.51100000000E-03 0. -1.
        -11    1    3    3    0    0 -0.25724816140E+00  0.48076274885E+00  0.24404674389E+00  0.59738472658E+00  0.51100000000E-03 0.  1.
         12    1    3    3    0    0  0.28095661109E+01 -0.23076469720E+01  0.16145404783E+02  0.16549712743E+02  0.00000000000E+00 0. -1.
</event>
<event>
 7    1  0.4623443E-009  0.4614232E+02  0.7816164E-02  0.1320468E+00
        -11   -1    0    0    0    0  0.00000000000E+00  0.00000000000E+00  0.45593999997E+02  0.45594000000E+02  0.51100000000E-03 0. -1.
         11   -1    0    0    0    0 -0.00000000000E+00 -0.00000000000E+00 -0.45593999997E+02  0.45594000000E+02  0.51100000000E-03 0.  1.
    9900012    2    1    2    0    0  0.71758175821E+01  0.30246776474E+02  0.32599905239E+02  0.46142315783E+02  0.99999819577E+01 0.  0.
        -12    1    1    2    0    0 -0.71758175821E+01 -0.30246776474E+02 -0.32599905239E+02  0.45045684217E+02  0.00000000000E+00 0.  1.
         11    1    3    3    0    0 -0.83387651432E+00  0.12772398172E+02  0.13950756175E+02  0.18932857767E+02  0.51100000000E-03 0. -1.
        -11    1    3    3    0    0  0.23969903657E+01  0.17103368476E+01  0.40187662018E+01  0.49820976497E+01  0.51100000000E-03 0.  1.
        -12    1    3    3    0    0  0.56127037308E+01  0.15764041455E+02  0.14630382862E+02  0.22227360366E+02  0.00000000000E+00 0.  1.
</event>
<event>
 7    1  0.4623443E-009  0.4614232E+02  0.7816164E-02  0.1320468E+00
        -11   -1    0    0    0    0  0.00000000000E+00  0.00000000000E+00  0.45593999997E+02  0.45594000000E+02  0.51100000000E-03 0. -1.
         11   -1    0    0    0    0 -0.00000000000E+00 -0.00000000000E+00 -0.45593999997E+02  0.45594000000E+02  0.51100000000E-03 0.  1.
    9900012    2    1    2    0    0  0.22821244047E+01 -0.29998355426E+02  0.33526169829E+02  0.46142317815E+02  0.10000000495E+02 0.  0.
        -12    1    1    2    0    0 -0.22821244047E+01  0.29998355426E+02 -0.33526169829E+02  0.45045682185E+02  0.00000000000E+00 0.  1.
         11    1    3    3    0    0  0.22952997222E+01 -0.41643118213E+01  0.51660900897E+01  0.70212805695E+01  0.51100000000E-03 0. -1.
        -11    1    3    3    0    0 -0.85146916939E+00 -0.38393176150E+01  0.10987929717E+01  0.40832224714E+01  0.51100000000E-03 0.  1.
         12    1    3    3    0    0  0.83829385182E+00 -0.21994725990E+02  0.27261286767E+02  0.35037814774E+02  0.00000000000E+00 0. -1.
</event>
<event>
 7    1  0.4623443E-009  0.4614232E+02  0.7816164E-02  0.1320468E+00
        -11   -1    0    0    0    0  0.00000000000E+00  0.00000000000E+00  0.45593999997E+02  0.45594000000E+02  0.51100000000E-03 0.  1.
         11   -1    0    0    0    0 -0.00000000000E+00 -0.00000000000E+00 -0.45593999997E+02  0.45594000000E+02  0.51100000000E-03 0. -1.
    9900012    2    1    2    0    0 -0.34942534699E+02  0.89029331408E+01  0.26997605592E+02  0.46142315885E+02  0.99999828894E+01 0.  0.
        -12    1    1    2    0    0  0.34942534699E+02 -0.89029331408E+01 -0.26997605592E+02  0.45045684115E+02  0.00000000000E+00 0.  1.
         11    1    3    3    0    0 -0.11183793115E+02  0.14617033522E+01  0.12084422991E+02  0.16530187065E+02  0.51100000000E-03 0. -1.
        -11    1    3    3    0    0 -0.81237980477E+01  0.50901514073E+01  0.73807121119E+01  0.12098787030E+02  0.51100000000E-03 0.  1.
         12    1    3    3    0    0 -0.15634943537E+02  0.23510783813E+01  0.75324704894E+01  0.17513341789E+02  0.00000000000E+00 0. -1.
</event>
<event>
 7    1  0.4623443E-009  0.4614232E+02  0.7816164E-02  0.1320468E+00
        -11   -1    0    0    0    0  0.00000000000E+00  0.00000000000E+00  0.45593999997E+02  0.45594000000E+02  0.51100000000E-03 0. -1.
         11   -1    0    0    0    0 -0.00000000000E+00 -0.00000000000E+00 -0.45593999997E+02  0.45594000000E+02  0.51100000000E-03 0.  1.
    9900012    2    1    2    0    0 -0.34318137329E+02  0.86429169392E+00 -0.29165593728E+02  0.46142318660E+02  0.10000008199E+02 0.  0.
         12    1    1    2    0    0  0.34318137329E+02 -0.86429169392E+00  0.29165593728E+02  0.45045681340E+02  0.00000000000E+00 0. -1.
         11    1    3    3    0    0 -0.23883457957E+01 -0.85215810943E+00 -0.50038949529E+01  0.56097534744E+01  0.51100000000E-03 0.  1.
        -11    1    3    3    0    0 -0.55381110252E+01 -0.11519084617E+01 -0.21662646083E+01  0.60572493300E+01  0.51100000000E-03 0. -1.
        -12    1    3    3    0    0 -0.26391680508E+02  0.28683582650E+01 -0.21995434167E+02  0.34475315856E+02  0.00000000000E+00 0.  1.
</event>
<event>
 7    1  0.4623443E-009  0.4614232E+02  0.7816164E-02  0.1320468E+00
        -11   -1    0    0    0    0  0.00000000000E+00  0.00000000000E+00  0.45593999997E+02  0.45594000000E+02  0.51100000000E-03 0. -1.
         11   -1    0    0    0    0 -0.00000000000E+00 -0.00000000000E+00 -0.45593999997E+02  0.45594000000E+02  0.51100000000E-03 0.  1.
    9900012    2    1    2    0    0  0.11231853415E+02 -0.14191311775E+02  0.41250039909E+02  0.46142315928E+02  0.99999832860E+01 0.  0.
        -12    1    1    2    0    0 -0.11231853415E+02  0.14191311775E+02 -0.41250039909E+02  0.45045684072E+02  0.00000000000E+00 0.  1.
         11    1    3    3    0    0  0.44398610636E+01 -0.38532579760E+01  0.16960847910E+02  0.17950775064E+02  0.51100000000E-03 0. -1.
        -11    1    3    3    0    0  0.17574433398E+01 -0.29929124672E+01  0.16085388835E+01  0.38253796844E+01  0.51100000000E-03 0.  1.
        -12    1    3    3    0    0  0.50345490119E+01 -0.73451413318E+01  0.22680653115E+02  0.24366161180E+02  0.00000000000E+00 0.  1.
</event>
<event>
 7    1  0.4623443E-009  0.4614232E+02  0.7816164E-02  0.1320468E+00
        -11   -1    0    0    0    0  0.00000000000E+00  0.00000000000E+00  0.45593999997E+02  0.45594000000E+02  0.51100000000E-03 0. -1.
         11   -1    0    0    0    0 -0.00000000000E+00 -0.00000000000E+00 -0.45593999997E+02  0.45594000000E+02  0.51100000000E-03 0.  1.
    9900012    2    1    2    0    0  0.19043346440E+02  0.30776991348E+02 -0.26818672841E+02  0.46142318153E+02  0.10000003575E+02 0.  0.
         12    1    1    2    0    0 -0.19043346440E+02 -0.30776991348E+02  0.26818672841E+02  0.45045681847E+02  0.00000000000E+00 0. -1.
         11    1    3    3    0    0  0.13254388373E+02  0.21390418928E+02 -0.21948021466E+02  0.33390784351E+02  0.51100000000E-03 0. -1.
        -11    1    3    3    0    0  0.48282642088E+01  0.76137715342E+01 -0.55931079966E+01  0.10609642292E+02  0.51100000000E-03 0.  1.
        -12    1    3    3    0    0  0.96069385798E+00  0.17728008862E+01  0.72245662127E+00  0.21418915100E+01  0.00000000000E+00 0.  1.
</event>
<event>
 7    1  0.4623443E-009  0.4614232E+02  0.7816164E-02  0.1320468E+00
        -11   -1    0    0    0    0  0.00000000000E+00  0.00000000000E+00  0.45593999997E+02  0.45594000000E+02  0.51100000000E-03 0. -1.
         11   -1    0    0    0    0 -0.00000000000E+00 -0.00000000000E+00 -0.45593999997E+02  0.45594000000E+02  0.51100000000E-03 0.  1.
    9900012    2    1    2    0    0  0.11868964266E+01 -0.33160689433E+02  0.30464297455E+02  0.46142318007E+02  0.10000002243E+02 0.  0.
        -12    1    1    2    0    0 -0.11868964266E+01  0.33160689433E+02 -0.30464297455E+02  0.45045681993E+02  0.00000000000E+00 0.  1.
         11    1    3    3    0    0  0.24847155486E+01 -0.13626835206E+02  0.11255202848E+02  0.17847802120E+02  0.51100000000E-03 0. -1.
        -11    1    3    3    0    0  0.10514187818E+01 -0.17457949235E+02  0.14965577105E+02  0.23018557107E+02  0.51100000000E-03 0.  1.
        -12    1    3    3    0    0 -0.23492379039E+01 -0.20759049919E+01  0.42435175021E+01  0.52759587807E+01  0.00000000000E+00 0.  1.
</event>
<event>
 7    1  0.4623443E-009  0.4614232E+02  0.7816164E-02  0.1320468E+00
        -11   -1    0    0    0    0  0.00000000000E+00  0.00000000000E+00  0.45593999997E+02  0.45594000000E+02  0.51100000000E-03 0.  1.
         11   -1    0    0    0    0 -0.00000000000E+00 -0.00000000000E+00 -0.45593999997E+02  0.45594000000E+02  0.51100000000E-03 0. -1.
    9900012    2    1    2    0    0  0.33156307209E+02  0.28947490439E+02  0.95820414862E+01  0.46142318415E+02  0.10000005960E+02 0.  0.
         12    1    1    2    0    0 -0.33156307209E+02 -0.28947490439E+02 -0.95820414862E+01  0.45045681585E+02  0.00000000000E+00 0. -1.
         11    1    3    3    0    0  0.18047021604E+02  0.14791666140E+02  0.73004542314E+01  0.24449642292E+02  0.51100000000E-03 0. -1.
        -11    1    3    3    0    0  0.41191180653E+01  0.12085932852E+01  0.19289606306E+01  0.47062427414E+01  0.51100000000E-03 0.  1.
        -12    1    3    3    0    0  0.10990167539E+02  0.12947231014E+02  0.35262662418E+00  0.16986433381E+02  0.00000000000E+00 0.  1.
</event>
<event>
 7    1  0.4623443E-009  0.4614232E+02  0.7816164E-02  0.1320468E+00
        -11   -1    0    0    0    0  0.00000000000E+00  0.00000000000E+00  0.45593999997E+02  0.45594000000E+02  0.51100000000E-03 0. -1.
         11   -1    0    0    0    0 -0.00000000000E+00 -0.00000000000E+00 -0.45593999997E+02  0.45594000000E+02  0.51100000000E-03 0.  1.
    9900012    2    1    2    0    0  0.14956018952E+02 -0.24534030966E+02 -0.34691674661E+02  0.46142317974E+02  0.10000001944E+02 0.  0.
         12    1    1    2    0    0 -0.14956018952E+02  0.24534030966E+02  0.34691674661E+02  0.45045682026E+02  0.00000000000E+00 0. -1.
         11    1    3    3    0    0  0.89485973465E+01 -0.16453050128E+02 -0.18775702589E+02  0.26519940818E+02  0.51100000000E-03 0.  1.
        -11    1    3    3    0    0  0.21826248341E+01 -0.48721534401E+01 -0.12445092929E+02  0.13541863557E+02  0.51100000000E-03 0. -1.
         12    1    3    3    0    0  0.38247967715E+01 -0.32088273977E+01 -0.34708791429E+01  0.60805135997E+01  0.00000000000E+00 0. -1.
</event>
<event>
 7    1  0.4623443E-009  0.4614232E+02  0.7816164E-02  0.1320468E+00
        -11   -1    0    0    0    0  0.00000000000E+00  0.00000000000E+00  0.45593999997E+02  0.45594000000E+02  0.51100000000E-03 0. -1.
         11   -1    0    0    0    0 -0.00000000000E+00 -0.00000000000E+00 -0.45593999997E+02  0.45594000000E+02  0.51100000000E-03 0.  1.
    9900012    2    1    2    0    0 -0.47443139172E+01 -0.32805892138E+02 -0.30502105463E+02  0.46142317508E+02  0.99999976954E+01 0.  0.
         12    1    1    2    0    0  0.47443139172E+01  0.32805892138E+02  0.30502105463E+02  0.45045682492E+02  0.00000000000E+00 0. -1.
         11    1    3    3    0    0 -0.43985067720E+01 -0.80600189157E+01 -0.10776854677E+02  0.14158084748E+02  0.51100000000E-03 0. -1.
        -11    1    3    3    0    0 -0.20365138845E-01 -0.53145961255E+01 -0.68593448191E+01  0.86773243759E+01  0.51100000000E-03 0.  1.
         12    1    3    3    0    0 -0.32544200632E+00 -0.19431277096E+02 -0.12865905966E+02  0.23306908384E+02  0.00000000000E+00 0. -1.
</event>
<event>
 7    1  0.4623443E-009  0.4614232E+02  0.7816164E-02  0.1320468E+00
        -11   -1    0    0    0    0  0.00000000000E+00  0.00000000000E+00  0.45593999997E+02  0.45594000000E+02  0.51100000000E-03 0. -1.
         11   -1    0    0    0    0 -0.00000000000E+00 -0.00000000000E+00 -0.45593999997E+02  0.45594000000E+02  0.51100000000E-03 0.  1.
    9900012    2    1    2    0    0 -0.14245255972E+02 -0.21994927556E+02  0.36638902703E+02  0.46142319328E+02  0.10000014288E+02 0.  0.
        -12    1    1    2    0    0  0.14245255972E+02  0.21994927556E+02 -0.36638902703E+02  0.45045680672E+02  0.00000000000E+00 0.  1.
         11    1    3    3    0    0  0.42649800820E-02  0.59434616744E+00  0.96030134232E+00  0.11293557836E+01  0.51100000000E-03 0. -1.
        -11    1    3    3    0    0 -0.20364150013E+01 -0.34605129514E+01  0.98103180649E+01  0.10600211165E+02  0.51100000000E-03 0.  1.
         12    1    3    3    0    0 -0.12213105951E+02 -0.19128760772E+02  0.25868283296E+02  0.34412752379E+02  0.00000000000E+00 0. -1.
</event>
<event>
 7    1  0.4623443E-009  0.4614231E+02  0.7816164E-02  0.1320468E+00
        -11   -1    0    0    0    0  0.00000000000E+00  0.00000000000E+00  0.45593999997E+02  0.45594000000E+02  0.51100000000E-03 0. -1.
         11   -1    0    0    0    0 -0.00000000000E+00 -0.00000000000E+00 -0.45593999997E+02  0.45594000000E+02  0.51100000000E-03 0.  1.
    9900012    2    1    2    0    0 -0.29294111995E+02  0.30834696730E+02  0.14838815368E+02  0.46142312509E+02  0.99999521095E+01 0.  0.
        -12    1    1    2    0    0  0.29294111995E+02 -0.30834696730E+02 -0.14838815368E+02  0.45045687491E+02  0.00000000000E+00 0.  1.
         11    1    3    3    0    0 -0.35142852243E+01  0.16922172714E+01  0.12884902931E+01  0.41077983675E+01  0.51100000000E-03 0. -1.
        -11    1    3    3    0    0 -0.25010131013E+02  0.28425260131E+02  0.14571038240E+02  0.40568672919E+02  0.51100000000E-03 0.  1.
        -12    1    3    3    0    0 -0.76969575745E+00  0.71721932784E+00 -0.10207131654E+01  0.14658412224E+01  0.00000000000E+00 0.  1.
</event>
<event>
 7    1  0.4623443E-009  0.4614232E+02  0.7816164E-02  0.1320468E+00
        -11   -1    0    0    0    0  0.00000000000E+00  0.00000000000E+00  0.45593999997E+02  0.45594000000E+02  0.51100000000E-03 0. -1.
         11   -1    0    0    0    0 -0.00000000000E+00 -0.00000000000E+00 -0.45593999997E+02  0.45594000000E+02  0.51100000000E-03 0.  1.
    9900012    2    1    2    0    0 -0.76094752311E+01  0.21769508853E+01 -0.44344901163E+02  0.46142317769E+02  0.10000000076E+02 0.  0.
         12    1    1    2    0    0  0.76094752311E+01 -0.21769508853E+01  0.44344901163E+02  0.45045682231E+02  0.00000000000E+00 0. -1.
         11    1    3    3    0    0 -0.66032974075E+01  0.34209307686E-01 -0.20451752306E+02  0.21491367559E+02  0.51100000000E-03 0. -1.
        -11    1    3    3    0    0 -0.14582472927E+01  0.38876929047E+01 -0.14331505173E+02  0.14920880741E+02  0.51100000000E-03 0.  1.
         12    1    3    3    0    0  0.45206946907E+00 -0.17449513271E+01 -0.95616436839E+01  0.97300694693E+01  0.00000000000E+00 0. -1.
</event>
<event>
 7    1  0.4623443E-009  0.4614232E+02  0.7816164E-02  0.1320468E+00
        -11   -1    0    0    0    0  0.00000000000E+00  0.00000000000E+00  0.45593999997E+02  0.45594000000E+02  0.51100000000E-03 0.  1.
         11   -1    0    0    0    0 -0.00000000000E+00 -0.00000000000E+00 -0.45593999997E+02  0.45594000000E+02  0.51100000000E-03 0. -1.
    9900012    2    1    2    0    0 -0.42678544925E+02  0.13967688594E+02 -0.35438606533E+01  0.46142317966E+02  0.10000001867E+02 0.  0.
        -12    1    1    2    0    0  0.42678544925E+02 -0.13967688594E+02  0.35438606533E+01  0.45045682034E+02  0.00000000000E+00 0.  1.
         11    1    3    3    0    0 -0.23787106930E+01  0.26670415867E+01  0.51032515692E+00  0.36099594752E+01  0.51100000000E-03 0. -1.
        -11    1    3    3    0    0 -0.25581922307E+01  0.20068667461E+01 -0.14962549689E+01  0.35791955547E+01  0.51100000000E-03 0.  1.
         12    1    3    3    0    0 -0.37741642002E+02  0.92937802609E+01 -0.25579308413E+01  0.38953162936E+02  0.00000000000E+00 0. -1.
</event>
<event>
 7    1  0.4623443E-009  0.4614232E+02  0.7816164E-02  0.1320468E+00
        -11   -1    0    0    0    0  0.00000000000E+00  0.00000000000E+00  0.45593999997E+02  0.45594000000E+02  0.51100000000E-03 0. -1.
         11   -1    0    0    0    0 -0.00000000000E+00 -0.00000000000E+00 -0.45593999997E+02  0.45594000000E+02  0.51100000000E-03 0.  1.
    9900012    2    1    2    0    0  0.17101202128E+02  0.58584411520E+01  0.41259431727E+02  0.46142321479E+02  0.10000033906E+02 0.  0.
        -12    1    1    2    0    0 -0.17101202128E+02 -0.58584411520E+01 -0.41259431727E+02  0.45045678521E+02  0.00000000000E+00 0.  1.
         11    1    3    3    0    0  0.90884284061E+01  0.53167703894E+01  0.28643093474E+02  0.30517116218E+02  0.51100000000E-03 0. -1.
        -11    1    3    3    0    0  0.15250581686E+01  0.20500846450E+01  0.33428665342E+01  0.42075416096E+01  0.51100000000E-03 0.  1.
         12    1    3    3    0    0  0.64877155529E+01 -0.15084138825E+01  0.92734717190E+01  0.11417663652E+02  0.00000000000E+00 0. -1.
</event>
<event>
 7    1  0.4623443E-009  0.4614232E+02  0.7816164E-02  0.1320468E+00
        -11   -1    0    0    0    0  0.00000000000E+00  0.00000000000E+00  0.45593999997E+02  0.45594000000E+02  0.51100000000E-03 0. -1.
         11   -1    0    0    0    0 -0.00000000000E+00 -0.00000000000E+00 -0.45593999997E+02  0.45594000000E+02  0.51100000000E-03 0.  1.
    9900012    2    1    2    0    0 -0.42917142976E+01 -0.32138004406E+02 -0.31270487670E+02  0.46142317211E+02  0.99999949817E+01 0.  0.
         12    1    1    2    0    0  0.42917142976E+01  0.32138004406E+02  0.31270487670E+02  0.45045682789E+02  0.00000000000E+00 0. -1.
         11    1    3    3    0    0 -0.36157650873E+00 -0.42928431617E+01 -0.27002207885E+01  0.50843320654E+01  0.51100000000E-03 0. -1.
        -11    1    3    3    0    0  0.23571585406E+01 -0.12051528707E+02 -0.96107594991E+01  0.15593660217E+02  0.51100000000E-03 0.  1.
        -12    1    3    3    0    0 -0.62872963294E+01 -0.15793632537E+02 -0.18959507382E+02  0.25464324928E+02  0.00000000000E+00 0.  1.
</event>
<event>
 7    1  0.4623443E-009  0.4614233E+02  0.7816164E-02  0.1320468E+00
        -11   -1    0    0    0    0  0.00000000000E+00  0.00000000000E+00  0.45593999997E+02  0.45594000000E+02  0.51100000000E-03 0. -1.
         11   -1    0    0    0    0 -0.00000000000E+00 -0.00000000000E+00 -0.45593999997E+02  0.45594000000E+02  0.51100000000E-03 0.  1.
    9900012    2    1    2    0    0 -0.12500177456E+02 -0.11069803268E+02  0.41836794945E+02  0.46142329930E+02  0.10000110961E+02 0.  0.
        -12    1    1    2    0    0  0.12500177456E+02  0.11069803268E+02 -0.41836794945E+02  0.45045670070E+02  0.00000000000E+00 0.  1.
         11    1    3    3    0    0 -0.51159079523E+01 -0.54395018019E+01  0.13764625921E+02  0.15659681383E+02  0.51100000000E-03 0. -1.
        -11    1    3    3    0    0 -0.88936564935E+01 -0.48446232768E+01  0.24944987757E+02  0.26922479733E+02  0.51100000000E-03 0.  1.
        -12    1    3    3    0    0  0.15093869893E+01 -0.78567818885E+00  0.31271812670E+01  0.35601688129E+01  0.00000000000E+00 0.  1.
</event>
<event>
 7    1  0.4623443E-009  0.4614232E+02  0.7816164E-02  0.1320468E+00
        -11   -1    0    0    0    0  0.00000000000E+00  0.00000000000E+00  0.45593999997E+02  0.45594000000E+02  0.51100000000E-03 0. -1.
         11   -1    0    0    0    0 -0.00000000000E+00 -0.00000000000E+00 -0.45593999997E+02  0.45594000000E+02  0.51100000000E-03 0.  1.
    9900012    2    1    2    0    0 -0.81309547722E+01 -0.10503154047E+02  0.43042825237E+02  0.46142317911E+02  0.10000001368E+02 0.  0.
        -12    1    1    2    0    0  0.81309547722E+01  0.10503154047E+02 -0.43042825237E+02  0.45045682089E+02  0.00000000000E+00 0.  1.
         11    1    3    3    0    0  0.69583549770E+00 -0.60194188266E+01  0.21157111351E+02  0.22007747523E+02  0.51100000000E-03 0. -1.
        -11    1    3    3    0    0 -0.20798599967E+01 -0.14743264904E+01  0.35857116059E+01  0.43996345516E+01  0.51100000000E-03 0.  1.
         12    1    3    3    0    0 -0.67469302732E+01 -0.30094087301E+01  0.18300002280E+02  0.19734935837E+02  0.00000000000E+00 0. -1.
</event>
<event>
 7    1  0.4623443E-009  0.4614232E+02  0.7816164E-02  0.1320468E+00
        -11   -1    0    0    0    0  0.00000000000E+00  0.00000000000E+00  0.45593999997E+02  0.45594000000E+02  0.51100000000E-03 0. -1.
         11   -1    0    0    0    0 -0.00000000000E+00 -0.00000000000E+00 -0.45593999997E+02  0.45594000000E+02  0.51100000000E-03 0.  1.
    9900012    2    1    2    0    0  0.49946675862E+01  0.19135728649E+02 -0.40472096748E+02  0.46142318404E+02  0.10000005865E+02 0.  0.
         12    1    1    2    0    0 -0.49946675862E+01 -0.19135728649E+02  0.40472096748E+02  0.45045681596E+02  0.00000000000E+00 0. -1.
         11    1    3    3    0    0 -0.12931083997E+01  0.28471612929E+01 -0.31655253503E+01  0.44496075968E+01  0.51100000000E-03 0. -1.
        -11    1    3    3    0    0  0.33203657870E+00  0.15371890532E+01 -0.59303489844E+00  0.16807406483E+01  0.51100000000E-03 0.  1.
        -12    1    3    3    0    0  0.59557394072E+01  0.14751378303E+02 -0.36713536499E+02  0.40011970159E+02  0.00000000000E+00 0.  1.
</event>
<event>
 7    1  0.4623443E-009  0.4614232E+02  0.7816164E-02  0.1320468E+00
        -11   -1    0    0    0    0  0.00000000000E+00  0.00000000000E+00  0.45593999997E+02  0.45594000000E+02  0.51100000000E-03 0.  1.
         11   -1    0    0    0    0 -0.00000000000E+00 -0.00000000000E+00 -0.45593999997E+02  0.45594000000E+02  0.51100000000E-03 0. -1.
    9900012    2    1    2    0    0  0.35941201490E+02  0.12065028141E+02 -0.24326500954E+02  0.46142317441E+02  0.99999970815E+01 0.  0.
         12    1    1    2    0    0 -0.35941201490E+02 -0.12065028141E+02  0.24326500954E+02  0.45045682559E+02  0.00000000000E+00 0. -1.
         11    1    3    3    0    0  0.71585431341E+01  0.45808047054E+01 -0.57363589223E+01  0.10253503084E+02  0.51100000000E-03 0. -1.
        -11    1    3    3    0    0  0.23640739852E+02  0.35942450641E+01 -0.16711120307E+02  0.29173013566E+02  0.51100000000E-03 0.  1.
        -12    1    3    3    0    0  0.51419185037E+01  0.38899783712E+01 -0.18790217243E+01  0.67158007912E+01  0.00000000000E+00 0.  1.
</event>
<event>
 7    1  0.4623443E-009  0.4614232E+02  0.7816164E-02  0.1320468E+00
        -11   -1    0    0    0    0  0.00000000000E+00  0.00000000000E+00  0.45593999997E+02  0.45594000000E+02  0.51100000000E-03 0. -1.
         11   -1    0    0    0    0 -0.00000000000E+00 -0.00000000000E+00 -0.45593999997E+02  0.45594000000E+02  0.51100000000E-03 0.  1.
    9900012    2    1    2    0    0  0.13281754479E+02  0.10520516642E+02  0.41737599023E+02  0.46142318246E+02  0.10000004424E+02 0.  0.
        -12    1    1    2    0    0 -0.13281754479E+02 -0.10520516642E+02 -0.41737599023E+02  0.45045681754E+02  0.00000000000E+00 0.  1.
         11    1    3    3    0    0  0.66188936540E+01  0.59682540620E+01  0.10381897974E+02  0.13682602660E+02  0.51100000000E-03 0. -1.
        -11    1    3    3    0    0  0.29179792426E+01  0.10779389666E+01  0.88258747319E+01  0.93580243813E+01  0.51100000000E-03 0.  1.
         12    1    3    3    0    0  0.37448815819E+01  0.34743236130E+01  0.22529826318E+02  0.23101691205E+02  0.00000000000E+00 0. -1.
</event>
<event>
 7    1  0.4623443E-009  0.4614232E+02  0.7816164E-02  0.1320468E+00
        -11   -1    0    0    0    0  0.00000000000E+00  0.00000000000E+00  0.45593999997E+02  0.45594000000E+02  0.51100000000E-03 0. -1.
         11   -1    0    0    0    0 -0.00000000000E+00 -0.00000000000E+00 -0.45593999997E+02  0.45594000000E+02  0.51100000000E-03 0.  1.
    9900012    2    1    2    0    0 -0.14987266511E+02  0.87619721528E+01 -0.41565891403E+02  0.46142316060E+02  0.99999844856E+01 0.  0.
         12    1    1    2    0    0  0.14987266511E+02 -0.87619721528E+01  0.41565891403E+02  0.45045683940E+02  0.00000000000E+00 0. -1.
         11    1    3    3    0    0 -0.22934481966E+01  0.38068714869E+01 -0.87621433561E+01  0.98248323957E+01  0.51100000000E-03 0. -1.
        -11    1    3    3    0    0 -0.37652332258E+01  0.10217179556E+01 -0.19105926584E+02  0.19500187684E+02  0.51100000000E-03 0.  1.
         12    1    3    3    0    0 -0.89285850889E+01  0.39333827103E+01 -0.13697821463E+02  0.16817295980E+02  0.00000000000E+00 0. -1.
</event>
<event>
 7    1  0.4623443E-009  0.4614232E+02  0.7816164E-02  0.1320468E+00
        -11   -1    0    0    0    0  0.00000000000E+00  0.00000000000E+00  0.45593999997E+02  0.45594000000E+02  0.51100000000E-03 0. -1.
         11   -1    0    0    0    0 -0.00000000000E+00 -0.00000000000E+00 -0.45593999997E+02  0.45594000000E+02  0.51100000000E-03 0.  1.
    9900012    2    1    2    0    0 -0.28792846038E+02  0.30756656256E+02  0.15940941027E+02  0.46142317767E+02  0.10000000055E+02 0.  0.
        -12    1    1    2    0    0  0.28792846038E+02 -0.30756656256E+02 -0.15940941027E+02  0.45045682233E+02  0.00000000000E+00 0.  1.
         11    1    3    3    0    0 -0.15065842888E+02  0.15673693770E+02  0.10124650078E+02  0.23982344293E+02  0.51100000000E-03 0. -1.
        -11    1    3    3    0    0 -0.12901049966E+02  0.10695041462E+02  0.56756902092E+01  0.17692779932E+02  0.51100000000E-03 0.  1.
        -12    1    3    3    0    0 -0.82595318297E+00  0.43879210245E+01  0.14060074002E+00  0.44671935424E+01  0.00000000000E+00 0.  1.
</event>
<event>
 7    1  0.4623443E-009  0.4614232E+02  0.7816164E-02  0.1320468E+00
        -11   -1    0    0    0    0  0.00000000000E+00  0.00000000000E+00  0.45593999997E+02  0.45594000000E+02  0.51100000000E-03 0. -1.
         11   -1    0    0    0    0 -0.00000000000E+00 -0.00000000000E+00 -0.45593999997E+02  0.45594000000E+02  0.51100000000E-03 0.  1.
    9900012    2    1    2    0    0 -0.24904408640E+02  0.31033860313E+02 -0.21113573062E+02  0.46142322926E+02  0.10000047097E+02 0.  0.
         12    1    1    2    0    0  0.24904408640E+02 -0.31033860313E+02  0.21113573062E+02  0.45045677074E+02  0.00000000000E+00 0. -1.
         11    1    3    3    0    0 -0.42712012296E+01  0.85929973183E+01 -0.87168891037E+01  0.12964062587E+02  0.51100000000E-03 0. -1.
        -11    1    3    3    0    0 -0.29653513791E+01  0.34113793507E+01 -0.35444661838E+01  0.57440454964E+01  0.51100000000E-03 0.  1.
         12    1    3    3    0    0 -0.17667856031E+02  0.19029483643E+02 -0.88522177746E+01  0.27434214842E+02  0.00000000000E+00 0. -1.
</event>
<event>
 7    1  0.4623443E-009  0.4614232E+02  0.7816164E-02  0.1320468E+00
        -11   -1    0    0    0    0  0.00000000000E+00  0.00000000000E+00  0.45593999997E+02  0.45594000000E+02  0.51100000000E-03 0.  1.
         11   -1    0    0    0    0 -0.00000000000E+00 -0.00000000000E+00 -0.45593999997E+02  0.45594000000E+02  0.51100000000E-03 0. -1.
    9900012    2    1    2    0    0  0.87972717247E+01  0.42128918881E+02 -0.13299462730E+02  0.46142317579E+02  0.99999983357E+01 0.  0.
         12    1    1    2    0    0 -0.87972717247E+01 -0.42128918881E+02  0.13299462730E+02  0.45045682421E+02  0.00000000000E+00 0. -1.
         11    1    3    3    0    0  0.53883096039E+01  0.17067171472E+02 -0.91050377960E+01  0.20080436648E+02  0.51100000000E-03 0. -1.
        -11    1    3    3    0    0 -0.84429163974E+00  0.79135676378E+01 -0.26757609600E+00  0.79629754715E+01  0.51100000000E-03 0.  1.
         12    1    3    3    0    0  0.42532537605E+01  0.17148179772E+02 -0.39268488381E+01  0.18098905459E+02  0.00000000000E+00 0. -1.
</event>
<event>
 7    1  0.4623443E-009  0.4614232E+02  0.7816164E-02  0.1320468E+00
        -11   -1    0    0    0    0  0.00000000000E+00  0.00000000000E+00  0.45593999997E+02  0.45594000000E+02  0.51100000000E-03 0. -1.
         11   -1    0    0    0    0 -0.00000000000E+00 -0.00000000000E+00 -0.45593999997E+02  0.45594000000E+02  0.51100000000E-03 0.  1.
    9900012    2    1    2    0    0 -0.21900231546E+02 -0.23355448478E+02 -0.31686219060E+02  0.46142316592E+02  0.99999893361E+01 0.  0.
         12    1    1    2    0    0  0.21900231546E+02  0.23355448478E+02  0.31686219060E+02  0.45045683408E+02  0.00000000000E+00 0. -1.
         11    1    3    3    0    0 -0.45603265334E+00 -0.14095335047E+01 -0.69820619685E+00  0.16377553652E+01  0.51100000000E-03 0. -1.
        -11    1    3    3    0    0 -0.71965173057E+01 -0.51710970256E+01 -0.41189678502E+01  0.97722055950E+01  0.51100000000E-03 0.  1.
        -12    1    3    3    0    0 -0.14247681587E+02 -0.16774817948E+02 -0.26869045013E+02  0.34732355631E+02  0.00000000000E+00 0.  1.
</event>
<event>
 7    1  0.4623443E-009  0.4614232E+02  0.7816164E-02  0.1320468E+00
        -11   -1    0    0    0    0  0.00000000000E+00  0.00000000000E+00  0.45593999997E+02  0.45594000000E+02  0.51100000000E-03 0. -1.
         11   -1    0    0    0    0 -0.00000000000E+00 -0.00000000000E+00 -0.45593999997E+02  0.45594000000E+02  0.51100000000E-03 0.  1.
    9900012    2    1    2    0    0 -0.17070582369E+02  0.41583322468E+02 -0.29216512818E+01  0.46142317231E+02  0.99999951663E+01 0.  0.
         12    1    1    2    0    0  0.17070582369E+02 -0.41583322468E+02  0.29216512818E+01  0.45045682769E+02  0.00000000000E+00 0. -1.
         11    1    3    3    0    0 -0.35799865893E+01  0.16293956123E+02 -0.22326218527E+01  0.16831337163E+02  0.51100000000E-03 0.  1.
        -11    1    3    3    0    0 -0.46975858549E+00  0.57991551273E+01  0.51262726553E+00  0.58406900528E+01  0.51100000000E-03 0. -1.
         12    1    3    3    0    0 -0.13020837194E+02  0.19490211218E+02 -0.12016566946E+01  0.23470290015E+02  0.00000000000E+00 0. -1.
</event>
<event>
 7    1  0.4623443E-009  0.4614232E+02  0.7816164E-02  0.1320468E+00
        -11   -1    0    0    0    0  0.00000000000E+00  0.00000000000E+00  0.45593999997E+02  0.45594000000E+02  0.51100000000E-03 0.  1.
         11   -1    0    0    0    0 -0.00000000000E+00 -0.00000000000E+00 -0.45593999997E+02  0.45594000000E+02  0.51100000000E-03 0. -1.
    9900012    2    1    2    0    0  0.24615184876E+02 -0.25054349963E+02 -0.28204356304E+02  0.46142317709E+02  0.99999995234E+01 0.  0.
         12    1    1    2    0    0 -0.24615184876E+02  0.25054349963E+02  0.28204356304E+02  0.45045682291E+02  0.00000000000E+00 0. -1.
         11    1    3    3    0    0  0.62952883345E+01 -0.75614259799E+01 -0.64916731868E+01  0.11787605316E+02  0.51100000000E-03 0. -1.
        -11    1    3    3    0    0  0.12350819505E+02 -0.15500934225E+02 -0.13381707263E+02  0.23914259215E+02  0.51100000000E-03 0.  1.
         12    1    3    3    0    0  0.59690770368E+01 -0.19919897585E+01 -0.83309758542E+01  0.10440453178E+02  0.00000000000E+00 0. -1.
</event>
<event>
 7    1  0.4623443E-009  0.4614232E+02  0.7816164E-02  0.1320468E+00
        -11   -1    0    0    0    0  0.00000000000E+00  0.00000000000E+00  0.45593999997E+02  0.45594000000E+02  0.51100000000E-03 0. -1.
         11   -1    0    0    0    0 -0.00000000000E+00 -0.00000000000E+00 -0.45593999997E+02  0.45594000000E+02  0.51100000000E-03 0.  1.
    9900012    2    1    2    0    0 -0.55612138666E+01  0.12613417904E+02 -0.42884587859E+02  0.46142319999E+02  0.10000020404E+02 0.  0.
         12    1    1    2    0    0  0.55612138666E+01 -0.12613417904E+02  0.42884587859E+02  0.45045680001E+02  0.00000000000E+00 0. -1.
         11    1    3    3    0    0 -0.83573591224E+00  0.29455311144E+01 -0.33334354939E+01  0.45261905079E+01  0.51100000000E-03 0. -1.
        -11    1    3    3    0    0 -0.54514555222E+01  0.29711267945E+01 -0.18619666257E+02  0.19627479041E+02  0.51100000000E-03 0.  1.
        -12    1    3    3    0    0  0.72597756780E+00  0.66967599956E+01 -0.20931486109E+02  0.21988650450E+02  0.00000000000E+00 0.  1.
</event>
<event>
 7    1  0.4623443E-009  0.4614232E+02  0.7816164E-02  0.1320468E+00
        -11   -1    0    0    0    0  0.00000000000E+00  0.00000000000E+00  0.45593999997E+02  0.45594000000E+02  0.51100000000E-03 0. -1.
         11   -1    0    0    0    0 -0.00000000000E+00 -0.00000000000E+00 -0.45593999997E+02  0.45594000000E+02  0.51100000000E-03 0.  1.
    9900012    2    1    2    0    0  0.65089624849E+01 -0.37173562191E+02  0.24594171824E+02  0.46142316452E+02  0.99999880587E+01 0.  0.
        -12    1    1    2    0    0 -0.65089624849E+01  0.37173562191E+02 -0.24594171824E+02  0.45045683548E+02  0.00000000000E+00 0.  1.
         11    1    3    3    0    0 -0.41992978041E+00 -0.97683759643E-01  0.31350174166E+00  0.53307292233E+00  0.51100000000E-03 0. -1.
        -11    1    3    3    0    0  0.36622774468E+01 -0.87042214828E+01  0.97222590164E+01  0.13553526049E+02  0.51100000000E-03 0.  1.
         12    1    3    3    0    0  0.32666148185E+01 -0.28371656949E+02  0.14558411066E+02  0.32055717480E+02  0.00000000000E+00 0. -1.
</event>
<event>
 7    1  0.4623443E-009  0.4614232E+02  0.7816164E-02  0.1320468E+00
        -11   -1    0    0    0    0  0.00000000000E+00  0.00000000000E+00  0.45593999997E+02  0.45594000000E+02  0.51100000000E-03 0. -1.
         11   -1    0    0    0    0 -0.00000000000E+00 -0.00000000000E+00 -0.45593999997E+02  0.45594000000E+02  0.51100000000E-03 0.  1.
    9900012    2    1    2    0    0  0.17589709674E+02 -0.36109125586E+02 -0.20392316374E+02  0.46142318696E+02  0.10000008526E+02 0.  0.
         12    1    1    2    0    0 -0.17589709674E+02  0.36109125586E+02  0.20392316374E+02  0.45045681304E+02  0.00000000000E+00 0. -1.
         11    1    3    3    0    0  0.10241641559E+02 -0.23812166279E+02 -0.14675229758E+02  0.29787125632E+02  0.51100000000E-03 0. -1.
        -11    1    3    3    0    0  0.64383527380E+01 -0.67013835016E+01 -0.52339337278E+01  0.10665598405E+02  0.51100000000E-03 0.  1.
         12    1    3    3    0    0  0.90971537677E+00 -0.55955758061E+01 -0.48315288874E+00  0.56895946589E+01  0.00000000000E+00 0. -1.
</event>
<event>
 7    1  0.4623443E-009  0.4614231E+02  0.7816164E-02  0.1320468E+00
        -11   -1    0    0    0    0  0.00000000000E+00  0.00000000000E+00  0.45593999997E+02  0.45594000000E+02  0.51100000000E-03 0. -1.
         11   -1    0    0    0    0 -0.00000000000E+00 -0.00000000000E+00 -0.45593999997E+02  0.45594000000E+02  0.51100000000E-03 0.  1.
    9900012    2    1    2    0    0 -0.40046114565E+01  0.18637048160E+02  0.40813450409E+02  0.46142309736E+02  0.99999268211E+01 0.  0.
        -12    1    1    2    0    0  0.40046114565E+01 -0.18637048160E+02 -0.40813450409E+02  0.45045690264E+02  0.00000000000E+00 0.  1.
         11    1    3    3    0    0  0.14523197480E+01  0.64272893434E+01  0.76099169912E+01  0.10066286198E+02  0.51100000000E-03 0.  1.
        -11    1    3    3    0    0 -0.38788344172E+00  0.61538626882E+01  0.15973979776E+02  0.17122748310E+02  0.51100000000E-03 0. -1.
         12    1    3    3    0    0 -0.50690477627E+01  0.60558961282E+01  0.17229553642E+02  0.18953275227E+02  0.00000000000E+00 0. -1.
</event>
<event>
 7    1  0.6288168E-009  0.4614232E+02  0.7816164E-02  0.1320468E+00
        -11   -1    0    0    0    0  0.00000000000E+00  0.00000000000E+00  0.45593999997E+02  0.45594000000E+02  0.51100000000E-03 0. -1.
         11   -1    0    0    0    0 -0.00000000000E+00 -0.00000000000E+00 -0.45593999997E+02  0.45594000000E+02  0.51100000000E-03 0.  1.
    9900012    2    1    2    0    0  0.16241347430E+01 -0.38875956897E+02 -0.22696599897E+02  0.46142317797E+02  0.10000000325E+02 0.  0.
         12    1    1    2    0    0 -0.16241347430E+01  0.38875956897E+02  0.22696599897E+02  0.45045682203E+02  0.00000000000E+00 0. -1.
         11    1    3    3    0    0 -0.14682342715E+01 -0.10160052705E+02 -0.85684568787E+01  0.13371642995E+02  0.51100000000E-03 0.  1.
        -11    1    3    3    0    0  0.30563853423E+00 -0.23792469113E+02 -0.12529780452E+02  0.26891827752E+02  0.51100000000E-03 0. -1.
         12    1    3    3    0    0  0.27867304803E+01 -0.49234350783E+01 -0.15983625664E+01  0.58788470497E+01  0.00000000000E+00 0. -1.
</event>
<event>
 7    1  0.4623443E-009  0.4614232E+02  0.7816164E-02  0.1320468E+00
        -11   -1    0    0    0    0  0.00000000000E+00  0.00000000000E+00  0.45593999997E+02  0.45594000000E+02  0.51100000000E-03 0. -1.
         11   -1    0    0    0    0 -0.00000000000E+00 -0.00000000000E+00 -0.45593999997E+02  0.45594000000E+02  0.51100000000E-03 0.  1.
    9900012    2    1    2    0    0  0.11400872932E+02 -0.35708389736E+02 -0.24980881272E+02  0.46142318406E+02  0.10000005878E+02 0.  0.
         12    1    1    2    0    0 -0.11400872932E+02  0.35708389736E+02  0.24980881272E+02  0.45045681594E+02  0.00000000000E+00 0. -1.
         11    1    3    3    0    0  0.38175484307E+01 -0.80076965426E+01 -0.88624926032E+01  0.12539563602E+02  0.51100000000E-03 0. -1.
        -11    1    3    3    0    0  0.52512623865E+01 -0.11879568731E+02 -0.10329649274E+02  0.16595227153E+02  0.51100000000E-03 0.  1.
         12    1    3    3    0    0  0.23320621144E+01 -0.15821124463E+02 -0.57887393947E+01  0.17007527650E+02  0.00000000000E+00 0. -1.
</event>
<event>
 7    1  0.4623443E-009  0.4614231E+02  0.7816164E-02  0.1320468E+00
        -11   -1    0    0    0    0  0.00000000000E+00  0.00000000000E+00  0.45593999997E+02  0.45594000000E+02  0.51100000000E-03 0. -1.
         11   -1    0    0    0    0 -0.00000000000E+00 -0.00000000000E+00 -0.45593999997E+02  0.45594000000E+02  0.51100000000E-03 0.  1.
    9900012    2    1    2    0    0 -0.97378269512E+01 -0.25407619344E+02  0.35899045951E+02  0.46142313252E+02  0.99999588798E+01 0.  0.
        -12    1    1    2    0    0  0.97378269512E+01  0.25407619344E+02 -0.35899045951E+02  0.45045686748E+02  0.00000000000E+00 0.  1.
         11    1    3    3    0    0 -0.14768723411E-01 -0.66023000351E+01  0.79143449499E+01  0.10306669691E+02  0.51100000000E-03 0. -1.
        -11    1    3    3    0    0 -0.17664897143E+01 -0.19069093490E+01  0.56708960439E+00  0.26605225157E+01  0.51100000000E-03 0.  1.
         12    1    3    3    0    0 -0.79565685135E+01 -0.16898409960E+02  0.27417611397E+02  0.33175121045E+02  0.00000000000E+00 0. -1.
</event>
<event>
 7    1  0.4623443E-009  0.4614232E+02  0.7816164E-02  0.1320468E+00
        -11   -1    0    0    0    0  0.00000000000E+00  0.00000000000E+00  0.45593999997E+02  0.45594000000E+02  0.51100000000E-03 0. -1.
         11   -1    0    0    0    0 -0.00000000000E+00 -0.00000000000E+00 -0.45593999997E+02  0.45594000000E+02  0.51100000000E-03 0.  1.
    9900012    2    1    2    0    0 -0.11691258287E+02  0.12287650306E+02 -0.41730582810E+02  0.46142318608E+02  0.10000007724E+02 0.  0.
         12    1    1    2    0    0  0.11691258287E+02 -0.12287650306E+02  0.41730582810E+02  0.45045681392E+02  0.00000000000E+00 0. -1.
         11    1    3    3    0    0 -0.20573453478E+01  0.36831223152E+01 -0.36633951009E+01  0.55873539171E+01  0.51100000000E-03 0. -1.
        -11    1    3    3    0    0 -0.31685776926E+01  0.10426129590E+01 -0.48993294500E+01  0.59270866112E+01  0.51100000000E-03 0.  1.
        -12    1    3    3    0    0 -0.64653352462E+01  0.75619150323E+01 -0.33167858259E+02  0.34627878080E+02  0.00000000000E+00 0.  1.
</event>
<event>
 7    1  0.4623443E-009  0.4614232E+02  0.7816164E-02  0.1320468E+00
        -11   -1    0    0    0    0  0.00000000000E+00  0.00000000000E+00  0.45593999997E+02  0.45594000000E+02  0.51100000000E-03 0. -1.
         11   -1    0    0    0    0 -0.00000000000E+00 -0.00000000000E+00 -0.45593999997E+02  0.45594000000E+02  0.51100000000E-03 0.  1.
    9900012    2    1    2    0    0 -0.24614494345E+02  0.90172183901E+01  0.36632361848E+02  0.46142317699E+02  0.99999994374E+01 0.  0.
        -12    1    1    2    0    0  0.24614494345E+02 -0.90172183901E+01 -0.36632361848E+02  0.45045682301E+02  0.00000000000E+00 0.  1.
         11    1    3    3    0    0 -0.50180397193E+01  0.21900103598E+01  0.29907535066E+01  0.62387077828E+01  0.51100000000E-03 0.  1.
        -11    1    3    3    0    0 -0.19503687492E+01  0.42682441814E+00  0.96094409770E+00  0.22157461862E+01  0.51100000000E-03 0. -1.
        -12    1    3    3    0    0 -0.17646085876E+02  0.64003836122E+01  0.32680664244E+02  0.37687863730E+02  0.00000000000E+00 0.  1.
</event>
<event>
 7    1  0.4623443E-009  0.4614232E+02  0.7816164E-02  0.1320468E+00
        -11   -1    0    0    0    0  0.00000000000E+00  0.00000000000E+00  0.45593999997E+02  0.45594000000E+02  0.51100000000E-03 0. -1.
         11   -1    0    0    0    0 -0.00000000000E+00 -0.00000000000E+00 -0.45593999997E+02  0.45594000000E+02  0.51100000000E-03 0.  1.
    9900012    2    1    2    0    0 -0.11709415993E+02  0.41765381810E+02  0.12151377955E+02  0.46142317335E+02  0.99999961100E+01 0.  0.
        -12    1    1    2    0    0  0.11709415993E+02 -0.41765381810E+02 -0.12151377955E+02  0.45045682665E+02  0.00000000000E+00 0.  1.
         11    1    3    3    0    0 -0.44442508062E+01  0.26262006529E+02  0.73507610755E+01  0.27631106399E+02  0.51100000000E-03 0. -1.
        -11    1    3    3    0    0 -0.29604755332E+01  0.97506942852E+01  0.64400952978E+00  0.10210543715E+02  0.51100000000E-03 0.  1.
        -12    1    3    3    0    0 -0.43046896534E+01  0.57526809952E+01  0.41566073500E+01  0.83006672205E+01  0.00000000000E+00 0.  1.
</event>
<event>
 7    1  0.4623443E-009  0.4614232E+02  0.7816164E-02  0.1320468E+00
        -11   -1    0    0    0    0  0.00000000000E+00  0.00000000000E+00  0.45593999997E+02  0.45594000000E+02  0.51100000000E-03 0.  1.
         11   -1    0    0    0    0 -0.00000000000E+00 -0.00000000000E+00 -0.45593999997E+02  0.45594000000E+02  0.51100000000E-03 0. -1.
    9900012    2    1    2    0    0 -0.34084468559E+02 -0.28427947047E+02  0.76950875277E+01  0.46142317162E+02  0.99999945343E+01 0.  0.
        -12    1    1    2    0    0  0.34084468559E+02  0.28427947047E+02 -0.76950875277E+01  0.45045682838E+02  0.00000000000E+00 0.  1.
         11    1    3    3    0    0 -0.18973045166E+02 -0.12381643185E+02  0.30210893806E+01  0.22856257614E+02  0.51100000000E-03 0. -1.
        -11    1    3    3    0    0 -0.30324638343E+01 -0.49241513795E+00  0.12769900770E+00  0.30748360724E+01  0.51100000000E-03 0.  1.
        -12    1    3    3    0    0 -0.12078959559E+02 -0.15553888725E+02  0.45462991394E+01  0.20211223475E+02  0.00000000000E+00 0.  1.
</event>
<event>
 7    1  0.4623443E-009  0.4614232E+02  0.7816164E-02  0.1320468E+00
        -11   -1    0    0    0    0  0.00000000000E+00  0.00000000000E+00  0.45593999997E+02  0.45594000000E+02  0.51100000000E-03 0. -1.
         11   -1    0    0    0    0 -0.00000000000E+00 -0.00000000000E+00 -0.45593999997E+02  0.45594000000E+02  0.51100000000E-03 0.  1.
    9900012    2    1    2    0    0  0.11199146531E+02  0.10131323106E+02 -0.42438766398E+02  0.46142317806E+02  0.10000000408E+02 0.  0.
         12    1    1    2    0    0 -0.11199146531E+02 -0.10131323106E+02  0.42438766398E+02  0.45045682194E+02  0.00000000000E+00 0. -1.
         11    1    3    3    0    0  0.76987741592E+01  0.71807800385E+01 -0.26520897091E+02  0.28534062246E+02  0.51100000000E-03 0. -1.
        -11    1    3    3    0    0  0.53491608150E+00  0.72804959478E-01 -0.11668539153E+02  0.11681020589E+02  0.51100000000E-03 0.  1.
         12    1    3    3    0    0  0.29654562906E+01  0.28777381084E+01 -0.42493301545E+01  0.59272349704E+01  0.00000000000E+00 0. -1.
</event>
<event>
 7    1  0.4623443E-009  0.4614232E+02  0.7816164E-02  0.1320468E+00
        -11   -1    0    0    0    0  0.00000000000E+00  0.00000000000E+00  0.45593999997E+02  0.45594000000E+02  0.51100000000E-03 0. -1.
         11   -1    0    0    0    0 -0.00000000000E+00 -0.00000000000E+00 -0.45593999997E+02  0.45594000000E+02  0.51100000000E-03 0.  1.
    9900012    2    1    2    0    0  0.32604070969E+02 -0.98260228000E+00  0.31066422119E+02  0.46142317251E+02  0.99999953523E+01 0.  0.
        -12    1    1    2    0    0 -0.32604070969E+02  0.98260228000E+00 -0.31066422119E+02  0.45045682749E+02  0.00000000000E+00 0.  1.
         11    1    3    3    0    0  0.21441880370E+01  0.10920452893E+01  0.57948283661E+01  0.62745630371E+01  0.51100000000E-03 0. -1.
        -11    1    3    3    0    0  0.23809812719E+01 -0.76617637712E+00  0.35546862613E+01  0.43464804998E+01  0.51100000000E-03 0.  1.
        -12    1    3    3    0    0  0.28078901660E+02 -0.13084711922E+01  0.21716907492E+02  0.35521273715E+02  0.00000000000E+00 0.  1.
</event>
<event>
 7    1  0.4623443E-009  0.4614232E+02  0.7816164E-02  0.1320468E+00
        -11   -1    0    0    0    0  0.00000000000E+00  0.00000000000E+00  0.45593999997E+02  0.45594000000E+02  0.51100000000E-03 0.  1.
         11   -1    0    0    0    0 -0.00000000000E+00 -0.00000000000E+00 -0.45593999997E+02  0.45594000000E+02  0.51100000000E-03 0. -1.
    9900012    2    1    2    0    0 -0.14517208383E+01 -0.45014902500E+02 -0.81512659484E+00  0.46142319054E+02  0.10000011793E+02 0.  0.
        -12    1    1    2    0    0  0.14517208383E+01  0.45014902500E+02  0.81512659484E+00  0.45045680946E+02  0.00000000000E+00 0.  1.
         11    1    3    3    0    0 -0.31477043580E+01 -0.22930074698E+02  0.24319955667E+01  0.23272536843E+02  0.51100000000E-03 0. -1.
        -11    1    3    3    0    0 -0.36649306487E+00 -0.54174708437E+01  0.10587295203E+01  0.55321077328E+01  0.51100000000E-03 0.  1.
        -12    1    3    3    0    0  0.20624765846E+01 -0.16667356958E+02 -0.43058516818E+01  0.17337674479E+02  0.00000000000E+00 0.  1.
</event>
<event>
 7    1  0.4623443E-009  0.4614232E+02  0.7816164E-02  0.1320468E+00
        -11   -1    0    0    0    0  0.00000000000E+00  0.00000000000E+00  0.45593999997E+02  0.45594000000E+02  0.51100000000E-03 0.  1.
         11   -1    0    0    0    0 -0.00000000000E+00 -0.00000000000E+00 -0.45593999997E+02  0.45594000000E+02  0.51100000000E-03 0. -1.
    9900012    2    1    2    0    0 -0.10410955738E+00  0.40531901610E+02  0.19653692011E+02  0.46142317670E+02  0.99999991723E+01 0.  0.
         12    1    1    2    0    0  0.10410955738E+00 -0.40531901610E+02 -0.19653692011E+02  0.45045682330E+02  0.00000000000E+00 0. -1.
         11    1    3    3    0    0 -0.11643078145E+01  0.12614512192E+02  0.11036832371E+02  0.16801583246E+02  0.51100000000E-03 0. -1.
        -11    1    3    3    0    0 -0.25978243929E+00  0.12452450065E+02  0.48724219306E+01  0.13374284850E+02  0.51100000000E-03 0.  1.
         12    1    3    3    0    0  0.13199806964E+01  0.15464939353E+02  0.37444377088E+01  0.15966449574E+02  0.00000000000E+00 0. -1.
</event>
<event>
 7    1  0.4623443E-009  0.4614232E+02  0.7816164E-02  0.1320468E+00
        -11   -1    0    0    0    0  0.00000000000E+00  0.00000000000E+00  0.45593999997E+02  0.45594000000E+02  0.51100000000E-03 0. -1.
         11   -1    0    0    0    0 -0.00000000000E+00 -0.00000000000E+00 -0.45593999997E+02  0.45594000000E+02  0.51100000000E-03 0.  1.
    9900012    2    1    2    0    0 -0.23899969349E+01  0.23869646572E+02 -0.38126648694E+02  0.46142318149E+02  0.10000003535E+02 0.  0.
         12    1    1    2    0    0  0.23899969349E+01 -0.23869646572E+02  0.38126648694E+02  0.45045681851E+02  0.00000000000E+00 0. -1.
         11    1    3    3    0    0  0.15559585799E+01  0.55975460560E+00 -0.95530001652E+00  0.19096938769E+01  0.51100000000E-03 0. -1.
        -11    1    3    3    0    0 -0.23064373261E+01  0.87334066198E+01 -0.17508103796E+02  0.19700907165E+02  0.51100000000E-03 0.  1.
        -12    1    3    3    0    0 -0.16395181887E+01  0.14576485347E+02 -0.19663244881E+02  0.24531717107E+02  0.00000000000E+00 0.  1.
</event>
<event>
 7    1  0.4623443E-009  0.4614232E+02  0.7816164E-02  0.1320468E+00
        -11   -1    0    0    0    0  0.00000000000E+00  0.00000000000E+00  0.45593999997E+02  0.45594000000E+02  0.51100000000E-03 0. -1.
         11   -1    0    0    0    0 -0.00000000000E+00 -0.00000000000E+00 -0.45593999997E+02  0.45594000000E+02  0.51100000000E-03 0.  1.
    9900012    2    1    2    0    0  0.31824642803E+02  0.17916325885E+02 -0.26368749832E+02  0.46142316628E+02  0.99999896719E+01 0.  0.
         12    1    1    2    0    0 -0.31824642803E+02 -0.17916325885E+02  0.26368749832E+02  0.45045683372E+02  0.00000000000E+00 0. -1.
         11    1    3    3    0    0 -0.16481514252E+00 -0.42469828144E+00 -0.10297095839E+01  0.11259816827E+01  0.51100000000E-03 0. -1.
        -11    1    3    3    0    0  0.25161246553E+01  0.20708459442E+01 -0.79775106526E+00  0.33549505554E+01  0.51100000000E-03 0.  1.
        -12    1    3    3    0    0  0.29473333290E+02  0.16270178222E+02 -0.24541289183E+02  0.41661384390E+02  0.00000000000E+00 0.  1.
</event>
<event>
 7    1  0.4623443E-009  0.4614231E+02  0.7816164E-02  0.1320468E+00
        -11   -1    0    0    0    0  0.00000000000E+00  0.00000000000E+00  0.45593999997E+02  0.45594000000E+02  0.51100000000E-03 0. -1.
         11   -1    0    0    0    0 -0.00000000000E+00 -0.00000000000E+00 -0.45593999997E+02  0.45594000000E+02  0.51100000000E-03 0.  1.
    9900012    2    1    2    0    0  0.16446502190E+02  0.18854564053E+02 -0.37458406517E+02  0.46142309433E+02  0.99999240557E+01 0.  0.
         12    1    1    2    0    0 -0.16446502190E+02 -0.18854564053E+02  0.37458406517E+02  0.45045690567E+02  0.00000000000E+00 0. -1.
         11    1    3    3    0    0  0.33172270089E+01  0.22477555683E+01 -0.29915351796E+01  0.50005682792E+01  0.51100000000E-03 0. -1.
        -11    1    3    3    0    0  0.18872198535E+01  0.78845412974E+01 -0.14681280667E+02  0.16771034331E+02  0.51100000000E-03 0.  1.
        -12    1    3    3    0    0  0.11242055327E+02  0.87222671871E+01 -0.19785590670E+02  0.24370706823E+02  0.00000000000E+00 0.  1.
</event>
<event>
 7    1  0.4623443E-009  0.4614232E+02  0.7816164E-02  0.1320468E+00
        -11   -1    0    0    0    0  0.00000000000E+00  0.00000000000E+00  0.45593999997E+02  0.45594000000E+02  0.51100000000E-03 0.  1.
         11   -1    0    0    0    0 -0.00000000000E+00 -0.00000000000E+00 -0.45593999997E+02  0.45594000000E+02  0.51100000000E-03 0. -1.
    9900012    2    1    2    0    0  0.26093658330E+01  0.44898398731E+02  0.25374152327E+01  0.46142317912E+02  0.10000001377E+02 0.  0.
         12    1    1    2    0    0 -0.26093658330E+01 -0.44898398731E+02 -0.25374152327E+01  0.45045682088E+02  0.00000000000E+00 0. -1.
         11    1    3    3    0    0 -0.32690250841E+00  0.87647180175E+01 -0.25301913316E+01  0.91284727973E+01  0.51100000000E-03 0. -1.
        -11    1    3    3    0    0  0.18740459738E+00  0.67698730428E+01  0.31223423096E+01  0.74575681866E+01  0.51100000000E-03 0.  1.
        -12    1    3    3    0    0  0.27488637441E+01  0.29363807671E+02  0.19452642547E+01  0.29556276928E+02  0.00000000000E+00 0.  1.
</event>
<event>
 7    1  0.4623443E-009  0.4614232E+02  0.7816164E-02  0.1320468E+00
        -11   -1    0    0    0    0  0.00000000000E+00  0.00000000000E+00  0.45593999997E+02  0.45594000000E+02  0.51100000000E-03 0.  1.
         11   -1    0    0    0    0 -0.00000000000E+00 -0.00000000000E+00 -0.45593999997E+02  0.45594000000E+02  0.51100000000E-03 0. -1.
    9900012    2    1    2    0    0  0.45030070435E+02 -0.10598060695E+01 -0.53208672181E+00  0.46142317093E+02  0.99999939049E+01 0.  0.
         12    1    1    2    0    0 -0.45030070435E+02  0.10598060695E+01  0.53208672181E+00  0.45045682907E+02  0.00000000000E+00 0. -1.
         11    1    3    3    0    0  0.41512559185E+02 -0.22977649025E+01 -0.76173360923E-01  0.41576172218E+02  0.51100000000E-03 0.  1.
        -11    1    3    3    0    0  0.29672120059E+01  0.96666317561E+00 -0.14158659096E+01  0.34268734027E+01  0.51100000000E-03 0. -1.
        -12    1    3    3    0    0  0.55029924450E+00  0.27129565737E+00  0.95995254870E+00  0.11392714725E+01  0.00000000000E+00 0.  1.
</event>
<event>
 7    1  0.4623443E-009  0.4614232E+02  0.7816164E-02  0.1320468E+00
        -11   -1    0    0    0    0  0.00000000000E+00  0.00000000000E+00  0.45593999997E+02  0.45594000000E+02  0.51100000000E-03 0. -1.
         11   -1    0    0    0    0 -0.00000000000E+00 -0.00000000000E+00 -0.45593999997E+02  0.45594000000E+02  0.51100000000E-03 0.  1.
    9900012    2    1    2    0    0 -0.12866851317E+02  0.32232034495E+01  0.43048444641E+02  0.46142317751E+02  0.99999999082E+01 0.  0.
        -12    1    1    2    0    0  0.12866851317E+02 -0.32232034495E+01 -0.43048444641E+02  0.45045682249E+02  0.00000000000E+00 0.  1.
         11    1    3    3    0    0 -0.48481682302E+01  0.27444951376E+01  0.18220096613E+02  0.19052792699E+02  0.51100000000E-03 0. -1.
        -11    1    3    3    0    0 -0.52846416523E+01  0.34310097281E+01  0.10883713107E+02  0.12575948330E+02  0.51100000000E-03 0.  1.
        -12    1    3    3    0    0 -0.27340414350E+01 -0.29523014162E+01  0.13944634920E+02  0.14513576722E+02  0.00000000000E+00 0.  1.
</event>
<event>
 7    1  0.4623443E-009  0.4614232E+02  0.7816164E-02  0.1320468E+00
        -11   -1    0    0    0    0  0.00000000000E+00  0.00000000000E+00  0.45593999997E+02  0.45594000000E+02  0.51100000000E-03 0. -1.
         11   -1    0    0    0    0 -0.00000000000E+00 -0.00000000000E+00 -0.45593999997E+02  0.45594000000E+02  0.51100000000E-03 0.  1.
    9900012    2    1    2    0    0 -0.18437230860E+02  0.25596571287E+01 -0.41019876083E+02  0.46142316963E+02  0.99999927191E+01 0.  0.
         12    1    1    2    0    0  0.18437230860E+02 -0.25596571287E+01  0.41019876083E+02  0.45045683037E+02  0.00000000000E+00 0. -1.
         11    1    3    3    0    0 -0.42033344101E+01  0.11479557509E+01 -0.10197558177E+02  0.11089455154E+02  0.51100000000E-03 0. -1.
        -11    1    3    3    0    0 -0.33778210570E+01 -0.12291131493E+01 -0.16506108397E+02  0.16892957376E+02  0.51100000000E-03 0.  1.
         12    1    3    3    0    0 -0.10856075393E+02  0.26408145270E+01 -0.14316209509E+02  0.18159904433E+02  0.00000000000E+00 0. -1.
</event>
<event>
 7    1  0.4623443E-009  0.4614232E+02  0.7816164E-02  0.1320468E+00
        -11   -1    0    0    0    0  0.00000000000E+00  0.00000000000E+00  0.45593999997E+02  0.45594000000E+02  0.51100000000E-03 0. -1.
         11   -1    0    0    0    0 -0.00000000000E+00 -0.00000000000E+00 -0.45593999997E+02  0.45594000000E+02  0.51100000000E-03 0.  1.
    9900012    2    1    2    0    0 -0.57989860151E+01  0.47405288419E+01  0.44418607115E+02  0.46142317515E+02  0.99999977602E+01 0.  0.
        -12    1    1    2    0    0  0.57989860151E+01 -0.47405288419E+01 -0.44418607115E+02  0.45045682485E+02  0.00000000000E+00 0.  1.
         11    1    3    3    0    0 -0.31063995104E+01 -0.19506304489E+01  0.15288101601E+02  0.15721982314E+02  0.51100000000E-03 0. -1.
        -11    1    3    3    0    0 -0.25550892573E+01  0.26484792205E+01  0.68532141822E+01  0.77787832071E+01  0.51100000000E-03 0.  1.
         12    1    3    3    0    0 -0.13749724737E+00  0.40426800703E+01  0.22277291332E+02  0.22641551994E+02  0.00000000000E+00 0. -1.
</event>
<event>
 7    1  0.4623443E-009  0.4614232E+02  0.7816164E-02  0.1320468E+00
        -11   -1    0    0    0    0  0.00000000000E+00  0.00000000000E+00  0.45593999997E+02  0.45594000000E+02  0.51100000000E-03 0. -1.
         11   -1    0    0    0    0 -0.00000000000E+00 -0.00000000000E+00 -0.45593999997E+02  0.45594000000E+02  0.51100000000E-03 0.  1.
    9900012    2    1    2    0    0  0.13314157090E+02  0.12530289843E+02  0.41168417430E+02  0.46142317230E+02  0.99999951534E+01 0.  0.
        -12    1    1    2    0    0 -0.13314157090E+02 -0.12530289843E+02 -0.41168417430E+02  0.45045682770E+02  0.00000000000E+00 0.  1.
         11    1    3    3    0    0  0.72572295692E+01  0.15357905114E+01  0.16941403376E+02  0.18494247271E+02  0.51100000000E-03 0. -1.
        -11    1    3    3    0    0  0.59852351613E+01  0.80888238681E+01  0.15782640374E+02  0.18717474427E+02  0.51100000000E-03 0.  1.
        -12    1    3    3    0    0  0.71692359464E-01  0.29056754631E+01  0.84443736800E+01  0.89305955310E+01  0.00000000000E+00 0.  1.
</event>
<event>
 7    1  0.4623443E-009  0.4614232E+02  0.7816164E-02  0.1320468E+00
        -11   -1    0    0    0    0  0.00000000000E+00  0.00000000000E+00  0.45593999997E+02  0.45594000000E+02  0.51100000000E-03 0. -1.
         11   -1    0    0    0    0 -0.00000000000E+00 -0.00000000000E+00 -0.45593999997E+02  0.45594000000E+02  0.51100000000E-03 0.  1.
    9900012    2    1    2    0    0 -0.23936429749E+02  0.14328132666E+02 -0.35367575564E+02  0.46142318119E+02  0.10000003264E+02 0.  0.
         12    1    1    2    0    0  0.23936429749E+02 -0.14328132666E+02  0.35367575564E+02  0.45045681881E+02  0.00000000000E+00 0. -1.
         11    1    3    3    0    0 -0.15366475764E+00  0.23308690947E+00 -0.22182657762E+01  0.22357651219E+01  0.51100000000E-03 0. -1.
        -11    1    3    3    0    0 -0.40310105169E+01  0.30112228368E+01 -0.20483870664E+01  0.54325315089E+01  0.51100000000E-03 0.  1.
        -12    1    3    3    0    0 -0.19751754475E+02  0.11083822919E+02 -0.31100922722E+02  0.38474021488E+02  0.00000000000E+00 0.  1.
</event>
<event>
 7    1  0.4623443E-009  0.4614232E+02  0.7816164E-02  0.1320468E+00
        -11   -1    0    0    0    0  0.00000000000E+00  0.00000000000E+00  0.45593999997E+02  0.45594000000E+02  0.51100000000E-03 0. -1.
         11   -1    0    0    0    0 -0.00000000000E+00 -0.00000000000E+00 -0.45593999997E+02  0.45594000000E+02  0.51100000000E-03 0.  1.
    9900012    2    1    2    0    0 -0.62436742041E+01 -0.15755455909E+02  0.41736022934E+02  0.46142317978E+02  0.10000001975E+02 0.  0.
        -12    1    1    2    0    0  0.62436742041E+01  0.15755455909E+02 -0.41736022934E+02  0.45045682022E+02  0.00000000000E+00 0.  1.
         11    1    3    3    0    0 -0.12970822503E+01 -0.36001157233E+01  0.10886083238E+02  0.11539066865E+02  0.51100000000E-03 0. -1.
        -11    1    3    3    0    0  0.24178922361E+01 -0.40296026549E+01  0.97649053866E+01  0.10836848153E+02  0.51100000000E-03 0.  1.
        -12    1    3    3    0    0 -0.73644841899E+01 -0.81257375309E+01  0.21085034309E+02  0.23766402959E+02  0.00000000000E+00 0.  1.
</event>
<event>
 7    1  0.4623443E-009  0.4614232E+02  0.7816164E-02  0.1320468E+00
        -11   -1    0    0    0    0  0.00000000000E+00  0.00000000000E+00  0.45593999997E+02  0.45594000000E+02  0.51100000000E-03 0. -1.
         11   -1    0    0    0    0 -0.00000000000E+00 -0.00000000000E+00 -0.45593999997E+02  0.45594000000E+02  0.51100000000E-03 0.  1.
    9900012    2    1    2    0    0 -0.18256165765E+02  0.17314733305E+02 -0.37363429038E+02  0.46142318661E+02  0.10000008203E+02 0.  0.
         12    1    1    2    0    0  0.18256165765E+02 -0.17314733305E+02  0.37363429038E+02  0.45045681339E+02  0.00000000000E+00 0. -1.
         11    1    3    3    0    0  0.71354378785E+00  0.67485169790E+00 -0.12123845654E+01  0.15602711774E+01  0.51100000000E-03 0. -1.
        -11    1    3    3    0    0 -0.81610035770E+01  0.52748387188E+01 -0.19001287198E+02  0.21341856019E+02  0.51100000000E-03 0.  1.
        -12    1    3    3    0    0 -0.10808705976E+02  0.11365042888E+02 -0.17149757274E+02  0.23240191464E+02  0.00000000000E+00 0.  1.
</event>
<event>
 7    1  0.4623443E-009  0.4614232E+02  0.7816164E-02  0.1320468E+00
        -11   -1    0    0    0    0  0.00000000000E+00  0.00000000000E+00  0.45593999997E+02  0.45594000000E+02  0.51100000000E-03 0. -1.
         11   -1    0    0    0    0 -0.00000000000E+00 -0.00000000000E+00 -0.45593999997E+02  0.45594000000E+02  0.51100000000E-03 0.  1.
    9900012    2    1    2    0    0 -0.23492280060E+02 -0.14007229121E+02 -0.35791393081E+02  0.46142317534E+02  0.99999979335E+01 0.  0.
         12    1    1    2    0    0  0.23492280060E+02  0.14007229121E+02  0.35791393081E+02  0.45045682466E+02  0.00000000000E+00 0. -1.
         11    1    3    3    0    0 -0.34576109582E+01 -0.19544155611E+01 -0.27749544108E+01  0.48451198093E+01  0.51100000000E-03 0. -1.
        -11    1    3    3    0    0 -0.22766331663E+01 -0.28224237004E+01 -0.10814070178E+02  0.11405842722E+02  0.51100000000E-03 0.  1.
        -12    1    3    3    0    0 -0.17758035936E+02 -0.92303898600E+01 -0.22202368492E+02  0.29891355003E+02  0.00000000000E+00 0.  1.
</event>
<event>
 7    1  0.4623443E-009  0.4614232E+02  0.7816164E-02  0.1320468E+00
        -11   -1    0    0    0    0  0.00000000000E+00  0.00000000000E+00  0.45593999997E+02  0.45594000000E+02  0.51100000000E-03 0.  1.
         11   -1    0    0    0    0 -0.00000000000E+00 -0.00000000000E+00 -0.45593999997E+02  0.45594000000E+02  0.51100000000E-03 0. -1.
    9900012    2    1    2    0    0  0.27818953799E+02 -0.34420343472E+02  0.83940070054E+01  0.46142316647E+02  0.99999898364E+01 0.  0.
        -12    1    1    2    0    0 -0.27818953799E+02  0.34420343472E+02 -0.83940070054E+01  0.45045683353E+02  0.00000000000E+00 0.  1.
         11    1    3    3    0    0  0.41976622110E+01 -0.36761198932E+01 -0.17647260709E+01  0.58522204224E+01  0.51100000000E-03 0. -1.
        -11    1    3    3    0    0  0.94113570796E+01 -0.11452112338E+02  0.18910047825E+01  0.14943239891E+02  0.51100000000E-03 0.  1.
        -12    1    3    3    0    0  0.14209934508E+02 -0.19292111241E+02  0.82677282938E+01  0.25346856333E+02  0.00000000000E+00 0.  1.
</event>
<event>
 7    1  0.4623443E-009  0.4614232E+02  0.7816164E-02  0.1320468E+00
        -11   -1    0    0    0    0  0.00000000000E+00  0.00000000000E+00  0.45593999997E+02  0.45594000000E+02  0.51100000000E-03 0. -1.
         11   -1    0    0    0    0 -0.00000000000E+00 -0.00000000000E+00 -0.45593999997E+02  0.45594000000E+02  0.51100000000E-03 0.  1.
    9900012    2    1    2    0    0  0.30977816420E+02 -0.10517270641E+02 -0.30965712635E+02  0.46142318177E+02  0.10000003794E+02 0.  0.
         12    1    1    2    0    0 -0.30977816420E+02  0.10517270641E+02  0.30965712635E+02  0.45045681823E+02  0.00000000000E+00 0. -1.
         11    1    3    3    0    0  0.44829547778E+01 -0.20140214072E+01 -0.31204408175E+01  0.58215390512E+01  0.51100000000E-03 0. -1.
        -11    1    3    3    0    0  0.18550426842E+02 -0.96948159003E+01 -0.17938415531E+02  0.27566184781E+02  0.51100000000E-03 0.  1.
        -12    1    3    3    0    0  0.79444348005E+01  0.11915666669E+01 -0.99068562865E+01  0.12754594345E+02  0.00000000000E+00 0.  1.
</event>
<event>
 7    1  0.4623443E-009  0.4614232E+02  0.7816164E-02  0.1320468E+00
        -11   -1    0    0    0    0  0.00000000000E+00  0.00000000000E+00  0.45593999997E+02  0.45594000000E+02  0.51100000000E-03 0. -1.
         11   -1    0    0    0    0 -0.00000000000E+00 -0.00000000000E+00 -0.45593999997E+02  0.45594000000E+02  0.51100000000E-03 0.  1.
    9900012    2    1    2    0    0  0.64646193162E+01  0.37447677876E+02  0.24186641436E+02  0.46142317575E+02  0.99999983005E+01 0.  0.
        -12    1    1    2    0    0 -0.64646193162E+01 -0.37447677876E+02 -0.24186641436E+02  0.45045682425E+02  0.00000000000E+00 0.  1.
         11    1    3    3    0    0  0.26730123855E+01  0.14715611081E+02  0.81930613616E+01  0.17053458870E+02  0.51100000000E-03 0. -1.
        -11    1    3    3    0    0  0.43218073940E+01  0.72077437881E+01  0.80696477221E+01  0.11651128885E+02  0.51100000000E-03 0.  1.
        -12    1    3    3    0    0 -0.53020046336E+00  0.15524323006E+02  0.79239323526E+01  0.17437729820E+02  0.00000000000E+00 0.  1.
</event>
<event>
 7    1  0.4623443E-009  0.4614232E+02  0.7816164E-02  0.1320468E+00
        -11   -1    0    0    0    0  0.00000000000E+00  0.00000000000E+00  0.45593999997E+02  0.45594000000E+02  0.51100000000E-03 0. -1.
         11   -1    0    0    0    0 -0.00000000000E+00 -0.00000000000E+00 -0.45593999997E+02  0.45594000000E+02  0.51100000000E-03 0.  1.
    9900012    2    1    2    0    0 -0.11728405941E+02  0.35982607528E+02  0.24429693730E+02  0.46142317785E+02  0.10000000220E+02 0.  0.
        -12    1    1    2    0    0  0.11728405941E+02 -0.35982607528E+02 -0.24429693730E+02  0.45045682215E+02  0.00000000000E+00 0.  1.
         11    1    3    3    0    0 -0.37017396702E+01  0.54648654158E+01  0.28865221530E+01  0.72041405455E+01  0.51100000000E-03 0. -1.
        -11    1    3    3    0    0 -0.22691521899E+01  0.13795836079E+02  0.53835728786E+01  0.14981889132E+02  0.51100000000E-03 0.  1.
         12    1    3    3    0    0 -0.57575140812E+01  0.16721906034E+02  0.16159598698E+02  0.23956288107E+02  0.00000000000E+00 0. -1.
</event>
<event>
 7    1  0.4623443E-009  0.4614232E+02  0.7816164E-02  0.1320468E+00
        -11   -1    0    0    0    0  0.00000000000E+00  0.00000000000E+00  0.45593999997E+02  0.45594000000E+02  0.51100000000E-03 0. -1.
         11   -1    0    0    0    0 -0.00000000000E+00 -0.00000000000E+00 -0.45593999997E+02  0.45594000000E+02  0.51100000000E-03 0.  1.
    9900012    2    1    2    0    0  0.56428859494E+00  0.40402470222E+02 -0.19910688985E+02  0.46142316994E+02  0.99999930009E+01 0.  0.
         12    1    1    2    0    0 -0.56428859494E+00 -0.40402470222E+02  0.19910688985E+02  0.45045683006E+02  0.00000000000E+00 0. -1.
         11    1    3    3    0    0  0.19109401472E+01  0.11301962148E+02 -0.34315517110E+01  0.11965015171E+02  0.51100000000E-03 0. -1.
        -11    1    3    3    0    0  0.70446717575E+00  0.14517895365E+02 -0.45645995279E+01  0.15234865570E+02  0.51100000000E-03 0.  1.
         12    1    3    3    0    0 -0.20511187280E+01  0.14582612708E+02 -0.11914537746E+02  0.18942436252E+02  0.00000000000E+00 0. -1.
</event>
<event>
 7    1  0.4623443E-009  0.4614232E+02  0.7816164E-02  0.1320468E+00
        -11   -1    0    0    0    0  0.00000000000E+00  0.00000000000E+00  0.45593999997E+02  0.45594000000E+02  0.51100000000E-03 0. -1.
         11   -1    0    0    0    0 -0.00000000000E+00 -0.00000000000E+00 -0.45593999997E+02  0.45594000000E+02  0.51100000000E-03 0.  1.
    9900012    2    1    2    0    0  0.10535829506E+02 -0.32330761335E+02  0.29543726343E+02  0.46142316543E+02  0.99999888934E+01 0.  0.
        -12    1    1    2    0    0 -0.10535829506E+02  0.32330761335E+02 -0.29543726343E+02  0.45045683457E+02  0.00000000000E+00 0.  1.
         11    1    3    3    0    0  0.36474399093E+01 -0.11534860460E+02  0.63474049952E+01  0.13661858371E+02  0.51100000000E-03 0. -1.
        -11    1    3    3    0    0  0.16243295442E+01 -0.44992369740E+00  0.12828373493E+01  0.21181477114E+01  0.51100000000E-03 0.  1.
        -12    1    3    3    0    0  0.52640600525E+01 -0.20345977177E+02  0.21913483999E+02  0.30362310460E+02  0.00000000000E+00 0.  1.
</event>
<event>
 7    1  0.4623443E-009  0.4614231E+02  0.7816164E-02  0.1320468E+00
        -11   -1    0    0    0    0  0.00000000000E+00  0.00000000000E+00  0.45593999997E+02  0.45594000000E+02  0.51100000000E-03 0. -1.
         11   -1    0    0    0    0 -0.00000000000E+00 -0.00000000000E+00 -0.45593999997E+02  0.45594000000E+02  0.51100000000E-03 0.  1.
    9900012    2    1    2    0    0 -0.77118052566E+01 -0.44327491002E+02 -0.21716034017E+01  0.46142309194E+02  0.99999218818E+01 0.  0.
         12    1    1    2    0    0  0.77118052566E+01  0.44327491002E+02  0.21716034017E+01  0.45045690806E+02  0.00000000000E+00 0. -1.
         11    1    3    3    0    0 -0.18080179087E+01 -0.17054734907E+02 -0.53155557925E-01  0.17150385922E+02  0.51100000000E-03 0. -1.
        -11    1    3    3    0    0 -0.53599733278E+01 -0.16533978282E+02  0.19613950590E+01  0.17491392819E+02  0.51100000000E-03 0.  1.
         12    1    3    3    0    0 -0.54381402007E+00 -0.10738777812E+02 -0.40798429027E+01  0.11500530453E+02  0.00000000000E+00 0. -1.
</event>
<event>
 7    1  0.4623443E-009  0.4614232E+02  0.7816164E-02  0.1320468E+00
        -11   -1    0    0    0    0  0.00000000000E+00  0.00000000000E+00  0.45593999997E+02  0.45594000000E+02  0.51100000000E-03 0. -1.
         11   -1    0    0    0    0 -0.00000000000E+00 -0.00000000000E+00 -0.45593999997E+02  0.45594000000E+02  0.51100000000E-03 0.  1.
    9900012    2    1    2    0    0 -0.37919867653E+02  0.19597099918E+02 -0.14392733262E+02  0.46142318090E+02  0.10000002995E+02 0.  0.
         12    1    1    2    0    0  0.37919867653E+02 -0.19597099918E+02  0.14392733262E+02  0.45045681910E+02  0.00000000000E+00 0. -1.
         11    1    3    3    0    0 -0.70428410954E+01  0.43411948779E+01 -0.50876848061E+00  0.82889341468E+01  0.51100000000E-03 0. -1.
        -11    1    3    3    0    0 -0.21784924638E+02  0.72773769503E+01 -0.74132513235E+01  0.24135025424E+02  0.51100000000E-03 0.  1.
         12    1    3    3    0    0 -0.90921019197E+01  0.79785280902E+01 -0.64707134578E+01  0.13718358519E+02  0.00000000000E+00 0. -1.
</event>
<event>
 7    1  0.4623443E-009  0.4614232E+02  0.7816164E-02  0.1320468E+00
        -11   -1    0    0    0    0  0.00000000000E+00  0.00000000000E+00  0.45593999997E+02  0.45594000000E+02  0.51100000000E-03 0. -1.
         11   -1    0    0    0    0 -0.00000000000E+00 -0.00000000000E+00 -0.45593999997E+02  0.45594000000E+02  0.51100000000E-03 0.  1.
    9900012    2    1    2    0    0  0.54702396104E+01  0.18799079838E+02  0.40568269311E+02  0.46142318752E+02  0.10000009039E+02 0.  0.
        -12    1    1    2    0    0 -0.54702396104E+01 -0.18799079838E+02 -0.40568269311E+02  0.45045681248E+02  0.00000000000E+00 0.  1.
         11    1    3    3    0    0 -0.21751113418E+00  0.13500199422E+02  0.26357860929E+02  0.29614853174E+02  0.51100000000E-03 0. -1.
        -11    1    3    3    0    0  0.27137140092E+01  0.27987816706E+01  0.39219428377E+01  0.55298334918E+01  0.51100000000E-03 0.  1.
        -12    1    3    3    0    0  0.29740367353E+01  0.25000987454E+01  0.10288465545E+02  0.10997632086E+02  0.00000000000E+00 0.  1.
</event>
<event>
 7    1  0.4623443E-009  0.4614232E+02  0.7816164E-02  0.1320468E+00
        -11   -1    0    0    0    0  0.00000000000E+00  0.00000000000E+00  0.45593999997E+02  0.45594000000E+02  0.51100000000E-03 0. -1.
         11   -1    0    0    0    0 -0.00000000000E+00 -0.00000000000E+00 -0.45593999997E+02  0.45594000000E+02  0.51100000000E-03 0.  1.
    9900012    2    1    2    0    0  0.42721814813E+02  0.62304349279E+01 -0.12850745712E+02  0.46142318235E+02  0.10000004326E+02 0.  0.
         12    1    1    2    0    0 -0.42721814813E+02 -0.62304349279E+01  0.12850745712E+02  0.45045681765E+02  0.00000000000E+00 0. -1.
         11    1    3    3    0    0  0.20943920475E+02  0.55230245862E+00 -0.73999981438E+01  0.22219649315E+02  0.51100000000E-03 0. -1.
        -11    1    3    3    0    0  0.16590926790E+02  0.22640620315E+01 -0.21265907825E+01  0.16879194804E+02  0.51100000000E-03 0.  1.
         12    1    3    3    0    0  0.51869675475E+01  0.34140704377E+01 -0.33241567853E+01  0.70434741163E+01  0.00000000000E+00 0. -1.
</event>
<event>
 7    1  0.4623443E-009  0.4614232E+02  0.7816164E-02  0.1320468E+00
        -11   -1    0    0    0    0  0.00000000000E+00  0.00000000000E+00  0.45593999997E+02  0.45594000000E+02  0.51100000000E-03 0. -1.
         11   -1    0    0    0    0 -0.00000000000E+00 -0.00000000000E+00 -0.45593999997E+02  0.45594000000E+02  0.51100000000E-03 0.  1.
    9900012    2    1    2    0    0 -0.96057352399E+01 -0.30255997877E+02  0.31959631212E+02  0.46142316696E+02  0.99999902904E+01 0.  0.
        -12    1    1    2    0    0  0.96057352399E+01  0.30255997877E+02 -0.31959631212E+02  0.45045683304E+02  0.00000000000E+00 0.  1.
         11    1    3    3    0    0 -0.78249072007E+01 -0.17988170128E+02  0.20838496621E+02  0.28618986337E+02  0.51100000000E-03 0. -1.
        -11    1    3    3    0    0 -0.78972401694E+00 -0.64388927161E+01  0.22576921140E+01  0.68687828161E+01  0.51100000000E-03 0.  1.
         12    1    3    3    0    0 -0.99110402228E+00 -0.58289350330E+01  0.88634424773E+01  0.10654547543E+02  0.00000000000E+00 0. -1.
</event>
<event>
 7    1  0.4623443E-009  0.4614232E+02  0.7816164E-02  0.1320468E+00
        -11   -1    0    0    0    0  0.00000000000E+00  0.00000000000E+00  0.45593999997E+02  0.45594000000E+02  0.51100000000E-03 0. -1.
         11   -1    0    0    0    0 -0.00000000000E+00 -0.00000000000E+00 -0.45593999997E+02  0.45594000000E+02  0.51100000000E-03 0.  1.
    9900012    2    1    2    0    0  0.46484571674E+01  0.34826078597E+02  0.28189528357E+02  0.46142318593E+02  0.10000007586E+02 0.  0.
        -12    1    1    2    0    0 -0.46484571674E+01 -0.34826078597E+02 -0.28189528357E+02  0.45045681407E+02  0.00000000000E+00 0.  1.
         11    1    3    3    0    0  0.71190411386E+01  0.22257736781E+02  0.17517591603E+02  0.29205369526E+02  0.51100000000E-03 0. -1.
        -11    1    3    3    0    0  0.36254993188E+00  0.42096968500E+01  0.44640836041E+01  0.61466277509E+01  0.51100000000E-03 0.  1.
        -12    1    3    3    0    0 -0.28331339030E+01  0.83586449658E+01  0.62078531497E+01  0.10790321316E+02  0.00000000000E+00 0.  1.
</event>
<event>
 7    1  0.4623443E-009  0.4614232E+02  0.7816164E-02  0.1320468E+00
        -11   -1    0    0    0    0  0.00000000000E+00  0.00000000000E+00  0.45593999997E+02  0.45594000000E+02  0.51100000000E-03 0. -1.
         11   -1    0    0    0    0 -0.00000000000E+00 -0.00000000000E+00 -0.45593999997E+02  0.45594000000E+02  0.51100000000E-03 0.  1.
    9900012    2    1    2    0    0 -0.20212954918E+02 -0.54122027836E+01 -0.39890574884E+02  0.46142318186E+02  0.10000003876E+02 0.  0.
         12    1    1    2    0    0  0.20212954918E+02  0.54122027836E+01  0.39890574884E+02  0.45045681814E+02  0.00000000000E+00 0. -1.
         11    1    3    3    0    0 -0.53996455083E+01 -0.12418819853E+01 -0.59193402757E+01  0.81078376921E+01  0.51100000000E-03 0. -1.
        -11    1    3    3    0    0 -0.69518892435E+01  0.83340320986E+00 -0.91495644599E+01  0.11521191563E+02  0.51100000000E-03 0.  1.
         12    1    3    3    0    0 -0.78614201661E+01 -0.50037240081E+01 -0.24821670149E+02  0.26513288931E+02  0.00000000000E+00 0. -1.
</event>
<event>
 7    1  0.4623443E-009  0.4614232E+02  0.7816164E-02  0.1320468E+00
        -11   -1    0    0    0    0  0.00000000000E+00  0.00000000000E+00  0.45593999997E+02  0.45594000000E+02  0.51100000000E-03 0. -1.
         11   -1    0    0    0    0 -0.00000000000E+00 -0.00000000000E+00 -0.45593999997E+02  0.45594000000E+02  0.51100000000E-03 0.  1.
    9900012    2    1    2    0    0 -0.36305980854E+00  0.34194837477E+02  0.29320552288E+02  0.46142317532E+02  0.99999979123E+01 0.  0.
        -12    1    1    2    0    0  0.36305980854E+00 -0.34194837477E+02 -0.29320552288E+02  0.45045682468E+02  0.00000000000E+00 0.  1.
         11    1    3    3    0    0 -0.47269308994E+01  0.14080417010E+02  0.11977821552E+02  0.19080624421E+02  0.51100000000E-03 0. -1.
        -11    1    3    3    0    0  0.23369360837E+01  0.85443754390E+01  0.57665317769E+01  0.10569792377E+02  0.51100000000E-03 0.  1.
         12    1    3    3    0    0  0.20269350071E+01  0.11570045028E+02  0.11576198959E+02  0.16491900734E+02  0.00000000000E+00 0. -1.
</event>
<event>
 7    1  0.4623443E-009  0.4614232E+02  0.7816164E-02  0.1320468E+00
        -11   -1    0    0    0    0  0.00000000000E+00  0.00000000000E+00  0.45593999997E+02  0.45594000000E+02  0.51100000000E-03 0. -1.
         11   -1    0    0    0    0 -0.00000000000E+00 -0.00000000000E+00 -0.45593999997E+02  0.45594000000E+02  0.51100000000E-03 0.  1.
    9900012    2    1    2    0    0 -0.41296784912E+01 -0.78954207812E+01 -0.44155650492E+02  0.46142318918E+02  0.10000010549E+02 0.  0.
         12    1    1    2    0    0  0.41296784912E+01  0.78954207812E+01  0.44155650492E+02  0.45045681082E+02  0.00000000000E+00 0. -1.
         11    1    3    3    0    0 -0.19844866497E+01 -0.38675558046E+01 -0.60562518868E+01  0.74548214158E+01  0.51100000000E-03 0. -1.
        -11    1    3    3    0    0 -0.65260165792E+00 -0.14287148486E+01 -0.24367111807E+01  0.28990820413E+01  0.51100000000E-03 0.  1.
         12    1    3    3    0    0 -0.14925901836E+01 -0.25991501280E+01 -0.35662687425E+02  0.35788415461E+02  0.00000000000E+00 0. -1.
</event>
<event>
 7    1  0.4623443E-009  0.4614232E+02  0.7816164E-02  0.1320468E+00
        -11   -1    0    0    0    0  0.00000000000E+00  0.00000000000E+00  0.45593999997E+02  0.45594000000E+02  0.51100000000E-03 0.  1.
         11   -1    0    0    0    0 -0.00000000000E+00 -0.00000000000E+00 -0.45593999997E+02  0.45594000000E+02  0.51100000000E-03 0. -1.
    9900012    2    1    2    0    0 -0.37292774017E+02 -0.25218044766E+02  0.15532985687E+01  0.46142317497E+02  0.99999975908E+01 0.  0.
         12    1    1    2    0    0  0.37292774017E+02  0.25218044766E+02 -0.15532985687E+01  0.45045682503E+02  0.00000000000E+00 0. -1.
         11    1    3    3    0    0 -0.15927258399E+01 -0.28147244054E+01 -0.59507344204E+00  0.32883980511E+01  0.51100000000E-03 0. -1.
        -11    1    3    3    0    0 -0.27077450973E+01 -0.57154451305E+00 -0.14585691405E+01  0.31282536408E+01  0.51100000000E-03 0.  1.
        -12    1    3    3    0    0 -0.32992303080E+02 -0.21831775848E+02  0.36069411513E+01  0.39725665805E+02  0.00000000000E+00 0.  1.
</event>
<event>
 7    1  0.4623443E-009  0.4614232E+02  0.7816164E-02  0.1320468E+00
        -11   -1    0    0    0    0  0.00000000000E+00  0.00000000000E+00  0.45593999997E+02  0.45594000000E+02  0.51100000000E-03 0. -1.
         11   -1    0    0    0    0 -0.00000000000E+00 -0.00000000000E+00 -0.45593999997E+02  0.45594000000E+02  0.51100000000E-03 0.  1.
    9900012    2    1    2    0    0  0.21167715480E+02  0.22470532218E+02  0.32804208693E+02  0.46142322019E+02  0.10000038826E+02 0.  0.
        -12    1    1    2    0    0 -0.21167715480E+02 -0.22470532218E+02 -0.32804208693E+02  0.45045677981E+02  0.00000000000E+00 0.  1.
         11    1    3    3    0    0  0.11236121451E+01  0.36531826722E+00  0.12905751559E+01  0.17497274597E+01  0.51100000000E-03 0. -1.
        -11    1    3    3    0    0  0.91187522310E+01  0.74748427405E+01  0.18621200066E+02  0.22040281496E+02  0.51100000000E-03 0.  1.
         12    1    3    3    0    0  0.10925351104E+02  0.14630371210E+02  0.12892433471E+02  0.22352313064E+02  0.00000000000E+00 0. -1.
</event>
<event>
 7    1  0.4623443E-009  0.4614232E+02  0.7816164E-02  0.1320468E+00
        -11   -1    0    0    0    0  0.00000000000E+00  0.00000000000E+00  0.45593999997E+02  0.45594000000E+02  0.51100000000E-03 0.  1.
         11   -1    0    0    0    0 -0.00000000000E+00 -0.00000000000E+00 -0.45593999997E+02  0.45594000000E+02  0.51100000000E-03 0. -1.
    9900012    2    1    2    0    0 -0.42956667325E+02  0.12953162814E+02  0.40067162978E+01  0.46142317964E+02  0.10000001852E+02 0.  0.
        -12    1    1    2    0    0  0.42956667325E+02 -0.12953162814E+02 -0.40067162978E+01  0.45045682036E+02  0.00000000000E+00 0.  1.
         11    1    3    3    0    0 -0.35282413755E+00  0.58354704356E-01 -0.96279373651E-01  0.37035135003E+00  0.51100000000E-03 0. -1.
        -11    1    3    3    0    0 -0.11676438848E+02  0.55729913059E+00  0.43521424839E+01  0.12473610182E+02  0.51100000000E-03 0.  1.
        -12    1    3    3    0    0 -0.30927404339E+02  0.12337508979E+02 -0.24914681247E+00  0.33298356432E+02  0.00000000000E+00 0.  1.
</event>
<event>
 7    1  0.4623443E-009  0.4614232E+02  0.7816164E-02  0.1320468E+00
        -11   -1    0    0    0    0  0.00000000000E+00  0.00000000000E+00  0.45593999997E+02  0.45594000000E+02  0.51100000000E-03 0. -1.
         11   -1    0    0    0    0 -0.00000000000E+00 -0.00000000000E+00 -0.45593999997E+02  0.45594000000E+02  0.51100000000E-03 0.  1.
    9900012    2    1    2    0    0  0.15050024564E+02 -0.21105526951E+01  0.42404666641E+02  0.46142318465E+02  0.10000006417E+02 0.  0.
        -12    1    1    2    0    0 -0.15050024564E+02  0.21105526951E+01 -0.42404666641E+02  0.45045681535E+02  0.00000000000E+00 0.  1.
         11    1    3    3    0    0  0.21143734206E+00 -0.16321645259E+01  0.27856768235E+01  0.32355312416E+01  0.51100000000E-03 0. -1.
        -11    1    3    3    0    0  0.18751654670E+01 -0.23212809045E+01  0.42590289036E+01  0.52003767199E+01  0.51100000000E-03 0.  1.
         12    1    3    3    0    0  0.12963421755E+02  0.18428927353E+01  0.35359960914E+02  0.37706410503E+02  0.00000000000E+00 0. -1.
</event>
<event>
 7    1  0.4623443E-009  0.4614232E+02  0.7816164E-02  0.1320468E+00
        -11   -1    0    0    0    0  0.00000000000E+00  0.00000000000E+00  0.45593999997E+02  0.45594000000E+02  0.51100000000E-03 0. -1.
         11   -1    0    0    0    0 -0.00000000000E+00 -0.00000000000E+00 -0.45593999997E+02  0.45594000000E+02  0.51100000000E-03 0.  1.
    9900012    2    1    2    0    0  0.17102889983E+02 -0.39874635559E+02 -0.12108595476E+02  0.46142317731E+02  0.99999997236E+01 0.  0.
         12    1    1    2    0    0 -0.17102889983E+02  0.39874635559E+02  0.12108595476E+02  0.45045682269E+02  0.00000000000E+00 0. -1.
         11    1    3    3    0    0  0.13808473295E+02 -0.23694882172E+02 -0.51990809568E+01  0.27913291080E+02  0.51100000000E-03 0. -1.
        -11    1    3    3    0    0  0.31548133526E+01 -0.11299937628E+02 -0.33939958139E+01  0.12213134140E+02  0.51100000000E-03 0.  1.
         12    1    3    3    0    0  0.13960333583E+00 -0.48798157587E+01 -0.35155187049E+01  0.60158925103E+01  0.00000000000E+00 0. -1.
</event>
<event>
 7    1  0.4623443E-009  0.4614232E+02  0.7816164E-02  0.1320468E+00
        -11   -1    0    0    0    0  0.00000000000E+00  0.00000000000E+00  0.45593999997E+02  0.45594000000E+02  0.51100000000E-03 0. -1.
         11   -1    0    0    0    0 -0.00000000000E+00 -0.00000000000E+00 -0.45593999997E+02  0.45594000000E+02  0.51100000000E-03 0.  1.
    9900012    2    1    2    0    0  0.26663704842E+02 -0.28535242837E+02  0.22447721558E+02  0.46142318267E+02  0.10000004609E+02 0.  0.
        -12    1    1    2    0    0 -0.26663704842E+02  0.28535242837E+02 -0.22447721558E+02  0.45045681733E+02  0.00000000000E+00 0.  1.
         11    1    3    3    0    0  0.13550843649E+02 -0.14226165087E+02  0.12641991454E+02  0.23362985359E+02  0.51100000000E-03 0. -1.
        -11    1    3    3    0    0  0.69964700641E+01 -0.40961296134E+01  0.14520431849E+01  0.82363402576E+01  0.51100000000E-03 0.  1.
        -12    1    3    3    0    0  0.61163911290E+01 -0.10212948136E+02  0.83536869188E+01  0.14542992650E+02  0.00000000000E+00 0.  1.
</event>
<event>
 7    1  0.4623443E-009  0.4614232E+02  0.7816164E-02  0.1320468E+00
        -11   -1    0    0    0    0  0.00000000000E+00  0.00000000000E+00  0.45593999997E+02  0.45594000000E+02  0.51100000000E-03 0.  1.
         11   -1    0    0    0    0 -0.00000000000E+00 -0.00000000000E+00 -0.45593999997E+02  0.45594000000E+02  0.51100000000E-03 0. -1.
    9900012    2    1    2    0    0  0.38808871092E+02  0.92098857665E+01 -0.20932343587E+02  0.46142317861E+02  0.10000000913E+02 0.  0.
        -12    1    1    2    0    0 -0.38808871092E+02 -0.92098857665E+01  0.20932343587E+02  0.45045682139E+02  0.00000000000E+00 0.  1.
         11    1    3    3    0    0  0.12939110900E+02  0.18050482414E+01 -0.49511740927E+01  0.13971145808E+02  0.51100000000E-03 0. -1.
        -11    1    3    3    0    0  0.45082732323E-01 -0.61327690164E+00 -0.12140774253E+01  0.13609280902E+01  0.51100000000E-03 0.  1.
        -12    1    3    3    0    0  0.25824677460E+02  0.80181144268E+01 -0.14767092069E+02  0.30810243963E+02  0.00000000000E+00 0.  1.
</event>
<event>
 7    1  0.4623443E-009  0.4614232E+02  0.7816164E-02  0.1320468E+00
        -11   -1    0    0    0    0  0.00000000000E+00  0.00000000000E+00  0.45593999997E+02  0.45594000000E+02  0.51100000000E-03 0. -1.
         11   -1    0    0    0    0 -0.00000000000E+00 -0.00000000000E+00 -0.45593999997E+02  0.45594000000E+02  0.51100000000E-03 0.  1.
    9900012    2    1    2    0    0  0.75791348248E+01 -0.21327256919E+02  0.38946352119E+02  0.46142317457E+02  0.99999972249E+01 0.  0.
        -12    1    1    2    0    0 -0.75791348248E+01  0.21327256919E+02 -0.38946352119E+02  0.45045682543E+02  0.00000000000E+00 0.  1.
         11    1    3    3    0    0  0.62787011809E+01 -0.77299540724E+01  0.14170838441E+02  0.17320131087E+02  0.51100000000E-03 0.  1.
        -11    1    3    3    0    0  0.25720764313E+01 -0.37801269434E+01  0.10478430028E+02  0.11432516477E+02  0.51100000000E-03 0. -1.
        -12    1    3    3    0    0 -0.12716427874E+01 -0.98171759037E+01  0.14297083650E+02  0.17389669893E+02  0.00000000000E+00 0.  1.
</event>
<event>
 7    1  0.4623443E-009  0.4614232E+02  0.7816164E-02  0.1320468E+00
        -11   -1    0    0    0    0  0.00000000000E+00  0.00000000000E+00  0.45593999997E+02  0.45594000000E+02  0.51100000000E-03 0. -1.
         11   -1    0    0    0    0 -0.00000000000E+00 -0.00000000000E+00 -0.45593999997E+02  0.45594000000E+02  0.51100000000E-03 0.  1.
    9900012    2    1    2    0    0  0.35230487780E+02 -0.13554092629E+01 -0.28037278154E+02  0.46142319077E+02  0.10000012002E+02 0.  0.
         12    1    1    2    0    0 -0.35230487780E+02  0.13554092629E+01  0.28037278154E+02  0.45045680923E+02  0.00000000000E+00 0. -1.
         11    1    3    3    0    0  0.91471700993E+01 -0.24729196618E+01 -0.11770969396E+02  0.15110981876E+02  0.51100000000E-03 0. -1.
        -11    1    3    3    0    0  0.18141075057E+02 -0.29447845507E+00 -0.93785437660E+01  0.20424064365E+02  0.51100000000E-03 0.  1.
        -12    1    3    3    0    0  0.79422426241E+01  0.14119888539E+01 -0.68877649924E+01  0.10607272836E+02  0.00000000000E+00 0.  1.
</event>
<event>
 7    1  0.4623443E-009  0.4614232E+02  0.7816164E-02  0.1320468E+00
        -11   -1    0    0    0    0  0.00000000000E+00  0.00000000000E+00  0.45593999997E+02  0.45594000000E+02  0.51100000000E-03 0. -1.
         11   -1    0    0    0    0 -0.00000000000E+00 -0.00000000000E+00 -0.45593999997E+02  0.45594000000E+02  0.51100000000E-03 0.  1.
    9900012    2    1    2    0    0 -0.10542752260E+02 -0.17152715050E+02 -0.40295758385E+02  0.46142318712E+02  0.10000008675E+02 0.  0.
         12    1    1    2    0    0  0.10542752260E+02  0.17152715050E+02  0.40295758385E+02  0.45045681288E+02  0.00000000000E+00 0. -1.
         11    1    3    3    0    0 -0.92601048381E+00  0.18195732088E+00 -0.98507426265E+00  0.13641757390E+01  0.51100000000E-03 0. -1.
        -11    1    3    3    0    0 -0.44601976031E+01 -0.36752103095E+01 -0.56266926035E+01  0.80659905401E+01  0.51100000000E-03 0.  1.
        -12    1    3    3    0    0 -0.51565441735E+01 -0.13659462061E+02 -0.33683991519E+02  0.36712152433E+02  0.00000000000E+00 0.  1.
</event>
<event>
 7    1  0.4623443E-009  0.4614232E+02  0.7816164E-02  0.1320468E+00
        -11   -1    0    0    0    0  0.00000000000E+00  0.00000000000E+00  0.45593999997E+02  0.45594000000E+02  0.51100000000E-03 0. -1.
         11   -1    0    0    0    0 -0.00000000000E+00 -0.00000000000E+00 -0.45593999997E+02  0.45594000000E+02  0.51100000000E-03 0.  1.
    9900012    2    1    2    0    0  0.57339897758E+01 -0.17319646222E+02  0.41185734471E+02  0.46142317545E+02  0.99999980254E+01 0.  0.
        -12    1    1    2    0    0 -0.57339897758E+01  0.17319646222E+02 -0.41185734471E+02  0.45045682455E+02  0.00000000000E+00 0.  1.
         11    1    3    3    0    0  0.11367718139E+01 -0.31334973303E+01  0.12311098244E+02  0.12754379480E+02  0.51100000000E-03 0. -1.
        -11    1    3    3    0    0  0.42940340174E+00 -0.16791863232E+01  0.11226543055E+02  0.11359547668E+02  0.51100000000E-03 0.  1.
         12    1    3    3    0    0  0.41678145602E+01 -0.12506962568E+02  0.17648093171E+02  0.22028390396E+02  0.00000000000E+00 0. -1.
</event>
<event>
 7    1  0.4623443E-009  0.4614232E+02  0.7816164E-02  0.1320468E+00
        -11   -1    0    0    0    0  0.00000000000E+00  0.00000000000E+00  0.45593999997E+02  0.45594000000E+02  0.51100000000E-03 0. -1.
         11   -1    0    0    0    0 -0.00000000000E+00 -0.00000000000E+00 -0.45593999997E+02  0.45594000000E+02  0.51100000000E-03 0.  1.
    9900012    2    1    2    0    0  0.49171421801E+01 -0.25815319567E+02  0.36585577491E+02  0.46142317722E+02  0.99999996404E+01 0.  0.
        -12    1    1    2    0    0 -0.49171421801E+01  0.25815319567E+02 -0.36585577491E+02  0.45045682278E+02  0.00000000000E+00 0.  1.
         11    1    3    3    0    0  0.55647347072E+01 -0.11413536913E+02  0.21747586351E+02  0.25183181086E+02  0.51100000000E-03 0. -1.
        -11    1    3    3    0    0 -0.63588685191E-02  0.17037183730E+00  0.28961017373E-01  0.17293351267E+00  0.51100000000E-03 0.  1.
         12    1    3    3    0    0 -0.64123365853E+00 -0.14572154491E+02  0.14809030123E+02  0.20786203123E+02  0.00000000000E+00 0. -1.
</event>
<event>
 7    1  0.4623443E-009  0.4614232E+02  0.7816164E-02  0.1320468E+00
        -11   -1    0    0    0    0  0.00000000000E+00  0.00000000000E+00  0.45593999997E+02  0.45594000000E+02  0.51100000000E-03 0. -1.
         11   -1    0    0    0    0 -0.00000000000E+00 -0.00000000000E+00 -0.45593999997E+02  0.45594000000E+02  0.51100000000E-03 0.  1.
    9900012    2    1    2    0    0  0.23906996625E+01  0.38139813243E+02 -0.23848536438E+02  0.46142317750E+02  0.99999999008E+01 0.  0.
         12    1    1    2    0    0 -0.23906996625E+01 -0.38139813243E+02  0.23848536438E+02  0.45045682250E+02  0.00000000000E+00 0. -1.
         11    1    3    3    0    0 -0.52435996984E+00  0.14659696072E+01 -0.18661034256E+01  0.24303009121E+01  0.51100000000E-03 0.  1.
        -11    1    3    3    0    0  0.28525326696E+01  0.41847347050E+01 -0.14095171866E+01  0.52569654880E+01  0.51100000000E-03 0. -1.
         12    1    3    3    0    0  0.62526962831E-01  0.32489108931E+02 -0.20572915826E+02  0.38455051350E+02  0.00000000000E+00 0. -1.
</event>
<event>
 7    1  0.4623443E-009  0.4614232E+02  0.7816164E-02  0.1320468E+00
        -11   -1    0    0    0    0  0.00000000000E+00  0.00000000000E+00  0.45593999997E+02  0.45594000000E+02  0.51100000000E-03 0. -1.
         11   -1    0    0    0    0 -0.00000000000E+00 -0.00000000000E+00 -0.45593999997E+02  0.45594000000E+02  0.51100000000E-03 0.  1.
    9900012    2    1    2    0    0  0.89586537740E+01 -0.32036633885E+02 -0.30372851211E+02  0.46142317867E+02  0.10000000967E+02 0.  0.
         12    1    1    2    0    0 -0.89586537740E+01  0.32036633885E+02  0.30372851211E+02  0.45045682133E+02  0.00000000000E+00 0. -1.
         11    1    3    3    0    0  0.34990001918E+01 -0.97431774962E+01 -0.13199738354E+02  0.16775148373E+02  0.51100000000E-03 0. -1.
        -11    1    3    3    0    0 -0.11699249524E+01 -0.63762272240E+01 -0.59065102152E+01  0.87699407745E+01  0.51100000000E-03 0.  1.
         12    1    3    3    0    0  0.66295785346E+01 -0.15917229165E+02 -0.11266602642E+02  0.20597228719E+02  0.00000000000E+00 0. -1.
</event>
<event>
 7    1  0.4623443E-009  0.4614232E+02  0.7816164E-02  0.1320468E+00
        -11   -1    0    0    0    0  0.00000000000E+00  0.00000000000E+00  0.45593999997E+02  0.45594000000E+02  0.51100000000E-03 0. -1.
         11   -1    0    0    0    0 -0.00000000000E+00 -0.00000000000E+00 -0.45593999997E+02  0.45594000000E+02  0.51100000000E-03 0.  1.
    9900012    2    1    2    0    0 -0.24047334987E+02 -0.20349822907E+02 -0.32198195640E+02  0.46142318578E+02  0.10000007447E+02 0.  0.
         12    1    1    2    0    0  0.24047334987E+02  0.20349822907E+02  0.32198195640E+02  0.45045681422E+02  0.00000000000E+00 0. -1.
         11    1    3    3    0    0 -0.11519104893E+02 -0.55908407222E+01 -0.12902483282E+02  0.18177495774E+02  0.51100000000E-03 0. -1.
        -11    1    3    3    0    0 -0.12178834810E+01  0.18128994358E+00 -0.25600556323E+01  0.28407730143E+01  0.51100000000E-03 0.  1.
        -12    1    3    3    0    0 -0.11310346613E+02 -0.14940272129E+02 -0.16735656725E+02  0.25124049789E+02  0.00000000000E+00 0.  1.
</event>
<event>
 7    1  0.4623443E-009  0.4614232E+02  0.7816164E-02  0.1320468E+00
        -11   -1    0    0    0    0  0.00000000000E+00  0.00000000000E+00  0.45593999997E+02  0.45594000000E+02  0.51100000000E-03 0.  1.
         11   -1    0    0    0    0 -0.00000000000E+00 -0.00000000000E+00 -0.45593999997E+02  0.45594000000E+02  0.51100000000E-03 0. -1.
    9900012    2    1    2    0    0  0.63900298313E+00  0.29968407190E+02 -0.33624392790E+02  0.46142317134E+02  0.99999942814E+01 0.  0.
         12    1    1    2    0    0 -0.63900298313E+00 -0.29968407190E+02  0.33624392790E+02  0.45045682866E+02  0.00000000000E+00 0. -1.
         11    1    3    3    0    0  0.22400371662E+01  0.12806958737E+02 -0.10974570815E+02  0.17014028430E+02  0.51100000000E-03 0.  1.
        -11    1    3    3    0    0 -0.36002149131E+01  0.69886171852E+01 -0.11181085094E+02  0.13668174045E+02  0.51100000000E-03 0. -1.
         12    1    3    3    0    0  0.19991807299E+01  0.10172831268E+02 -0.11468736881E+02  0.15460114659E+02  0.00000000000E+00 0. -1.
</event>
<event>
 7    1  0.4623443E-009  0.4614232E+02  0.7816164E-02  0.1320468E+00
        -11   -1    0    0    0    0  0.00000000000E+00  0.00000000000E+00  0.45593999997E+02  0.45594000000E+02  0.51100000000E-03 0. -1.
         11   -1    0    0    0    0 -0.00000000000E+00 -0.00000000000E+00 -0.45593999997E+02  0.45594000000E+02  0.51100000000E-03 0.  1.
    9900012    2    1    2    0    0 -0.36988584753E+02  0.14728128645E+02 -0.21072256703E+02  0.46142321206E+02  0.10000031418E+02 0.  0.
         12    1    1    2    0    0  0.36988584753E+02 -0.14728128645E+02  0.21072256703E+02  0.45045678794E+02  0.00000000000E+00 0. -1.
         11    1    3    3    0    0 -0.53486922141E+01  0.53811373147E+01 -0.52862609262E+01  0.92471456158E+01  0.51100000000E-03 0. -1.
        -11    1    3    3    0    0 -0.13290611125E+02  0.58194131978E+01 -0.51555344041E+01  0.15397579332E+02  0.51100000000E-03 0.  1.
         12    1    3    3    0    0 -0.18349281414E+02  0.35275781326E+01 -0.10630461372E+02  0.21497596258E+02  0.00000000000E+00 0. -1.
</event>
<event>
 7    1  0.4623443E-009  0.4614232E+02  0.7816164E-02  0.1320468E+00
        -11   -1    0    0    0    0  0.00000000000E+00  0.00000000000E+00  0.45593999997E+02  0.45594000000E+02  0.51100000000E-03 0. -1.
         11   -1    0    0    0    0 -0.00000000000E+00 -0.00000000000E+00 -0.45593999997E+02  0.45594000000E+02  0.51100000000E-03 0.  1.
    9900012    2    1    2    0    0  0.96436792314E+01  0.24196569290E+01  0.43934702924E+02  0.46142318634E+02  0.10000007957E+02 0.  0.
        -12    1    1    2    0    0 -0.96436792314E+01 -0.24196569290E+01 -0.43934702924E+02  0.45045681366E+02  0.00000000000E+00 0.  1.
         11    1    3    3    0    0  0.22153050157E+00  0.17256598965E+01  0.13039567241E+01  0.21742311839E+01  0.51100000000E-03 0. -1.
        -11    1    3    3    0    0  0.58426488494E+01  0.16827347540E+01  0.16692364693E+02  0.17765223926E+02  0.51100000000E-03 0.  1.
         12    1    3    3    0    0  0.35794998803E+01 -0.98873772155E+00  0.25938381506E+02  0.26202863524E+02  0.00000000000E+00 0. -1.
</event>
<event>
 7    1  0.4623443E-009  0.4614232E+02  0.7816164E-02  0.1320468E+00
        -11   -1    0    0    0    0  0.00000000000E+00  0.00000000000E+00  0.45593999997E+02  0.45594000000E+02  0.51100000000E-03 0. -1.
         11   -1    0    0    0    0 -0.00000000000E+00 -0.00000000000E+00 -0.45593999997E+02  0.45594000000E+02  0.51100000000E-03 0.  1.
    9900012    2    1    2    0    0 -0.74408959805E+01 -0.40439837053E+02 -0.18394724328E+02  0.46142320551E+02  0.10000025442E+02 0.  0.
         12    1    1    2    0    0  0.74408959805E+01  0.40439837053E+02  0.18394724328E+02  0.45045679449E+02  0.00000000000E+00 0. -1.
         11    1    3    3    0    0 -0.20607757262E+01 -0.12427616376E+02 -0.32096517537E+01  0.12999781153E+02  0.51100000000E-03 0. -1.
        -11    1    3    3    0    0 -0.23530202483E+01 -0.11892014972E+02 -0.24275211547E+01  0.12363235160E+02  0.51100000000E-03 0.  1.
        -12    1    3    3    0    0 -0.30271000060E+01 -0.16120205705E+02 -0.12757551420E+02  0.20779304239E+02  0.00000000000E+00 0.  1.
</event>
<event>
 7    1  0.4623443E-009  0.4614232E+02  0.7816164E-02  0.1320468E+00
        -11   -1    0    0    0    0  0.00000000000E+00  0.00000000000E+00  0.45593999997E+02  0.45594000000E+02  0.51100000000E-03 0. -1.
         11   -1    0    0    0    0 -0.00000000000E+00 -0.00000000000E+00 -0.45593999997E+02  0.45594000000E+02  0.51100000000E-03 0.  1.
    9900012    2    1    2    0    0  0.94028287287E+01  0.32038064910E+02 -0.30236777979E+02  0.46142317257E+02  0.99999954021E+01 0.  0.
         12    1    1    2    0    0 -0.94028287287E+01 -0.32038064910E+02  0.30236777979E+02  0.45045682743E+02  0.00000000000E+00 0. -1.
         11    1    3    3    0    0  0.65160226877E+01  0.28986370381E+02 -0.26199364883E+02  0.39611550589E+02  0.51100000000E-03 0. -1.
        -11    1    3    3    0    0  0.13168182165E+01  0.32486374312E+01 -0.31708213471E+01  0.47267074852E+01  0.51100000000E-03 0.  1.
         12    1    3    3    0    0  0.15699878245E+01 -0.19694290251E+00 -0.86659174892E+00  0.18040591828E+01  0.00000000000E+00 0. -1.
</event>
<event>
 7    1  0.4623443E-009  0.4614232E+02  0.7816164E-02  0.1320468E+00
        -11   -1    0    0    0    0  0.00000000000E+00  0.00000000000E+00  0.45593999997E+02  0.45594000000E+02  0.51100000000E-03 0. -1.
         11   -1    0    0    0    0 -0.00000000000E+00 -0.00000000000E+00 -0.45593999997E+02  0.45594000000E+02  0.51100000000E-03 0.  1.
    9900012    2    1    2    0    0 -0.24212686387E+02  0.20684873790E+02 -0.31858992339E+02  0.46142316759E+02  0.99999908620E+01 0.  0.
         12    1    1    2    0    0  0.24212686387E+02 -0.20684873790E+02  0.31858992339E+02  0.45045683241E+02  0.00000000000E+00 0. -1.
         11    1    3    3    0    0 -0.17917022508E+01  0.51210599043E+00 -0.35229517065E+00  0.18964602947E+01  0.51100000000E-03 0. -1.
        -11    1    3    3    0    0 -0.15193416189E+02  0.17913061400E+02 -0.23535268511E+02  0.33250962818E+02  0.51100000000E-03 0.  1.
        -12    1    3    3    0    0 -0.72275679475E+01  0.22597064000E+01 -0.79714286575E+01  0.10994893646E+02  0.00000000000E+00 0.  1.
</event>
<event>
 7    1  0.4623443E-009  0.4614232E+02  0.7816164E-02  0.1320468E+00
        -11   -1    0    0    0    0  0.00000000000E+00  0.00000000000E+00  0.45593999997E+02  0.45594000000E+02  0.51100000000E-03 0. -1.
         11   -1    0    0    0    0 -0.00000000000E+00 -0.00000000000E+00 -0.45593999997E+02  0.45594000000E+02  0.51100000000E-03 0.  1.
    9900012    2    1    2    0    0  0.17701781450E+02  0.71817695891E+00 -0.41415513390E+02  0.46142316589E+02  0.99999893097E+01 0.  0.
         12    1    1    2    0    0 -0.17701781450E+02 -0.71817695891E+00  0.41415513390E+02  0.45045683411E+02  0.00000000000E+00 0. -1.
         11    1    3    3    0    0  0.15708773363E+00  0.15883175359E+01 -0.14096713691E+01  0.21294606784E+01  0.51100000000E-03 0. -1.
        -11    1    3    3    0    0  0.38329550628E+01  0.18541073321E+01 -0.11516490130E+02  0.12278387667E+02  0.51100000000E-03 0.  1.
        -12    1    3    3    0    0  0.13711738654E+02 -0.27242479090E+01 -0.28489351890E+02  0.31734468243E+02  0.00000000000E+00 0.  1.
</event>
<event>
 7    1  0.4623443E-009  0.4614232E+02  0.7816164E-02  0.1320468E+00
        -11   -1    0    0    0    0  0.00000000000E+00  0.00000000000E+00  0.45593999997E+02  0.45594000000E+02  0.51100000000E-03 0. -1.
         11   -1    0    0    0    0 -0.00000000000E+00 -0.00000000000E+00 -0.45593999997E+02  0.45594000000E+02  0.51100000000E-03 0.  1.
    9900012    2    1    2    0    0 -0.39630496962E+02  0.18028613957E+02 -0.11554492632E+02  0.46142317514E+02  0.99999977472E+01 0.  0.
         12    1    1    2    0    0  0.39630496962E+02 -0.18028613957E+02  0.11554492632E+02  0.45045682486E+02  0.00000000000E+00 0. -1.
         11    1    3    3    0    0 -0.22255913302E+01  0.22835302507E+01 -0.28397921416E+01  0.42699164914E+01  0.51100000000E-03 0. -1.
        -11    1    3    3    0    0 -0.36880343901E+02  0.15042043262E+02 -0.91876402680E+01  0.40875855535E+02  0.51100000000E-03 0.  1.
         12    1    3    3    0    0 -0.52456173036E+00  0.70304044420E+00  0.47293977799E+00  0.99654548754E+00  0.00000000000E+00 0. -1.
</event>
<event>
 7    1  0.4623443E-009  0.4614232E+02  0.7816164E-02  0.1320468E+00
        -11   -1    0    0    0    0  0.00000000000E+00  0.00000000000E+00  0.45593999997E+02  0.45594000000E+02  0.51100000000E-03 0.  1.
         11   -1    0    0    0    0 -0.00000000000E+00 -0.00000000000E+00 -0.45593999997E+02  0.45594000000E+02  0.51100000000E-03 0. -1.
    9900012    2    1    2    0    0  0.24862330848E+02 -0.35937011591E+02  0.10932018139E+02  0.46142319654E+02  0.10000017258E+02 0.  0.
         12    1    1    2    0    0 -0.24862330848E+02  0.35937011591E+02 -0.10932018139E+02  0.45045680346E+02  0.00000000000E+00 0. -1.
         11    1    3    3    0    0  0.86695230144E+01 -0.96689292235E+01  0.68675081647E+01  0.14690523826E+02  0.51100000000E-03 0. -1.
        -11    1    3    3    0    0  0.12269274111E+02 -0.19755077502E+02  0.50133216782E+01  0.23789316275E+02  0.51100000000E-03 0.  1.
         12    1    3    3    0    0  0.39235337226E+01 -0.65130048653E+01 -0.94881170409E+00  0.76624795528E+01  0.00000000000E+00 0. -1.
</event>
<event>
 7    1  0.4623443E-009  0.4614232E+02  0.7816164E-02  0.1320468E+00
        -11   -1    0    0    0    0  0.00000000000E+00  0.00000000000E+00  0.45593999997E+02  0.45594000000E+02  0.51100000000E-03 0. -1.
         11   -1    0    0    0    0 -0.00000000000E+00 -0.00000000000E+00 -0.45593999997E+02  0.45594000000E+02  0.51100000000E-03 0.  1.
    9900012    2    1    2    0    0  0.40225829180E+01  0.28099682347E+02 -0.34976279934E+02  0.46142317861E+02  0.10000000909E+02 0.  0.
         12    1    1    2    0    0 -0.40225829180E+01 -0.28099682347E+02  0.34976279934E+02  0.45045682139E+02  0.00000000000E+00 0. -1.
         11    1    3    3    0    0  0.35899477674E+01  0.22912258014E+02 -0.28171477596E+02  0.36489607321E+02  0.51100000000E-03 0. -1.
        -11    1    3    3    0    0  0.71837705004E+00  0.33089391493E+01 -0.69664584092E+01  0.77457528303E+01  0.51100000000E-03 0.  1.
         12    1    3    3    0    0 -0.28574189943E+00  0.18784851841E+01  0.16165607070E+00  0.19069577094E+01  0.00000000000E+00 0. -1.
</event>
<event>
 7    1  0.4623443E-009  0.4614232E+02  0.7816164E-02  0.1320468E+00
        -11   -1    0    0    0    0  0.00000000000E+00  0.00000000000E+00  0.45593999997E+02  0.45594000000E+02  0.51100000000E-03 0. -1.
         11   -1    0    0    0    0 -0.00000000000E+00 -0.00000000000E+00 -0.45593999997E+02  0.45594000000E+02  0.51100000000E-03 0.  1.
    9900012    2    1    2    0    0 -0.42530110459E+02  0.14070102421E+02 -0.47260454727E+01  0.46142316704E+02  0.99999903598E+01 0.  0.
         12    1    1    2    0    0  0.42530110459E+02 -0.14070102421E+02  0.47260454727E+01  0.45045683296E+02  0.00000000000E+00 0. -1.
         11    1    3    3    0    0 -0.10342980711E+02  0.37605585027E+01 -0.45458276622E+01  0.11907291868E+02  0.51100000000E-03 0. -1.
        -11    1    3    3    0    0 -0.32837675057E+01  0.53186379527E-01 -0.13325143589E+01  0.35442280683E+01  0.51100000000E-03 0.  1.
         12    1    3    3    0    0 -0.28903362243E+02  0.10256357539E+02  0.11522965484E+01  0.30690796768E+02  0.00000000000E+00 0. -1.
</event>
<event>
 7    1  0.4623443E-009  0.4614232E+02  0.7816164E-02  0.1320468E+00
        -11   -1    0    0    0    0  0.00000000000E+00  0.00000000000E+00  0.45593999997E+02  0.45594000000E+02  0.51100000000E-03 0. -1.
         11   -1    0    0    0    0 -0.00000000000E+00 -0.00000000000E+00 -0.45593999997E+02  0.45594000000E+02  0.51100000000E-03 0.  1.
    9900012    2    1    2    0    0 -0.30702921666E+02  0.16633172211E+01  0.32919255805E+02  0.46142318456E+02  0.10000006337E+02 0.  0.
        -12    1    1    2    0    0  0.30702921666E+02 -0.16633172211E+01 -0.32919255805E+02  0.45045681544E+02  0.00000000000E+00 0.  1.
         11    1    3    3    0    0 -0.74499904763E+01  0.14083029897E+01  0.52000571611E+01  0.91938169521E+01  0.51100000000E-03 0. -1.
        -11    1    3    3    0    0 -0.50101285670E+01 -0.22351194997E+01  0.99406827823E+01  0.11354044296E+02  0.51100000000E-03 0.  1.
         12    1    3    3    0    0 -0.18242802623E+02  0.24901337311E+01  0.17778515862E+02  0.25594457208E+02  0.00000000000E+00 0. -1.
</event>
<event>
 7    1  0.4623443E-009  0.4614232E+02  0.7816164E-02  0.1320468E+00
        -11   -1    0    0    0    0  0.00000000000E+00  0.00000000000E+00  0.45593999997E+02  0.45594000000E+02  0.51100000000E-03 0. -1.
         11   -1    0    0    0    0 -0.00000000000E+00 -0.00000000000E+00 -0.45593999997E+02  0.45594000000E+02  0.51100000000E-03 0.  1.
    9900012    2    1    2    0    0 -0.42431485278E+02  0.28628633332E+01 -0.14848789107E+02  0.46142317995E+02  0.10000002129E+02 0.  0.
         12    1    1    2    0    0  0.42431485278E+02 -0.28628633332E+01  0.14848789107E+02  0.45045682005E+02  0.00000000000E+00 0. -1.
         11    1    3    3    0    0 -0.58571291424E+00 -0.44107795036E+00  0.36343546500E+00  0.81834893202E+00  0.51100000000E-03 0. -1.
        -11    1    3    3    0    0 -0.26349845554E+02 -0.82231732210E+00 -0.68470150071E+01  0.27237330656E+02  0.51100000000E-03 0.  1.
        -12    1    3    3    0    0 -0.15495926810E+02  0.41262586056E+01 -0.83652095646E+01  0.18086638407E+02  0.00000000000E+00 0.  1.
</event>
<event>
 7    1  0.4623443E-009  0.4614232E+02  0.7816164E-02  0.1320468E+00
        -11   -1    0    0    0    0  0.00000000000E+00  0.00000000000E+00  0.45593999997E+02  0.45594000000E+02  0.51100000000E-03 0. -1.
         11   -1    0    0    0    0 -0.00000000000E+00 -0.00000000000E+00 -0.45593999997E+02  0.45594000000E+02  0.51100000000E-03 0.  1.
    9900012    2    1    2    0    0  0.21753638510E+02  0.93153236598E+01 -0.38329067445E+02  0.46142318137E+02  0.10000003424E+02 0.  0.
         12    1    1    2    0    0 -0.21753638510E+02 -0.93153236598E+01  0.38329067445E+02  0.45045681863E+02  0.00000000000E+00 0. -1.
         11    1    3    3    0    0  0.43448703096E+01  0.15059014395E+01 -0.25693563737E+01  0.52675639141E+01  0.51100000000E-03 0. -1.
        -11    1    3    3    0    0  0.12020121596E+02  0.36977552072E+01 -0.18880666956E+02  0.22685596790E+02  0.51100000000E-03 0.  1.
        -12    1    3    3    0    0  0.53886466052E+01  0.41116670132E+01 -0.16879044115E+02  0.18189157432E+02  0.00000000000E+00 0.  1.
</event>
<event>
 7    1  0.4623443E-009  0.4614232E+02  0.7816164E-02  0.1320468E+00
        -11   -1    0    0    0    0  0.00000000000E+00  0.00000000000E+00  0.45593999997E+02  0.45594000000E+02  0.51100000000E-03 0. -1.
         11   -1    0    0    0    0 -0.00000000000E+00 -0.00000000000E+00 -0.45593999997E+02  0.45594000000E+02  0.51100000000E-03 0.  1.
    9900012    2    1    2    0    0  0.36180858132E+02 -0.15264548604E+02  0.22069264753E+02  0.46142318898E+02  0.10000010365E+02 0.  0.
        -12    1    1    2    0    0 -0.36180858132E+02  0.15264548604E+02 -0.22069264753E+02  0.45045681102E+02  0.00000000000E+00 0.  1.
         11    1    3    3    0    0  0.15458068892E+02 -0.38941626429E+01  0.84374492710E+01  0.18036267547E+02  0.51100000000E-03 0. -1.
        -11    1    3    3    0    0  0.18621326551E+02 -0.12151046603E+02  0.11593283493E+02  0.25076003638E+02  0.51100000000E-03 0.  1.
        -12    1    3    3    0    0  0.21014626892E+01  0.78066064200E+00  0.20385319890E+01  0.30300477129E+01  0.00000000000E+00 0.  1.
</event>
<event>
 7    1  0.4623443E-009  0.4614232E+02  0.7816164E-02  0.1320468E+00
        -11   -1    0    0    0    0  0.00000000000E+00  0.00000000000E+00  0.45593999997E+02  0.45594000000E+02  0.51100000000E-03 0. -1.
         11   -1    0    0    0    0 -0.00000000000E+00 -0.00000000000E+00 -0.45593999997E+02  0.45594000000E+02  0.51100000000E-03 0.  1.
    9900012    2    1    2    0    0  0.50554870649E+01 -0.31568043028E+02 -0.31733487425E+02  0.46142317474E+02  0.99999973804E+01 0.  0.
         12    1    1    2    0    0 -0.50554870649E+01  0.31568043028E+02  0.31733487425E+02  0.45045682526E+02  0.00000000000E+00 0. -1.
         11    1    3    3    0    0  0.35024716317E+01 -0.79879973336E+01 -0.42854911353E+01  0.97180678874E+01  0.51100000000E-03 0. -1.
        -11    1    3    3    0    0  0.22775611682E+01 -0.19339421386E+02 -0.20685710150E+02  0.28409489772E+02  0.51100000000E-03 0.  1.
         12    1    3    3    0    0 -0.72454573493E+00 -0.42406243079E+01 -0.67622861403E+01  0.80147598147E+01  0.00000000000E+00 0. -1.
</event>
<event>
 7    1  0.4623443E-009  0.4614232E+02  0.7816164E-02  0.1320468E+00
        -11   -1    0    0    0    0  0.00000000000E+00  0.00000000000E+00  0.45593999997E+02  0.45594000000E+02  0.51100000000E-03 0. -1.
         11   -1    0    0    0    0 -0.00000000000E+00 -0.00000000000E+00 -0.45593999997E+02  0.45594000000E+02  0.51100000000E-03 0.  1.
    9900012    2    1    2    0    0  0.42823281320E+02  0.18086876131E+01  0.13856707861E+02  0.46142321776E+02  0.10000036614E+02 0.  0.
        -12    1    1    2    0    0 -0.42823281320E+02 -0.18086876131E+01 -0.13856707861E+02  0.45045678224E+02  0.00000000000E+00 0.  1.
         11    1    3    3    0    0  0.87109465329E+01 -0.14473899353E+01  0.47449012975E+01  0.10024450893E+02  0.51100000000E-03 0. -1.
        -11    1    3    3    0    0  0.26381805442E+01 -0.16106174738E+01  0.10593887615E+01  0.32674745660E+01  0.51100000000E-03 0.  1.
         12    1    3    3    0    0  0.31474154243E+02  0.48666950222E+01  0.80524178023E+01  0.32850396317E+02  0.00000000000E+00 0. -1.
</event>
<event>
 7    1  0.4623443E-009  0.4614231E+02  0.7816164E-02  0.1320468E+00
        -11   -1    0    0    0    0  0.00000000000E+00  0.00000000000E+00  0.45593999997E+02  0.45594000000E+02  0.51100000000E-03 0. -1.
         11   -1    0    0    0    0 -0.00000000000E+00 -0.00000000000E+00 -0.45593999997E+02  0.45594000000E+02  0.51100000000E-03 0.  1.
    9900012    2    1    2    0    0  0.50083247120E+01 -0.42084701698E+02 -0.15261339618E+02  0.46142312967E+02  0.99999562792E+01 0.  0.
         12    1    1    2    0    0 -0.50083247120E+01  0.42084701698E+02  0.15261339618E+02  0.45045687033E+02  0.00000000000E+00 0. -1.
         11    1    3    3    0    0 -0.35674205844E+00 -0.58281711721E+01 -0.20464911596E+01  0.61873233660E+01  0.51100000000E-03 0. -1.
        -11    1    3    3    0    0  0.37961116330E+01 -0.44418626204E+01 -0.23842326675E+01  0.63107188769E+01  0.51100000000E-03 0.  1.
        -12    1    3    3    0    0  0.15689551375E+01 -0.31814667905E+02 -0.10830615791E+02  0.33644270724E+02  0.00000000000E+00 0.  1.
</event>
<event>
 7    1  0.4623443E-009  0.4614232E+02  0.7816164E-02  0.1320468E+00
        -11   -1    0    0    0    0  0.00000000000E+00  0.00000000000E+00  0.45593999997E+02  0.45594000000E+02  0.51100000000E-03 0. -1.
         11   -1    0    0    0    0 -0.00000000000E+00 -0.00000000000E+00 -0.45593999997E+02  0.45594000000E+02  0.51100000000E-03 0.  1.
    9900012    2    1    2    0    0  0.13524815551E+02 -0.57171689236E+01 -0.42585289008E+02  0.46142317676E+02  0.99999992209E+01 0.  0.
         12    1    1    2    0    0 -0.13524815551E+02  0.57171689236E+01  0.42585289008E+02  0.45045682324E+02  0.00000000000E+00 0. -1.
         11    1    3    3    0    0 -0.16969140864E+00 -0.20418660059E+01 -0.30623916823E+01  0.36845969979E+01  0.51100000000E-03 0. -1.
        -11    1    3    3    0    0  0.12616399490E+02 -0.19814010276E+01 -0.28184909237E+02  0.30943312607E+02  0.51100000000E-03 0.  1.
         12    1    3    3    0    0  0.10781074696E+01 -0.16939018902E+01 -0.11337988088E+02  0.11514408071E+02  0.00000000000E+00 0. -1.
</event>
<event>
 7    1  0.4623443E-009  0.4614232E+02  0.7816164E-02  0.1320468E+00
        -11   -1    0    0    0    0  0.00000000000E+00  0.00000000000E+00  0.45593999997E+02  0.45594000000E+02  0.51100000000E-03 0. -1.
         11   -1    0    0    0    0 -0.00000000000E+00 -0.00000000000E+00 -0.45593999997E+02  0.45594000000E+02  0.51100000000E-03 0.  1.
    9900012    2    1    2    0    0  0.33638595030E+02  0.10678544267E+02  0.27991554082E+02  0.46142317819E+02  0.10000000526E+02 0.  0.
        -12    1    1    2    0    0 -0.33638595030E+02 -0.10678544267E+02 -0.27991554082E+02  0.45045682181E+02  0.00000000000E+00 0.  1.
         11    1    3    3    0    0  0.16430269868E+02  0.52225607214E+01  0.17469342760E+02  0.24543977778E+02  0.51100000000E-03 0. -1.
        -11    1    3    3    0    0  0.21586527224E+01 -0.10274532507E+01  0.20587205076E+01  0.31549599280E+01  0.51100000000E-03 0.  1.
         12    1    3    3    0    0  0.15049672439E+02  0.64834367964E+01  0.84634908138E+01  0.18443380113E+02  0.00000000000E+00 0. -1.
</event>
<event>
 7    1  0.4623443E-009  0.4614233E+02  0.7816164E-02  0.1320468E+00
        -11   -1    0    0    0    0  0.00000000000E+00  0.00000000000E+00  0.45593999997E+02  0.45594000000E+02  0.51100000000E-03 0. -1.
         11   -1    0    0    0    0 -0.00000000000E+00 -0.00000000000E+00 -0.45593999997E+02  0.45594000000E+02  0.51100000000E-03 0.  1.
    9900012    2    1    2    0    0 -0.30887444171E+02  0.27975459969E+01 -0.32668822093E+02  0.46142329753E+02  0.10000109355E+02 0.  0.
         12    1    1    2    0    0  0.30887444171E+02 -0.27975459969E+01  0.32668822093E+02  0.45045670247E+02  0.00000000000E+00 0. -1.
         11    1    3    3    0    0 -0.10422288286E+02  0.46355765069E+01 -0.10065766508E+02  0.15212899735E+02  0.51100000000E-03 0. -1.
        -11    1    3    3    0    0 -0.76869006361E+00 -0.92803713246E+00 -0.24756233611E+01  0.27533340916E+01  0.51100000000E-03 0.  1.
         12    1    3    3    0    0 -0.19696465821E+02 -0.90999337751E+00 -0.20127432224E+02  0.28176095927E+02  0.00000000000E+00 0. -1.
</event>
<event>
 7    1  0.4623443E-009  0.4614232E+02  0.7816164E-02  0.1320468E+00
        -11   -1    0    0    0    0  0.00000000000E+00  0.00000000000E+00  0.45593999997E+02  0.45594000000E+02  0.51100000000E-03 0. -1.
         11   -1    0    0    0    0 -0.00000000000E+00 -0.00000000000E+00 -0.45593999997E+02  0.45594000000E+02  0.51100000000E-03 0.  1.
    9900012    2    1    2    0    0 -0.31550789001E+02 -0.49441714646E+01  0.31768166065E+02  0.46142317708E+02  0.99999995124E+01 0.  0.
        -12    1    1    2    0    0  0.31550789001E+02  0.49441714646E+01 -0.31768166065E+02  0.45045682292E+02  0.00000000000E+00 0.  1.
         11    1    3    3    0    0 -0.24218661508E+01  0.10007504280E+01  0.34948366588E+01  0.43681598648E+01  0.51100000000E-03 0. -1.
        -11    1    3    3    0    0 -0.36110318115E+01 -0.31094681382E+01  0.67981103545E+01  0.83019664838E+01  0.51100000000E-03 0.  1.
         12    1    3    3    0    0 -0.25517891039E+02 -0.28354537544E+01  0.21475219052E+02  0.33472191359E+02  0.00000000000E+00 0. -1.
</event>
<event>
 7    1  0.6488671E-009  0.4614232E+02  0.7816164E-02  0.1320468E+00
        -11   -1    0    0    0    0  0.00000000000E+00  0.00000000000E+00  0.45593999997E+02  0.45594000000E+02  0.51100000000E-03 0. -1.
         11   -1    0    0    0    0 -0.00000000000E+00 -0.00000000000E+00 -0.45593999997E+02  0.45594000000E+02  0.51100000000E-03 0.  1.
    9900012    2    1    2    0    0 -0.19442984696E+02 -0.32765162067E+02 -0.24031812474E+02  0.46142317521E+02  0.99999978129E+01 0.  0.
         12    1    1    2    0    0  0.19442984696E+02  0.32765162067E+02  0.24031812474E+02  0.45045682479E+02  0.00000000000E+00 0. -1.
         11    1    3    3    0    0 -0.69758630064E+01 -0.11074489752E+02 -0.60393261217E+01  0.14414591504E+02  0.51100000000E-03 0. -1.
        -11    1    3    3    0    0 -0.13312596546E+02 -0.18767015094E+02 -0.16648776531E+02  0.28400842286E+02  0.51100000000E-03 0.  1.
         12    1    3    3    0    0  0.84547485583E+00 -0.29236572209E+01 -0.13437098215E+01  0.33268837313E+01  0.00000000000E+00 0. -1.
</event>
<event>
 7    1  0.4623443E-009  0.4614232E+02  0.7816164E-02  0.1320468E+00
        -11   -1    0    0    0    0  0.00000000000E+00  0.00000000000E+00  0.45593999997E+02  0.45594000000E+02  0.51100000000E-03 0. -1.
         11   -1    0    0    0    0 -0.00000000000E+00 -0.00000000000E+00 -0.45593999997E+02  0.45594000000E+02  0.51100000000E-03 0.  1.
    9900012    2    1    2    0    0 -0.25703880760E+02  0.23510036411E+02 -0.28560500320E+02  0.46142317891E+02  0.10000001183E+02 0.  0.
         12    1    1    2    0    0  0.25703880760E+02 -0.23510036411E+02  0.28560500320E+02  0.45045682109E+02  0.00000000000E+00 0. -1.
         11    1    3    3    0    0 -0.11069320543E+02  0.82937214853E+01 -0.12246489009E+02  0.18474094474E+02  0.51100000000E-03 0. -1.
        -11    1    3    3    0    0 -0.91163998819E+01  0.66316480103E+01 -0.12346337592E+02  0.16718838307E+02  0.51100000000E-03 0.  1.
         12    1    3    3    0    0 -0.55181603354E+01  0.85846669151E+01 -0.39676737195E+01  0.10949385109E+02  0.00000000000E+00 0. -1.
</event>
<event>
 7    1  0.4623443E-009  0.4614231E+02  0.7816164E-02  0.1320468E+00
        -11   -1    0    0    0    0  0.00000000000E+00  0.00000000000E+00  0.45593999997E+02  0.45594000000E+02  0.51100000000E-03 0. -1.
         11   -1    0    0    0    0 -0.00000000000E+00 -0.00000000000E+00 -0.45593999997E+02  0.45594000000E+02  0.51100000000E-03 0.  1.
    9900012    2    1    2    0    0  0.38817784724E+02 -0.28219801951E+01  0.22678839626E+02  0.46142314858E+02  0.99999735273E+01 0.  0.
        -12    1    1    2    0    0 -0.38817784724E+02  0.28219801951E+01 -0.22678839626E+02  0.45045685142E+02  0.00000000000E+00 0.  1.
         11    1    3    3    0    0  0.10490066794E+01 -0.17394110988E+00  0.22014797356E+01  0.24448279716E+01  0.51100000000E-03 0. -1.
        -11    1    3    3    0    0  0.14415216724E+02 -0.15374024536E+01  0.38239790273E+01  0.14992828131E+02  0.51100000000E-03 0.  1.
         12    1    3    3    0    0  0.23353561321E+02 -0.11106366316E+01  0.16653380863E+02  0.28704658756E+02  0.00000000000E+00 0. -1.
</event>
<event>
 7    1  0.4623443E-009  0.4614232E+02  0.7816164E-02  0.1320468E+00
        -11   -1    0    0    0    0  0.00000000000E+00  0.00000000000E+00  0.45593999997E+02  0.45594000000E+02  0.51100000000E-03 0. -1.
         11   -1    0    0    0    0 -0.00000000000E+00 -0.00000000000E+00 -0.45593999997E+02  0.45594000000E+02  0.51100000000E-03 0.  1.
    9900012    2    1    2    0    0  0.27097358156E+02  0.34537061584E+02  0.10101386632E+02  0.46142318145E+02  0.10000003499E+02 0.  0.
        -12    1    1    2    0    0 -0.27097358156E+02 -0.34537061584E+02 -0.10101386632E+02  0.45045681855E+02  0.00000000000E+00 0.  1.
         11    1    3    3    0    0  0.67614056818E+01  0.13957410522E+02  0.56050768243E+01  0.16490688335E+02  0.51100000000E-03 0. -1.
        -11    1    3    3    0    0  0.11718756597E+02  0.13486040428E+02  0.47518752029E+01  0.18487370305E+02  0.51100000000E-03 0.  1.
        -12    1    3    3    0    0  0.86171958779E+01  0.70936106340E+01 -0.25556539563E+00  0.11164259505E+02  0.00000000000E+00 0.  1.
</event>
<event>
 7    1  0.4623443E-009  0.4614232E+02  0.7816164E-02  0.1320468E+00
        -11   -1    0    0    0    0  0.00000000000E+00  0.00000000000E+00  0.45593999997E+02  0.45594000000E+02  0.51100000000E-03 0. -1.
         11   -1    0    0    0    0 -0.00000000000E+00 -0.00000000000E+00 -0.45593999997E+02  0.45594000000E+02  0.51100000000E-03 0.  1.
    9900012    2    1    2    0    0  0.13657881355E+02  0.39951895712E+01 -0.42738909075E+02  0.46142316391E+02  0.99999875076E+01 0.  0.
         12    1    1    2    0    0 -0.13657881355E+02 -0.39951895712E+01  0.42738909075E+02  0.45045683609E+02  0.00000000000E+00 0. -1.
         11    1    3    3    0    0  0.28475660483E+01 -0.15370051598E+00 -0.45467348482E+01  0.53670340309E+01  0.51100000000E-03 0. -1.
        -11    1    3    3    0    0  0.43096569994E+01  0.59727503399E+01 -0.16817057276E+02  0.18359202209E+02  0.51100000000E-03 0.  1.
        -12    1    3    3    0    0  0.65006583076E+01 -0.18238602527E+01 -0.21375116952E+02  0.22416080151E+02  0.00000000000E+00 0.  1.
</event>
<event>
 7    1  0.4623443E-009  0.4614232E+02  0.7816164E-02  0.1320468E+00
        -11   -1    0    0    0    0  0.00000000000E+00  0.00000000000E+00  0.45593999997E+02  0.45594000000E+02  0.51100000000E-03 0. -1.
         11   -1    0    0    0    0 -0.00000000000E+00 -0.00000000000E+00 -0.45593999997E+02  0.45594000000E+02  0.51100000000E-03 0.  1.
    9900012    2    1    2    0    0 -0.41520614148E+01 -0.42713209329E+02  0.13691446651E+02  0.46142316782E+02  0.99999910760E+01 0.  0.
        -12    1    1    2    0    0  0.41520614148E+01  0.42713209329E+02 -0.13691446651E+02  0.45045683218E+02  0.00000000000E+00 0.  1.
         11    1    3    3    0    0 -0.85305292579E+00 -0.14676777353E+02  0.16278411023E+01  0.14791394785E+02  0.51100000000E-03 0. -1.
        -11    1    3    3    0    0 -0.50468846042E+00 -0.34784926845E+01 -0.62145347546E+00  0.35694294336E+01  0.51100000000E-03 0.  1.
        -12    1    3    3    0    0 -0.27943200286E+01 -0.24557939291E+02  0.12685059024E+02  0.27781492564E+02  0.00000000000E+00 0.  1.
</event>
<event>
 7    1  0.4623443E-009  0.4614232E+02  0.7816164E-02  0.1320468E+00
        -11   -1    0    0    0    0  0.00000000000E+00  0.00000000000E+00  0.45593999997E+02  0.45594000000E+02  0.51100000000E-03 0. -1.
         11   -1    0    0    0    0 -0.00000000000E+00 -0.00000000000E+00 -0.45593999997E+02  0.45594000000E+02  0.51100000000E-03 0.  1.
    9900012    2    1    2    0    0  0.21727570194E+02  0.24349121874E+02  0.31050707468E+02  0.46142317889E+02  0.10000001166E+02 0.  0.
        -12    1    1    2    0    0 -0.21727570194E+02 -0.24349121874E+02 -0.31050707468E+02  0.45045682111E+02  0.00000000000E+00 0.  1.
         11    1    3    3    0    0  0.13180008020E+02  0.99499532041E+01  0.13324857750E+02  0.21219472531E+02  0.51100000000E-03 0. -1.
        -11    1    3    3    0    0  0.33322137992E+01  0.79077846531E+01  0.57234256075E+01  0.10314761649E+02  0.51100000000E-03 0.  1.
         12    1    3    3    0    0  0.52153483747E+01  0.64913840168E+01  0.12002424111E+02  0.14608083710E+02  0.00000000000E+00 0. -1.
</event>
<event>
 7    1  0.4623443E-009  0.4614232E+02  0.7816164E-02  0.1320468E+00
        -11   -1    0    0    0    0  0.00000000000E+00  0.00000000000E+00  0.45593999997E+02  0.45594000000E+02  0.51100000000E-03 0. -1.
         11   -1    0    0    0    0 -0.00000000000E+00 -0.00000000000E+00 -0.45593999997E+02  0.45594000000E+02  0.51100000000E-03 0.  1.
    9900012    2    1    2    0    0  0.64290056661E+01 -0.39337421656E+02  0.20984485532E+02  0.46142317749E+02  0.99999998890E+01 0.  0.
        -12    1    1    2    0    0 -0.64290056661E+01  0.39337421656E+02 -0.20984485532E+02  0.45045682251E+02  0.00000000000E+00 0.  1.
         11    1    3    3    0    0  0.64834283183E+00 -0.13162615498E+01 -0.17744501589E+00  0.14779647797E+01  0.51100000000E-03 0. -1.
        -11    1    3    3    0    0  0.78126411383E+01 -0.31508897112E+02  0.16634230815E+02  0.36476644498E+02  0.51100000000E-03 0.  1.
        -12    1    3    3    0    0 -0.20319783040E+01 -0.65122629940E+01  0.45276997331E+01  0.81877084709E+01  0.00000000000E+00 0.  1.
</event>
<event>
 7    1  0.6898625E-009  0.4614232E+02  0.7816164E-02  0.1320468E+00
        -11   -1    0    0    0    0  0.00000000000E+00  0.00000000000E+00  0.45593999997E+02  0.45594000000E+02  0.51100000000E-03 0. -1.
         11   -1    0    0    0    0 -0.00000000000E+00 -0.00000000000E+00 -0.45593999997E+02  0.45594000000E+02  0.51100000000E-03 0.  1.
    9900012    2    1    2    0    0  0.24151621474E+02 -0.23732678756E+02 -0.29708120553E+02  0.46142319990E+02  0.10000020327E+02 0.  0.
         12    1    1    2    0    0 -0.24151621474E+02  0.23732678756E+02  0.29708120553E+02  0.45045680010E+02  0.00000000000E+00 0. -1.
         11    1    3    3    0    0  0.33210624205E+01 -0.50473486267E+01 -0.56243672582E+01  0.82546163495E+01  0.51100000000E-03 0. -1.
        -11    1    3    3    0    0  0.20707416831E+02 -0.18708192397E+02 -0.24694599647E+02  0.37264149348E+02  0.51100000000E-03 0.  1.
         12    1    3    3    0    0  0.12314222203E+00  0.22862267831E-01  0.61084635262E+00  0.62355429326E+00  0.00000000000E+00 0. -1.
</event>
<event>
 7    1  0.4623443E-009  0.4614232E+02  0.7816164E-02  0.1320468E+00
        -11   -1    0    0    0    0  0.00000000000E+00  0.00000000000E+00  0.45593999997E+02  0.45594000000E+02  0.51100000000E-03 0. -1.
         11   -1    0    0    0    0 -0.00000000000E+00 -0.00000000000E+00 -0.45593999997E+02  0.45594000000E+02  0.51100000000E-03 0.  1.
    9900012    2    1    2    0    0 -0.27137836099E+02 -0.21498313349E+02 -0.28817944221E+02  0.46142317253E+02  0.99999953677E+01 0.  0.
         12    1    1    2    0    0  0.27137836099E+02  0.21498313349E+02  0.28817944221E+02  0.45045682747E+02  0.00000000000E+00 0. -1.
         11    1    3    3    0    0 -0.27598987446E+01 -0.61278541907E+01 -0.27758405190E+01  0.72713773737E+01  0.51100000000E-03 0. -1.
        -11    1    3    3    0    0 -0.47811441250E+01 -0.24359015441E+01 -0.44312168732E+01  0.69590688109E+01  0.51100000000E-03 0.  1.
         12    1    3    3    0    0 -0.19596793230E+02 -0.12934557614E+02 -0.21610886829E+02  0.31911871068E+02  0.00000000000E+00 0. -1.
</event>
<event>
 7    1  0.4623443E-009  0.4614232E+02  0.7816164E-02  0.1320468E+00
        -11   -1    0    0    0    0  0.00000000000E+00  0.00000000000E+00  0.45593999997E+02  0.45594000000E+02  0.51100000000E-03 0. -1.
         11   -1    0    0    0    0 -0.00000000000E+00 -0.00000000000E+00 -0.45593999997E+02  0.45594000000E+02  0.51100000000E-03 0.  1.
    9900012    2    1    2    0    0  0.36628343948E+02 -0.27078201834E+01  0.26079604179E+02  0.46142316249E+02  0.99999862097E+01 0.  0.
        -12    1    1    2    0    0 -0.36628343948E+02  0.27078201834E+01 -0.26079604179E+02  0.45045683751E+02  0.00000000000E+00 0.  1.
         11    1    3    3    0    0  0.96121647349E+01 -0.11402272876E+01  0.41423000010E+01  0.10528650375E+02  0.51100000000E-03 0. -1.
        -11    1    3    3    0    0  0.20546683343E+02 -0.20921314833E+01  0.12439469884E+02  0.24109824176E+02  0.51100000000E-03 0.  1.
         12    1    3    3    0    0  0.64694958696E+01  0.52453858748E+00  0.94978342937E+01  0.11503841698E+02  0.00000000000E+00 0. -1.
</event>
<event>
 7    1  0.4623443E-009  0.4614232E+02  0.7816164E-02  0.1320468E+00
        -11   -1    0    0    0    0  0.00000000000E+00  0.00000000000E+00  0.45593999997E+02  0.45594000000E+02  0.51100000000E-03 0. -1.
         11   -1    0    0    0    0 -0.00000000000E+00 -0.00000000000E+00 -0.45593999997E+02  0.45594000000E+02  0.51100000000E-03 0.  1.
    9900012    2    1    2    0    0  0.17169644285E+02 -0.20780132688E+02  0.36090204158E+02  0.46142318347E+02  0.10000005342E+02 0.  0.
        -12    1    1    2    0    0 -0.17169644285E+02  0.20780132688E+02 -0.36090204158E+02  0.45045681653E+02  0.00000000000E+00 0.  1.
         11    1    3    3    0    0  0.24500323775E+01 -0.13322423779E+01  0.48255633051E+01  0.55734719769E+01  0.51100000000E-03 0. -1.
        -11    1    3    3    0    0 -0.89660824673E+00  0.86291853670E-03  0.13416543044E+01  0.16136739529E+01  0.51100000000E-03 0.  1.
        -12    1    3    3    0    0  0.15616220154E+02 -0.19448753229E+02  0.29922986548E+02  0.38955172417E+02  0.00000000000E+00 0.  1.
</event>
<event>
 7    1  0.4623443E-009  0.4614232E+02  0.7816164E-02  0.1320468E+00
        -11   -1    0    0    0    0  0.00000000000E+00  0.00000000000E+00  0.45593999997E+02  0.45594000000E+02  0.51100000000E-03 0. -1.
         11   -1    0    0    0    0 -0.00000000000E+00 -0.00000000000E+00 -0.45593999997E+02  0.45594000000E+02  0.51100000000E-03 0.  1.
    9900012    2    1    2    0    0 -0.58415442587E+01  0.28567495206E+02 -0.34334939053E+02  0.46142318060E+02  0.10000002725E+02 0.  0.
         12    1    1    2    0    0  0.58415442587E+01 -0.28567495206E+02  0.34334939053E+02  0.45045681940E+02  0.00000000000E+00 0. -1.
         11    1    3    3    0    0 -0.58299662730E+01  0.23059409260E+02 -0.25700339469E+02  0.35017600021E+02  0.51100000000E-03 0. -1.
        -11    1    3    3    0    0  0.15314432702E+01  0.29942599675E+01 -0.69671446864E+01  0.77364085069E+01  0.51100000000E-03 0.  1.
        -12    1    3    3    0    0 -0.15430212559E+01  0.25138259794E+01 -0.16674548969E+01  0.33883095319E+01  0.00000000000E+00 0.  1.
</event>
<event>
 7    1  0.4623443E-009  0.4614232E+02  0.7816164E-02  0.1320468E+00
        -11   -1    0    0    0    0  0.00000000000E+00  0.00000000000E+00  0.45593999997E+02  0.45594000000E+02  0.51100000000E-03 0.  1.
         11   -1    0    0    0    0 -0.00000000000E+00 -0.00000000000E+00 -0.45593999997E+02  0.45594000000E+02  0.51100000000E-03 0. -1.
    9900012    2    1    2    0    0  0.29166556299E+02  0.53340530221E+01 -0.33911256296E+02  0.46142318392E+02  0.10000005750E+02 0.  0.
         12    1    1    2    0    0 -0.29166556299E+02 -0.53340530221E+01  0.33911256296E+02  0.45045681608E+02  0.00000000000E+00 0. -1.
         11    1    3    3    0    0  0.11375032025E+02 -0.12955296211E+00 -0.13166062778E+02  0.17399808818E+02  0.51100000000E-03 0. -1.
        -11    1    3    3    0    0  0.14216599615E+02  0.27781679505E+01 -0.11581491993E+02  0.18546182324E+02  0.51100000000E-03 0.  1.
         12    1    3    3    0    0  0.35749246594E+01  0.26854380337E+01 -0.91637015244E+01  0.10196327250E+02  0.00000000000E+00 0. -1.
</event>
<event>
 7    1  0.4623443E-009  0.4614232E+02  0.7816164E-02  0.1320468E+00
        -11   -1    0    0    0    0  0.00000000000E+00  0.00000000000E+00  0.45593999997E+02  0.45594000000E+02  0.51100000000E-03 0.  1.
         11   -1    0    0    0    0 -0.00000000000E+00 -0.00000000000E+00 -0.45593999997E+02  0.45594000000E+02  0.51100000000E-03 0. -1.
    9900012    2    1    2    0    0 -0.37443170957E+01  0.40390815668E+02  0.19587636599E+02  0.46142318649E+02  0.10000008092E+02 0.  0.
        -12    1    1    2    0    0  0.37443170957E+01 -0.40390815668E+02 -0.19587636599E+02  0.45045681351E+02  0.00000000000E+00 0.  1.
         11    1    3    3    0    0 -0.47977897158E+01  0.19336073928E+02  0.10509815930E+02  0.22524625907E+02  0.51100000000E-03 0. -1.
        -11    1    3    3    0    0 -0.85324304610E-01  0.38465376461E+01 -0.51762614308E+00  0.38821474965E+01  0.51100000000E-03 0.  1.
        -12    1    3    3    0    0  0.11387969247E+01  0.17208204094E+02  0.95954468127E+01  0.19735545245E+02  0.00000000000E+00 0.  1.
</event>
<event>
 7    1  0.4623443E-009  0.4614232E+02  0.7816164E-02  0.1320468E+00
        -11   -1    0    0    0    0  0.00000000000E+00  0.00000000000E+00  0.45593999997E+02  0.45594000000E+02  0.51100000000E-03 0.  1.
         11   -1    0    0    0    0 -0.00000000000E+00 -0.00000000000E+00 -0.45593999997E+02  0.45594000000E+02  0.51100000000E-03 0. -1.
    9900012    2    1    2    0    0  0.69699172421E+01  0.39977492550E+02 -0.19553358051E+02  0.46142317987E+02  0.10000002059E+02 0.  0.
        -12    1    1    2    0    0 -0.69699172421E+01 -0.39977492550E+02  0.19553358051E+02  0.45045682013E+02  0.00000000000E+00 0.  1.
         11    1    3    3    0    0  0.41808626265E+01  0.22819210230E+02 -0.74127366025E+01  0.24354560805E+02  0.51100000000E-03 0. -1.
        -11    1    3    3    0    0  0.10583609326E+01  0.25736433579E+00 -0.54037686275E+00  0.12158830865E+01  0.51100000000E-03 0.  1.
         12    1    3    3    0    0  0.17306936829E+01  0.16900917985E+02 -0.11600244585E+02  0.20571874095E+02  0.00000000000E+00 0. -1.
</event>
<event>
 7    1  0.4623443E-009  0.4614232E+02  0.7816164E-02  0.1320468E+00
        -11   -1    0    0    0    0  0.00000000000E+00  0.00000000000E+00  0.45593999997E+02  0.45594000000E+02  0.51100000000E-03 0. -1.
         11   -1    0    0    0    0 -0.00000000000E+00 -0.00000000000E+00 -0.45593999997E+02  0.45594000000E+02  0.51100000000E-03 0.  1.
    9900012    2    1    2    0    0  0.32425053665E+02 -0.53723949515E+01  0.30803680887E+02  0.46142317756E+02  0.99999999491E+01 0.  0.
        -12    1    1    2    0    0 -0.32425053665E+02  0.53723949515E+01 -0.30803680887E+02  0.45045682244E+02  0.00000000000E+00 0.  1.
         11    1    3    3    0    0  0.96911707427E+01 -0.43475457055E+00  0.11564749192E+02  0.15094741669E+02  0.51100000000E-03 0. -1.
        -11    1    3    3    0    0  0.44594039791E+01  0.16920014867E+01  0.24530776473E+01  0.53634637208E+01  0.51100000000E-03 0.  1.
        -12    1    3    3    0    0  0.18274478943E+02 -0.66296418676E+01  0.16785854047E+02  0.25684112366E+02  0.00000000000E+00 0.  1.
</event>
<event>
 7    1  0.4623443E-009  0.4614232E+02  0.7816164E-02  0.1320468E+00
        -11   -1    0    0    0    0  0.00000000000E+00  0.00000000000E+00  0.45593999997E+02  0.45594000000E+02  0.51100000000E-03 0. -1.
         11   -1    0    0    0    0 -0.00000000000E+00 -0.00000000000E+00 -0.45593999997E+02  0.45594000000E+02  0.51100000000E-03 0.  1.
    9900012    2    1    2    0    0  0.30213577519E+02 -0.67929572192E+00 -0.33403469076E+02  0.46142318126E+02  0.10000003330E+02 0.  0.
         12    1    1    2    0    0 -0.30213577519E+02  0.67929572192E+00  0.33403469076E+02  0.45045681874E+02  0.00000000000E+00 0. -1.
         11    1    3    3    0    0  0.22127903951E+02 -0.21795143256E+00 -0.17634407543E+02  0.28296006180E+02  0.51100000000E-03 0. -1.
        -11    1    3    3    0    0  0.40174035423E+01  0.78899208768E+00 -0.80717688584E+01  0.90507177893E+01  0.51100000000E-03 0.  1.
         12    1    3    3    0    0  0.40682700260E+01 -0.12503363770E+01 -0.76972926748E+01  0.87955941574E+01  0.00000000000E+00 0. -1.
</event>
<event>
 7    1  0.4623443E-009  0.4614232E+02  0.7816164E-02  0.1320468E+00
        -11   -1    0    0    0    0  0.00000000000E+00  0.00000000000E+00  0.45593999997E+02  0.45594000000E+02  0.51100000000E-03 0. -1.
         11   -1    0    0    0    0 -0.00000000000E+00 -0.00000000000E+00 -0.45593999997E+02  0.45594000000E+02  0.51100000000E-03 0.  1.
    9900012    2    1    2    0    0  0.38659949305E+02  0.23061146499E+02  0.16447932988E+01  0.46142317598E+02  0.99999985092E+01 0.  0.
        -12    1    1    2    0    0 -0.38659949305E+02 -0.23061146499E+02 -0.16447932988E+01  0.45045682402E+02  0.00000000000E+00 0.  1.
         11    1    3    3    0    0  0.81451857047E+01  0.56831776612E+01  0.28972111286E+01  0.10345839312E+02  0.51100000000E-03 0.  1.
        -11    1    3    3    0    0  0.61852584402E+01  0.27743095626E+01  0.23896285905E+01  0.71878049905E+01  0.51100000000E-03 0. -1.
         12    1    3    3    0    0  0.24329505160E+02  0.14603659275E+02 -0.36420464203E+01  0.28608673295E+02  0.00000000000E+00 0. -1.
</event>
<event>
 7    1  0.4623443E-009  0.4614232E+02  0.7816164E-02  0.1320468E+00
        -11   -1    0    0    0    0  0.00000000000E+00  0.00000000000E+00  0.45593999997E+02  0.45594000000E+02  0.51100000000E-03 0. -1.
         11   -1    0    0    0    0 -0.00000000000E+00 -0.00000000000E+00 -0.45593999997E+02  0.45594000000E+02  0.51100000000E-03 0.  1.
    9900012    2    1    2    0    0 -0.16786443923E+02 -0.18436085419E+02 -0.37515857530E+02  0.46142317506E+02  0.99999976718E+01 0.  0.
         12    1    1    2    0    0  0.16786443923E+02  0.18436085419E+02  0.37515857530E+02  0.45045682494E+02  0.00000000000E+00 0. -1.
         11    1    3    3    0    0 -0.49192884678E+01 -0.47835198918E+01 -0.40694649583E+01  0.79775940541E+01  0.51100000000E-03 0. -1.
        -11    1    3    3    0    0 -0.41053260412E+01 -0.32846442665E+01 -0.12158510839E+02  0.13246583557E+02  0.51100000000E-03 0.  1.
         12    1    3    3    0    0 -0.77618294140E+01 -0.10367921261E+02 -0.21287881733E+02  0.24918139894E+02  0.00000000000E+00 0. -1.
</event>
<event>
 7    1  0.4623443E-009  0.4614232E+02  0.7816164E-02  0.1320468E+00
        -11   -1    0    0    0    0  0.00000000000E+00  0.00000000000E+00  0.45593999997E+02  0.45594000000E+02  0.51100000000E-03 0. -1.
         11   -1    0    0    0    0 -0.00000000000E+00 -0.00000000000E+00 -0.45593999997E+02  0.45594000000E+02  0.51100000000E-03 0.  1.
    9900012    2    1    2    0    0  0.16361657932E+02 -0.35621002981E+02 -0.22193554751E+02  0.46142316787E+02  0.99999911207E+01 0.  0.
         12    1    1    2    0    0 -0.16361657932E+02  0.35621002981E+02  0.22193554751E+02  0.45045683213E+02  0.00000000000E+00 0. -1.
         11    1    3    3    0    0  0.55113036717E+01 -0.18055749586E+02 -0.11392591055E+02  0.22049392111E+02  0.51100000000E-03 0.  1.
        -11    1    3    3    0    0  0.45107043390E+01 -0.94679783210E+01 -0.22680637255E+01  0.10730013068E+02  0.51100000000E-03 0. -1.
        -12    1    3    3    0    0  0.63396499209E+01 -0.80972750740E+01 -0.85328999699E+01  0.13362911608E+02  0.00000000000E+00 0.  1.
</event>
<event>
 7    1  0.4623443E-009  0.4614232E+02  0.7816164E-02  0.1320468E+00
        -11   -1    0    0    0    0  0.00000000000E+00  0.00000000000E+00  0.45593999997E+02  0.45594000000E+02  0.51100000000E-03 0. -1.
         11   -1    0    0    0    0 -0.00000000000E+00 -0.00000000000E+00 -0.45593999997E+02  0.45594000000E+02  0.51100000000E-03 0.  1.
    9900012    2    1    2    0    0  0.19727405900E+02 -0.11849055883E+02 -0.38723931575E+02  0.46142317127E+02  0.99999942193E+01 0.  0.
         12    1    1    2    0    0 -0.19727405900E+02  0.11849055883E+02  0.38723931575E+02  0.45045682873E+02  0.00000000000E+00 0. -1.
         11    1    3    3    0    0  0.83252867522E+01 -0.67783274594E+01 -0.26571884130E+02  0.28658701107E+02  0.51100000000E-03 0. -1.
        -11    1    3    3    0    0  0.33378974092E+01 -0.14030315365E+01 -0.45118731434E+01  0.57850718345E+01  0.51100000000E-03 0.  1.
        -12    1    3    3    0    0  0.80642217391E+01 -0.36676968872E+01 -0.76401743010E+01  0.11698544186E+02  0.00000000000E+00 0.  1.
</event>
<event>
 7    1  0.4623443E-009  0.4614232E+02  0.7816164E-02  0.1320468E+00
        -11   -1    0    0    0    0  0.00000000000E+00  0.00000000000E+00  0.45593999997E+02  0.45594000000E+02  0.51100000000E-03 0. -1.
         11   -1    0    0    0    0 -0.00000000000E+00 -0.00000000000E+00 -0.45593999997E+02  0.45594000000E+02  0.51100000000E-03 0.  1.
    9900012    2    1    2    0    0 -0.90002584666E+01 -0.34559249139E+02  0.27454819864E+02  0.46142317773E+02  0.10000000107E+02 0.  0.
        -12    1    1    2    0    0  0.90002584666E+01  0.34559249139E+02 -0.27454819864E+02  0.45045682227E+02  0.00000000000E+00 0.  1.
         11    1    3    3    0    0 -0.37457812939E+01 -0.66556591983E+01  0.45995734409E+01  0.89154221978E+01  0.51100000000E-03 0. -1.
        -11    1    3    3    0    0 -0.15977805591E+00 -0.19878657463E+02  0.15521199167E+02  0.25220907506E+02  0.51100000000E-03 0.  1.
        -12    1    3    3    0    0 -0.50946991168E+01 -0.80249324773E+01  0.73340472569E+01  0.12005988069E+02  0.00000000000E+00 0.  1.
</event>
<event>
 7    1  0.4623443E-009  0.4614232E+02  0.7816164E-02  0.1320468E+00
        -11   -1    0    0    0    0  0.00000000000E+00  0.00000000000E+00  0.45593999997E+02  0.45594000000E+02  0.51100000000E-03 0. -1.
         11   -1    0    0    0    0 -0.00000000000E+00 -0.00000000000E+00 -0.45593999997E+02  0.45594000000E+02  0.51100000000E-03 0.  1.
    9900012    2    1    2    0    0 -0.11215255569E+01 -0.17568615094E+02 -0.41463229681E+02  0.46142317948E+02  0.10000001709E+02 0.  0.
         12    1    1    2    0    0  0.11215255569E+01  0.17568615094E+02  0.41463229681E+02  0.45045682052E+02  0.00000000000E+00 0. -1.
         11    1    3    3    0    0 -0.92241873109E+00 -0.12325992170E+02 -0.19307005196E+02  0.22924689511E+02  0.51100000000E-03 0. -1.
        -11    1    3    3    0    0 -0.46392751538E+00  0.33221209908E+00 -0.27048559557E+00  0.63147156455E+00  0.51100000000E-03 0.  1.
        -12    1    3    3    0    0  0.26482068952E+00 -0.55748350231E+01 -0.21885738889E+02  0.22586156873E+02  0.00000000000E+00 0.  1.
</event>
<event>
 7    1  0.4623443E-009  0.4614232E+02  0.7816164E-02  0.1320468E+00
        -11   -1    0    0    0    0  0.00000000000E+00  0.00000000000E+00  0.45593999997E+02  0.45594000000E+02  0.51100000000E-03 0. -1.
         11   -1    0    0    0    0 -0.00000000000E+00 -0.00000000000E+00 -0.45593999997E+02  0.45594000000E+02  0.51100000000E-03 0.  1.
    9900012    2    1    2    0    0  0.43675181193E+01  0.33836907570E+02 -0.29412615200E+02  0.46142318061E+02  0.10000002735E+02 0.  0.
         12    1    1    2    0    0 -0.43675181193E+01 -0.33836907570E+02  0.29412615200E+02  0.45045681939E+02  0.00000000000E+00 0. -1.
         11    1    3    3    0    0  0.56241347083E+01  0.18273334387E+02 -0.16724984376E+02  0.25402179896E+02  0.51100000000E-03 0.  1.
        -11    1    3    3    0    0  0.17641438814E+01  0.51674168704E+01 -0.30999777793E+01  0.62788743609E+01  0.51100000000E-03 0. -1.
         12    1    3    3    0    0 -0.30207604703E+01  0.10396156312E+02 -0.95876530448E+01  0.14461263804E+02  0.00000000000E+00 0. -1.
</event>
<event>
 7    1  0.4623443E-009  0.4614232E+02  0.7816164E-02  0.1320468E+00
        -11   -1    0    0    0    0  0.00000000000E+00  0.00000000000E+00  0.45593999997E+02  0.45594000000E+02  0.51100000000E-03 0. -1.
         11   -1    0    0    0    0 -0.00000000000E+00 -0.00000000000E+00 -0.45593999997E+02  0.45594000000E+02  0.51100000000E-03 0.  1.
    9900012    2    1    2    0    0 -0.15752329402E+02 -0.38117696879E+02 -0.18111291630E+02  0.46142316728E+02  0.99999905803E+01 0.  0.
         12    1    1    2    0    0  0.15752329402E+02  0.38117696879E+02  0.18111291630E+02  0.45045683272E+02  0.00000000000E+00 0. -1.
         11    1    3    3    0    0 -0.28495370282E+01 -0.24340001165E+01 -0.24446424040E+01  0.44744267328E+01  0.51100000000E-03 0. -1.
        -11    1    3    3    0    0 -0.12972630389E+02 -0.35442011246E+02 -0.16205169571E+02  0.41073505103E+02  0.51100000000E-03 0.  1.
        -12    1    3    3    0    0  0.69838015526E-01 -0.24168551647E+00  0.53852034561E+00  0.59438489207E+00  0.00000000000E+00 0.  1.
</event>
<event>
 7    1  0.4623443E-009  0.4614232E+02  0.7816164E-02  0.1320468E+00
        -11   -1    0    0    0    0  0.00000000000E+00  0.00000000000E+00  0.45593999997E+02  0.45594000000E+02  0.51100000000E-03 0. -1.
         11   -1    0    0    0    0 -0.00000000000E+00 -0.00000000000E+00 -0.45593999997E+02  0.45594000000E+02  0.51100000000E-03 0.  1.
    9900012    2    1    2    0    0 -0.14024624916E+02  0.42212278796E+02  0.71096468263E+01  0.46142315820E+02  0.99999823018E+01 0.  0.
         12    1    1    2    0    0  0.14024624916E+02 -0.42212278796E+02 -0.71096468263E+01  0.45045684180E+02  0.00000000000E+00 0. -1.
         11    1    3    3    0    0  0.89730360783E+00  0.31860380714E+01  0.67905813056E+00  0.33789218048E+01  0.51100000000E-03 0.  1.
        -11    1    3    3    0    0  0.26343998756E+00  0.34004950111E+01  0.14916933477E+01  0.37226222280E+01  0.51100000000E-03 0. -1.
        -12    1    3    3    0    0 -0.15185368511E+02  0.35625745714E+02  0.49388953481E+01  0.39040771787E+02  0.00000000000E+00 0.  1.
</event>
<event>
 7    1  0.4623443E-009  0.4614232E+02  0.7816164E-02  0.1320468E+00
        -11   -1    0    0    0    0  0.00000000000E+00  0.00000000000E+00  0.45593999997E+02  0.45594000000E+02  0.51100000000E-03 0. -1.
         11   -1    0    0    0    0 -0.00000000000E+00 -0.00000000000E+00 -0.45593999997E+02  0.45594000000E+02  0.51100000000E-03 0.  1.
    9900012    2    1    2    0    0 -0.17229342753E+02 -0.48839665071E+01 -0.41332917338E+02  0.46142318340E+02  0.10000005282E+02 0.  0.
         12    1    1    2    0    0  0.17229342753E+02  0.48839665071E+01  0.41332917338E+02  0.45045681660E+02  0.00000000000E+00 0. -1.
         11    1    3    3    0    0 -0.45882153554E+01 -0.60925100216E+00 -0.21297617423E+02  0.21794756596E+02  0.51100000000E-03 0. -1.
        -11    1    3    3    0    0 -0.58086064169E+01 -0.26740931169E+01 -0.12562278866E+02  0.14096153130E+02  0.51100000000E-03 0.  1.
         12    1    3    3    0    0 -0.68325209805E+01 -0.16006223880E+01 -0.74730210494E+01  0.10251408615E+02  0.00000000000E+00 0. -1.
</event>
<event>
 7    1  0.4623443E-009  0.4614232E+02  0.7816164E-02  0.1320468E+00
        -11   -1    0    0    0    0  0.00000000000E+00  0.00000000000E+00  0.45593999997E+02  0.45594000000E+02  0.51100000000E-03 0. -1.
         11   -1    0    0    0    0 -0.00000000000E+00 -0.00000000000E+00 -0.45593999997E+02  0.45594000000E+02  0.51100000000E-03 0.  1.
    9900012    2    1    2    0    0  0.29783173780E+02  0.33762786157E+02 -0.14664402313E+01  0.46142316339E+02  0.99999870351E+01 0.  0.
        -12    1    1    2    0    0 -0.29783173780E+02 -0.33762786157E+02  0.14664402313E+01  0.45045683661E+02  0.00000000000E+00 0.  1.
         11    1    3    3    0    0  0.43445317471E+01  0.37867103821E+01  0.24637884014E+01  0.62677256774E+01  0.51100000000E-03 0. -1.
        -11    1    3    3    0    0  0.18935855896E+02  0.25587892588E+02 -0.29560542626E+01  0.31969440763E+02  0.51100000000E-03 0.  1.
         12    1    3    3    0    0  0.65027861369E+01  0.43881831867E+01 -0.97417437004E+00  0.79051498990E+01  0.00000000000E+00 0. -1.
</event>
<event>
 7    1  0.4623443E-009  0.4614232E+02  0.7816164E-02  0.1320468E+00
        -11   -1    0    0    0    0  0.00000000000E+00  0.00000000000E+00  0.45593999997E+02  0.45594000000E+02  0.51100000000E-03 0.  1.
         11   -1    0    0    0    0 -0.00000000000E+00 -0.00000000000E+00 -0.45593999997E+02  0.45594000000E+02  0.51100000000E-03 0. -1.
    9900012    2    1    2    0    0  0.19932493056E+01  0.44978208132E+02  0.14495845021E+01  0.46142317135E+02  0.99999942870E+01 0.  0.
        -12    1    1    2    0    0 -0.19932493056E+01 -0.44978208132E+02 -0.14495845021E+01  0.45045682865E+02  0.00000000000E+00 0.  1.
         11    1    3    3    0    0  0.25006575401E+00  0.93005055145E+01 -0.19265319909E+01  0.95012347344E+01  0.51100000000E-03 0. -1.
        -11    1    3    3    0    0  0.36156353138E+01  0.99610991039E+01 -0.26667711387E+00  0.10600350514E+02  0.51100000000E-03 0.  1.
        -12    1    3    3    0    0 -0.18724517622E+01  0.25716603514E+02  0.36427936069E+01  0.26040731886E+02  0.00000000000E+00 0.  1.
</event>
<event>
 7    1  0.4623443E-009  0.4614232E+02  0.7816164E-02  0.1320468E+00
        -11   -1    0    0    0    0  0.00000000000E+00  0.00000000000E+00  0.45593999997E+02  0.45594000000E+02  0.51100000000E-03 0. -1.
         11   -1    0    0    0    0 -0.00000000000E+00 -0.00000000000E+00 -0.45593999997E+02  0.45594000000E+02  0.51100000000E-03 0.  1.
    9900012    2    1    2    0    0 -0.15613393822E+02  0.35438757309E+02  0.23009344188E+02  0.46142317563E+02  0.99999981931E+01 0.  0.
        -12    1    1    2    0    0  0.15613393822E+02 -0.35438757309E+02 -0.23009344188E+02  0.45045682437E+02  0.00000000000E+00 0.  1.
         11    1    3    3    0    0 -0.28117396408E+00  0.21789444110E+01  0.33054315760E+01  0.39689716186E+01  0.51100000000E-03 0. -1.
        -11    1    3    3    0    0 -0.53062319007E+01  0.19048165219E+02  0.12177463438E+02  0.23222388147E+02  0.51100000000E-03 0.  1.
        -12    1    3    3    0    0 -0.10025987958E+02  0.14211647679E+02  0.75264491734E+01  0.18950957798E+02  0.00000000000E+00 0.  1.
</event>
<event>
 7    1  0.4623443E-009  0.4614232E+02  0.7816164E-02  0.1320468E+00
        -11   -1    0    0    0    0  0.00000000000E+00  0.00000000000E+00  0.45593999997E+02  0.45594000000E+02  0.51100000000E-03 0. -1.
         11   -1    0    0    0    0 -0.00000000000E+00 -0.00000000000E+00 -0.45593999997E+02  0.45594000000E+02  0.51100000000E-03 0.  1.
    9900012    2    1    2    0    0 -0.21872804494E+01 -0.38736353019E+02 -0.22887208073E+02  0.46142317251E+02  0.99999953450E+01 0.  0.
         12    1    1    2    0    0  0.21872804494E+01  0.38736353019E+02  0.22887208073E+02  0.45045682749E+02  0.00000000000E+00 0. -1.
         11    1    3    3    0    0  0.42305237689E-01 -0.19139180053E+02 -0.79872548244E+01  0.20739002935E+02  0.51100000000E-03 0. -1.
        -11    1    3    3    0    0 -0.40762688667E+01 -0.10668289587E+02 -0.75322172331E+01  0.13680740744E+02  0.51100000000E-03 0.  1.
        -12    1    3    3    0    0  0.18466831796E+01 -0.89288833786E+01 -0.73677360157E+01  0.11722573572E+02  0.00000000000E+00 0.  1.
</event>
<event>
 7    1  0.4623443E-009  0.4614232E+02  0.7816164E-02  0.1320468E+00
        -11   -1    0    0    0    0  0.00000000000E+00  0.00000000000E+00  0.45593999997E+02  0.45594000000E+02  0.51100000000E-03 0. -1.
         11   -1    0    0    0    0 -0.00000000000E+00 -0.00000000000E+00 -0.45593999997E+02  0.45594000000E+02  0.51100000000E-03 0.  1.
    9900012    2    1    2    0    0  0.21667861890E+02 -0.84748860506E+01  0.38571925294E+02  0.46142319260E+02  0.10000013664E+02 0.  0.
        -12    1    1    2    0    0 -0.21667861890E+02  0.84748860506E+01 -0.38571925294E+02  0.45045680740E+02  0.00000000000E+00 0.  1.
         11    1    3    3    0    0  0.51372241839E+01 -0.50832024089E+01  0.94872630895E+01  0.11926364921E+02  0.51100000000E-03 0. -1.
        -11    1    3    3    0    0 -0.29426036614E+00 -0.67351853633E-01 -0.13841014185E+00  0.33208893953E+00  0.51100000000E-03 0.  1.
         12    1    3    3    0    0  0.16824898072E+02 -0.33243317881E+01  0.29223072347E+02  0.33883865399E+02  0.00000000000E+00 0. -1.
</event>
<event>
 7    1  0.4623443E-009  0.4614232E+02  0.7816164E-02  0.1320468E+00
        -11   -1    0    0    0    0  0.00000000000E+00  0.00000000000E+00  0.45593999997E+02  0.45594000000E+02  0.51100000000E-03 0. -1.
         11   -1    0    0    0    0 -0.00000000000E+00 -0.00000000000E+00 -0.45593999997E+02  0.45594000000E+02  0.51100000000E-03 0.  1.
    9900012    2    1    2    0    0 -0.20696893022E+02  0.32042445130E+02 -0.23959001728E+02  0.46142318359E+02  0.10000005454E+02 0.  0.
         12    1    1    2    0    0  0.20696893022E+02 -0.32042445130E+02  0.23959001728E+02  0.45045681641E+02  0.00000000000E+00 0. -1.
         11    1    3    3    0    0 -0.52724675607E-01  0.66613874595E+00  0.56795914455E+00  0.87698265164E+00  0.51100000000E-03 0.  1.
        -11    1    3    3    0    0 -0.57436658539E+01  0.10636283785E+02 -0.48433289984E+01  0.13022214337E+02  0.51100000000E-03 0. -1.
        -12    1    3    3    0    0 -0.14900502492E+02  0.20740022599E+02 -0.19683631874E+02  0.32243121370E+02  0.00000000000E+00 0.  1.
</event>
<event>
 7    1  0.4623443E-009  0.4614232E+02  0.7816164E-02  0.1320468E+00
        -11   -1    0    0    0    0  0.00000000000E+00  0.00000000000E+00  0.45593999997E+02  0.45594000000E+02  0.51100000000E-03 0. -1.
         11   -1    0    0    0    0 -0.00000000000E+00 -0.00000000000E+00 -0.45593999997E+02  0.45594000000E+02  0.51100000000E-03 0.  1.
    9900012    2    1    2    0    0  0.71637168565E+00 -0.18249522730E+02  0.41177121089E+02  0.46142316862E+02  0.99999917984E+01 0.  0.
        -12    1    1    2    0    0 -0.71637168565E+00  0.18249522730E+02 -0.41177121089E+02  0.45045683138E+02  0.00000000000E+00 0.  1.
         11    1    3    3    0    0 -0.17547593064E+01 -0.49208007511E+01  0.18006281691E+02  0.18748857055E+02  0.51100000000E-03 0. -1.
        -11    1    3    3    0    0  0.37459752857E+01 -0.12351796442E+02  0.19477981816E+02  0.23366449924E+02  0.51100000000E-03 0.  1.
        -12    1    3    3    0    0 -0.12748442936E+01 -0.97692553644E+00  0.36928575815E+01  0.40270098825E+01  0.00000000000E+00 0.  1.
</event>
<event>
 7    1  0.4623443E-009  0.4614232E+02  0.7816164E-02  0.1320468E+00
        -11   -1    0    0    0    0  0.00000000000E+00  0.00000000000E+00  0.45593999997E+02  0.45594000000E+02  0.51100000000E-03 0. -1.
         11   -1    0    0    0    0 -0.00000000000E+00 -0.00000000000E+00 -0.45593999997E+02  0.45594000000E+02  0.51100000000E-03 0.  1.
    9900012    2    1    2    0    0 -0.11378847635E+02 -0.12797269432E+02 -0.41663716403E+02  0.46142317155E+02  0.99999944746E+01 0.  0.
         12    1    1    2    0    0  0.11378847635E+02  0.12797269432E+02  0.41663716403E+02  0.45045682845E+02  0.00000000000E+00 0. -1.
         11    1    3    3    0    0 -0.60594444836E+01 -0.50996816112E+01 -0.26171752844E+02  0.27343815886E+02  0.51100000000E-03 0. -1.
        -11    1    3    3    0    0 -0.58690899178E+01 -0.61133289866E+01 -0.14643991599E+02  0.16919382317E+02  0.51100000000E-03 0.  1.
        -12    1    3    3    0    0  0.54968676642E+00 -0.15842588339E+01 -0.84797196011E+00  0.18791189529E+01  0.00000000000E+00 0.  1.
</event>
<event>
 7    1  0.4623443E-009  0.4614232E+02  0.7816164E-02  0.1320468E+00
        -11   -1    0    0    0    0  0.00000000000E+00  0.00000000000E+00  0.45593999997E+02  0.45594000000E+02  0.51100000000E-03 0. -1.
         11   -1    0    0    0    0 -0.00000000000E+00 -0.00000000000E+00 -0.45593999997E+02  0.45594000000E+02  0.51100000000E-03 0.  1.
    9900012    2    1    2    0    0 -0.44156675331E+02  0.43132167134E+01  0.77908676514E+01  0.46142318370E+02  0.10000005554E+02 0.  0.
        -12    1    1    2    0    0  0.44156675331E+02 -0.43132167134E+01 -0.77908676514E+01  0.45045681630E+02  0.00000000000E+00 0.  1.
         11    1    3    3    0    0  0.15042129161E+00 -0.46200886999E+00 -0.30977776708E+00  0.57623023785E+00  0.51100000000E-03 0.  1.
        -11    1    3    3    0    0 -0.59120799619E+01 -0.10509627008E+01  0.98447814594E+00  0.60849329951E+01  0.51100000000E-03 0. -1.
         12    1    3    3    0    0 -0.38395016661E+02  0.58261882842E+01  0.71161672725E+01  0.39481155137E+02  0.00000000000E+00 0. -1.
</event>
<event>
 7    1  0.4623443E-009  0.4614232E+02  0.7816164E-02  0.1320468E+00
        -11   -1    0    0    0    0  0.00000000000E+00  0.00000000000E+00  0.45593999997E+02  0.45594000000E+02  0.51100000000E-03 0. -1.
         11   -1    0    0    0    0 -0.00000000000E+00 -0.00000000000E+00 -0.45593999997E+02  0.45594000000E+02  0.51100000000E-03 0.  1.
    9900012    2    1    2    0    0  0.26889503816E+02  0.15721404087E+02  0.32540828113E+02  0.46142318118E+02  0.10000003256E+02 0.  0.
        -12    1    1    2    0    0 -0.26889503816E+02 -0.15721404087E+02 -0.32540828113E+02  0.45045681882E+02  0.00000000000E+00 0.  1.
         11    1    3    3    0    0  0.86151228858E+01  0.72276354284E+01  0.62641971840E+01  0.12872421017E+02  0.51100000000E-03 0. -1.
        -11    1    3    3    0    0  0.18126454510E+01  0.65743040240E-01  0.15091235668E+01  0.23595465410E+01  0.51100000000E-03 0.  1.
         12    1    3    3    0    0  0.16461735479E+02  0.84280256184E+01  0.24767507362E+02  0.30910350560E+02  0.00000000000E+00 0. -1.
</event>
<event>
 7    1  0.4623443E-009  0.4614232E+02  0.7816164E-02  0.1320468E+00
        -11   -1    0    0    0    0  0.00000000000E+00  0.00000000000E+00  0.45593999997E+02  0.45594000000E+02  0.51100000000E-03 0.  1.
         11   -1    0    0    0    0 -0.00000000000E+00 -0.00000000000E+00 -0.45593999997E+02  0.45594000000E+02  0.51100000000E-03 0. -1.
    9900012    2    1    2    0    0 -0.37830680791E+02  0.14647859977E+02 -0.19580429760E+02  0.46142318291E+02  0.10000004829E+02 0.  0.
         12    1    1    2    0    0  0.37830680791E+02 -0.14647859977E+02  0.19580429760E+02  0.45045681709E+02  0.00000000000E+00 0. -1.
         11    1    3    3    0    0 -0.27608645239E+02  0.87271478146E+01 -0.15028656446E+02  0.32623012058E+02  0.51100000000E-03 0. -1.
        -11    1    3    3    0    0 -0.72562729013E+01  0.51905097677E+01 -0.52966969743E+01  0.10375446360E+02  0.51100000000E-03 0.  1.
         12    1    3    3    0    0 -0.29657626511E+01  0.73020239518E+00  0.74492365990E+00  0.31438598727E+01  0.00000000000E+00 0. -1.
</event>
<event>
 7    1  0.4623443E-009  0.4614232E+02  0.7816164E-02  0.1320468E+00
        -11   -1    0    0    0    0  0.00000000000E+00  0.00000000000E+00  0.45593999997E+02  0.45594000000E+02  0.51100000000E-03 0. -1.
         11   -1    0    0    0    0 -0.00000000000E+00 -0.00000000000E+00 -0.45593999997E+02  0.45594000000E+02  0.51100000000E-03 0.  1.
    9900012    2    1    2    0    0  0.64860798309E+01 -0.28738500883E+02 -0.34075544818E+02  0.46142318529E+02  0.10000007000E+02 0.  0.
         12    1    1    2    0    0 -0.64860798309E+01  0.28738500883E+02  0.34075544818E+02  0.45045681471E+02  0.00000000000E+00 0. -1.
         11    1    3    3    0    0  0.19284328309E+01 -0.32171007429E+01 -0.10122310962E+01  0.38849970948E+01  0.51100000000E-03 0. -1.
        -11    1    3    3    0    0  0.34963706555E+01 -0.18493146808E+02 -0.20550135193E+02  0.27866272505E+02  0.51100000000E-03 0.  1.
        -12    1    3    3    0    0  0.10612763445E+01 -0.70282533321E+01 -0.12513178529E+02  0.14391048929E+02  0.00000000000E+00 0.  1.
</event>
<event>
 7    1  0.4623443E-009  0.4614232E+02  0.7816164E-02  0.1320468E+00
        -11   -1    0    0    0    0  0.00000000000E+00  0.00000000000E+00  0.45593999997E+02  0.45594000000E+02  0.51100000000E-03 0.  1.
         11   -1    0    0    0    0 -0.00000000000E+00 -0.00000000000E+00 -0.45593999997E+02  0.45594000000E+02  0.51100000000E-03 0. -1.
    9900012    2    1    2    0    0  0.44372911686E+02  0.61262792707E+01 -0.47567812010E+01  0.46142317004E+02  0.99999930931E+01 0.  0.
        -12    1    1    2    0    0 -0.44372911686E+02 -0.61262792707E+01  0.47567812010E+01  0.45045682996E+02  0.00000000000E+00 0.  1.
         11    1    3    3    0    0  0.12155779209E+02  0.45971152123E+01 -0.29901625639E+01  0.13335573061E+02  0.51100000000E-03 0. -1.
        -11    1    3    3    0    0  0.28944435510E+01 -0.74471237774E+00  0.12543754389E+01  0.32412741319E+01  0.51100000000E-03 0.  1.
        -12    1    3    3    0    0  0.29322688926E+02  0.22738764362E+01 -0.30209940760E+01  0.29565469810E+02  0.00000000000E+00 0.  1.
</event>
<event>
 7    1  0.4623443E-009  0.4614232E+02  0.7816164E-02  0.1320468E+00
        -11   -1    0    0    0    0  0.00000000000E+00  0.00000000000E+00  0.45593999997E+02  0.45594000000E+02  0.51100000000E-03 0.  1.
         11   -1    0    0    0    0 -0.00000000000E+00 -0.00000000000E+00 -0.45593999997E+02  0.45594000000E+02  0.51100000000E-03 0. -1.
    9900012    2    1    2    0    0  0.24537845980E+02  0.37054925890E+02 -0.73443866709E+01  0.46142318369E+02  0.10000005542E+02 0.  0.
        -12    1    1    2    0    0 -0.24537845980E+02 -0.37054925890E+02  0.73443866709E+01  0.45045681631E+02  0.00000000000E+00 0.  1.
         11    1    3    3    0    0  0.11339955569E+02  0.16817350693E+02 -0.42610705230E+01  0.20726181484E+02  0.51100000000E-03 0. -1.
        -11    1    3    3    0    0  0.58954975314E+00  0.56726143648E+01 -0.22592197066E+01  0.61343456527E+01  0.51100000000E-03 0.  1.
        -12    1    3    3    0    0  0.12608340658E+02  0.14564960832E+02 -0.82409644127E+00  0.19281791233E+02  0.00000000000E+00 0.  1.
</event>
<event>
 7    1  0.4623443E-009  0.4614232E+02  0.7816164E-02  0.1320468E+00
        -11   -1    0    0    0    0  0.00000000000E+00  0.00000000000E+00  0.45593999997E+02  0.45594000000E+02  0.51100000000E-03 0. -1.
         11   -1    0    0    0    0 -0.00000000000E+00 -0.00000000000E+00 -0.45593999997E+02  0.45594000000E+02  0.51100000000E-03 0.  1.
    9900012    2    1    2    0    0 -0.30080289312E+02  0.29249218831E+02  0.16394293600E+02  0.46142317965E+02  0.10000001861E+02 0.  0.
        -12    1    1    2    0    0  0.30080289312E+02 -0.29249218831E+02 -0.16394293600E+02  0.45045682035E+02  0.00000000000E+00 0.  1.
         11    1    3    3    0    0 -0.96972654829E+01  0.92264973905E+01  0.83032661560E+01  0.15751490122E+02  0.51100000000E-03 0. -1.
        -11    1    3    3    0    0 -0.14840331868E+02  0.11608068047E+02  0.75587568423E+01  0.20300677304E+02  0.51100000000E-03 0.  1.
        -12    1    3    3    0    0 -0.55426919605E+01  0.84146533938E+01  0.53227060203E+00  0.10090150539E+02  0.00000000000E+00 0.  1.
</event>
<event>
 7    1  0.4623443E-009  0.4614232E+02  0.7816164E-02  0.1320468E+00
        -11   -1    0    0    0    0  0.00000000000E+00  0.00000000000E+00  0.45593999997E+02  0.45594000000E+02  0.51100000000E-03 0. -1.
         11   -1    0    0    0    0 -0.00000000000E+00 -0.00000000000E+00 -0.45593999997E+02  0.45594000000E+02  0.51100000000E-03 0.  1.
    9900012    2    1    2    0    0  0.26951305618E+02 -0.26786257808E+02  0.24191672394E+02  0.46142317687E+02  0.99999993215E+01 0.  0.
        -12    1    1    2    0    0 -0.26951305618E+02  0.26786257808E+02 -0.24191672394E+02  0.45045682313E+02  0.00000000000E+00 0.  1.
         11    1    3    3    0    0  0.24745461911E+01 -0.62360707663E+01  0.14564505167E+01  0.68653627598E+01  0.51100000000E-03 0. -1.
        -11    1    3    3    0    0  0.51263266632E+01 -0.36999053915E+01  0.53635405323E+01  0.82907232656E+01  0.51100000000E-03 0.  1.
         12    1    3    3    0    0  0.19350432763E+02 -0.16850281650E+02  0.17371681345E+02  0.30986231661E+02  0.00000000000E+00 0. -1.
</event>
<event>
 7    1  0.4823163E-009  0.4614232E+02  0.7816164E-02  0.1320468E+00
        -11   -1    0    0    0    0  0.00000000000E+00  0.00000000000E+00  0.45593999997E+02  0.45594000000E+02  0.51100000000E-03 0. -1.
         11   -1    0    0    0    0 -0.00000000000E+00 -0.00000000000E+00 -0.45593999997E+02  0.45594000000E+02  0.51100000000E-03 0.  1.
    9900012    2    1    2    0    0  0.11385855222E+02 -0.37787444680E+02 -0.21716002971E+02  0.46142318080E+02  0.10000002908E+02 0.  0.
         12    1    1    2    0    0 -0.11385855222E+02  0.37787444680E+02  0.21716002971E+02  0.45045681920E+02  0.00000000000E+00 0. -1.
         11    1    3    3    0    0  0.32363972060E+01 -0.11246743778E+02 -0.10781173208E+02  0.15912171709E+02  0.51100000000E-03 0. -1.
        -11    1    3    3    0    0  0.68888805123E+01 -0.21639127126E+02 -0.10850736668E+02  0.25168372693E+02  0.51100000000E-03 0.  1.
         12    1    3    3    0    0  0.12605775042E+01 -0.49015737755E+01 -0.84093094618E-01  0.50617736782E+01  0.00000000000E+00 0. -1.
</event>
<event>
 7    1  0.4623443E-009  0.4614232E+02  0.7816164E-02  0.1320468E+00
        -11   -1    0    0    0    0  0.00000000000E+00  0.00000000000E+00  0.45593999997E+02  0.45594000000E+02  0.51100000000E-03 0. -1.
         11   -1    0    0    0    0 -0.00000000000E+00 -0.00000000000E+00 -0.45593999997E+02  0.45594000000E+02  0.51100000000E-03 0.  1.
    9900012    2    1    2    0    0 -0.36650808564E+02 -0.79461948632E+01 -0.24953752890E+02  0.46142316916E+02  0.99999922948E+01 0.  0.
         12    1    1    2    0    0  0.36650808564E+02  0.79461948632E+01  0.24953752890E+02  0.45045683084E+02  0.00000000000E+00 0. -1.
         11    1    3    3    0    0 -0.17331472733E+01 -0.49028326007E+00  0.90211246297E-01  0.18034177209E+01  0.51100000000E-03 0. -1.
        -11    1    3    3    0    0 -0.25872887222E+01  0.71596806517E-01  0.25694003723E+00  0.26010012454E+01  0.51100000000E-03 0.  1.
        -12    1    3    3    0    0 -0.32330372569E+02 -0.75275084097E+01 -0.25300904173E+02  0.41737897950E+02  0.00000000000E+00 0.  1.
</event>
<event>
 7    1  0.4623443E-009  0.4614232E+02  0.7816164E-02  0.1320468E+00
        -11   -1    0    0    0    0  0.00000000000E+00  0.00000000000E+00  0.45593999997E+02  0.45594000000E+02  0.51100000000E-03 0. -1.
         11   -1    0    0    0    0 -0.00000000000E+00 -0.00000000000E+00 -0.45593999997E+02  0.45594000000E+02  0.51100000000E-03 0.  1.
    9900012    2    1    2    0    0 -0.32164330556E+02 -0.31257591994E+02 -0.41871495974E+01  0.46142318308E+02  0.10000004988E+02 0.  0.
         12    1    1    2    0    0  0.32164330556E+02  0.31257591994E+02  0.41871495974E+01  0.45045681692E+02  0.00000000000E+00 0. -1.
         11    1    3    3    0    0 -0.33714403274E-01 -0.66402893309E+00 -0.11404913429E+01  0.13201484194E+01  0.51100000000E-03 0. -1.
        -11    1    3    3    0    0 -0.15823319382E+02 -0.12948419607E+02 -0.37413737321E+01  0.20785496968E+02  0.51100000000E-03 0.  1.
         12    1    3    3    0    0 -0.16307296771E+02 -0.17645143454E+02  0.69471547757E+00  0.24036672920E+02  0.00000000000E+00 0. -1.
</event>
<event>
 7    1  0.5948138E-009  0.4614232E+02  0.7816164E-02  0.1320468E+00
        -11   -1    0    0    0    0  0.00000000000E+00  0.00000000000E+00  0.45593999997E+02  0.45594000000E+02  0.51100000000E-03 0. -1.
         11   -1    0    0    0    0 -0.00000000000E+00 -0.00000000000E+00 -0.45593999997E+02  0.45594000000E+02  0.51100000000E-03 0.  1.
    9900012    2    1    2    0    0  0.31422393865E+01 -0.29115895476E+01 -0.44841527502E+02  0.46142316402E+02  0.99999876069E+01 0.  0.
         12    1    1    2    0    0 -0.31422393865E+01  0.29115895476E+01  0.44841527502E+02  0.45045683598E+02  0.00000000000E+00 0. -1.
         11    1    3    3    0    0  0.11099741580E+01  0.16055924393E+01 -0.17896305072E+02  0.18002436090E+02  0.51100000000E-03 0. -1.
        -11    1    3    3    0    0 -0.66831569571E+00 -0.18817898167E+01 -0.21023396779E+02  0.21118025267E+02  0.51100000000E-03 0.  1.
         12    1    3    3    0    0  0.27005809242E+01 -0.26353921703E+01 -0.59218256520E+01  0.70218550450E+01  0.00000000000E+00 0. -1.
</event>
<event>
 7    1  0.4623443E-009  0.4614232E+02  0.7816164E-02  0.1320468E+00
        -11   -1    0    0    0    0  0.00000000000E+00  0.00000000000E+00  0.45593999997E+02  0.45594000000E+02  0.51100000000E-03 0. -1.
         11   -1    0    0    0    0 -0.00000000000E+00 -0.00000000000E+00 -0.45593999997E+02  0.45594000000E+02  0.51100000000E-03 0.  1.
    9900012    2    1    2    0    0 -0.13562988716E+02  0.22599129480E+02  0.36529962607E+02  0.46142317807E+02  0.10000000415E+02 0.  0.
        -12    1    1    2    0    0  0.13562988716E+02 -0.22599129480E+02 -0.36529962607E+02  0.45045682193E+02  0.00000000000E+00 0.  1.
         11    1    3    3    0    0 -0.59874534526E+01  0.42414742283E+01  0.10371098027E+02  0.12704305452E+02  0.51100000000E-03 0. -1.
        -11    1    3    3    0    0  0.62561817153E+00  0.62699194723E+00  0.30612502297E+01  0.31868119224E+01  0.51100000000E-03 0.  1.
         12    1    3    3    0    0 -0.82011534349E+01  0.17730663305E+02  0.23097614351E+02  0.30251200432E+02  0.00000000000E+00 0. -1.
</event>
<event>
 7    1  0.4623443E-009  0.4614231E+02  0.7816164E-02  0.1320468E+00
        -11   -1    0    0    0    0  0.00000000000E+00  0.00000000000E+00  0.45593999997E+02  0.45594000000E+02  0.51100000000E-03 0. -1.
         11   -1    0    0    0    0 -0.00000000000E+00 -0.00000000000E+00 -0.45593999997E+02  0.45594000000E+02  0.51100000000E-03 0.  1.
    9900012    2    1    2    0    0  0.15337212025E+01  0.37793749413E+02 -0.24462098585E+02  0.46142311387E+02  0.99999418755E+01 0.  0.
         12    1    1    2    0    0 -0.15337212025E+01 -0.37793749413E+02  0.24462098585E+02  0.45045688613E+02  0.00000000000E+00 0. -1.
         11    1    3    3    0    0  0.10016407592E+00  0.18497996575E+02 -0.97044331788E+01  0.20889277961E+02  0.51100000000E-03 0. -1.
        -11    1    3    3    0    0 -0.86338059258E+00 -0.80149916215E-02 -0.14732188918E+01  0.17075902471E+01  0.51100000000E-03 0.  1.
        -12    1    3    3    0    0  0.22969377192E+01  0.19303767830E+02 -0.13284446514E+02  0.23545443179E+02  0.00000000000E+00 0.  1.
</event>
<event>
 7    1  0.4623443E-009  0.4614232E+02  0.7816164E-02  0.1320468E+00
        -11   -1    0    0    0    0  0.00000000000E+00  0.00000000000E+00  0.45593999997E+02  0.45594000000E+02  0.51100000000E-03 0. -1.
         11   -1    0    0    0    0 -0.00000000000E+00 -0.00000000000E+00 -0.45593999997E+02  0.45594000000E+02  0.51100000000E-03 0.  1.
    9900012    2    1    2    0    0  0.15061387645E+02  0.77492425021E+01  0.41739877904E+02  0.46142316915E+02  0.99999922866E+01 0.  0.
        -12    1    1    2    0    0 -0.15061387645E+02 -0.77492425021E+01 -0.41739877904E+02  0.45045683085E+02  0.00000000000E+00 0.  1.
         11    1    3    3    0    0  0.11089222881E+01 -0.78802357288E+00  0.47619592236E+01  0.49524686471E+01  0.51100000000E-03 0. -1.
        -11    1    3    3    0    0  0.22428033683E+01 -0.14303085745E+01  0.40118636673E+01  0.48136264825E+01  0.51100000000E-03 0.  1.
        -12    1    3    3    0    0  0.11709661989E+02  0.99675746495E+01  0.32966055013E+02  0.36376221786E+02  0.00000000000E+00 0.  1.
</event>
<event>
 7    1  0.4623443E-009  0.4614232E+02  0.7816164E-02  0.1320468E+00
        -11   -1    0    0    0    0  0.00000000000E+00  0.00000000000E+00  0.45593999997E+02  0.45594000000E+02  0.51100000000E-03 0. -1.
         11   -1    0    0    0    0 -0.00000000000E+00 -0.00000000000E+00 -0.45593999997E+02  0.45594000000E+02  0.51100000000E-03 0.  1.
    9900012    2    1    2    0    0  0.32812154608E+02 -0.30059466021E+02  0.69931773649E+01  0.46142317442E+02  0.99999970888E+01 0.  0.
        -12    1    1    2    0    0 -0.32812154608E+02  0.30059466021E+02 -0.69931773649E+01  0.45045682558E+02  0.00000000000E+00 0.  1.
         11    1    3    3    0    0  0.14630485951E+02 -0.84931790056E+01  0.29830623738E+01  0.17178005419E+02  0.51100000000E-03 0. -1.
        -11    1    3    3    0    0  0.39668260033E+01 -0.39773102271E+01  0.29010104076E+01  0.63222279957E+01  0.51100000000E-03 0.  1.
         12    1    3    3    0    0  0.14214842654E+02 -0.17588976788E+02  0.11091045834E+01  0.22642084027E+02  0.00000000000E+00 0. -1.
</event>
<event>
 7    1  0.4623443E-009  0.4614232E+02  0.7816164E-02  0.1320468E+00
        -11   -1    0    0    0    0  0.00000000000E+00  0.00000000000E+00  0.45593999997E+02  0.45594000000E+02  0.51100000000E-03 0. -1.
         11   -1    0    0    0    0 -0.00000000000E+00 -0.00000000000E+00 -0.45593999997E+02  0.45594000000E+02  0.51100000000E-03 0.  1.
    9900012    2    1    2    0    0 -0.25985031498E+01 -0.16600898498E+02 -0.41794395590E+02  0.46142317052E+02  0.99999935328E+01 0.  0.
         12    1    1    2    0    0  0.25985031498E+01  0.16600898498E+02  0.41794395590E+02  0.45045682948E+02  0.00000000000E+00 0. -1.
         11    1    3    3    0    0 -0.31373899005E+01 -0.75572136271E+01 -0.24918427429E+02  0.26227518353E+02  0.51100000000E-03 0. -1.
        -11    1    3    3    0    0 -0.11622281143E+01 -0.23581983609E+01 -0.14173509759E+01  0.29867637585E+01  0.51100000000E-03 0.  1.
        -12    1    3    3    0    0  0.17011148650E+01 -0.66854865101E+01 -0.15458617185E+02  0.16928034940E+02  0.00000000000E+00 0.  1.
</event>
<event>
 7    1  0.4623443E-009  0.4614232E+02  0.7816164E-02  0.1320468E+00
        -11   -1    0    0    0    0  0.00000000000E+00  0.00000000000E+00  0.45593999997E+02  0.45594000000E+02  0.51100000000E-03 0. -1.
         11   -1    0    0    0    0 -0.00000000000E+00 -0.00000000000E+00 -0.45593999997E+02  0.45594000000E+02  0.51100000000E-03 0.  1.
    9900012    2    1    2    0    0 -0.12389846326E+01  0.21272170600E+02  0.39687190634E+02  0.46142318460E+02  0.10000006376E+02 0.  0.
        -12    1    1    2    0    0  0.12389846326E+01 -0.21272170600E+02 -0.39687190634E+02  0.45045681540E+02  0.00000000000E+00 0.  1.
         11    1    3    3    0    0 -0.24724630524E+01  0.84634302157E+01  0.20555166781E+02  0.22366439284E+02  0.51100000000E-03 0. -1.
        -11    1    3    3    0    0 -0.22416835724E+01  0.33183868654E+01  0.57078856583E+01  0.69725745300E+01  0.51100000000E-03 0.  1.
         12    1    3    3    0    0  0.34751619921E+01  0.94903535186E+01  0.13424138194E+02  0.16803304646E+02  0.00000000000E+00 0. -1.
</event>
<event>
 7    1  0.4623443E-009  0.4614232E+02  0.7816164E-02  0.1320468E+00
        -11   -1    0    0    0    0  0.00000000000E+00  0.00000000000E+00  0.45593999997E+02  0.45594000000E+02  0.51100000000E-03 0. -1.
         11   -1    0    0    0    0 -0.00000000000E+00 -0.00000000000E+00 -0.45593999997E+02  0.45594000000E+02  0.51100000000E-03 0.  1.
    9900012    2    1    2    0    0  0.28365296531E+02  0.11698283248E+02 -0.32979897780E+02  0.46142317235E+02  0.99999951992E+01 0.  0.
         12    1    1    2    0    0 -0.28365296531E+02 -0.11698283248E+02  0.32979897780E+02  0.45045682765E+02  0.00000000000E+00 0. -1.
         11    1    3    3    0    0  0.93495480243E+01  0.36217633300E+01 -0.71938146785E+01  0.12340266925E+02  0.51100000000E-03 0. -1.
        -11    1    3    3    0    0  0.74924799429E+01  0.41422559837E+01 -0.56073292993E+01  0.10234142976E+02  0.51100000000E-03 0.  1.
        -12    1    3    3    0    0  0.11523268564E+02  0.39342639341E+01 -0.20178753802E+02  0.23567907334E+02  0.00000000000E+00 0.  1.
</event>
<event>
 7    1  0.4623443E-009  0.4614232E+02  0.7816164E-02  0.1320468E+00
        -11   -1    0    0    0    0  0.00000000000E+00  0.00000000000E+00  0.45593999997E+02  0.45594000000E+02  0.51100000000E-03 0. -1.
         11   -1    0    0    0    0 -0.00000000000E+00 -0.00000000000E+00 -0.45593999997E+02  0.45594000000E+02  0.51100000000E-03 0.  1.
    9900012    2    1    2    0    0  0.37176116789E+02  0.12304245274E+02  0.22263318697E+02  0.46142317957E+02  0.10000001790E+02 0.  0.
        -12    1    1    2    0    0 -0.37176116789E+02 -0.12304245274E+02 -0.22263318697E+02  0.45045682043E+02  0.00000000000E+00 0.  1.
         11    1    3    3    0    0  0.13655747236E+01  0.22582557739E+01  0.18907115502E+01  0.32464294068E+01  0.51100000000E-03 0.  1.
        -11    1    3    3    0    0  0.24705396958E+02  0.77613286536E+01  0.10800915286E+02  0.28058058247E+02  0.51100000000E-03 0. -1.
        -12    1    3    3    0    0  0.11105145107E+02  0.22846608465E+01  0.95716918608E+01  0.14837830304E+02  0.00000000000E+00 0.  1.
</event>
<event>
 7    1  0.4623443E-009  0.4614232E+02  0.7816164E-02  0.1320468E+00
        -11   -1    0    0    0    0  0.00000000000E+00  0.00000000000E+00  0.45593999997E+02  0.45594000000E+02  0.51100000000E-03 0. -1.
         11   -1    0    0    0    0 -0.00000000000E+00 -0.00000000000E+00 -0.45593999997E+02  0.45594000000E+02  0.51100000000E-03 0.  1.
    9900012    2    1    2    0    0  0.35545288003E+02 -0.15987952069E+02 -0.22583874902E+02  0.46142317452E+02  0.99999971841E+01 0.  0.
         12    1    1    2    0    0 -0.35545288003E+02  0.15987952069E+02  0.22583874902E+02  0.45045682548E+02  0.00000000000E+00 0. -1.
         11    1    3    3    0    0  0.18774452556E+02 -0.12813636199E+02 -0.11588922590E+02  0.25514162116E+02  0.51100000000E-03 0. -1.
        -11    1    3    3    0    0  0.45615892364E+01 -0.25522484319E+01 -0.34202048342E+01  0.62465886521E+01  0.51100000000E-03 0.  1.
         12    1    3    3    0    0  0.12209246211E+02 -0.62206743756E+00 -0.75747474781E+01  0.14381566684E+02  0.00000000000E+00 0. -1.
</event>
<event>
 7    1  0.4623443E-009  0.4614232E+02  0.7816164E-02  0.1320468E+00
        -11   -1    0    0    0    0  0.00000000000E+00  0.00000000000E+00  0.45593999997E+02  0.45594000000E+02  0.51100000000E-03 0. -1.
         11   -1    0    0    0    0 -0.00000000000E+00 -0.00000000000E+00 -0.45593999997E+02  0.45594000000E+02  0.51100000000E-03 0.  1.
    9900012    2    1    2    0    0 -0.79068103144E+01  0.23377888271E+02 -0.37683819080E+02  0.46142317301E+02  0.99999958028E+01 0.  0.
         12    1    1    2    0    0  0.79068103144E+01 -0.23377888271E+02  0.37683819080E+02  0.45045682699E+02  0.00000000000E+00 0. -1.
         11    1    3    3    0    0 -0.55087392712E+00 -0.26073974582E+00 -0.31295087301E+00  0.68511736853E+00  0.51100000000E-03 0.  1.
        -11    1    3    3    0    0 -0.16627323974E+01  0.17171135558E+02 -0.25575995375E+02  0.30850350323E+02  0.51100000000E-03 0. -1.
         12    1    3    3    0    0 -0.56932039898E+01  0.64674924587E+01 -0.11794872833E+02  0.14606849609E+02  0.00000000000E+00 0. -1.
</event>
<event>
 7    1  0.4623443E-009  0.4614232E+02  0.7816164E-02  0.1320468E+00
        -11   -1    0    0    0    0  0.00000000000E+00  0.00000000000E+00  0.45593999997E+02  0.45594000000E+02  0.51100000000E-03 0. -1.
         11   -1    0    0    0    0 -0.00000000000E+00 -0.00000000000E+00 -0.45593999997E+02  0.45594000000E+02  0.51100000000E-03 0.  1.
    9900012    2    1    2    0    0  0.63934570645E+01 -0.33251877626E+02  0.29707740137E+02  0.46142317822E+02  0.10000000554E+02 0.  0.
        -12    1    1    2    0    0 -0.63934570645E+01  0.33251877626E+02 -0.29707740137E+02  0.45045682178E+02  0.00000000000E+00 0.  1.
         11    1    3    3    0    0 -0.10572929690E+01 -0.40307695437E+01  0.47960584356E+01  0.63535146427E+01  0.51100000000E-03 0. -1.
        -11    1    3    3    0    0  0.64068433286E+01 -0.28731394676E+02  0.25016270296E+02  0.38631003886E+02  0.51100000000E-03 0.  1.
        -12    1    3    3    0    0  0.10439067049E+01 -0.48971340632E+00 -0.10458859517E+00  0.11577992931E+01  0.00000000000E+00 0.  1.
</event>
<event>
 7    1  0.4623443E-009  0.4614232E+02  0.7816164E-02  0.1320468E+00
        -11   -1    0    0    0    0  0.00000000000E+00  0.00000000000E+00  0.45593999997E+02  0.45594000000E+02  0.51100000000E-03 0. -1.
         11   -1    0    0    0    0 -0.00000000000E+00 -0.00000000000E+00 -0.45593999997E+02  0.45594000000E+02  0.51100000000E-03 0.  1.
    9900012    2    1    2    0    0  0.13110712756E+02 -0.27512557790E+02 -0.33170496015E+02  0.46142318398E+02  0.10000005806E+02 0.  0.
         12    1    1    2    0    0 -0.13110712756E+02  0.27512557790E+02  0.33170496015E+02  0.45045681602E+02  0.00000000000E+00 0. -1.
         11    1    3    3    0    0  0.43186013049E+01 -0.81791650698E+01 -0.81548571076E+01  0.12330886147E+02  0.51100000000E-03 0. -1.
        -11    1    3    3    0    0  0.94235459879E+01 -0.11431513509E+02 -0.16635114166E+02  0.22275765838E+02  0.51100000000E-03 0.  1.
         12    1    3    3    0    0 -0.63143453649E+00 -0.79018792116E+01 -0.83805247415E+01  0.11535666413E+02  0.00000000000E+00 0. -1.
</event>
<event>
 7    1  0.4623443E-009  0.4614232E+02  0.7816164E-02  0.1320468E+00
        -11   -1    0    0    0    0  0.00000000000E+00  0.00000000000E+00  0.45593999997E+02  0.45594000000E+02  0.51100000000E-03 0. -1.
         11   -1    0    0    0    0 -0.00000000000E+00 -0.00000000000E+00 -0.45593999997E+02  0.45594000000E+02  0.51100000000E-03 0.  1.
    9900012    2    1    2    0    0 -0.30533715820E+02  0.12011143832E+02  0.30863215646E+02  0.46142318098E+02  0.10000003075E+02 0.  0.
        -12    1    1    2    0    0  0.30533715820E+02 -0.12011143832E+02 -0.30863215646E+02  0.45045681902E+02  0.00000000000E+00 0.  1.
         11    1    3    3    0    0 -0.36085938132E+01  0.98948429683E-01  0.38110753466E+00  0.36300114758E+01  0.51100000000E-03 0. -1.
        -11    1    3    3    0    0 -0.11757139579E+02  0.37861003113E+01  0.14231548695E+02  0.18844146708E+02  0.51100000000E-03 0.  1.
         12    1    3    3    0    0 -0.15167982428E+02  0.81260950907E+01  0.16250559417E+02  0.23668159914E+02  0.00000000000E+00 0. -1.
</event>
<event>
 7    1  0.4623443E-009  0.4614232E+02  0.7816164E-02  0.1320468E+00
        -11   -1    0    0    0    0  0.00000000000E+00  0.00000000000E+00  0.45593999997E+02  0.45594000000E+02  0.51100000000E-03 0. -1.
         11   -1    0    0    0    0 -0.00000000000E+00 -0.00000000000E+00 -0.45593999997E+02  0.45594000000E+02  0.51100000000E-03 0.  1.
    9900012    2    1    2    0    0 -0.20685111010E+02  0.36002972962E+02  0.17464980070E+02  0.46142318648E+02  0.10000008089E+02 0.  0.
        -12    1    1    2    0    0  0.20685111010E+02 -0.36002972962E+02 -0.17464980070E+02  0.45045681352E+02  0.00000000000E+00 0.  1.
         11    1    3    3    0    0 -0.18156006390E+01  0.81166370704E+01  0.24019373741E+01  0.86571072780E+01  0.51100000000E-03 0. -1.
        -11    1    3    3    0    0 -0.19615197306E+01  0.23621306833E+01 -0.54739100278E+00  0.31187911423E+01  0.51100000000E-03 0.  1.
         12    1    3    3    0    0 -0.16907990641E+02  0.25524205208E+02  0.15610433698E+02  0.34366420228E+02  0.00000000000E+00 0. -1.
</event>
<event>
 7    1  0.4623443E-009  0.4614232E+02  0.7816164E-02  0.1320468E+00
        -11   -1    0    0    0    0  0.00000000000E+00  0.00000000000E+00  0.45593999997E+02  0.45594000000E+02  0.51100000000E-03 0. -1.
         11   -1    0    0    0    0 -0.00000000000E+00 -0.00000000000E+00 -0.45593999997E+02  0.45594000000E+02  0.51100000000E-03 0.  1.
    9900012    2    1    2    0    0 -0.25436717722E+02  0.36011417775E+01 -0.37001602925E+02  0.46142318191E+02  0.10000003922E+02 0.  0.
         12    1    1    2    0    0  0.25436717722E+02 -0.36011417775E+01  0.37001602925E+02  0.45045681809E+02  0.00000000000E+00 0. -1.
         11    1    3    3    0    0 -0.94147958802E+01 -0.60119365388E+00 -0.79042021024E+01  0.12307567851E+02  0.51100000000E-03 0. -1.
        -11    1    3    3    0    0 -0.56228559192E+01  0.47788130997E+00 -0.14269233728E+02  0.15344572679E+02  0.51100000000E-03 0.  1.
        -12    1    3    3    0    0 -0.10399065923E+02  0.37244541214E+01 -0.14828167094E+02  0.18490177661E+02  0.00000000000E+00 0.  1.
</event>
<event>
 7    1  0.4623443E-009  0.4614232E+02  0.7816164E-02  0.1320468E+00
        -11   -1    0    0    0    0  0.00000000000E+00  0.00000000000E+00  0.45593999997E+02  0.45594000000E+02  0.51100000000E-03 0. -1.
         11   -1    0    0    0    0 -0.00000000000E+00 -0.00000000000E+00 -0.45593999997E+02  0.45594000000E+02  0.51100000000E-03 0.  1.
    9900012    2    1    2    0    0  0.80802759283E+01  0.42355395863E+02  0.13032384941E+02  0.46142317909E+02  0.10000001352E+02 0.  0.
        -12    1    1    2    0    0 -0.80802759283E+01 -0.42355395863E+02 -0.13032384941E+02  0.45045682091E+02  0.00000000000E+00 0.  1.
         11    1    3    3    0    0  0.90008661786E+00  0.72559209838E+01  0.98322777631E+00  0.73773492776E+01  0.51100000000E-03 0. -1.
        -11    1    3    3    0    0  0.83780286941E+01  0.33713633069E+02  0.12426583948E+02  0.36894720604E+02  0.51100000000E-03 0.  1.
        -12    1    3    3    0    0 -0.11978393836E+01  0.13858418096E+01 -0.37742678380E+00  0.18702480283E+01  0.00000000000E+00 0.  1.
</event>
<event>
 7    1  0.4623443E-009  0.4614232E+02  0.7816164E-02  0.1320468E+00
        -11   -1    0    0    0    0  0.00000000000E+00  0.00000000000E+00  0.45593999997E+02  0.45594000000E+02  0.51100000000E-03 0.  1.
         11   -1    0    0    0    0 -0.00000000000E+00 -0.00000000000E+00 -0.45593999997E+02  0.45594000000E+02  0.51100000000E-03 0. -1.
    9900012    2    1    2    0    0 -0.40585911223E+02 -0.31678218833E+01 -0.19283731354E+02  0.46142316742E+02  0.99999907069E+01 0.  0.
         12    1    1    2    0    0  0.40585911223E+02  0.31678218833E+01  0.19283731354E+02  0.45045683258E+02  0.00000000000E+00 0. -1.
         11    1    3    3    0    0 -0.86793978014E+01  0.26087422649E+01 -0.44419643990E+01  0.10092994124E+02  0.51100000000E-03 0. -1.
        -11    1    3    3    0    0 -0.36824718542E+01  0.10044752057E+01 -0.19844136689E+01  0.43020305980E+01  0.51100000000E-03 0.  1.
        -12    1    3    3    0    0 -0.28224041567E+02 -0.67810393540E+01 -0.12857353286E+02  0.31747292020E+02  0.00000000000E+00 0.  1.
</event>
<event>
 7    1  0.4623443E-009  0.4614233E+02  0.7816164E-02  0.1320468E+00
        -11   -1    0    0    0    0  0.00000000000E+00  0.00000000000E+00  0.45593999997E+02  0.45594000000E+02  0.51100000000E-03 0. -1.
         11   -1    0    0    0    0 -0.00000000000E+00 -0.00000000000E+00 -0.45593999997E+02  0.45594000000E+02  0.51100000000E-03 0.  1.
    9900012    2    1    2    0    0  0.36255487953E+02 -0.24213781884E+02  0.11328940838E+02  0.46142328284E+02  0.10000095958E+02 0.  0.
        -12    1    1    2    0    0 -0.36255487953E+02  0.24213781884E+02 -0.11328940838E+02  0.45045671716E+02  0.00000000000E+00 0.  1.
         11    1    3    3    0    0  0.24105096426E+02 -0.19048029494E+02  0.79162710876E+01  0.31726179245E+02  0.51100000000E-03 0. -1.
        -11    1    3    3    0    0  0.11090990572E+02 -0.57445195158E+01  0.39424839141E+01  0.13097814933E+02  0.51100000000E-03 0.  1.
        -12    1    3    3    0    0  0.10594009547E+01  0.57876712571E+00 -0.52981416345E+00  0.13183341065E+01  0.00000000000E+00 0.  1.
</event>
<event>
 7    1  0.4623443E-009  0.4614232E+02  0.7816164E-02  0.1320468E+00
        -11   -1    0    0    0    0  0.00000000000E+00  0.00000000000E+00  0.45593999997E+02  0.45594000000E+02  0.51100000000E-03 0. -1.
         11   -1    0    0    0    0 -0.00000000000E+00 -0.00000000000E+00 -0.45593999997E+02  0.45594000000E+02  0.51100000000E-03 0.  1.
    9900012    2    1    2    0    0  0.84756903942E+01  0.16362962065E+02 -0.41103890445E+02  0.46142315802E+02  0.99999821334E+01 0.  0.
         12    1    1    2    0    0 -0.84756903942E+01 -0.16362962065E+02  0.41103890445E+02  0.45045684198E+02  0.00000000000E+00 0. -1.
         11    1    3    3    0    0  0.72101036074E+01  0.13166720721E+02 -0.21958479455E+02  0.26599303540E+02  0.51100000000E-03 0.  1.
        -11    1    3    3    0    0 -0.21288785963E+00  0.18512292118E+01 -0.75473260021E+01  0.77739630098E+01  0.51100000000E-03 0. -1.
        -12    1    3    3    0    0  0.14784746464E+01  0.13450121319E+01 -0.11598084987E+02  0.11769049252E+02  0.00000000000E+00 0.  1.
</event>
<event>
 7    1  0.4623443E-009  0.4614232E+02  0.7816164E-02  0.1320468E+00
        -11   -1    0    0    0    0  0.00000000000E+00  0.00000000000E+00  0.45593999997E+02  0.45594000000E+02  0.51100000000E-03 0. -1.
         11   -1    0    0    0    0 -0.00000000000E+00 -0.00000000000E+00 -0.45593999997E+02  0.45594000000E+02  0.51100000000E-03 0.  1.
    9900012    2    1    2    0    0  0.71009086855E+00  0.52259248550E+00 -0.45037053658E+02  0.46142317253E+02  0.99999953696E+01 0.  0.
         12    1    1    2    0    0 -0.71009086855E+00 -0.52259248550E+00  0.45037053658E+02  0.45045682747E+02  0.00000000000E+00 0. -1.
         11    1    3    3    0    0 -0.33685533028E+00 -0.59237505328E+00 -0.77814937402E-01  0.68588274719E+00  0.51100000000E-03 0. -1.
        -11    1    3    3    0    0 -0.15460361136E+00  0.16022756625E+01 -0.24750676805E+01  0.29524819829E+01  0.51100000000E-03 0.  1.
        -12    1    3    3    0    0  0.12015498102E+01 -0.48730812376E+00 -0.42484171040E+02  0.42503952523E+02  0.00000000000E+00 0.  1.
</event>
<event>
 7    1  0.4623443E-009  0.4614232E+02  0.7816164E-02  0.1320468E+00
        -11   -1    0    0    0    0  0.00000000000E+00  0.00000000000E+00  0.45593999997E+02  0.45594000000E+02  0.51100000000E-03 0. -1.
         11   -1    0    0    0    0 -0.00000000000E+00 -0.00000000000E+00 -0.45593999997E+02  0.45594000000E+02  0.51100000000E-03 0.  1.
    9900012    2    1    2    0    0 -0.13084662575E+02 -0.38812494255E+02  0.18748210631E+02  0.46142317556E+02  0.99999981307E+01 0.  0.
        -12    1    1    2    0    0  0.13084662575E+02  0.38812494255E+02 -0.18748210631E+02  0.45045682444E+02  0.00000000000E+00 0.  1.
         11    1    3    3    0    0 -0.24019355243E+01 -0.10076761096E+02  0.70437747409E+01  0.12526977740E+02  0.51100000000E-03 0. -1.
        -11    1    3    3    0    0 -0.16867379315E+01 -0.12928996725E+02  0.26760172243E+01  0.13310338448E+02  0.51100000000E-03 0.  1.
         12    1    3    3    0    0 -0.89959891196E+01 -0.15806736434E+02  0.90284186657E+01  0.20305001368E+02  0.00000000000E+00 0. -1.
</event>
<event>
 7    1  0.4623443E-009  0.4614232E+02  0.7816164E-02  0.1320468E+00
        -11   -1    0    0    0    0  0.00000000000E+00  0.00000000000E+00  0.45593999997E+02  0.45594000000E+02  0.51100000000E-03 0. -1.
         11   -1    0    0    0    0 -0.00000000000E+00 -0.00000000000E+00 -0.45593999997E+02  0.45594000000E+02  0.51100000000E-03 0.  1.
    9900012    2    1    2    0    0 -0.17835089309E+02  0.29686202152E+02  0.28805426391E+02  0.46142316539E+02  0.99999888574E+01 0.  0.
        -12    1    1    2    0    0  0.17835089309E+02 -0.29686202152E+02 -0.28805426391E+02  0.45045683461E+02  0.00000000000E+00 0.  1.
         11    1    3    3    0    0 -0.40620391574E+01  0.43965941190E+01  0.49061718286E+01  0.77395558164E+01  0.51100000000E-03 0. -1.
        -11    1    3    3    0    0 -0.98043723497E+01  0.98468846048E+01  0.13453450489E+02  0.19341204304E+02  0.51100000000E-03 0.  1.
        -12    1    3    3    0    0 -0.39686778020E+01  0.15442723428E+02  0.10445804074E+02  0.19061556419E+02  0.00000000000E+00 0.  1.
</event>
<event>
 7    1  0.4623443E-009  0.4614232E+02  0.7816164E-02  0.1320468E+00
        -11   -1    0    0    0    0  0.00000000000E+00  0.00000000000E+00  0.45593999997E+02  0.45594000000E+02  0.51100000000E-03 0. -1.
         11   -1    0    0    0    0 -0.00000000000E+00 -0.00000000000E+00 -0.45593999997E+02  0.45594000000E+02  0.51100000000E-03 0.  1.
    9900012    2    1    2    0    0  0.33238966338E+02  0.21934095558E+02 -0.21051842860E+02  0.46142317421E+02  0.99999969021E+01 0.  0.
         12    1    1    2    0    0 -0.33238966338E+02 -0.21934095558E+02  0.21051842860E+02  0.45045682579E+02  0.00000000000E+00 0. -1.
         11    1    3    3    0    0  0.32856753406E+01  0.26053056639E+01 -0.39956810647E+01  0.57921280613E+01  0.51100000000E-03 0. -1.
        -11    1    3    3    0    0  0.83696069142E+01  0.69542503993E+01 -0.14417343937E+01  0.10976817245E+02  0.51100000000E-03 0.  1.
         12    1    3    3    0    0  0.21583684083E+02  0.12374539495E+02 -0.15614427401E+02  0.29373372115E+02  0.00000000000E+00 0. -1.
</event>
<event>
 7    1  0.4623443E-009  0.4614232E+02  0.7816164E-02  0.1320468E+00
        -11   -1    0    0    0    0  0.00000000000E+00  0.00000000000E+00  0.45593999997E+02  0.45594000000E+02  0.51100000000E-03 0. -1.
         11   -1    0    0    0    0 -0.00000000000E+00 -0.00000000000E+00 -0.45593999997E+02  0.45594000000E+02  0.51100000000E-03 0.  1.
    9900012    2    1    2    0    0 -0.24981776801E+00 -0.37995180759E+02  0.24195399768E+02  0.46142317190E+02  0.99999947933E+01 0.  0.
        -12    1    1    2    0    0  0.24981776801E+00  0.37995180759E+02 -0.24195399768E+02  0.45045682810E+02  0.00000000000E+00 0.  1.
         11    1    3    3    0    0 -0.80540989457E+00 -0.46643713152E+01  0.12996622561E+01  0.49085809666E+01  0.51100000000E-03 0. -1.
        -11    1    3    3    0    0  0.13290410165E+01 -0.18415722303E+02  0.79424947208E+01  0.20099462694E+02  0.51100000000E-03 0.  1.
         12    1    3    3    0    0 -0.77344888992E+00 -0.14915087142E+02  0.14953242792E+02  0.21134273529E+02  0.00000000000E+00 0. -1.
</event>
<event>
 7    1  0.4623443E-009  0.4614232E+02  0.7816164E-02  0.1320468E+00
        -11   -1    0    0    0    0  0.00000000000E+00  0.00000000000E+00  0.45593999997E+02  0.45594000000E+02  0.51100000000E-03 0. -1.
         11   -1    0    0    0    0 -0.00000000000E+00 -0.00000000000E+00 -0.45593999997E+02  0.45594000000E+02  0.51100000000E-03 0.  1.
    9900012    2    1    2    0    0  0.28880313944E+02 -0.34332467027E+02 -0.40401460404E+01  0.46142316459E+02  0.99999881248E+01 0.  0.
         12    1    1    2    0    0 -0.28880313944E+02  0.34332467027E+02  0.40401460404E+01  0.45045683541E+02  0.00000000000E+00 0. -1.
         11    1    3    3    0    0  0.83891312321E+01 -0.69516507974E+01 -0.34560374863E+01  0.11430099169E+02  0.51100000000E-03 0. -1.
        -11    1    3    3    0    0  0.96279352867E+01 -0.13388527568E+02 -0.32218075009E+01  0.16802673958E+02  0.51100000000E-03 0.  1.
        -12    1    3    3    0    0  0.10863247425E+02 -0.13992288662E+02  0.26376989468E+01  0.17909543332E+02  0.00000000000E+00 0.  1.
</event>
<event>
 7    1  0.4623443E-009  0.4614232E+02  0.7816164E-02  0.1320468E+00
        -11   -1    0    0    0    0  0.00000000000E+00  0.00000000000E+00  0.45593999997E+02  0.45594000000E+02  0.51100000000E-03 0. -1.
         11   -1    0    0    0    0 -0.00000000000E+00 -0.00000000000E+00 -0.45593999997E+02  0.45594000000E+02  0.51100000000E-03 0.  1.
    9900012    2    1    2    0    0  0.14680506273E+02  0.49000774565E+00  0.42583519402E+02  0.46142317668E+02  0.99999991547E+01 0.  0.
        -12    1    1    2    0    0 -0.14680506273E+02 -0.49000774565E+00 -0.42583519402E+02  0.45045682332E+02  0.00000000000E+00 0.  1.
         11    1    3    3    0    0  0.17484705279E+01 -0.10094615345E+01  0.17560128443E+02  0.17675810391E+02  0.51100000000E-03 0. -1.
        -11    1    3    3    0    0  0.61324080189E+01  0.25304388423E+01  0.13621512607E+02  0.15151077678E+02  0.51100000000E-03 0.  1.
         12    1    3    3    0    0  0.67996277262E+01 -0.10309695622E+01  0.11401878352E+02  0.13315429599E+02  0.00000000000E+00 0. -1.
</event>
<event>
 7    1  0.4623443E-009  0.4614232E+02  0.7816164E-02  0.1320468E+00
        -11   -1    0    0    0    0  0.00000000000E+00  0.00000000000E+00  0.45593999997E+02  0.45594000000E+02  0.51100000000E-03 0. -1.
         11   -1    0    0    0    0 -0.00000000000E+00 -0.00000000000E+00 -0.45593999997E+02  0.45594000000E+02  0.51100000000E-03 0.  1.
    9900012    2    1    2    0    0 -0.27666947755E+02  0.32373637148E+02  0.14683365459E+02  0.46142316506E+02  0.99999885515E+01 0.  0.
        -12    1    1    2    0    0  0.27666947755E+02 -0.32373637148E+02 -0.14683365459E+02  0.45045683494E+02  0.00000000000E+00 0.  1.
         11    1    3    3    0    0 -0.54792894916E+01  0.10821535805E+02  0.15293962780E+01  0.12225682139E+02  0.51100000000E-03 0. -1.
        -11    1    3    3    0    0 -0.21941923058E+02  0.21059028377E+02  0.12107705337E+02  0.32734189962E+02  0.51100000000E-03 0.  1.
        -12    1    3    3    0    0 -0.24573520569E+00  0.49307296585E+00  0.10462638438E+01  0.11824444054E+01  0.00000000000E+00 0.  1.
</event>
<event>
 7    1  0.4623443E-009  0.4614232E+02  0.7816164E-02  0.1320468E+00
        -11   -1    0    0    0    0  0.00000000000E+00  0.00000000000E+00  0.45593999997E+02  0.45594000000E+02  0.51100000000E-03 0. -1.
         11   -1    0    0    0    0 -0.00000000000E+00 -0.00000000000E+00 -0.45593999997E+02  0.45594000000E+02  0.51100000000E-03 0.  1.
    9900012    2    1    2    0    0  0.22247946440E+02  0.52427369645E+01  0.38815668653E+02  0.46142317136E+02  0.99999943001E+01 0.  0.
        -12    1    1    2    0    0 -0.22247946440E+02 -0.52427369645E+01 -0.38815668653E+02  0.45045682864E+02  0.00000000000E+00 0.  1.
         11    1    3    3    0    0  0.18823442244E+02  0.54875781729E+01  0.31296158734E+02  0.36930814287E+02  0.51100000000E-03 0. -1.
        -11    1    3    3    0    0  0.63887217059E+00 -0.14364407296E+01  0.50920386160E+01  0.53292004229E+01  0.51100000000E-03 0.  1.
        -12    1    3    3    0    0  0.27856320260E+01  0.11915995212E+01  0.24274713032E+01  0.38823024266E+01  0.00000000000E+00 0.  1.
</event>
<event>
 7    1  0.4623443E-009  0.4614232E+02  0.7816164E-02  0.1320468E+00
        -11   -1    0    0    0    0  0.00000000000E+00  0.00000000000E+00  0.45593999997E+02  0.45594000000E+02  0.51100000000E-03 0. -1.
         11   -1    0    0    0    0 -0.00000000000E+00 -0.00000000000E+00 -0.45593999997E+02  0.45594000000E+02  0.51100000000E-03 0.  1.
    9900012    2    1    2    0    0  0.32797438733E+02  0.68556308859E+00 -0.30870236333E+02  0.46142317904E+02  0.10000001308E+02 0.  0.
         12    1    1    2    0    0 -0.32797438733E+02 -0.68556308859E+00  0.30870236333E+02  0.45045682096E+02  0.00000000000E+00 0. -1.
         11    1    3    3    0    0  0.56206206651E+01  0.36912568199E+01 -0.68805440881E+01  0.96207401368E+01  0.51100000000E-03 0. -1.
        -11    1    3    3    0    0  0.14213519899E+02 -0.29225425862E+01 -0.13901584480E+02  0.20095259501E+02  0.51100000000E-03 0.  1.
        -12    1    3    3    0    0  0.12963298169E+02 -0.83151145152E-01 -0.10088107765E+02  0.16426318267E+02  0.00000000000E+00 0.  1.
</event>
<event>
 7    1  0.4623443E-009  0.4614232E+02  0.7816164E-02  0.1320468E+00
        -11   -1    0    0    0    0  0.00000000000E+00  0.00000000000E+00  0.45593999997E+02  0.45594000000E+02  0.51100000000E-03 0. -1.
         11   -1    0    0    0    0 -0.00000000000E+00 -0.00000000000E+00 -0.45593999997E+02  0.45594000000E+02  0.51100000000E-03 0.  1.
    9900012    2    1    2    0    0 -0.17896935430E+02  0.55306363823E+00 -0.41334093662E+02  0.46142317898E+02  0.10000001246E+02 0.  0.
         12    1    1    2    0    0  0.17896935430E+02 -0.55306363823E+00  0.41334093662E+02  0.45045682102E+02  0.00000000000E+00 0. -1.
         11    1    3    3    0    0 -0.12679145285E+01 -0.10943028548E+01 -0.12370521136E+02  0.12483384935E+02  0.51100000000E-03 0. -1.
        -11    1    3    3    0    0 -0.14011037897E+02  0.86329189046E+00 -0.26458038509E+02  0.29951331487E+02  0.51100000000E-03 0.  1.
        -12    1    3    3    0    0 -0.26179830039E+01  0.78407460259E+00 -0.25055340167E+01  0.37076014754E+01  0.00000000000E+00 0.  1.
</event>
<event>
 7    1  0.4623443E-009  0.4614232E+02  0.7816164E-02  0.1320468E+00
        -11   -1    0    0    0    0  0.00000000000E+00  0.00000000000E+00  0.45593999997E+02  0.45594000000E+02  0.51100000000E-03 0.  1.
         11   -1    0    0    0    0 -0.00000000000E+00 -0.00000000000E+00 -0.45593999997E+02  0.45594000000E+02  0.51100000000E-03 0. -1.
    9900012    2    1    2    0    0 -0.17508643384E+02  0.37928193871E+02  0.16852686470E+02  0.46142317358E+02  0.99999963211E+01 0.  0.
        -12    1    1    2    0    0  0.17508643384E+02 -0.37928193871E+02 -0.16852686470E+02  0.45045682642E+02  0.00000000000E+00 0.  1.
         11    1    3    3    0    0 -0.58877199864E+00  0.30362869401E+01 -0.44069717210E+00  0.31240846832E+01  0.51100000000E-03 0. -1.
        -11    1    3    3    0    0 -0.16104762466E+02  0.26987610288E+02  0.14281473178E+02  0.34520355727E+02  0.51100000000E-03 0.  1.
         12    1    3    3    0    0 -0.81510891969E+00  0.79042966432E+01  0.30119104642E+01  0.84978769477E+01  0.00000000000E+00 0. -1.
</event>
<event>
 7    1  0.4623443E-009  0.4614232E+02  0.7816164E-02  0.1320468E+00
        -11   -1    0    0    0    0  0.00000000000E+00  0.00000000000E+00  0.45593999997E+02  0.45594000000E+02  0.51100000000E-03 0. -1.
         11   -1    0    0    0    0 -0.00000000000E+00 -0.00000000000E+00 -0.45593999997E+02  0.45594000000E+02  0.51100000000E-03 0.  1.
    9900012    2    1    2    0    0 -0.15509801092E+02  0.41858037860E+02 -0.60385564345E+01  0.46142318440E+02  0.10000006189E+02 0.  0.
         12    1    1    2    0    0  0.15509801092E+02 -0.41858037860E+02  0.60385564345E+01  0.45045681560E+02  0.00000000000E+00 0. -1.
         11    1    3    3    0    0 -0.59176820947E+01  0.61550545747E+01 -0.13291897601E+01  0.86412038439E+01  0.51100000000E-03 0. -1.
        -11    1    3    3    0    0 -0.41361576132E+00  0.38424131632E+01  0.63628652004E+00  0.39166411262E+01  0.51100000000E-03 0.  1.
        -12    1    3    3    0    0 -0.91785032364E+01  0.31860570122E+02 -0.53456531945E+01  0.33584473470E+02  0.00000000000E+00 0.  1.
</event>
<event>
 7    1  0.4623443E-009  0.4614232E+02  0.7816164E-02  0.1320468E+00
        -11   -1    0    0    0    0  0.00000000000E+00  0.00000000000E+00  0.45593999997E+02  0.45594000000E+02  0.51100000000E-03 0. -1.
         11   -1    0    0    0    0 -0.00000000000E+00 -0.00000000000E+00 -0.45593999997E+02  0.45594000000E+02  0.51100000000E-03 0.  1.
    9900012    2    1    2    0    0  0.83418751494E+01 -0.29456865898E+02 -0.33042693650E+02  0.46142318373E+02  0.10000005584E+02 0.  0.
         12    1    1    2    0    0 -0.83418751494E+01  0.29456865898E+02  0.33042693650E+02  0.45045681627E+02  0.00000000000E+00 0. -1.
         11    1    3    3    0    0  0.45823202401E-01 -0.38624696560E+00  0.72716423554E-01  0.39569486184E+00  0.51100000000E-03 0. -1.
        -11    1    3    3    0    0  0.31582614222E+01 -0.22282424329E+02 -0.27558512345E+02  0.35580228388E+02  0.51100000000E-03 0.  1.
        -12    1    3    3    0    0  0.51377905248E+01 -0.67881946031E+01 -0.55568977290E+01  0.10166395124E+02  0.00000000000E+00 0.  1.
</event>
<event>
 7    1  0.4623443E-009  0.4614232E+02  0.7816164E-02  0.1320468E+00
        -11   -1    0    0    0    0  0.00000000000E+00  0.00000000000E+00  0.45593999997E+02  0.45594000000E+02  0.51100000000E-03 0. -1.
         11   -1    0    0    0    0 -0.00000000000E+00 -0.00000000000E+00 -0.45593999997E+02  0.45594000000E+02  0.51100000000E-03 0.  1.
    9900012    2    1    2    0    0  0.26210295744E+02 -0.10804081509E+02 -0.35005795083E+02  0.46142317969E+02  0.10000001897E+02 0.  0.
         12    1    1    2    0    0 -0.26210295744E+02  0.10804081509E+02  0.35005795083E+02  0.45045682031E+02  0.00000000000E+00 0. -1.
         11    1    3    3    0    0 -0.39436571310E+00 -0.15567981153E+01 -0.30417475893E+01  0.34396763432E+01  0.51100000000E-03 0. -1.
        -11    1    3    3    0    0  0.11987739303E+02 -0.37269459500E+01 -0.12164235022E+02  0.17480407137E+02  0.51100000000E-03 0.  1.
         12    1    3    3    0    0  0.14616922153E+02 -0.55203374438E+01 -0.19799812472E+02  0.25222234489E+02  0.00000000000E+00 0. -1.
</event>
<event>
 7    1  0.4623443E-009  0.4614232E+02  0.7816164E-02  0.1320468E+00
        -11   -1    0    0    0    0  0.00000000000E+00  0.00000000000E+00  0.45593999997E+02  0.45594000000E+02  0.51100000000E-03 0. -1.
         11   -1    0    0    0    0 -0.00000000000E+00 -0.00000000000E+00 -0.45593999997E+02  0.45594000000E+02  0.51100000000E-03 0.  1.
    9900012    2    1    2    0    0  0.91747886542E+01  0.33889447253E+02  0.28221306077E+02  0.46142317647E+02  0.99999989600E+01 0.  0.
        -12    1    1    2    0    0 -0.91747886542E+01 -0.33889447253E+02 -0.28221306077E+02  0.45045682353E+02  0.00000000000E+00 0.  1.
         11    1    3    3    0    0  0.11012692296E+00  0.11734026775E+02  0.10682580118E+02  0.15868743824E+02  0.51100000000E-03 0. -1.
        -11    1    3    3    0    0  0.93648757861E+01  0.20775111732E+02  0.17695968236E+02  0.28852269548E+02  0.51100000000E-03 0.  1.
        -12    1    3    3    0    0 -0.30021405489E+00  0.13803087454E+01 -0.15724227681E+00  0.14213042760E+01  0.00000000000E+00 0.  1.
</event>
<event>
 7    1  0.4623443E-009  0.4614232E+02  0.7816164E-02  0.1320468E+00
        -11   -1    0    0    0    0  0.00000000000E+00  0.00000000000E+00  0.45593999997E+02  0.45594000000E+02  0.51100000000E-03 0. -1.
         11   -1    0    0    0    0 -0.00000000000E+00 -0.00000000000E+00 -0.45593999997E+02  0.45594000000E+02  0.51100000000E-03 0.  1.
    9900012    2    1    2    0    0 -0.20601330139E+02 -0.38036541978E+02  0.12566633817E+02  0.46142316360E+02  0.99999872219E+01 0.  0.
        -12    1    1    2    0    0  0.20601330139E+02  0.38036541978E+02 -0.12566633817E+02  0.45045683640E+02  0.00000000000E+00 0.  1.
         11    1    3    3    0    0 -0.45201415877E+00 -0.56567654272E+01  0.20553890653E+01  0.60355560115E+01  0.51100000000E-03 0. -1.
        -11    1    3    3    0    0 -0.12188598757E+02 -0.13582529122E+02  0.58925666730E+01  0.19177314183E+02  0.51100000000E-03 0.  1.
        -12    1    3    3    0    0 -0.79607172234E+01 -0.18797247428E+02  0.46186780782E+01  0.20929446165E+02  0.00000000000E+00 0.  1.
</event>
<event>
 7    1  0.4623443E-009  0.4614232E+02  0.7816164E-02  0.1320468E+00
        -11   -1    0    0    0    0  0.00000000000E+00  0.00000000000E+00  0.45593999997E+02  0.45594000000E+02  0.51100000000E-03 0. -1.
         11   -1    0    0    0    0 -0.00000000000E+00 -0.00000000000E+00 -0.45593999997E+02  0.45594000000E+02  0.51100000000E-03 0.  1.
    9900012    2    1    2    0    0  0.11971891517E+02 -0.56152640787E+01 -0.43061073134E+02  0.46142318779E+02  0.10000009285E+02 0.  0.
         12    1    1    2    0    0 -0.11971891517E+02  0.56152640787E+01  0.43061073134E+02  0.45045681221E+02  0.00000000000E+00 0. -1.
         11    1    3    3    0    0 -0.48664345960E+00 -0.17447700633E+01 -0.43205550679E+01  0.46848949600E+01  0.51100000000E-03 0.  1.
        -11    1    3    3    0    0  0.23165050214E+01 -0.39865494922E+01 -0.11494523738E+02  0.12384782945E+02  0.51100000000E-03 0. -1.
        -12    1    3    3    0    0  0.10142029955E+02  0.11605547676E+00 -0.27245994328E+02  0.29072640875E+02  0.00000000000E+00 0.  1.
</event>
<event>
 7    1  0.4623443E-009  0.4614232E+02  0.7816164E-02  0.1320468E+00
        -11   -1    0    0    0    0  0.00000000000E+00  0.00000000000E+00  0.45593999997E+02  0.45594000000E+02  0.51100000000E-03 0. -1.
         11   -1    0    0    0    0 -0.00000000000E+00 -0.00000000000E+00 -0.45593999997E+02  0.45594000000E+02  0.51100000000E-03 0.  1.
    9900012    2    1    2    0    0  0.18466234984E+02  0.72648763745E+01 -0.40439252639E+02  0.46142318551E+02  0.10000007200E+02 0.  0.
         12    1    1    2    0    0 -0.18466234984E+02 -0.72648763745E+01  0.40439252639E+02  0.45045681449E+02  0.00000000000E+00 0. -1.
         11    1    3    3    0    0  0.15501341279E+01  0.23069803949E+00 -0.80044796449E+00  0.17597882273E+01  0.51100000000E-03 0. -1.
        -11    1    3    3    0    0  0.10752344270E+02  0.24522720663E+01 -0.30570375462E+02  0.32498836929E+02  0.51100000000E-03 0.  1.
        -12    1    3    3    0    0  0.61637565859E+01  0.45819062687E+01 -0.90684292122E+01  0.11883693394E+02  0.00000000000E+00 0.  1.
</event>
<event>
 7    1  0.4623443E-009  0.4614232E+02  0.7816164E-02  0.1320468E+00
        -11   -1    0    0    0    0  0.00000000000E+00  0.00000000000E+00  0.45593999997E+02  0.45594000000E+02  0.51100000000E-03 0. -1.
         11   -1    0    0    0    0 -0.00000000000E+00 -0.00000000000E+00 -0.45593999997E+02  0.45594000000E+02  0.51100000000E-03 0.  1.
    9900012    2    1    2    0    0  0.60208231290E+01  0.22520016788E+02 -0.38544935212E+02  0.46142317656E+02  0.99999990437E+01 0.  0.
         12    1    1    2    0    0 -0.60208231290E+01 -0.22520016788E+02  0.38544935212E+02  0.45045682344E+02  0.00000000000E+00 0. -1.
         11    1    3    3    0    0  0.97149852178E+00  0.11427199585E+02 -0.13155799236E+02  0.17452786412E+02  0.51100000000E-03 0. -1.
        -11    1    3    3    0    0  0.48819806542E+00  0.62159356137E+01 -0.86099860671E+01  0.10630524599E+02  0.51100000000E-03 0.  1.
        -12    1    3    3    0    0  0.45611265418E+01  0.48768815898E+01 -0.16779149909E+02  0.18059006646E+02  0.00000000000E+00 0.  1.
</event>
<event>
 7    1  0.4623443E-009  0.4614232E+02  0.7816164E-02  0.1320468E+00
        -11   -1    0    0    0    0  0.00000000000E+00  0.00000000000E+00  0.45593999997E+02  0.45594000000E+02  0.51100000000E-03 0. -1.
         11   -1    0    0    0    0 -0.00000000000E+00 -0.00000000000E+00 -0.45593999997E+02  0.45594000000E+02  0.51100000000E-03 0.  1.
    9900012    2    1    2    0    0 -0.77044732419E+00  0.17156465375E+02  0.41643435440E+02  0.46142316427E+02  0.99999878367E+01 0.  0.
        -12    1    1    2    0    0  0.77044732419E+00 -0.17156465375E+02 -0.41643435440E+02  0.45045683573E+02  0.00000000000E+00 0.  1.
         11    1    3    3    0    0  0.15374438262E+00  0.38119034924E+01  0.10227907734E+02  0.10916242140E+02  0.51100000000E-03 0. -1.
        -11    1    3    3    0    0 -0.17308108812E+00  0.13879761199E+02  0.31368624710E+02  0.34302599675E+02  0.51100000000E-03 0.  1.
         12    1    3    3    0    0 -0.75111061869E+00 -0.53519931624E+00  0.46902996651E-01  0.92347461292E+00  0.00000000000E+00 0. -1.
</event>
<event>
 7    1  0.5891640E-009  0.4614232E+02  0.7816164E-02  0.1320468E+00
        -11   -1    0    0    0    0  0.00000000000E+00  0.00000000000E+00  0.45593999997E+02  0.45594000000E+02  0.51100000000E-03 0. -1.
         11   -1    0    0    0    0 -0.00000000000E+00 -0.00000000000E+00 -0.45593999997E+02  0.45594000000E+02  0.51100000000E-03 0.  1.
    9900012    2    1    2    0    0  0.90115027716E+01 -0.24208587043E+02 -0.36903260687E+02  0.46142317431E+02  0.99999969862E+01 0.  0.
         12    1    1    2    0    0 -0.90115027716E+01  0.24208587043E+02  0.36903260687E+02  0.45045682569E+02  0.00000000000E+00 0. -1.
         11    1    3    3    0    0  0.48807231110E+01 -0.11055248755E+02 -0.14912386194E+02  0.19194250321E+02  0.51100000000E-03 0. -1.
        -11    1    3    3    0    0  0.35987734958E+01 -0.12399662031E+02 -0.22464887502E+02  0.25910884969E+02  0.51100000000E-03 0.  1.
         12    1    3    3    0    0  0.53200616481E+00 -0.75367625713E+00  0.47401300899E+00  0.10371821405E+01  0.00000000000E+00 0. -1.
</event>
<event>
 7    1  0.4623443E-009  0.4614232E+02  0.7816164E-02  0.1320468E+00
        -11   -1    0    0    0    0  0.00000000000E+00  0.00000000000E+00  0.45593999997E+02  0.45594000000E+02  0.51100000000E-03 0. -1.
         11   -1    0    0    0    0 -0.00000000000E+00 -0.00000000000E+00 -0.45593999997E+02  0.45594000000E+02  0.51100000000E-03 0.  1.
    9900012    2    1    2    0    0  0.73459943122E+01 -0.27458872491E+02 -0.34945102242E+02  0.46142317836E+02  0.10000000684E+02 0.  0.
         12    1    1    2    0    0 -0.73459943122E+01  0.27458872491E+02  0.34945102242E+02  0.45045682164E+02  0.00000000000E+00 0. -1.
         11    1    3    3    0    0 -0.74320091427E+00 -0.54120497442E+00  0.14450987876E+00  0.93066309129E+00  0.51100000000E-03 0. -1.
        -11    1    3    3    0    0  0.47167920806E+01 -0.93897034290E+01 -0.15307957026E+02  0.18567396333E+02  0.51100000000E-03 0.  1.
        -12    1    3    3    0    0  0.33724031458E+01 -0.17527964088E+02 -0.19781655094E+02  0.26644258412E+02  0.00000000000E+00 0.  1.
</event>
<event>
 7    1  0.4623443E-009  0.4614233E+02  0.7816164E-02  0.1320468E+00
        -11   -1    0    0    0    0  0.00000000000E+00  0.00000000000E+00  0.45593999997E+02  0.45594000000E+02  0.51100000000E-03 0.  1.
         11   -1    0    0    0    0 -0.00000000000E+00 -0.00000000000E+00 -0.45593999997E+02  0.45594000000E+02  0.51100000000E-03 0. -1.
    9900012    2    1    2    0    0  0.22555856484E+02  0.34637525792E+02 -0.17904963750E+02  0.46142327826E+02  0.10000091778E+02 0.  0.
         12    1    1    2    0    0 -0.22555856484E+02 -0.34637525792E+02  0.17904963750E+02  0.45045672174E+02  0.00000000000E+00 0. -1.
         11    1    3    3    0    0 -0.74266190776E-01  0.33659495275E+00 -0.65707145096E+00  0.74199378846E+00  0.51100000000E-03 0. -1.
        -11    1    3    3    0    0  0.15874296506E+02  0.19253641277E+02 -0.13919493380E+02  0.28573559250E+02  0.51100000000E-03 0.  1.
        -12    1    3    3    0    0  0.67558261696E+01  0.15047289562E+02 -0.33283989193E+01  0.16826774788E+02  0.00000000000E+00 0.  1.
</event>
<event>
 7    1  0.4623443E-009  0.4614232E+02  0.7816164E-02  0.1320468E+00
        -11   -1    0    0    0    0  0.00000000000E+00  0.00000000000E+00  0.45593999997E+02  0.45594000000E+02  0.51100000000E-03 0. -1.
         11   -1    0    0    0    0 -0.00000000000E+00 -0.00000000000E+00 -0.45593999997E+02  0.45594000000E+02  0.51100000000E-03 0.  1.
    9900012    2    1    2    0    0  0.22571701794E+02 -0.17454386436E+02 -0.34856505883E+02  0.46142319518E+02  0.10000016017E+02 0.  0.
         12    1    1    2    0    0 -0.22571701794E+02  0.17454386436E+02  0.34856505883E+02  0.45045680482E+02  0.00000000000E+00 0. -1.
         11    1    3    3    0    0  0.16141979161E+01 -0.17919111697E+01 -0.74140024778E+00  0.25231439002E+01  0.51100000000E-03 0. -1.
        -11    1    3    3    0    0  0.25992401326E+01 -0.33195917786E+01 -0.10223551705E+02  0.11058786035E+02  0.51100000000E-03 0.  1.
         12    1    3    3    0    0  0.18358263746E+02 -0.12342883488E+02 -0.23891553930E+02  0.32560389582E+02  0.00000000000E+00 0. -1.
</event>
<event>
 7    1  0.4623443E-009  0.4614232E+02  0.7816164E-02  0.1320468E+00
        -11   -1    0    0    0    0  0.00000000000E+00  0.00000000000E+00  0.45593999997E+02  0.45594000000E+02  0.51100000000E-03 0. -1.
         11   -1    0    0    0    0 -0.00000000000E+00 -0.00000000000E+00 -0.45593999997E+02  0.45594000000E+02  0.51100000000E-03 0.  1.
    9900012    2    1    2    0    0 -0.75652045965E+01 -0.11640111671E+02 -0.42853110450E+02  0.46142316571E+02  0.99999891510E+01 0.  0.
         12    1    1    2    0    0  0.75652045965E+01  0.11640111671E+02  0.42853110450E+02  0.45045683429E+02  0.00000000000E+00 0. -1.
         11    1    3    3    0    0 -0.18367746371E+01 -0.13715130805E+01 -0.19283993288E+01  0.29955823190E+01  0.51100000000E-03 0. -1.
        -11    1    3    3    0    0 -0.17505172849E+01 -0.92845676872E+01 -0.25756356905E+02  0.27434602770E+02  0.51100000000E-03 0.  1.
         12    1    3    3    0    0 -0.39779126745E+01 -0.98403090293E+00 -0.15168354217E+02  0.15712131482E+02  0.00000000000E+00 0. -1.
</event>
<event>
 7    1  0.4623443E-009  0.4614232E+02  0.7816164E-02  0.1320468E+00
        -11   -1    0    0    0    0  0.00000000000E+00  0.00000000000E+00  0.45593999997E+02  0.45594000000E+02  0.51100000000E-03 0.  1.
         11   -1    0    0    0    0 -0.00000000000E+00 -0.00000000000E+00 -0.45593999997E+02  0.45594000000E+02  0.51100000000E-03 0. -1.
    9900012    2    1    2    0    0 -0.20506647593E+01  0.41474423292E+02  0.17457962905E+02  0.46142317831E+02  0.10000000633E+02 0.  0.
        -12    1    1    2    0    0  0.20506647593E+01 -0.41474423292E+02 -0.17457962905E+02  0.45045682169E+02  0.00000000000E+00 0.  1.
         11    1    3    3    0    0 -0.42367440661E+00  0.13248479402E+02  0.44276247084E+01  0.13975176825E+02  0.51100000000E-03 0. -1.
        -11    1    3    3    0    0 -0.28396275915E+01  0.20128574859E+02  0.12707779188E+02  0.23973123761E+02  0.51100000000E-03 0.  1.
        -12    1    3    3    0    0  0.12126372388E+01  0.80973690303E+01  0.32255900865E+00  0.81940172443E+01  0.00000000000E+00 0.  1.
</event>
<event>
 7    1  0.4623443E-009  0.4614231E+02  0.7816164E-02  0.1320468E+00
        -11   -1    0    0    0    0  0.00000000000E+00  0.00000000000E+00  0.45593999997E+02  0.45594000000E+02  0.51100000000E-03 0. -1.
         11   -1    0    0    0    0 -0.00000000000E+00 -0.00000000000E+00 -0.45593999997E+02  0.45594000000E+02  0.51100000000E-03 0.  1.
    9900012    2    1    2    0    0 -0.42031396513E+02 -0.16200839916E+02  0.92379922060E-01  0.46142311629E+02  0.99999440816E+01 0.  0.
        -12    1    1    2    0    0  0.42031396513E+02  0.16200839916E+02 -0.92379922060E-01  0.45045688371E+02  0.00000000000E+00 0.  1.
         11    1    3    3    0    0 -0.27628360815E+02 -0.13149034093E+02  0.40322385072E+00  0.30600424975E+02  0.51100000000E-03 0. -1.
        -11    1    3    3    0    0 -0.13646430972E+02 -0.16260622919E+01 -0.10160841778E+01  0.13780478372E+02  0.51100000000E-03 0.  1.
        -12    1    3    3    0    0 -0.75660472585E+00 -0.14257435311E+01  0.70524024912E+00  0.17614082822E+01  0.00000000000E+00 0.  1.
</event>
<event>
 7    1  0.4623443E-009  0.4614232E+02  0.7816164E-02  0.1320468E+00
        -11   -1    0    0    0    0  0.00000000000E+00  0.00000000000E+00  0.45593999997E+02  0.45594000000E+02  0.51100000000E-03 0. -1.
         11   -1    0    0    0    0 -0.00000000000E+00 -0.00000000000E+00 -0.45593999997E+02  0.45594000000E+02  0.51100000000E-03 0.  1.
    9900012    2    1    2    0    0 -0.30859429117E+02  0.17962618238E+02  0.27461846382E+02  0.46142322892E+02  0.10000046791E+02 0.  0.
        -12    1    1    2    0    0  0.30859429117E+02 -0.17962618238E+02 -0.27461846382E+02  0.45045677108E+02  0.00000000000E+00 0.  1.
         11    1    3    3    0    0 -0.14465309286E+02  0.82598638044E+01  0.16865584257E+02  0.23704819244E+02  0.51100000000E-03 0. -1.
        -11    1    3    3    0    0 -0.11459810858E+02  0.93294726150E+01  0.86306950724E+01  0.17113013231E+02  0.51100000000E-03 0.  1.
         12    1    3    3    0    0 -0.49343089736E+01  0.37328181849E+00  0.19655670527E+01  0.53244904170E+01  0.00000000000E+00 0. -1.
</event>
<event>
 7    1  0.4623443E-009  0.4614232E+02  0.7816164E-02  0.1320468E+00
        -11   -1    0    0    0    0  0.00000000000E+00  0.00000000000E+00  0.45593999997E+02  0.45594000000E+02  0.51100000000E-03 0. -1.
         11   -1    0    0    0    0 -0.00000000000E+00 -0.00000000000E+00 -0.45593999997E+02  0.45594000000E+02  0.51100000000E-03 0.  1.
    9900012    2    1    2    0    0 -0.11529547435E+02  0.37182877900E+02  0.22663109726E+02  0.46142318571E+02  0.10000007382E+02 0.  0.
        -12    1    1    2    0    0  0.11529547435E+02 -0.37182877900E+02 -0.22663109726E+02  0.45045681429E+02  0.00000000000E+00 0.  1.
         11    1    3    3    0    0 -0.69725249882E+01  0.12061360828E+02  0.65236259416E+01  0.15383439974E+02  0.51100000000E-03 0. -1.
        -11    1    3    3    0    0  0.95633935059E+00  0.71630260942E+01  0.29511114989E+01  0.78059328155E+01  0.51100000000E-03 0.  1.
         12    1    3    3    0    0 -0.55133617978E+01  0.17958490977E+02  0.13188372285E+02  0.22952945781E+02  0.00000000000E+00 0. -1.
</event>
<event>
 7    1  0.4623443E-009  0.4614232E+02  0.7816164E-02  0.1320468E+00
        -11   -1    0    0    0    0  0.00000000000E+00  0.00000000000E+00  0.45593999997E+02  0.45594000000E+02  0.51100000000E-03 0. -1.
         11   -1    0    0    0    0 -0.00000000000E+00 -0.00000000000E+00 -0.45593999997E+02  0.45594000000E+02  0.51100000000E-03 0.  1.
    9900012    2    1    2    0    0  0.60139049277E+01  0.35751167578E+02  0.26735752198E+02  0.46142317840E+02  0.10000000718E+02 0.  0.
        -12    1    1    2    0    0 -0.60139049277E+01 -0.35751167578E+02 -0.26735752198E+02  0.45045682160E+02  0.00000000000E+00 0.  1.
         11    1    3    3    0    0  0.35557966433E+01  0.14456326320E+02  0.13016392427E+02  0.19775124083E+02  0.51100000000E-03 0. -1.
        -11    1    3    3    0    0  0.42058554740E+01  0.13521746400E+02  0.63682942935E+01  0.15526816108E+02  0.51100000000E-03 0.  1.
        -12    1    3    3    0    0 -0.17477471896E+01  0.77730948584E+01  0.73510654772E+01  0.10840377649E+02  0.00000000000E+00 0.  1.
</event>
<event>
 7    1  0.4623443E-009  0.4614232E+02  0.7816164E-02  0.1320468E+00
        -11   -1    0    0    0    0  0.00000000000E+00  0.00000000000E+00  0.45593999997E+02  0.45594000000E+02  0.51100000000E-03 0. -1.
         11   -1    0    0    0    0 -0.00000000000E+00 -0.00000000000E+00 -0.45593999997E+02  0.45594000000E+02  0.51100000000E-03 0.  1.
    9900012    2    1    2    0    0 -0.14167649064E+02  0.12099726672E+02 -0.41012042624E+02  0.46142319789E+02  0.10000018490E+02 0.  0.
         12    1    1    2    0    0  0.14167649064E+02 -0.12099726672E+02  0.41012042624E+02  0.45045680211E+02  0.00000000000E+00 0. -1.
         11    1    3    3    0    0  0.54686760981E-01  0.37485890655E+00 -0.72984020950E+01  0.73082270930E+01  0.51100000000E-03 0. -1.
        -11    1    3    3    0    0 -0.32405023006E+01  0.31851800342E+00 -0.39336452590E+01  0.51064541674E+01  0.51100000000E-03 0.  1.
        -12    1    3    3    0    0 -0.10981833524E+02  0.11406349762E+02 -0.29779995270E+02  0.33727638528E+02  0.00000000000E+00 0.  1.
</event>
<event>
 7    1  0.4623443E-009  0.4614232E+02  0.7816164E-02  0.1320468E+00
        -11   -1    0    0    0    0  0.00000000000E+00  0.00000000000E+00  0.45593999997E+02  0.45594000000E+02  0.51100000000E-03 0. -1.
         11   -1    0    0    0    0 -0.00000000000E+00 -0.00000000000E+00 -0.45593999997E+02  0.45594000000E+02  0.51100000000E-03 0.  1.
    9900012    2    1    2    0    0 -0.41296351268E+01  0.41415024945E+02  0.17229493175E+02  0.46142316382E+02  0.99999874281E+01 0.  0.
        -12    1    1    2    0    0  0.41296351268E+01 -0.41415024945E+02 -0.17229493175E+02  0.45045683618E+02  0.00000000000E+00 0.  1.
         11    1    3    3    0    0 -0.43549207571E+01  0.32160446794E+02  0.16235241967E+02  0.36288328079E+02  0.51100000000E-03 0. -1.
        -11    1    3    3    0    0  0.72961044510E-01  0.33662915687E+01  0.19435074084E+01  0.38877324429E+01  0.51100000000E-03 0.  1.
         12    1    3    3    0    0  0.15232458580E+00  0.58882865823E+01 -0.94925620032E+00  0.59662558601E+01  0.00000000000E+00 0. -1.
</event>
<event>
 7    1  0.4623443E-009  0.4614232E+02  0.7816164E-02  0.1320468E+00
        -11   -1    0    0    0    0  0.00000000000E+00  0.00000000000E+00  0.45593999997E+02  0.45594000000E+02  0.51100000000E-03 0. -1.
         11   -1    0    0    0    0 -0.00000000000E+00 -0.00000000000E+00 -0.45593999997E+02  0.45594000000E+02  0.51100000000E-03 0.  1.
    9900012    2    1    2    0    0  0.27765597168E+02  0.21516956899E+02  0.28199390405E+02  0.46142318303E+02  0.10000004944E+02 0.  0.
        -12    1    1    2    0    0 -0.27765597168E+02 -0.21516956899E+02 -0.28199390405E+02  0.45045681697E+02  0.00000000000E+00 0.  1.
         11    1    3    3    0    0  0.46938991159E+01  0.29088119614E+01  0.19273073271E+01  0.58487938698E+01  0.51100000000E-03 0. -1.
        -11    1    3    3    0    0  0.76170326464E+01  0.36305222311E+01  0.11183531247E+02  0.14009684130E+02  0.51100000000E-03 0.  1.
         12    1    3    3    0    0  0.15454665406E+02  0.14977622707E+02  0.15088551831E+02  0.26283840303E+02  0.00000000000E+00 0. -1.
</event>
<event>
 7    1  0.4623443E-009  0.4614232E+02  0.7816164E-02  0.1320468E+00
        -11   -1    0    0    0    0  0.00000000000E+00  0.00000000000E+00  0.45593999997E+02  0.45594000000E+02  0.51100000000E-03 0. -1.
         11   -1    0    0    0    0 -0.00000000000E+00 -0.00000000000E+00 -0.45593999997E+02  0.45594000000E+02  0.51100000000E-03 0.  1.
    9900012    2    1    2    0    0 -0.19689752284E+02  0.18688336932E+02  0.35946811225E+02  0.46142317415E+02  0.99999968434E+01 0.  0.
        -12    1    1    2    0    0  0.19689752284E+02 -0.18688336932E+02 -0.35946811225E+02  0.45045682585E+02  0.00000000000E+00 0.  1.
         11    1    3    3    0    0 -0.91292620903E+01  0.12185317464E+02  0.15458835505E+02  0.21697948830E+02  0.51100000000E-03 0. -1.
        -11    1    3    3    0    0 -0.48516898693E+00 -0.68149706227E+00  0.63376227781E+00  0.10495151631E+01  0.51100000000E-03 0.  1.
        -12    1    3    3    0    0 -0.10075321207E+02  0.71845165303E+01  0.19854213443E+02  0.23394853422E+02  0.00000000000E+00 0.  1.
</event>
<event>
 7    1  0.4623443E-009  0.4614232E+02  0.7816164E-02  0.1320468E+00
        -11   -1    0    0    0    0  0.00000000000E+00  0.00000000000E+00  0.45593999997E+02  0.45594000000E+02  0.51100000000E-03 0. -1.
         11   -1    0    0    0    0 -0.00000000000E+00 -0.00000000000E+00 -0.45593999997E+02  0.45594000000E+02  0.51100000000E-03 0.  1.
    9900012    2    1    2    0    0  0.18952823167E+02 -0.51775760580E-01 -0.40864424537E+02  0.46142318970E+02  0.10000011019E+02 0.  0.
         12    1    1    2    0    0 -0.18952823167E+02  0.51775760580E-01  0.40864424537E+02  0.45045681030E+02  0.00000000000E+00 0. -1.
         11    1    3    3    0    0  0.14489257522E+01  0.18604026522E+01 -0.65423748447E+01  0.69543621370E+01  0.51100000000E-03 0.  1.
        -11    1    3    3    0    0  0.30966797708E+01  0.13600379993E+01 -0.28584431957E+01  0.44282984008E+01  0.51100000000E-03 0. -1.
        -12    1    3    3    0    0  0.14407217644E+02 -0.32722164121E+01 -0.31463606497E+02  0.34759658432E+02  0.00000000000E+00 0.  1.
</event>
<event>
 7    1  0.4623443E-009  0.4614232E+02  0.7816164E-02  0.1320468E+00
        -11   -1    0    0    0    0  0.00000000000E+00  0.00000000000E+00  0.45593999997E+02  0.45594000000E+02  0.51100000000E-03 0. -1.
         11   -1    0    0    0    0 -0.00000000000E+00 -0.00000000000E+00 -0.45593999997E+02  0.45594000000E+02  0.51100000000E-03 0.  1.
    9900012    2    1    2    0    0 -0.18590760127E+02  0.20329030019E+02  0.35640254840E+02  0.46142316648E+02  0.99999898476E+01 0.  0.
        -12    1    1    2    0    0  0.18590760127E+02 -0.20329030019E+02 -0.35640254840E+02  0.45045683352E+02  0.00000000000E+00 0.  1.
         11    1    3    3    0    0 -0.34288952799E+01  0.24931046869E+01  0.80971792827E+01  0.91398690591E+01  0.51100000000E-03 0. -1.
        -11    1    3    3    0    0  0.10885615822E+00 -0.11351361859E+00 -0.41100225106E+00  0.44006603628E+00  0.51100000000E-03 0.  1.
         12    1    3    3    0    0 -0.15270721006E+02  0.17949438951E+02  0.27954077808E+02  0.36562381552E+02  0.00000000000E+00 0. -1.
</event>
<event>
 7    1  0.4623443E-009  0.4614232E+02  0.7816164E-02  0.1320468E+00
        -11   -1    0    0    0    0  0.00000000000E+00  0.00000000000E+00  0.45593999997E+02  0.45594000000E+02  0.51100000000E-03 0. -1.
         11   -1    0    0    0    0 -0.00000000000E+00 -0.00000000000E+00 -0.45593999997E+02  0.45594000000E+02  0.51100000000E-03 0.  1.
    9900012    2    1    2    0    0  0.16674877835E+02  0.18555906819E+02 -0.37506534395E+02  0.46142319286E+02  0.10000013906E+02 0.  0.
         12    1    1    2    0    0 -0.16674877835E+02 -0.18555906819E+02  0.37506534395E+02  0.45045680714E+02  0.00000000000E+00 0. -1.
         11    1    3    3    0    0  0.52633360519E+01  0.11107948534E+02 -0.18734349632E+02  0.22406808863E+02  0.51100000000E-03 0.  1.
        -11    1    3    3    0    0  0.75616783062E+00  0.21514996652E+01 -0.13904030388E+01  0.26709476724E+01  0.51100000000E-03 0. -1.
        -12    1    3    3    0    0  0.10655373952E+02  0.52964586193E+01 -0.17381781724E+02  0.21064562751E+02  0.00000000000E+00 0.  1.
</event>
<event>
 7    1  0.4623443E-009  0.4614232E+02  0.7816164E-02  0.1320468E+00
        -11   -1    0    0    0    0  0.00000000000E+00  0.00000000000E+00  0.45593999997E+02  0.45594000000E+02  0.51100000000E-03 0. -1.
         11   -1    0    0    0    0 -0.00000000000E+00 -0.00000000000E+00 -0.45593999997E+02  0.45594000000E+02  0.51100000000E-03 0.  1.
    9900012    2    1    2    0    0  0.39568569325E+02 -0.20128240274E+02  0.76351729278E+01  0.46142316515E+02  0.99999886369E+01 0.  0.
        -12    1    1    2    0    0 -0.39568569325E+02  0.20128240274E+02 -0.76351729278E+01  0.45045683485E+02  0.00000000000E+00 0.  1.
         11    1    3    3    0    0  0.27420058833E+01  0.60773296931E+00  0.78677075492E+00  0.29166666090E+01  0.51100000000E-03 0. -1.
        -11    1    3    3    0    0  0.11110927914E+01 -0.59412750526E+00  0.13641504400E+01  0.18569925599E+01  0.51100000000E-03 0.  1.
         12    1    3    3    0    0  0.35715470651E+02 -0.20141845738E+02  0.54842517328E+01  0.41368657346E+02  0.00000000000E+00 0. -1.
</event>
<event>
 7    1  0.4623443E-009  0.4614232E+02  0.7816164E-02  0.1320468E+00
        -11   -1    0    0    0    0  0.00000000000E+00  0.00000000000E+00  0.45593999997E+02  0.45594000000E+02  0.51100000000E-03 0. -1.
         11   -1    0    0    0    0 -0.00000000000E+00 -0.00000000000E+00 -0.45593999997E+02  0.45594000000E+02  0.51100000000E-03 0.  1.
    9900012    2    1    2    0    0 -0.18072879802E+02 -0.33587941977E+02 -0.23965281384E+02  0.46142317162E+02  0.99999945325E+01 0.  0.
         12    1    1    2    0    0  0.18072879802E+02  0.33587941977E+02  0.23965281384E+02  0.45045682838E+02  0.00000000000E+00 0. -1.
         11    1    3    3    0    0 -0.91770568018E+01 -0.11250604814E+02 -0.11162407380E+02  0.18313760373E+02  0.51100000000E-03 0. -1.
        -11    1    3    3    0    0 -0.22077853892E+01 -0.34819293341E+01 -0.46773177685E+01  0.62350180418E+01  0.51100000000E-03 0.  1.
         12    1    3    3    0    0 -0.66880376112E+01 -0.18855407829E+02 -0.81255562360E+01  0.21593538747E+02  0.00000000000E+00 0. -1.
</event>
<event>
 7    1  0.4623443E-009  0.4614232E+02  0.7816164E-02  0.1320468E+00
        -11   -1    0    0    0    0  0.00000000000E+00  0.00000000000E+00  0.45593999997E+02  0.45594000000E+02  0.51100000000E-03 0. -1.
         11   -1    0    0    0    0 -0.00000000000E+00 -0.00000000000E+00 -0.45593999997E+02  0.45594000000E+02  0.51100000000E-03 0.  1.
    9900012    2    1    2    0    0  0.11719196289E+02  0.17269705635E+02 -0.39919057877E+02  0.46142317896E+02  0.10000001233E+02 0.  0.
         12    1    1    2    0    0 -0.11719196289E+02 -0.17269705635E+02  0.39919057877E+02  0.45045682104E+02  0.00000000000E+00 0. -1.
         11    1    3    3    0    0 -0.21200042082E-01  0.61815882044E+00 -0.78305357968E+00  0.99786919927E+00  0.51100000000E-03 0.  1.
        -11    1    3    3    0    0 -0.82060018085E+00  0.34077711930E+01 -0.11518536020E+02  0.12040056539E+02  0.51100000000E-03 0. -1.
        -12    1    3    3    0    0  0.12560996512E+02  0.13243775622E+02 -0.27617468278E+02  0.33104392158E+02  0.00000000000E+00 0.  1.
</event>
<event>
 7    1  0.4623443E-009  0.4614232E+02  0.7816164E-02  0.1320468E+00
        -11   -1    0    0    0    0  0.00000000000E+00  0.00000000000E+00  0.45593999997E+02  0.45594000000E+02  0.51100000000E-03 0. -1.
         11   -1    0    0    0    0 -0.00000000000E+00 -0.00000000000E+00 -0.45593999997E+02  0.45594000000E+02  0.51100000000E-03 0.  1.
    9900012    2    1    2    0    0  0.17730715505E+02  0.41768520841E+01  0.41198169434E+02  0.46142317295E+02  0.99999957523E+01 0.  0.
        -12    1    1    2    0    0 -0.17730715505E+02 -0.41768520841E+01 -0.41198169434E+02  0.45045682705E+02  0.00000000000E+00 0.  1.
         11    1    3    3    0    0  0.11068309742E+02 -0.55643243265E+00  0.17349619691E+02  0.20587044501E+02  0.51100000000E-03 0. -1.
        -11    1    3    3    0    0  0.16489768217E+01  0.29527139868E+00  0.10379386433E+02  0.10513704045E+02  0.51100000000E-03 0.  1.
         12    1    3    3    0    0  0.50134289412E+01  0.44380131181E+01  0.13469163310E+02  0.15041568750E+02  0.00000000000E+00 0. -1.
</event>
<event>
 7    1  0.4623443E-009  0.4614232E+02  0.7816164E-02  0.1320468E+00
        -11   -1    0    0    0    0  0.00000000000E+00  0.00000000000E+00  0.45593999997E+02  0.45594000000E+02  0.51100000000E-03 0. -1.
         11   -1    0    0    0    0 -0.00000000000E+00 -0.00000000000E+00 -0.45593999997E+02  0.45594000000E+02  0.51100000000E-03 0.  1.
    9900012    2    1    2    0    0 -0.12223131843E+02 -0.43185480564E+02 -0.38370009687E+01  0.46142320296E+02  0.10000023115E+02 0.  0.
        -12    1    1    2    0    0  0.12223131843E+02  0.43185480564E+02  0.38370009687E+01  0.45045679704E+02  0.00000000000E+00 0.  1.
         11    1    3    3    0    0 -0.71396496778E+01 -0.18797050776E+02 -0.32074827386E+01  0.20361524038E+02  0.51100000000E-03 0. -1.
        -11    1    3    3    0    0 -0.64521290495E+01 -0.17678222805E+02 -0.14940759582E+01  0.18878077075E+02  0.51100000000E-03 0.  1.
        -12    1    3    3    0    0  0.13686468847E+01 -0.67102069833E+01  0.86455772798E+00  0.69027191830E+01  0.00000000000E+00 0.  1.
</event>
<event>
 7    1  0.4623443E-009  0.4614232E+02  0.7816164E-02  0.1320468E+00
        -11   -1    0    0    0    0  0.00000000000E+00  0.00000000000E+00  0.45593999997E+02  0.45594000000E+02  0.51100000000E-03 0. -1.
         11   -1    0    0    0    0 -0.00000000000E+00 -0.00000000000E+00 -0.45593999997E+02  0.45594000000E+02  0.51100000000E-03 0.  1.
    9900012    2    1    2    0    0 -0.16095766134E+02 -0.41855449511E+02  0.42615936344E+01  0.46142317393E+02  0.99999966440E+01 0.  0.
        -12    1    1    2    0    0  0.16095766134E+02  0.41855449511E+02 -0.42615936344E+01  0.45045682607E+02  0.00000000000E+00 0.  1.
         11    1    3    3    0    0  0.36652506240E+00 -0.16739054567E+01  0.69175989566E+00  0.18479264362E+01  0.51100000000E-03 0.  1.
        -11    1    3    3    0    0 -0.36338640308E+01 -0.15350815585E+02  0.42493474593E+01  0.16337363956E+02  0.51100000000E-03 0. -1.
         12    1    3    3    0    0 -0.12828427165E+02 -0.24830728469E+02 -0.67951372056E+00  0.27957027001E+02  0.00000000000E+00 0. -1.
</event>
<event>
 7    1  0.4623443E-009  0.4614232E+02  0.7816164E-02  0.1320468E+00
        -11   -1    0    0    0    0  0.00000000000E+00  0.00000000000E+00  0.45593999997E+02  0.45594000000E+02  0.51100000000E-03 0. -1.
         11   -1    0    0    0    0 -0.00000000000E+00 -0.00000000000E+00 -0.45593999997E+02  0.45594000000E+02  0.51100000000E-03 0.  1.
    9900012    2    1    2    0    0 -0.12079372328E+02 -0.17108872289E+01 -0.43362138698E+02  0.46142318260E+02  0.10000004553E+02 0.  0.
         12    1    1    2    0    0  0.12079372328E+02  0.17108872289E+01  0.43362138698E+02  0.45045681740E+02  0.00000000000E+00 0. -1.
         11    1    3    3    0    0 -0.12678341339E+02 -0.59185371633E+00 -0.31171818859E+02  0.33656692071E+02  0.51100000000E-03 0.  1.
        -11    1    3    3    0    0 -0.52587833280E+00  0.31497877162E+00 -0.12243108083E+01  0.13691956996E+01  0.51100000000E-03 0. -1.
        -12    1    3    3    0    0  0.11248473436E+01 -0.14340122842E+01 -0.10966009031E+02  0.11116430490E+02  0.00000000000E+00 0.  1.
</event>
<event>
 7    1  0.4623443E-009  0.4614232E+02  0.7816164E-02  0.1320468E+00
        -11   -1    0    0    0    0  0.00000000000E+00  0.00000000000E+00  0.45593999997E+02  0.45594000000E+02  0.51100000000E-03 0. -1.
         11   -1    0    0    0    0 -0.00000000000E+00 -0.00000000000E+00 -0.45593999997E+02  0.45594000000E+02  0.51100000000E-03 0.  1.
    9900012    2    1    2    0    0 -0.72977273602E+01  0.92451274693E+01 -0.43478549914E+02  0.46142317530E+02  0.99999978901E+01 0.  0.
         12    1    1    2    0    0  0.72977273602E+01 -0.92451274693E+01  0.43478549914E+02  0.45045682470E+02  0.00000000000E+00 0. -1.
         11    1    3    3    0    0 -0.88541862005E+00 -0.42588996629E+00 -0.91892094999E+01  0.92415864380E+01  0.51100000000E-03 0.  1.
        -11    1    3    3    0    0 -0.34683984474E+01  0.33229156174E-01 -0.70501729952E+01  0.78572152504E+01  0.51100000000E-03 0. -1.
         12    1    3    3    0    0 -0.29439102927E+01  0.96377882794E+01 -0.27239167419E+02  0.29043515841E+02  0.00000000000E+00 0. -1.
</event>
<event>
 7    1  0.4623443E-009  0.4614232E+02  0.7816164E-02  0.1320468E+00
        -11   -1    0    0    0    0  0.00000000000E+00  0.00000000000E+00  0.45593999997E+02  0.45594000000E+02  0.51100000000E-03 0. -1.
         11   -1    0    0    0    0 -0.00000000000E+00 -0.00000000000E+00 -0.45593999997E+02  0.45594000000E+02  0.51100000000E-03 0.  1.
    9900012    2    1    2    0    0 -0.11894228316E+02 -0.17277498857E+02  0.39863878722E+02  0.46142318067E+02  0.10000002792E+02 0.  0.
        -12    1    1    2    0    0  0.11894228316E+02  0.17277498857E+02 -0.39863878722E+02  0.45045681933E+02  0.00000000000E+00 0.  1.
         11    1    3    3    0    0 -0.46911660456E+01 -0.40921755179E+01  0.20147830142E+02  0.21087626680E+02  0.51100000000E-03 0. -1.
        -11    1    3    3    0    0 -0.56959711400E+01 -0.69805067110E+01  0.12658327389E+02  0.15537207398E+02  0.51100000000E-03 0.  1.
        -12    1    3    3    0    0 -0.15070911305E+01 -0.62048166280E+01  0.70577211920E+01  0.95174839894E+01  0.00000000000E+00 0.  1.
</event>
<event>
 7    1  0.4623443E-009  0.4614232E+02  0.7816164E-02  0.1320468E+00
        -11   -1    0    0    0    0  0.00000000000E+00  0.00000000000E+00  0.45593999997E+02  0.45594000000E+02  0.51100000000E-03 0. -1.
         11   -1    0    0    0    0 -0.00000000000E+00 -0.00000000000E+00 -0.45593999997E+02  0.45594000000E+02  0.51100000000E-03 0.  1.
    9900012    2    1    2    0    0  0.43909918495E+02  0.94341472745E+01  0.34683308704E+01  0.46142318786E+02  0.10000009345E+02 0.  0.
         12    1    1    2    0    0 -0.43909918495E+02 -0.94341472745E+01 -0.34683308704E+01  0.45045681214E+02  0.00000000000E+00 0. -1.
         11    1    3    3    0    0  0.45963626606E+01  0.36054428282E+01  0.20169962621E+01  0.61801328366E+01  0.51100000000E-03 0. -1.
        -11    1    3    3    0    0  0.10640645861E+01 -0.48106420949E+00  0.10329210201E+00  0.11723163978E+01  0.51100000000E-03 0.  1.
        -12    1    3    3    0    0  0.38249491248E+02  0.63097686558E+01  0.13480425063E+01  0.38789869551E+02  0.00000000000E+00 0.  1.
</event>
<event>
 7    1  0.4623443E-009  0.4614232E+02  0.7816164E-02  0.1320468E+00
        -11   -1    0    0    0    0  0.00000000000E+00  0.00000000000E+00  0.45593999997E+02  0.45594000000E+02  0.51100000000E-03 0. -1.
         11   -1    0    0    0    0 -0.00000000000E+00 -0.00000000000E+00 -0.45593999997E+02  0.45594000000E+02  0.51100000000E-03 0.  1.
    9900012    2    1    2    0    0 -0.30237475294E+02 -0.56204449333E+00 -0.33384019159E+02  0.46142317173E+02  0.99999946337E+01 0.  0.
         12    1    1    2    0    0  0.30237475294E+02  0.56204449333E+00  0.33384019159E+02  0.45045682827E+02  0.00000000000E+00 0. -1.
         11    1    3    3    0    0 -0.16937274263E+01  0.79302232687E+00 -0.23085582913E+01  0.29710332632E+01  0.51100000000E-03 0. -1.
        -11    1    3    3    0    0 -0.23244403660E+02 -0.10416268241E+01 -0.29621372091E+02  0.37667133854E+02  0.51100000000E-03 0.  1.
         12    1    3    3    0    0 -0.52993442080E+01 -0.31343999614E+00 -0.14540887769E+01  0.55041500558E+01  0.00000000000E+00 0. -1.
</event>
<event>
 7    1  0.4623443E-009  0.4614232E+02  0.7816164E-02  0.1320468E+00
        -11   -1    0    0    0    0  0.00000000000E+00  0.00000000000E+00  0.45593999997E+02  0.45594000000E+02  0.51100000000E-03 0. -1.
         11   -1    0    0    0    0 -0.00000000000E+00 -0.00000000000E+00 -0.45593999997E+02  0.45594000000E+02  0.51100000000E-03 0.  1.
    9900012    2    1    2    0    0  0.15534312917E+02 -0.96163386783E+01 -0.41174321646E+02  0.46142316407E+02  0.99999876515E+01 0.  0.
         12    1    1    2    0    0 -0.15534312917E+02  0.96163386783E+01  0.41174321646E+02  0.45045683593E+02  0.00000000000E+00 0. -1.
         11    1    3    3    0    0  0.88196573438E+01 -0.96878442756E+00 -0.20925568465E+02  0.22728931228E+02  0.51100000000E-03 0.  1.
        -11    1    3    3    0    0  0.35417898982E+01 -0.15566791504E+01 -0.52409543678E+01  0.65142250964E+01  0.51100000000E-03 0. -1.
        -12    1    3    3    0    0  0.31728656751E+01 -0.70908751003E+01 -0.15007798813E+02  0.16899160082E+02  0.00000000000E+00 0.  1.
</event>
<event>
 7    1  0.4623443E-009  0.4614231E+02  0.7816164E-02  0.1320468E+00
        -11   -1    0    0    0    0  0.00000000000E+00  0.00000000000E+00  0.45593999997E+02  0.45594000000E+02  0.51100000000E-03 0. -1.
         11   -1    0    0    0    0 -0.00000000000E+00 -0.00000000000E+00 -0.45593999997E+02  0.45594000000E+02  0.51100000000E-03 0.  1.
    9900012    2    1    2    0    0  0.20874436378E+02 -0.32634373438E+02  0.22986292444E+02  0.46142311370E+02  0.99999417227E+01 0.  0.
        -12    1    1    2    0    0 -0.20874436378E+02  0.32634373438E+02 -0.22986292444E+02  0.45045688630E+02  0.00000000000E+00 0.  1.
         11    1    3    3    0    0  0.66554634454E+01 -0.74397593199E+01  0.77397649078E+01  0.12631277588E+02  0.51100000000E-03 0. -1.
        -11    1    3    3    0    0  0.59417581438E+01 -0.17424043767E+02  0.82344780636E+01  0.20167013172E+02  0.51100000000E-03 0.  1.
        -12    1    3    3    0    0  0.82772147892E+01 -0.77705703511E+01  0.70120494728E+01  0.13344020611E+02  0.00000000000E+00 0.  1.
</event>
<event>
 7    1  0.4623443E-009  0.4614232E+02  0.7816164E-02  0.1320468E+00
        -11   -1    0    0    0    0  0.00000000000E+00  0.00000000000E+00  0.45593999997E+02  0.45594000000E+02  0.51100000000E-03 0. -1.
         11   -1    0    0    0    0 -0.00000000000E+00 -0.00000000000E+00 -0.45593999997E+02  0.45594000000E+02  0.51100000000E-03 0.  1.
    9900012    2    1    2    0    0  0.27846482600E+02 -0.77194301416E+01  0.34555713412E+02  0.46142317362E+02  0.99999963632E+01 0.  0.
        -12    1    1    2    0    0 -0.27846482600E+02  0.77194301416E+01 -0.34555713412E+02  0.45045682638E+02  0.00000000000E+00 0.  1.
         11    1    3    3    0    0  0.14023881101E+01  0.17888591491E+01  0.25575104591E+01  0.34216325746E+01  0.51100000000E-03 0. -1.
        -11    1    3    3    0    0  0.59969476519E+01 -0.32411441491E+01  0.93482457937E+01  0.11569705969E+02  0.51100000000E-03 0.  1.
         12    1    3    3    0    0  0.20447146838E+02 -0.62671451415E+01  0.22649957159E+02  0.31150978818E+02  0.00000000000E+00 0. -1.
</event>
<event>
 7    1  0.4623443E-009  0.4614232E+02  0.7816164E-02  0.1320468E+00
        -11   -1    0    0    0    0  0.00000000000E+00  0.00000000000E+00  0.45593999997E+02  0.45594000000E+02  0.51100000000E-03 0. -1.
         11   -1    0    0    0    0 -0.00000000000E+00 -0.00000000000E+00 -0.45593999997E+02  0.45594000000E+02  0.51100000000E-03 0.  1.
    9900012    2    1    2    0    0 -0.14955374738E+02  0.14414500194E+02  0.39970894768E+02  0.46142317877E+02  0.10000001054E+02 0.  0.
        -12    1    1    2    0    0  0.14955374738E+02 -0.14414500194E+02 -0.39970894768E+02  0.45045682123E+02  0.00000000000E+00 0.  1.
         11    1    3    3    0    0 -0.81743901357E+01  0.10028657779E+02  0.25701225164E+02  0.28774078719E+02  0.51100000000E-03 0. -1.
        -11    1    3    3    0    0 -0.32009780041E+00  0.32590455195E+01  0.57432720109E+01  0.66112792977E+01  0.51100000000E-03 0.  1.
         12    1    3    3    0    0 -0.64608868018E+01  0.11267968951E+01  0.85263975930E+01  0.10756959860E+02  0.00000000000E+00 0. -1.
</event>
<event>
 7    1  0.4623443E-009  0.4614232E+02  0.7816164E-02  0.1320468E+00
        -11   -1    0    0    0    0  0.00000000000E+00  0.00000000000E+00  0.45593999997E+02  0.45594000000E+02  0.51100000000E-03 0. -1.
         11   -1    0    0    0    0 -0.00000000000E+00 -0.00000000000E+00 -0.45593999997E+02  0.45594000000E+02  0.51100000000E-03 0.  1.
    9900012    2    1    2    0    0  0.55695702539E+01 -0.13014118678E+02 -0.42763608149E+02  0.46142316747E+02  0.99999907538E+01 0.  0.
         12    1    1    2    0    0 -0.55695702539E+01  0.13014118678E+02  0.42763608149E+02  0.45045683253E+02  0.00000000000E+00 0. -1.
         11    1    3    3    0    0  0.18145632474E+01 -0.14335796524E+00 -0.16972092253E+01  0.24887166774E+01  0.51100000000E-03 0. -1.
        -11    1    3    3    0    0  0.12143726123E+01 -0.10972461836E+02 -0.36192422663E+02  0.37838618871E+02  0.51100000000E-03 0.  1.
        -12    1    3    3    0    0  0.25406343942E+01 -0.18982988760E+01 -0.48739762615E+01  0.58149811990E+01  0.00000000000E+00 0.  1.
</event>
<event>
 7    1  0.4623443E-009  0.4614232E+02  0.7816164E-02  0.1320468E+00
        -11   -1    0    0    0    0  0.00000000000E+00  0.00000000000E+00  0.45593999997E+02  0.45594000000E+02  0.51100000000E-03 0. -1.
         11   -1    0    0    0    0 -0.00000000000E+00 -0.00000000000E+00 -0.45593999997E+02  0.45594000000E+02  0.51100000000E-03 0.  1.
    9900012    2    1    2    0    0 -0.14731724966E+01  0.34586880951E+02 -0.28821708253E+02  0.46142318323E+02  0.10000005123E+02 0.  0.
         12    1    1    2    0    0  0.14731724966E+01 -0.34586880951E+02  0.28821708253E+02  0.45045681677E+02  0.00000000000E+00 0. -1.
         11    1    3    3    0    0  0.78230412725E+00  0.16734025731E+01 -0.79591048418E-01  0.18489485972E+01  0.51100000000E-03 0. -1.
        -11    1    3    3    0    0  0.11285423757E+01  0.29370473596E+01 -0.49851337886E+01  0.58950330141E+01  0.51100000000E-03 0.  1.
        -12    1    3    3    0    0 -0.33840189995E+01  0.29976431019E+02 -0.23756983416E+02  0.38398336712E+02  0.00000000000E+00 0.  1.
</event>
<event>
 7    1  0.4623443E-009  0.4614232E+02  0.7816164E-02  0.1320468E+00
        -11   -1    0    0    0    0  0.00000000000E+00  0.00000000000E+00  0.45593999997E+02  0.45594000000E+02  0.51100000000E-03 0. -1.
         11   -1    0    0    0    0 -0.00000000000E+00 -0.00000000000E+00 -0.45593999997E+02  0.45594000000E+02  0.51100000000E-03 0.  1.
    9900012    2    1    2    0    0 -0.36598550578E+02  0.10344996700E+01  0.26240986850E+02  0.46142317800E+02  0.10000000352E+02 0.  0.
        -12    1    1    2    0    0  0.36598550578E+02 -0.10344996700E+01 -0.26240986850E+02  0.45045682200E+02  0.00000000000E+00 0.  1.
         11    1    3    3    0    0 -0.11470187663E+02 -0.13147798579E+01  0.10508245853E+02  0.15611440749E+02  0.51100000000E-03 0. -1.
        -11    1    3    3    0    0 -0.20745740721E+02  0.23529961015E+00  0.10060778157E+02  0.23057761846E+02  0.51100000000E-03 0.  1.
        -12    1    3    3    0    0 -0.43826221941E+01  0.21139799177E+01  0.56719628404E+01  0.74731152039E+01  0.00000000000E+00 0.  1.
</event>
<event>
 7    1  0.4623443E-009  0.4614232E+02  0.7816164E-02  0.1320468E+00
        -11   -1    0    0    0    0  0.00000000000E+00  0.00000000000E+00  0.45593999997E+02  0.45594000000E+02  0.51100000000E-03 0. -1.
         11   -1    0    0    0    0 -0.00000000000E+00 -0.00000000000E+00 -0.45593999997E+02  0.45594000000E+02  0.51100000000E-03 0.  1.
    9900012    2    1    2    0    0 -0.24550111642E+02  0.36174784083E+02 -0.10853137000E+02  0.46142316879E+02  0.99999919569E+01 0.  0.
         12    1    1    2    0    0  0.24550111642E+02 -0.36174784083E+02  0.10853137000E+02  0.45045683121E+02  0.00000000000E+00 0. -1.
         11    1    3    3    0    0 -0.22458053538E+00  0.25037608209E+01 -0.15282474374E+01  0.29419033221E+01  0.51100000000E-03 0. -1.
        -11    1    3    3    0    0 -0.27772301006E+01  0.19656954528E+01  0.91146120731E+00  0.35224604240E+01  0.51100000000E-03 0.  1.
        -12    1    3    3    0    0 -0.21548301006E+02  0.31705327810E+02 -0.10236350770E+02  0.39677953133E+02  0.00000000000E+00 0.  1.
</event>
<event>
 7    1  0.4623443E-009  0.4614232E+02  0.7816164E-02  0.1320468E+00
        -11   -1    0    0    0    0  0.00000000000E+00  0.00000000000E+00  0.45593999997E+02  0.45594000000E+02  0.51100000000E-03 0. -1.
         11   -1    0    0    0    0 -0.00000000000E+00 -0.00000000000E+00 -0.45593999997E+02  0.45594000000E+02  0.51100000000E-03 0.  1.
    9900012    2    1    2    0    0 -0.41081066553E+02 -0.30906323227E+01  0.18218327319E+02  0.46142317770E+02  0.10000000080E+02 0.  0.
        -12    1    1    2    0    0  0.41081066553E+02  0.30906323227E+01 -0.18218327319E+02  0.45045682230E+02  0.00000000000E+00 0.  1.
         11    1    3    3    0    0 -0.36934726932E+02 -0.14678180299E+01  0.16854447888E+02  0.40625127165E+02  0.51100000000E-03 0. -1.
        -11    1    3    3    0    0 -0.23351022295E+01  0.49424639085E+00  0.13267836103E+01  0.27308125030E+01  0.51100000000E-03 0.  1.
        -12    1    3    3    0    0 -0.18112373909E+01 -0.21170606837E+01  0.37095821140E-01  0.27863781016E+01  0.00000000000E+00 0.  1.
</event>
<event>
 7    1  0.4623443E-009  0.4614231E+02  0.7816164E-02  0.1320468E+00
        -11   -1    0    0    0    0  0.00000000000E+00  0.00000000000E+00  0.45593999997E+02  0.45594000000E+02  0.51100000000E-03 0. -1.
         11   -1    0    0    0    0 -0.00000000000E+00 -0.00000000000E+00 -0.45593999997E+02  0.45594000000E+02  0.51100000000E-03 0.  1.
    9900012    2    1    2    0    0 -0.92068931326E+01 -0.30830957269E+02  0.31524576760E+02  0.46142314888E+02  0.99999738019E+01 0.  0.
        -12    1    1    2    0    0  0.92068931326E+01  0.30830957269E+02 -0.31524576760E+02  0.45045685112E+02  0.00000000000E+00 0.  1.
         11    1    3    3    0    0 -0.28573676677E+01 -0.11428855575E+02  0.13874565426E+02  0.18201287201E+02  0.51100000000E-03 0. -1.
        -11    1    3    3    0    0 -0.47406779765E+00  0.62772844293E+00  0.65713043652E+00  0.10249897300E+01  0.51100000000E-03 0.  1.
         12    1    3    3    0    0 -0.58754576672E+01 -0.20029830137E+02  0.16992880898E+02  0.26916037958E+02  0.00000000000E+00 0. -1.
</event>
<event>
 7    1  0.4623443E-009  0.4614232E+02  0.7816164E-02  0.1320468E+00
        -11   -1    0    0    0    0  0.00000000000E+00  0.00000000000E+00  0.45593999997E+02  0.45594000000E+02  0.51100000000E-03 0.  1.
         11   -1    0    0    0    0 -0.00000000000E+00 -0.00000000000E+00 -0.45593999997E+02  0.45594000000E+02  0.51100000000E-03 0. -1.
    9900012    2    1    2    0    0  0.26384507112E+02  0.35257402101E+02 -0.94808685829E+01  0.46142317770E+02  0.10000000081E+02 0.  0.
        -12    1    1    2    0    0 -0.26384507112E+02 -0.35257402101E+02  0.94808685829E+01  0.45045682230E+02  0.00000000000E+00 0.  1.
         11    1    3    3    0    0  0.14417627542E+02  0.21231389199E+02 -0.86319545695E+01  0.27076752228E+02  0.51100000000E-03 0. -1.
        -11    1    3    3    0    0  0.59947737586E+01  0.43123543278E+01  0.11961518143E+01  0.74809418986E+01  0.51100000000E-03 0.  1.
         12    1    3    3    0    0  0.59721058120E+01  0.97136585742E+01 -0.20450658277E+01  0.11584623644E+02  0.00000000000E+00 0. -1.
</event>
<event>
 7    1  0.4623443E-009  0.4614232E+02  0.7816164E-02  0.1320468E+00
        -11   -1    0    0    0    0  0.00000000000E+00  0.00000000000E+00  0.45593999997E+02  0.45594000000E+02  0.51100000000E-03 0. -1.
         11   -1    0    0    0    0 -0.00000000000E+00 -0.00000000000E+00 -0.45593999997E+02  0.45594000000E+02  0.51100000000E-03 0.  1.
    9900012    2    1    2    0    0  0.24296280761E+02  0.10925428432E+02 -0.36324086140E+02  0.46142317863E+02  0.10000000932E+02 0.  0.
         12    1    1    2    0    0 -0.24296280761E+02 -0.10925428432E+02  0.36324086140E+02  0.45045682137E+02  0.00000000000E+00 0. -1.
         11    1    3    3    0    0  0.10141621517E+02  0.58923763990E+01 -0.14042571158E+02  0.18296622410E+02  0.51100000000E-03 0. -1.
        -11    1    3    3    0    0  0.86824346073E+01  0.98812363010E+00 -0.72826030427E+01  0.11375296319E+02  0.51100000000E-03 0.  1.
         12    1    3    3    0    0  0.54722246365E+01  0.40449284032E+01 -0.14998911939E+02  0.16470399134E+02  0.00000000000E+00 0. -1.
</event>
<event>
 7    1  0.4623443E-009  0.4614232E+02  0.7816164E-02  0.1320468E+00
        -11   -1    0    0    0    0  0.00000000000E+00  0.00000000000E+00  0.45593999997E+02  0.45594000000E+02  0.51100000000E-03 0. -1.
         11   -1    0    0    0    0 -0.00000000000E+00 -0.00000000000E+00 -0.45593999997E+02  0.45594000000E+02  0.51100000000E-03 0.  1.
    9900012    2    1    2    0    0 -0.13061455539E+02  0.25939393469E+02  0.34433407921E+02  0.46142319459E+02  0.10000015487E+02 0.  0.
        -12    1    1    2    0    0  0.13061455539E+02 -0.25939393469E+02 -0.34433407921E+02  0.45045680541E+02  0.00000000000E+00 0.  1.
         11    1    3    3    0    0 -0.24363844597E+01  0.14995074439E+01  0.84395053119E+01  0.89112143942E+01  0.51100000000E-03 0.  1.
        -11    1    3    3    0    0 -0.40877198470E+01  0.98324801711E+01  0.10121378529E+02  0.14691134179E+02  0.51100000000E-03 0. -1.
        -12    1    3    3    0    0 -0.65373512319E+01  0.14607405854E+02  0.15872524080E+02  0.22539970887E+02  0.00000000000E+00 0.  1.
</event>
<event>
 7    1  0.4623443E-009  0.4614232E+02  0.7816164E-02  0.1320468E+00
        -11   -1    0    0    0    0  0.00000000000E+00  0.00000000000E+00  0.45593999997E+02  0.45594000000E+02  0.51100000000E-03 0. -1.
         11   -1    0    0    0    0 -0.00000000000E+00 -0.00000000000E+00 -0.45593999997E+02  0.45594000000E+02  0.51100000000E-03 0.  1.
    9900012    2    1    2    0    0  0.40207495627E+02  0.57505814854E+01  0.19478233301E+02  0.46142318025E+02  0.10000002411E+02 0.  0.
        -12    1    1    2    0    0 -0.40207495627E+02 -0.57505814854E+01 -0.19478233301E+02  0.45045681975E+02  0.00000000000E+00 0.  1.
         11    1    3    3    0    0  0.29754638955E+02  0.25878982830E+01  0.15274492122E+02  0.33546175143E+02  0.51100000000E-03 0. -1.
        -11    1    3    3    0    0  0.24665254391E+01  0.16595232324E+01 -0.76663074483E+00  0.30700957739E+01  0.51100000000E-03 0.  1.
        -12    1    3    3    0    0  0.79863312332E+01  0.15031599700E+01  0.49703719238E+01  0.95260471090E+01  0.00000000000E+00 0.  1.
</event>
<event>
 7    1  0.4623443E-009  0.4614232E+02  0.7816164E-02  0.1320468E+00
        -11   -1    0    0    0    0  0.00000000000E+00  0.00000000000E+00  0.45593999997E+02  0.45594000000E+02  0.51100000000E-03 0. -1.
         11   -1    0    0    0    0 -0.00000000000E+00 -0.00000000000E+00 -0.45593999997E+02  0.45594000000E+02  0.51100000000E-03 0.  1.
    9900012    2    1    2    0    0  0.49359223706E+01  0.28459896965E+02  0.34565653457E+02  0.46142318034E+02  0.10000002485E+02 0.  0.
        -12    1    1    2    0    0 -0.49359223706E+01 -0.28459896965E+02 -0.34565653457E+02  0.45045681966E+02  0.00000000000E+00 0.  1.
         11    1    3    3    0    0  0.45070148674E+01  0.15008133751E+02  0.22339816575E+02  0.27287811685E+02  0.51100000000E-03 0. -1.
        -11    1    3    3    0    0 -0.32229653456E+00  0.13131778119E+02  0.12348690513E+02  0.18028799995E+02  0.51100000000E-03 0.  1.
         12    1    3    3    0    0  0.75120403776E+00  0.31998509487E+00 -0.12285363079E+00  0.82570635330E+00  0.00000000000E+00 0. -1.
</event>
<event>
 7    1  0.4623443E-009  0.4614232E+02  0.7816164E-02  0.1320468E+00
        -11   -1    0    0    0    0  0.00000000000E+00  0.00000000000E+00  0.45593999997E+02  0.45594000000E+02  0.51100000000E-03 0.  1.
         11   -1    0    0    0    0 -0.00000000000E+00 -0.00000000000E+00 -0.45593999997E+02  0.45594000000E+02  0.51100000000E-03 0. -1.
    9900012    2    1    2    0    0  0.17619175175E+02 -0.41448656663E+02 -0.82888052708E+00  0.46142317455E+02  0.99999972075E+01 0.  0.
        -12    1    1    2    0    0 -0.17619175175E+02  0.41448656663E+02  0.82888052708E+00  0.45045682545E+02  0.00000000000E+00 0.  1.
         11    1    3    3    0    0  0.27848041610E+01 -0.73655494093E+01 -0.29520153641E+01  0.84095687931E+01  0.51100000000E-03 0. -1.
        -11    1    3    3    0    0  0.21949719473E+01 -0.35986404168E+01 -0.16294627333E+01  0.45192105239E+01  0.51100000000E-03 0.  1.
        -12    1    3    3    0    0  0.12639399066E+02 -0.30484466837E+02  0.37525975703E+01  0.33213538138E+02  0.00000000000E+00 0.  1.
</event>
<event>
 7    1  0.4623443E-009  0.4614232E+02  0.7816164E-02  0.1320468E+00
        -11   -1    0    0    0    0  0.00000000000E+00  0.00000000000E+00  0.45593999997E+02  0.45594000000E+02  0.51100000000E-03 0. -1.
         11   -1    0    0    0    0 -0.00000000000E+00 -0.00000000000E+00 -0.45593999997E+02  0.45594000000E+02  0.51100000000E-03 0.  1.
    9900012    2    1    2    0    0 -0.26014969820E+02  0.30995241367E+02  0.19789641280E+02  0.46142317142E+02  0.99999943570E+01 0.  0.
        -12    1    1    2    0    0  0.26014969820E+02 -0.30995241367E+02 -0.19789641280E+02  0.45045682858E+02  0.00000000000E+00 0.  1.
         11    1    3    3    0    0 -0.51514165084E+01  0.93022936174E+01  0.89974443279E+01  0.13929241303E+02  0.51100000000E-03 0. -1.
        -11    1    3    3    0    0 -0.79499958693E+01  0.57012408431E+01  0.30277900161E+01  0.10240805345E+02  0.51100000000E-03 0.  1.
         12    1    3    3    0    0 -0.12913557442E+02  0.15991706906E+02  0.77644069361E+01  0.21972270494E+02  0.00000000000E+00 0. -1.
</event>
<event>
 7    1  0.4623443E-009  0.4614232E+02  0.7816164E-02  0.1320468E+00
        -11   -1    0    0    0    0  0.00000000000E+00  0.00000000000E+00  0.45593999997E+02  0.45594000000E+02  0.51100000000E-03 0. -1.
         11   -1    0    0    0    0 -0.00000000000E+00 -0.00000000000E+00 -0.45593999997E+02  0.45594000000E+02  0.51100000000E-03 0.  1.
    9900012    2    1    2    0    0  0.18800048234E+02  0.72833064016E+01  0.40281820895E+02  0.46142318072E+02  0.10000002835E+02 0.  0.
        -12    1    1    2    0    0 -0.18800048234E+02 -0.72833064016E+01 -0.40281820895E+02  0.45045681928E+02  0.00000000000E+00 0.  1.
         11    1    3    3    0    0  0.90112780650E+01  0.46209650448E+01  0.16487434937E+02  0.19349210872E+02  0.51100000000E-03 0. -1.
        -11    1    3    3    0    0  0.10498603947E+02  0.33598737007E+01  0.19647822659E+02  0.22528789839E+02  0.51100000000E-03 0.  1.
        -12    1    3    3    0    0 -0.70983377733E+00 -0.69753234385E+00  0.41465632990E+01  0.42643173609E+01  0.00000000000E+00 0.  1.
</event>
<event>
 7    1  0.4623443E-009  0.4614232E+02  0.7816164E-02  0.1320468E+00
        -11   -1    0    0    0    0  0.00000000000E+00  0.00000000000E+00  0.45593999997E+02  0.45594000000E+02  0.51100000000E-03 0. -1.
         11   -1    0    0    0    0 -0.00000000000E+00 -0.00000000000E+00 -0.45593999997E+02  0.45594000000E+02  0.51100000000E-03 0.  1.
    9900012    2    1    2    0    0  0.42292684085E+02  0.16561637839E+01 -0.15417509369E+02  0.46142316514E+02  0.99999886298E+01 0.  0.
         12    1    1    2    0    0 -0.42292684085E+02 -0.16561637839E+01  0.15417509369E+02  0.45045683486E+02  0.00000000000E+00 0. -1.
         11    1    3    3    0    0  0.21732189396E+02  0.38168441863E+01 -0.98190371471E+01  0.24150980233E+02  0.51100000000E-03 0. -1.
        -11    1    3    3    0    0  0.17594695505E+02 -0.23950033826E+01 -0.64576367345E+01  0.18894719462E+02  0.51100000000E-03 0.  1.
         12    1    3    3    0    0  0.29657991843E+01  0.23432298027E+00  0.85916451287E+00  0.30966168185E+01  0.00000000000E+00 0. -1.
</event>
<event>
 7    1  0.4623443E-009  0.4614231E+02  0.7816164E-02  0.1320468E+00
        -11   -1    0    0    0    0  0.00000000000E+00  0.00000000000E+00  0.45593999997E+02  0.45594000000E+02  0.51100000000E-03 0. -1.
         11   -1    0    0    0    0 -0.00000000000E+00 -0.00000000000E+00 -0.45593999997E+02  0.45594000000E+02  0.51100000000E-03 0.  1.
    9900012    2    1    2    0    0  0.45459090430E+01 -0.13467834746E+02 -0.42744196239E+02  0.46142310152E+02  0.99999306107E+01 0.  0.
         12    1    1    2    0    0 -0.45459090430E+01  0.13467834746E+02  0.42744196239E+02  0.45045689848E+02  0.00000000000E+00 0. -1.
         11    1    3    3    0    0  0.45432646826E+01 -0.57373088967E+01 -0.15853896322E+02  0.17461500399E+02  0.51100000000E-03 0. -1.
        -11    1    3    3    0    0  0.26653023689E+01 -0.62179211045E+01 -0.20644488003E+02  0.21724669496E+02  0.51100000000E-03 0.  1.
        -12    1    3    3    0    0 -0.26626580084E+01 -0.15126047450E+01 -0.62458119148E+01  0.69561402559E+01  0.00000000000E+00 0.  1.
</event>
<event>
 7    1  0.4623443E-009  0.4614232E+02  0.7816164E-02  0.1320468E+00
        -11   -1    0    0    0    0  0.00000000000E+00  0.00000000000E+00  0.45593999997E+02  0.45594000000E+02  0.51100000000E-03 0. -1.
         11   -1    0    0    0    0 -0.00000000000E+00 -0.00000000000E+00 -0.45593999997E+02  0.45594000000E+02  0.51100000000E-03 0.  1.
    9900012    2    1    2    0    0 -0.39060020329E+02  0.89906271264E+01 -0.20557162448E+02  0.46142317719E+02  0.99999996200E+01 0.  0.
         12    1    1    2    0    0  0.39060020329E+02 -0.89906271264E+01  0.20557162448E+02  0.45045682281E+02  0.00000000000E+00 0. -1.
         11    1    3    3    0    0 -0.67608193008E+01  0.16927624176E+01 -0.82285226271E+01  0.10783445975E+02  0.51100000000E-03 0. -1.
        -11    1    3    3    0    0 -0.12253098170E+02  0.27987365695E+01 -0.53675494610E+01  0.13666818527E+02  0.51100000000E-03 0.  1.
         12    1    3    3    0    0 -0.20046102858E+02  0.44991281392E+01 -0.69610903599E+01  0.21692053217E+02  0.00000000000E+00 0. -1.
</event>
<event>
 7    1  0.4623443E-009  0.4614232E+02  0.7816164E-02  0.1320468E+00
        -11   -1    0    0    0    0  0.00000000000E+00  0.00000000000E+00  0.45593999997E+02  0.45594000000E+02  0.51100000000E-03 0. -1.
         11   -1    0    0    0    0 -0.00000000000E+00 -0.00000000000E+00 -0.45593999997E+02  0.45594000000E+02  0.51100000000E-03 0.  1.
    9900012    2    1    2    0    0  0.25385000436E+02  0.79304454611E+01 -0.36356888498E+02  0.46142317037E+02  0.99999934001E+01 0.  0.
         12    1    1    2    0    0 -0.25385000436E+02 -0.79304454611E+01  0.36356888498E+02  0.45045682963E+02  0.00000000000E+00 0. -1.
         11    1    3    3    0    0  0.16913356046E+02  0.17048338004E+01 -0.19724728685E+02  0.26039066669E+02  0.51100000000E-03 0. -1.
        -11    1    3    3    0    0  0.61219041045E+01  0.34295439671E+01 -0.75150817382E+01  0.10281825494E+02  0.51100000000E-03 0.  1.
        -12    1    3    3    0    0  0.23497402850E+01  0.27960676935E+01 -0.91170780746E+01  0.98214248749E+01  0.00000000000E+00 0.  1.
</event>
<event>
 7    1  0.4623443E-009  0.4614232E+02  0.7816164E-02  0.1320468E+00
        -11   -1    0    0    0    0  0.00000000000E+00  0.00000000000E+00  0.45593999997E+02  0.45594000000E+02  0.51100000000E-03 0. -1.
         11   -1    0    0    0    0 -0.00000000000E+00 -0.00000000000E+00 -0.45593999997E+02  0.45594000000E+02  0.51100000000E-03 0.  1.
    9900012    2    1    2    0    0 -0.41938959007E+02  0.14002800382E+02 -0.86115502458E+01  0.46142317646E+02  0.99999989487E+01 0.  0.
         12    1    1    2    0    0  0.41938959007E+02 -0.14002800382E+02  0.86115502458E+01  0.45045682354E+02  0.00000000000E+00 0. -1.
         11    1    3    3    0    0 -0.66231976070E+01  0.12874171767E+01  0.17803901618E+01  0.69781071157E+01  0.51100000000E-03 0. -1.
        -11    1    3    3    0    0 -0.12186229185E+01 -0.29317818633E+00 -0.16667466119E+00  0.12644271312E+01  0.51100000000E-03 0.  1.
        -12    1    3    3    0    0 -0.34097138481E+02  0.13008561392E+02 -0.10225265746E+02  0.37899783399E+02  0.00000000000E+00 0.  1.
</event>
<event>
 7    1  0.4623443E-009  0.4614232E+02  0.7816164E-02  0.1320468E+00
        -11   -1    0    0    0    0  0.00000000000E+00  0.00000000000E+00  0.45593999997E+02  0.45594000000E+02  0.51100000000E-03 0. -1.
         11   -1    0    0    0    0 -0.00000000000E+00 -0.00000000000E+00 -0.45593999997E+02  0.45594000000E+02  0.51100000000E-03 0.  1.
    9900012    2    1    2    0    0 -0.36434763371E+02 -0.10193820712E+02  0.24448058281E+02  0.46142317451E+02  0.99999971676E+01 0.  0.
        -12    1    1    2    0    0  0.36434763371E+02  0.10193820712E+02 -0.24448058281E+02  0.45045682549E+02  0.00000000000E+00 0.  1.
         11    1    3    3    0    0 -0.45781152553E+01  0.11109120102E+01  0.27624183741E+01  0.54611555846E+01  0.51100000000E-03 0.  1.
        -11    1    3    3    0    0 -0.14138183733E+02 -0.75739488318E+01  0.12749852448E+02  0.20489306428E+02  0.51100000000E-03 0. -1.
         12    1    3    3    0    0 -0.17718464383E+02 -0.37307838904E+01  0.89357874589E+01  0.20191855438E+02  0.00000000000E+00 0. -1.
</event>
<event>
 7    1  0.4623443E-009  0.4614232E+02  0.7816164E-02  0.1320468E+00
        -11   -1    0    0    0    0  0.00000000000E+00  0.00000000000E+00  0.45593999997E+02  0.45594000000E+02  0.51100000000E-03 0. -1.
         11   -1    0    0    0    0 -0.00000000000E+00 -0.00000000000E+00 -0.45593999997E+02  0.45594000000E+02  0.51100000000E-03 0.  1.
    9900012    2    1    2    0    0  0.10836679515E+02  0.36047568455E+02  0.24743740023E+02  0.46142317801E+02  0.10000000367E+02 0.  0.
        -12    1    1    2    0    0 -0.10836679515E+02 -0.36047568455E+02 -0.24743740023E+02  0.45045682199E+02  0.00000000000E+00 0.  1.
         11    1    3    3    0    0  0.60020778565E+01  0.17441532091E+02  0.15755022150E+02  0.24258044098E+02  0.51100000000E-03 0. -1.
        -11    1    3    3    0    0  0.17100365828E+01  0.13976735837E+02  0.80536943611E+01  0.16221447620E+02  0.51100000000E-03 0.  1.
        -12    1    3    3    0    0  0.31245650752E+01  0.46293005268E+01  0.93502351251E+00  0.56628260829E+01  0.00000000000E+00 0.  1.
</event>
<event>
 7    1  0.4623443E-009  0.4614232E+02  0.7816164E-02  0.1320468E+00
        -11   -1    0    0    0    0  0.00000000000E+00  0.00000000000E+00  0.45593999997E+02  0.45594000000E+02  0.51100000000E-03 0. -1.
         11   -1    0    0    0    0 -0.00000000000E+00 -0.00000000000E+00 -0.45593999997E+02  0.45594000000E+02  0.51100000000E-03 0.  1.
    9900012    2    1    2    0    0 -0.74548234840E+01 -0.30099324309E+02  0.32673685790E+02  0.46142318075E+02  0.10000002860E+02 0.  0.
        -12    1    1    2    0    0  0.74548234840E+01  0.30099324309E+02 -0.32673685790E+02  0.45045681925E+02  0.00000000000E+00 0.  1.
         11    1    3    3    0    0 -0.31324118471E+01 -0.16385322647E+02  0.22890014986E+02  0.28323904896E+02  0.51100000000E-03 0.  1.
        -11    1    3    3    0    0 -0.33713722755E+01 -0.55323065283E+01  0.56800523734E+01  0.86160061379E+01  0.51100000000E-03 0. -1.
        -12    1    3    3    0    0 -0.95103936128E+00 -0.81816951336E+01  0.41036184301E+01  0.92024070408E+01  0.00000000000E+00 0.  1.
</event>
<event>
 7    1  0.4623443E-009  0.4614232E+02  0.7816164E-02  0.1320468E+00
        -11   -1    0    0    0    0  0.00000000000E+00  0.00000000000E+00  0.45593999997E+02  0.45594000000E+02  0.51100000000E-03 0. -1.
         11   -1    0    0    0    0 -0.00000000000E+00 -0.00000000000E+00 -0.45593999997E+02  0.45594000000E+02  0.51100000000E-03 0.  1.
    9900012    2    1    2    0    0 -0.31177048011E+02 -0.27270562586E+02 -0.17703718297E+02  0.46142317099E+02  0.99999939660E+01 0.  0.
         12    1    1    2    0    0  0.31177048011E+02  0.27270562586E+02  0.17703718297E+02  0.45045682901E+02  0.00000000000E+00 0. -1.
         11    1    3    3    0    0 -0.93594851635E+01 -0.12003472062E+02 -0.10389287210E+02  0.18428797928E+02  0.51100000000E-03 0. -1.
        -11    1    3    3    0    0 -0.19783157762E+02 -0.14461272193E+02 -0.71102718463E+01  0.25515832153E+02  0.51100000000E-03 0.  1.
         12    1    3    3    0    0 -0.20344050854E+01 -0.80581833041E+00 -0.20415924028E+00  0.21976870178E+01  0.00000000000E+00 0. -1.
</event>
<event>
 7    1  0.4623443E-009  0.4614232E+02  0.7816164E-02  0.1320468E+00
        -11   -1    0    0    0    0  0.00000000000E+00  0.00000000000E+00  0.45593999997E+02  0.45594000000E+02  0.51100000000E-03 0. -1.
         11   -1    0    0    0    0 -0.00000000000E+00 -0.00000000000E+00 -0.45593999997E+02  0.45594000000E+02  0.51100000000E-03 0.  1.
    9900012    2    1    2    0    0  0.23538246923E-01  0.32813407159E+01 -0.44925999474E+02  0.46142321188E+02  0.10000031249E+02 0.  0.
         12    1    1    2    0    0 -0.23538246923E-01 -0.32813407159E+01  0.44925999474E+02  0.45045678812E+02  0.00000000000E+00 0. -1.
         11    1    3    3    0    0  0.92046165490E+00  0.27917434417E+01 -0.28743786835E+02  0.28893708017E+02  0.51100000000E-03 0. -1.
        -11    1    3    3    0    0  0.22085517535E+01  0.47394690352E+00 -0.10809145980E+02  0.11042642962E+02  0.51100000000E-03 0.  1.
         12    1    3    3    0    0 -0.31054751614E+01  0.15650370703E-01 -0.53730666589E+01  0.62059702089E+01  0.00000000000E+00 0. -1.
</event>
<event>
 7    1  0.4623443E-009  0.4614232E+02  0.7816164E-02  0.1320468E+00
        -11   -1    0    0    0    0  0.00000000000E+00  0.00000000000E+00  0.45593999997E+02  0.45594000000E+02  0.51100000000E-03 0. -1.
         11   -1    0    0    0    0 -0.00000000000E+00 -0.00000000000E+00 -0.45593999997E+02  0.45594000000E+02  0.51100000000E-03 0.  1.
    9900012    2    1    2    0    0  0.21960971931E+02  0.15844565276E+02 -0.35996929561E+02  0.46142317912E+02  0.10000001379E+02 0.  0.
         12    1    1    2    0    0 -0.21960971931E+02 -0.15844565276E+02  0.35996929561E+02  0.45045682088E+02  0.00000000000E+00 0. -1.
         11    1    3    3    0    0  0.87149432257E+01  0.98097511664E+01 -0.18931833693E+02  0.23034664760E+02  0.51100000000E-03 0. -1.
        -11    1    3    3    0    0  0.10614347519E+02  0.33468168441E+01 -0.15383033877E+02  0.18986924126E+02  0.51100000000E-03 0.  1.
         12    1    3    3    0    0  0.26316811855E+01  0.26879972660E+01 -0.16820619904E+01  0.41207290258E+01  0.00000000000E+00 0. -1.
</event>
<event>
 7    1  0.4623443E-009  0.4614232E+02  0.7816164E-02  0.1320468E+00
        -11   -1    0    0    0    0  0.00000000000E+00  0.00000000000E+00  0.45593999997E+02  0.45594000000E+02  0.51100000000E-03 0. -1.
         11   -1    0    0    0    0 -0.00000000000E+00 -0.00000000000E+00 -0.45593999997E+02  0.45594000000E+02  0.51100000000E-03 0.  1.
    9900012    2    1    2    0    0 -0.27745167196E+02 -0.30480416741E+02  0.18173150078E+02  0.46142317729E+02  0.99999997099E+01 0.  0.
        -12    1    1    2    0    0  0.27745167196E+02  0.30480416741E+02 -0.18173150078E+02  0.45045682271E+02  0.00000000000E+00 0.  1.
         11    1    3    3    0    0 -0.15480822614E+02 -0.12188931822E+02  0.11028544545E+02  0.22579962861E+02  0.51100000000E-03 0. -1.
        -11    1    3    3    0    0 -0.52930119104E+01 -0.74779526700E+01  0.52454717898E+01  0.10557022581E+02  0.51100000000E-03 0.  1.
        -12    1    3    3    0    0 -0.69713326714E+01 -0.10813532249E+02  0.18991337439E+01  0.13005332287E+02  0.00000000000E+00 0.  1.
</event>
<event>
 7    1  0.4623443E-009  0.4614232E+02  0.7816164E-02  0.1320468E+00
        -11   -1    0    0    0    0  0.00000000000E+00  0.00000000000E+00  0.45593999997E+02  0.45594000000E+02  0.51100000000E-03 0. -1.
         11   -1    0    0    0    0 -0.00000000000E+00 -0.00000000000E+00 -0.45593999997E+02  0.45594000000E+02  0.51100000000E-03 0.  1.
    9900012    2    1    2    0    0  0.37431252269E+02  0.14941171934E+01 -0.25015644909E+02  0.46142317378E+02  0.99999965091E+01 0.  0.
         12    1    1    2    0    0 -0.37431252269E+02 -0.14941171934E+01  0.25015644909E+02  0.45045682622E+02  0.00000000000E+00 0. -1.
         11    1    3    3    0    0  0.92885503278E+01 -0.26053129654E+01 -0.35250846162E+01  0.10270883343E+02  0.51100000000E-03 0. -1.
        -11    1    3    3    0    0  0.12319322597E+02  0.30659421976E+01 -0.76374365930E+01  0.14815402417E+02  0.51100000000E-03 0.  1.
        -12    1    3    3    0    0  0.15823379345E+02  0.10334879612E+01 -0.13853123700E+02  0.21056031618E+02  0.00000000000E+00 0.  1.
</event>
<event>
 7    1  0.4623443E-009  0.4614232E+02  0.7816164E-02  0.1320468E+00
        -11   -1    0    0    0    0  0.00000000000E+00  0.00000000000E+00  0.45593999997E+02  0.45594000000E+02  0.51100000000E-03 0.  1.
         11   -1    0    0    0    0 -0.00000000000E+00 -0.00000000000E+00 -0.45593999997E+02  0.45594000000E+02  0.51100000000E-03 0. -1.
    9900012    2    1    2    0    0  0.20078783188E+02 -0.39143783418E+02 -0.96809180886E+01  0.46142317747E+02  0.99999998719E+01 0.  0.
         12    1    1    2    0    0 -0.20078783188E+02  0.39143783418E+02  0.96809180886E+01  0.45045682253E+02  0.00000000000E+00 0. -1.
         11    1    3    3    0    0  0.13045115980E+02 -0.18782504874E+02 -0.42640654228E+01  0.23262411622E+02  0.51100000000E-03 0. -1.
        -11    1    3    3    0    0  0.62145738262E+01 -0.10888571897E+02 -0.16186417096E+01  0.12641278695E+02  0.51100000000E-03 0.  1.
         12    1    3    3    0    0  0.81909338189E+00 -0.94727066464E+01 -0.37982109561E+01  0.10238627430E+02  0.00000000000E+00 0. -1.
</event>
<event>
 7    1  0.4623443E-009  0.4614232E+02  0.7816164E-02  0.1320468E+00
        -11   -1    0    0    0    0  0.00000000000E+00  0.00000000000E+00  0.45593999997E+02  0.45594000000E+02  0.51100000000E-03 0. -1.
         11   -1    0    0    0    0 -0.00000000000E+00 -0.00000000000E+00 -0.45593999997E+02  0.45594000000E+02  0.51100000000E-03 0.  1.
    9900012    2    1    2    0    0  0.26862156467E+02 -0.28835990893E+02  0.21817967851E+02  0.46142317166E+02  0.99999945729E+01 0.  0.
        -12    1    1    2    0    0 -0.26862156467E+02  0.28835990893E+02 -0.21817967851E+02  0.45045682834E+02  0.00000000000E+00 0.  1.
         11    1    3    3    0    0  0.11288133436E+02 -0.17385496631E+02  0.90814183176E+01  0.22630722669E+02  0.51100000000E-03 0. -1.
        -11    1    3    3    0    0  0.71751005818E+01 -0.71270876280E+01  0.48996888524E+01  0.11237633093E+02  0.51100000000E-03 0.  1.
        -12    1    3    3    0    0  0.83989224490E+01 -0.43234066339E+01  0.78368606811E+01  0.12273961405E+02  0.00000000000E+00 0.  1.
</event>
<event>
 7    1  0.4623443E-009  0.4614232E+02  0.7816164E-02  0.1320468E+00
        -11   -1    0    0    0    0  0.00000000000E+00  0.00000000000E+00  0.45593999997E+02  0.45594000000E+02  0.51100000000E-03 0. -1.
         11   -1    0    0    0    0 -0.00000000000E+00 -0.00000000000E+00 -0.45593999997E+02  0.45594000000E+02  0.51100000000E-03 0.  1.
    9900012    2    1    2    0    0 -0.25460870385E+02  0.23705837213E+02  0.28616268793E+02  0.46142317872E+02  0.10000001014E+02 0.  0.
        -12    1    1    2    0    0  0.25460870385E+02 -0.23705837213E+02 -0.28616268793E+02  0.45045682128E+02  0.00000000000E+00 0.  1.
         11    1    3    3    0    0 -0.59478227569E+01  0.64614028707E+01  0.11093187099E+02  0.14148679192E+02  0.51100000000E-03 0. -1.
        -11    1    3    3    0    0 -0.14141396849E+02  0.15658051534E+02  0.14753598769E+02  0.25745336657E+02  0.51100000000E-03 0.  1.
         12    1    3    3    0    0 -0.53716507785E+01  0.15863828084E+01  0.27694829254E+01  0.62483020233E+01  0.00000000000E+00 0. -1.
</event>
<event>
 7    1  0.4623443E-009  0.4614232E+02  0.7816164E-02  0.1320468E+00
        -11   -1    0    0    0    0  0.00000000000E+00  0.00000000000E+00  0.45593999997E+02  0.45594000000E+02  0.51100000000E-03 0. -1.
         11   -1    0    0    0    0 -0.00000000000E+00 -0.00000000000E+00 -0.45593999997E+02  0.45594000000E+02  0.51100000000E-03 0.  1.
    9900012    2    1    2    0    0  0.80429420264E-01  0.41974411706E+02 -0.16347958976E+02  0.46142317969E+02  0.10000001896E+02 0.  0.
         12    1    1    2    0    0 -0.80429420264E-01 -0.41974411706E+02  0.16347958976E+02  0.45045682031E+02  0.00000000000E+00 0. -1.
         11    1    3    3    0    0 -0.82842778829E+00  0.18558821964E+01  0.63493739376E+00  0.21292574017E+01  0.51100000000E-03 0. -1.
        -11    1    3    3    0    0  0.33645435951E+01  0.22643588543E+02 -0.10827875983E+02  0.25323806077E+02  0.51100000000E-03 0.  1.
         12    1    3    3    0    0 -0.24556863866E+01  0.17474940967E+02 -0.61550203871E+01  0.18689254490E+02  0.00000000000E+00 0. -1.
</event>
<event>
 7    1  0.4623443E-009  0.4614232E+02  0.7816164E-02  0.1320468E+00
        -11   -1    0    0    0    0  0.00000000000E+00  0.00000000000E+00  0.45593999997E+02  0.45594000000E+02  0.51100000000E-03 0.  1.
         11   -1    0    0    0    0 -0.00000000000E+00 -0.00000000000E+00 -0.45593999997E+02  0.45594000000E+02  0.51100000000E-03 0. -1.
    9900012    2    1    2    0    0 -0.23566668730E+01  0.44975206641E+02 -0.88907485518E+00  0.46142317130E+02  0.99999942410E+01 0.  0.
        -12    1    1    2    0    0  0.23566668730E+01 -0.44975206641E+02  0.88907485518E+00  0.45045682870E+02  0.00000000000E+00 0.  1.
         11    1    3    3    0    0 -0.39007364502E+01  0.20998221935E+02  0.29857861138E+00  0.21359546314E+02  0.51100000000E-03 0. -1.
        -11    1    3    3    0    0 -0.15487285776E+01  0.17560170771E+02 -0.10114575757E+01  0.17657327216E+02  0.51100000000E-03 0.  1.
        -12    1    3    3    0    0  0.30927981547E+01  0.64168139351E+01 -0.17619589084E+00  0.71254435999E+01  0.00000000000E+00 0.  1.
</event>
<event>
 7    1  0.4623443E-009  0.4614233E+02  0.7816164E-02  0.1320468E+00
        -11   -1    0    0    0    0  0.00000000000E+00  0.00000000000E+00  0.45593999997E+02  0.45594000000E+02  0.51100000000E-03 0. -1.
         11   -1    0    0    0    0 -0.00000000000E+00 -0.00000000000E+00 -0.45593999997E+02  0.45594000000E+02  0.51100000000E-03 0.  1.
    9900012    2    1    2    0    0  0.28455985970E+02 -0.32468328671E+02  0.12852128666E+02  0.46142326341E+02  0.10000078234E+02 0.  0.
        -12    1    1    2    0    0 -0.28455985970E+02  0.32468328671E+02 -0.12852128666E+02  0.45045673659E+02  0.00000000000E+00 0.  1.
         11    1    3    3    0    0  0.70078726068E+01 -0.77485377880E+01  0.50526575929E+01  0.11605148226E+02  0.51100000000E-03 0. -1.
        -11    1    3    3    0    0  0.29248717159E+01 -0.22534789424E+00  0.58237961088E+00  0.29907896115E+01  0.51100000000E-03 0.  1.
        -12    1    3    3    0    0  0.18523241647E+02 -0.24494442989E+02  0.72170914620E+01  0.31546388503E+02  0.00000000000E+00 0.  1.
</event>
<event>
 7    1  0.4623443E-009  0.4614233E+02  0.7816164E-02  0.1320468E+00
        -11   -1    0    0    0    0  0.00000000000E+00  0.00000000000E+00  0.45593999997E+02  0.45594000000E+02  0.51100000000E-03 0. -1.
         11   -1    0    0    0    0 -0.00000000000E+00 -0.00000000000E+00 -0.45593999997E+02  0.45594000000E+02  0.51100000000E-03 0.  1.
    9900012    2    1    2    0    0 -0.13642031688E+02 -0.80988457964E+01  0.42159417515E+02  0.46142325213E+02  0.10000067952E+02 0.  0.
        -12    1    1    2    0    0  0.13642031688E+02  0.80988457964E+01 -0.42159417515E+02  0.45045674787E+02  0.00000000000E+00 0.  1.
         11    1    3    3    0    0 -0.23584810557E+00 -0.77940932357E+00  0.12123176440E+01  0.14604169109E+01  0.51100000000E-03 0. -1.
        -11    1    3    3    0    0 -0.71461108978E-02  0.14614019391E+01  0.69157914152E+01  0.70685159584E+01  0.51100000000E-03 0.  1.
         12    1    3    3    0    0 -0.13399037471E+02 -0.87808384119E+01  0.34031308456E+02  0.37613392344E+02  0.00000000000E+00 0. -1.
</event>
<event>
 7    1  0.4623443E-009  0.4614232E+02  0.7816164E-02  0.1320468E+00
        -11   -1    0    0    0    0  0.00000000000E+00  0.00000000000E+00  0.45593999997E+02  0.45594000000E+02  0.51100000000E-03 0. -1.
         11   -1    0    0    0    0 -0.00000000000E+00 -0.00000000000E+00 -0.45593999997E+02  0.45594000000E+02  0.51100000000E-03 0.  1.
    9900012    2    1    2    0    0  0.23745890283E+02  0.31151791754E+01  0.38151563548E+02  0.46142318211E+02  0.10000004106E+02 0.  0.
        -12    1    1    2    0    0 -0.23745890283E+02 -0.31151791754E+01 -0.38151563548E+02  0.45045681789E+02  0.00000000000E+00 0.  1.
         11    1    3    3    0    0  0.54440401558E+01  0.18794633457E+01  0.13811989416E+02  0.14964658619E+02  0.51100000000E-03 0. -1.
        -11    1    3    3    0    0  0.11015452468E+02  0.30555892085E+01  0.18129002837E+02  0.21432161874E+02  0.51100000000E-03 0.  1.
        -12    1    3    3    0    0  0.72863976598E+01 -0.18198733788E+01  0.62105712955E+01  0.97454977188E+01  0.00000000000E+00 0.  1.
</event>
<event>
 7    1  0.4623443E-009  0.4614232E+02  0.7816164E-02  0.1320468E+00
        -11   -1    0    0    0    0  0.00000000000E+00  0.00000000000E+00  0.45593999997E+02  0.45594000000E+02  0.51100000000E-03 0. -1.
         11   -1    0    0    0    0 -0.00000000000E+00 -0.00000000000E+00 -0.45593999997E+02  0.45594000000E+02  0.51100000000E-03 0.  1.
    9900012    2    1    2    0    0  0.31412040073E+02  0.29123195123E+02  0.13936881145E+02  0.46142318611E+02  0.10000007750E+02 0.  0.
        -12    1    1    2    0    0 -0.31412040073E+02 -0.29123195123E+02 -0.13936881145E+02  0.45045681389E+02  0.00000000000E+00 0.  1.
         11    1    3    3    0    0  0.22456002954E+01  0.55251866915E+01  0.84343651688E+00  0.60234370654E+01  0.51100000000E-03 0. -1.
        -11    1    3    3    0    0  0.22217366748E+01  0.23010513032E+01  0.28362282051E+01  0.42749434668E+01  0.51100000000E-03 0.  1.
         12    1    3    3    0    0  0.26944703103E+02  0.21296957129E+02  0.10257216423E+02  0.35843938079E+02  0.00000000000E+00 0. -1.
</event>
<event>
 7    1  0.4623443E-009  0.4614232E+02  0.7816164E-02  0.1320468E+00
        -11   -1    0    0    0    0  0.00000000000E+00  0.00000000000E+00  0.45593999997E+02  0.45594000000E+02  0.51100000000E-03 0. -1.
         11   -1    0    0    0    0 -0.00000000000E+00 -0.00000000000E+00 -0.45593999997E+02  0.45594000000E+02  0.51100000000E-03 0.  1.
    9900012    2    1    2    0    0  0.15896375411E+02  0.26673734831E+02  0.32633273311E+02  0.46142318652E+02  0.10000008125E+02 0.  0.
        -12    1    1    2    0    0 -0.15896375411E+02 -0.26673734831E+02 -0.32633273311E+02  0.45045681348E+02  0.00000000000E+00 0.  1.
         11    1    3    3    0    0  0.58158664832E+01  0.13342338603E+02  0.10605677962E+02  0.18008961870E+02  0.51100000000E-03 0. -1.
        -11    1    3    3    0    0  0.46437366532E+01  0.10238373740E+02  0.13889795203E+02  0.17869387175E+02  0.51100000000E-03 0.  1.
        -12    1    3    3    0    0  0.54367722749E+01  0.30930224881E+01  0.81378001460E+01  0.10263969607E+02  0.00000000000E+00 0.  1.
</event>
<event>
 7    1  0.4623443E-009  0.4614232E+02  0.7816164E-02  0.1320468E+00
        -11   -1    0    0    0    0  0.00000000000E+00  0.00000000000E+00  0.45593999997E+02  0.45594000000E+02  0.51100000000E-03 0.  1.
         11   -1    0    0    0    0 -0.00000000000E+00 -0.00000000000E+00 -0.45593999997E+02  0.45594000000E+02  0.51100000000E-03 0. -1.
    9900012    2    1    2    0    0 -0.47584078033E+01  0.21720100459E+02 -0.39175352932E+02  0.46142317786E+02  0.10000000231E+02 0.  0.
         12    1    1    2    0    0  0.47584078033E+01 -0.21720100459E+02  0.39175352932E+02  0.45045682214E+02  0.00000000000E+00 0. -1.
         11    1    3    3    0    0  0.21082364400E+01  0.21803155959E+01 -0.63832863455E+01  0.70671622180E+01  0.51100000000E-03 0. -1.
        -11    1    3    3    0    0  0.89529836763E-01  0.92599941541E-01  0.14754864673E+00  0.19586016726E+00  0.51100000000E-03 0.  1.
        -12    1    3    3    0    0 -0.69561740801E+01  0.19447184921E+02 -0.32939615233E+02  0.38879295401E+02  0.00000000000E+00 0.  1.
</event>
<event>
 7    1  0.4623443E-009  0.4614232E+02  0.7816164E-02  0.1320468E+00
        -11   -1    0    0    0    0  0.00000000000E+00  0.00000000000E+00  0.45593999997E+02  0.45594000000E+02  0.51100000000E-03 0. -1.
         11   -1    0    0    0    0 -0.00000000000E+00 -0.00000000000E+00 -0.45593999997E+02  0.45594000000E+02  0.51100000000E-03 0.  1.
    9900012    2    1    2    0    0 -0.99924087466E+01 -0.34898753406E+02 -0.26670999303E+02  0.46142318457E+02  0.10000006347E+02 0.  0.
         12    1    1    2    0    0  0.99924087466E+01  0.34898753406E+02  0.26670999303E+02  0.45045681543E+02  0.00000000000E+00 0. -1.
         11    1    3    3    0    0 -0.21592454676E+01 -0.39792955277E+01 -0.21775884091E+01  0.50238456810E+01  0.51100000000E-03 0. -1.
        -11    1    3    3    0    0 -0.57867568088E+01 -0.30171488477E+02 -0.23696196183E+02  0.38798388950E+02  0.51100000000E-03 0.  1.
        -12    1    3    3    0    0 -0.20464064702E+01 -0.74796940117E+00 -0.79721471058E+00  0.23200838263E+01  0.00000000000E+00 0.  1.
</event>
<event>
 7    1  0.4623443E-009  0.4614232E+02  0.7816164E-02  0.1320468E+00
        -11   -1    0    0    0    0  0.00000000000E+00  0.00000000000E+00  0.45593999997E+02  0.45594000000E+02  0.51100000000E-03 0. -1.
         11   -1    0    0    0    0 -0.00000000000E+00 -0.00000000000E+00 -0.45593999997E+02  0.45594000000E+02  0.51100000000E-03 0.  1.
    9900012    2    1    2    0    0  0.18822538781E+02  0.28953324865E+02 -0.28922837564E+02  0.46142317413E+02  0.99999968301E+01 0.  0.
         12    1    1    2    0    0 -0.18822538781E+02 -0.28953324865E+02  0.28922837564E+02  0.45045682587E+02  0.00000000000E+00 0. -1.
         11    1    3    3    0    0  0.13306868030E+02  0.19271618274E+02 -0.13931426154E+02  0.27249819130E+02  0.51100000000E-03 0. -1.
        -11    1    3    3    0    0  0.54637259820E+01  0.82400400498E+01 -0.11830045241E+02  0.15417539761E+02  0.51100000000E-03 0.  1.
         12    1    3    3    0    0  0.51944769328E-01  0.14416665410E+01 -0.31613661691E+01  0.34749585220E+01  0.00000000000E+00 0. -1.
</event>
<event>
 7    1  0.5031416E-009  0.4614232E+02  0.7816164E-02  0.1320468E+00
        -11   -1    0    0    0    0  0.00000000000E+00  0.00000000000E+00  0.45593999997E+02  0.45594000000E+02  0.51100000000E-03 0. -1.
         11   -1    0    0    0    0 -0.00000000000E+00 -0.00000000000E+00 -0.45593999997E+02  0.45594000000E+02  0.51100000000E-03 0.  1.
    9900012    2    1    2    0    0 -0.13905552881E+02 -0.28445137492E+02 -0.32040960624E+02  0.46142318680E+02  0.10000008377E+02 0.  0.
         12    1    1    2    0    0  0.13905552881E+02  0.28445137492E+02  0.32040960624E+02  0.45045681320E+02  0.00000000000E+00 0. -1.
         11    1    3    3    0    0 -0.22548121231E+01 -0.12251643437E+02 -0.88245042554E+01  0.15266264121E+02  0.51100000000E-03 0. -1.
        -11    1    3    3    0    0 -0.46896111980E+01 -0.99229940017E+01 -0.13024267882E+02  0.17032023287E+02  0.51100000000E-03 0.  1.
         12    1    3    3    0    0 -0.69611295596E+01 -0.62705000538E+01 -0.10192188487E+02  0.13844031271E+02  0.00000000000E+00 0. -1.
</event>
<event>
 7    1  0.4623443E-009  0.4614232E+02  0.7816164E-02  0.1320468E+00
        -11   -1    0    0    0    0  0.00000000000E+00  0.00000000000E+00  0.45593999997E+02  0.45594000000E+02  0.51100000000E-03 0. -1.
         11   -1    0    0    0    0 -0.00000000000E+00 -0.00000000000E+00 -0.45593999997E+02  0.45594000000E+02  0.51100000000E-03 0.  1.
    9900012    2    1    2    0    0 -0.35467849126E+02  0.11245078888E+01 -0.27746727311E+02  0.46142315234E+02  0.99999769520E+01 0.  0.
         12    1    1    2    0    0  0.35467849126E+02 -0.11245078888E+01  0.27746727311E+02  0.45045684766E+02  0.00000000000E+00 0. -1.
         11    1    3    3    0    0 -0.12763624514E+02 -0.15006518035E+01 -0.11875878032E+02  0.17498529820E+02  0.51100000000E-03 0.  1.
        -11    1    3    3    0    0 -0.68700956597E+01  0.12282847428E+01 -0.88394011659E+01  0.11262411421E+02  0.51100000000E-03 0. -1.
         12    1    3    3    0    0 -0.15834128952E+02  0.13968749495E+01 -0.70314481127E+01  0.17381373993E+02  0.00000000000E+00 0. -1.
</event>
<event>
 7    1  0.4623443E-009  0.4614232E+02  0.7816164E-02  0.1320468E+00
        -11   -1    0    0    0    0  0.00000000000E+00  0.00000000000E+00  0.45593999997E+02  0.45594000000E+02  0.51100000000E-03 0. -1.
         11   -1    0    0    0    0 -0.00000000000E+00 -0.00000000000E+00 -0.45593999997E+02  0.45594000000E+02  0.51100000000E-03 0.  1.
    9900012    2    1    2    0    0  0.25111262504E+02 -0.25634638995E+02 -0.27228722487E+02  0.46142317085E+02  0.99999938381E+01 0.  0.
         12    1    1    2    0    0 -0.25111262504E+02  0.25634638995E+02  0.27228722487E+02  0.45045682915E+02  0.00000000000E+00 0. -1.
         11    1    3    3    0    0  0.16279720530E+02 -0.14765281718E+02 -0.16301265252E+02  0.27363736839E+02  0.51100000000E-03 0. -1.
        -11    1    3    3    0    0  0.96513825673E+01 -0.88698034157E+01 -0.94984573123E+01  0.16187751223E+02  0.51100000000E-03 0.  1.
         12    1    3    3    0    0 -0.81984059326E+00 -0.19995538621E+01 -0.14289999225E+01  0.25908290226E+01  0.00000000000E+00 0. -1.
</event>
<event>
 7    1  0.4623443E-009  0.4614233E+02  0.7816164E-02  0.1320468E+00
        -11   -1    0    0    0    0  0.00000000000E+00  0.00000000000E+00  0.45593999997E+02  0.45594000000E+02  0.51100000000E-03 0. -1.
         11   -1    0    0    0    0 -0.00000000000E+00 -0.00000000000E+00 -0.45593999997E+02  0.45594000000E+02  0.51100000000E-03 0.  1.
    9900012    2    1    2    0    0 -0.15960916496E+02  0.26411320542E+02  0.32814688954E+02  0.46142328517E+02  0.10000098083E+02 0.  0.
        -12    1    1    2    0    0  0.15960916496E+02 -0.26411320542E+02 -0.32814688954E+02  0.45045671483E+02  0.00000000000E+00 0.  1.
         11    1    3    3    0    0 -0.44004995793E+01  0.46247703870E+01  0.80477831973E+01  0.10272278829E+02  0.51100000000E-03 0. -1.
        -11    1    3    3    0    0 -0.11181890554E+02  0.13070795074E+02  0.15725908644E+02  0.23306320241E+02  0.51100000000E-03 0.  1.
        -12    1    3    3    0    0 -0.37852636279E+00  0.87157550815E+01  0.90409971127E+01  0.12563729448E+02  0.00000000000E+00 0.  1.
</event>
<event>
 7    1  0.4623443E-009  0.4614232E+02  0.7816164E-02  0.1320468E+00
        -11   -1    0    0    0    0  0.00000000000E+00  0.00000000000E+00  0.45593999997E+02  0.45594000000E+02  0.51100000000E-03 0. -1.
         11   -1    0    0    0    0 -0.00000000000E+00 -0.00000000000E+00 -0.45593999997E+02  0.45594000000E+02  0.51100000000E-03 0.  1.
    9900012    2    1    2    0    0  0.68324226779E+01 -0.12709308414E+01  0.44506361824E+02  0.46142317547E+02  0.99999980437E+01 0.  0.
        -12    1    1    2    0    0 -0.68324226779E+01  0.12709308414E+01 -0.44506361824E+02  0.45045682453E+02  0.00000000000E+00 0.  1.
         11    1    3    3    0    0  0.38121061323E+01  0.13606528748E+00  0.11112071267E+02  0.11748565658E+02  0.51100000000E-03 0. -1.
        -11    1    3    3    0    0  0.15233555170E+01 -0.19175930703E+01  0.32469205199E+02  0.32561435191E+02  0.51100000000E-03 0.  1.
        -12    1    3    3    0    0  0.14969610286E+01  0.51059694146E+00  0.92508535909E+00  0.18323166974E+01  0.00000000000E+00 0.  1.
</event>
<event>
 7    1  0.4623443E-009  0.4614232E+02  0.7816164E-02  0.1320468E+00
        -11   -1    0    0    0    0  0.00000000000E+00  0.00000000000E+00  0.45593999997E+02  0.45594000000E+02  0.51100000000E-03 0. -1.
         11   -1    0    0    0    0 -0.00000000000E+00 -0.00000000000E+00 -0.45593999997E+02  0.45594000000E+02  0.51100000000E-03 0.  1.
    9900012    2    1    2    0    0 -0.10778976984E+02  0.19253737520E+00 -0.43736601351E+02  0.46142315265E+02  0.99999772411E+01 0.  0.
         12    1    1    2    0    0  0.10778976984E+02 -0.19253737520E+00  0.43736601351E+02  0.45045684735E+02  0.00000000000E+00 0. -1.
         11    1    3    3    0    0 -0.20143729317E+01  0.30575296575E+01 -0.15850854447E+02  0.16268244309E+02  0.51100000000E-03 0.  1.
        -11    1    3    3    0    0 -0.61315216750E+01 -0.97525342762E+00 -0.10577548903E+02  0.12265040495E+02  0.51100000000E-03 0. -1.
         12    1    3    3    0    0 -0.26330823774E+01 -0.18897388547E+01 -0.17308198001E+02  0.17609030461E+02  0.00000000000E+00 0. -1.
</event>
<event>
 7    1  0.4623443E-009  0.4614232E+02  0.7816164E-02  0.1320468E+00
        -11   -1    0    0    0    0  0.00000000000E+00  0.00000000000E+00  0.45593999997E+02  0.45594000000E+02  0.51100000000E-03 0. -1.
         11   -1    0    0    0    0 -0.00000000000E+00 -0.00000000000E+00 -0.45593999997E+02  0.45594000000E+02  0.51100000000E-03 0.  1.
    9900012    2    1    2    0    0 -0.33686563731E+02 -0.97218330062E+01 -0.28280998276E+02  0.46142317893E+02  0.10000001201E+02 0.  0.
         12    1    1    2    0    0  0.33686563731E+02  0.97218330062E+01  0.28280998276E+02  0.45045682107E+02  0.00000000000E+00 0. -1.
         11    1    3    3    0    0  0.34166367410E+00 -0.24568296796E+00 -0.37434166345E+00  0.56322830989E+00  0.51100000000E-03 0. -1.
        -11    1    3    3    0    0 -0.26647882495E+02 -0.65774983889E+01 -0.25022706633E+02  0.37141741666E+02  0.51100000000E-03 0.  1.
         12    1    3    3    0    0 -0.73803449100E+01 -0.28986516493E+01 -0.28839499800E+01  0.84373479164E+01  0.00000000000E+00 0. -1.
</event>
<event>
 7    1  0.4623443E-009  0.4614233E+02  0.7816164E-02  0.1320468E+00
        -11   -1    0    0    0    0  0.00000000000E+00  0.00000000000E+00  0.45593999997E+02  0.45594000000E+02  0.51100000000E-03 0. -1.
         11   -1    0    0    0    0 -0.00000000000E+00 -0.00000000000E+00 -0.45593999997E+02  0.45594000000E+02  0.51100000000E-03 0.  1.
    9900012    2    1    2    0    0 -0.23131064748E+02  0.14165317259E+02 -0.35964011829E+02  0.46142328552E+02  0.10000098398E+02 0.  0.
         12    1    1    2    0    0  0.23131064748E+02 -0.14165317259E+02  0.35964011829E+02  0.45045671448E+02  0.00000000000E+00 0. -1.
         11    1    3    3    0    0 -0.75020185677E+00 -0.14332734621E+00  0.20369141455E+00  0.79046569031E+00  0.51100000000E-03 0. -1.
        -11    1    3    3    0    0 -0.17773913168E+02  0.81898667612E+01 -0.27927533214E+02  0.34101803743E+02  0.51100000000E-03 0.  1.
         12    1    3    3    0    0 -0.46069497234E+01  0.61187778438E+01 -0.82401700291E+01  0.11250059118E+02  0.00000000000E+00 0. -1.
</event>
<event>
 7    1  0.4623443E-009  0.4614231E+02  0.7816164E-02  0.1320468E+00
        -11   -1    0    0    0    0  0.00000000000E+00  0.00000000000E+00  0.45593999997E+02  0.45594000000E+02  0.51100000000E-03 0. -1.
         11   -1    0    0    0    0 -0.00000000000E+00 -0.00000000000E+00 -0.45593999997E+02  0.45594000000E+02  0.51100000000E-03 0.  1.
    9900012    2    1    2    0    0 -0.25974845807E+02  0.34122376641E+02 -0.13787116340E+02  0.46142314531E+02  0.99999705494E+01 0.  0.
         12    1    1    2    0    0  0.25974845807E+02 -0.34122376641E+02  0.13787116340E+02  0.45045685469E+02  0.00000000000E+00 0. -1.
         11    1    3    3    0    0 -0.65637749251E+01  0.91540130032E+01 -0.23655777279E+01  0.11509780779E+02  0.51100000000E-03 0. -1.
        -11    1    3    3    0    0 -0.19741499938E+02  0.24481864550E+02 -0.98525709124E+01  0.32956966873E+02  0.51100000000E-03 0.  1.
         12    1    3    3    0    0  0.33042905560E+00  0.48649908785E+00 -0.15689677000E+01  0.16755668793E+01  0.00000000000E+00 0. -1.
</event>
<event>
 7    1  0.4623443E-009  0.4614232E+02  0.7816164E-02  0.1320468E+00
        -11   -1    0    0    0    0  0.00000000000E+00  0.00000000000E+00  0.45593999997E+02  0.45594000000E+02  0.51100000000E-03 0. -1.
         11   -1    0    0    0    0 -0.00000000000E+00 -0.00000000000E+00 -0.45593999997E+02  0.45594000000E+02  0.51100000000E-03 0.  1.
    9900012    2    1    2    0    0 -0.20495160575E+02 -0.14405828095E+02  0.37437068006E+02  0.46142317066E+02  0.99999936606E+01 0.  0.
        -12    1    1    2    0    0  0.20495160575E+02  0.14405828095E+02 -0.37437068006E+02  0.45045682934E+02  0.00000000000E+00 0.  1.
         11    1    3    3    0    0 -0.51049192650E+01 -0.71393883143E+01  0.12271686143E+02  0.15087257778E+02  0.51100000000E-03 0. -1.
        -11    1    3    3    0    0 -0.59257422373E+00  0.70157823618E+00  0.16866784040E+00  0.93370516418E+00  0.51100000000E-03 0.  1.
         12    1    3    3    0    0 -0.14797667086E+02 -0.79680180169E+01  0.24996714023E+02  0.30121354124E+02  0.00000000000E+00 0. -1.
</event>
<event>
 7    1  0.4623443E-009  0.4614232E+02  0.7816164E-02  0.1320468E+00
        -11   -1    0    0    0    0  0.00000000000E+00  0.00000000000E+00  0.45593999997E+02  0.45594000000E+02  0.51100000000E-03 0. -1.
         11   -1    0    0    0    0 -0.00000000000E+00 -0.00000000000E+00 -0.45593999997E+02  0.45594000000E+02  0.51100000000E-03 0.  1.
    9900012    2    1    2    0    0  0.91861164154E+01  0.23684408091E+02  0.37199159983E+02  0.46142318466E+02  0.10000006431E+02 0.  0.
        -12    1    1    2    0    0 -0.91861164154E+01 -0.23684408091E+02 -0.37199159983E+02  0.45045681534E+02  0.00000000000E+00 0.  1.
         11    1    3    3    0    0  0.42935128127E+01  0.11254435624E+02  0.14415361248E+02  0.18785611879E+02  0.51100000000E-03 0. -1.
        -11    1    3    3    0    0  0.56498278926E+00  0.19144453410E+01  0.10211644086E+02  0.10404901812E+02  0.51100000000E-03 0.  1.
        -12    1    3    3    0    0  0.43276208134E+01  0.10515527126E+02  0.12572154649E+02  0.16951804776E+02  0.00000000000E+00 0.  1.
</event>
<event>
 7    1  0.4623443E-009  0.4614232E+02  0.7816164E-02  0.1320468E+00
        -11   -1    0    0    0    0  0.00000000000E+00  0.00000000000E+00  0.45593999997E+02  0.45594000000E+02  0.51100000000E-03 0. -1.
         11   -1    0    0    0    0 -0.00000000000E+00 -0.00000000000E+00 -0.45593999997E+02  0.45594000000E+02  0.51100000000E-03 0.  1.
    9900012    2    1    2    0    0 -0.16274029152E+02  0.77900670912E+01 -0.41274500741E+02  0.46142316727E+02  0.99999905716E+01 0.  0.
         12    1    1    2    0    0  0.16274029152E+02 -0.77900670912E+01  0.41274500741E+02  0.45045683273E+02  0.00000000000E+00 0. -1.
         11    1    3    3    0    0 -0.56883703050E+01  0.28090052805E+01 -0.75516847954E+01  0.98628601786E+01  0.51100000000E-03 0. -1.
        -11    1    3    3    0    0 -0.28219031325E+01  0.46069935072E+01 -0.17015140020E+02  0.17852241221E+02  0.51100000000E-03 0.  1.
         12    1    3    3    0    0 -0.77637557145E+01  0.37406830349E+00 -0.16707675925E+02  0.18427215327E+02  0.00000000000E+00 0. -1.
</event>
<event>
 7    1  0.4623443E-009  0.4614232E+02  0.7816164E-02  0.1320468E+00
        -11   -1    0    0    0    0  0.00000000000E+00  0.00000000000E+00  0.45593999997E+02  0.45594000000E+02  0.51100000000E-03 0. -1.
         11   -1    0    0    0    0 -0.00000000000E+00 -0.00000000000E+00 -0.45593999997E+02  0.45594000000E+02  0.51100000000E-03 0.  1.
    9900012    2    1    2    0    0 -0.26910638007E+02 -0.90977491335E+01  0.34959430681E+02  0.46142320176E+02  0.10000022025E+02 0.  0.
        -12    1    1    2    0    0  0.26910638007E+02  0.90977491335E+01 -0.34959430681E+02  0.45045679824E+02  0.00000000000E+00 0.  1.
         11    1    3    3    0    0 -0.28561452380E+01 -0.10603111710E+01  0.62576417356E+00  0.31102100350E+01  0.51100000000E-03 0. -1.
        -11    1    3    3    0    0 -0.34367173100E+01 -0.22380950288E+01  0.30148160016E+01  0.50901091355E+01  0.51100000000E-03 0.  1.
        -12    1    3    3    0    0 -0.20617775459E+02 -0.57993429338E+01  0.31318850506E+02  0.37942001006E+02  0.00000000000E+00 0.  1.
</event>
<event>
 7    1  0.4623443E-009  0.4614232E+02  0.7816164E-02  0.1320468E+00
        -11   -1    0    0    0    0  0.00000000000E+00  0.00000000000E+00  0.45593999997E+02  0.45594000000E+02  0.51100000000E-03 0. -1.
         11   -1    0    0    0    0 -0.00000000000E+00 -0.00000000000E+00 -0.45593999997E+02  0.45594000000E+02  0.51100000000E-03 0.  1.
    9900012    2    1    2    0    0 -0.13561454637E+02  0.25274813872E+02  0.34733041853E+02  0.46142318026E+02  0.10000002416E+02 0.  0.
        -12    1    1    2    0    0  0.13561454637E+02 -0.25274813872E+02 -0.34733041853E+02  0.45045681974E+02  0.00000000000E+00 0.  1.
         11    1    3    3    0    0 -0.59689553723E+01  0.11178468054E+02  0.13780502935E+02  0.18721347112E+02  0.51100000000E-03 0.  1.
        -11    1    3    3    0    0 -0.41331052656E+01  0.69643225449E+01  0.16373245071E+02  0.18266567879E+02  0.51100000000E-03 0. -1.
         12    1    3    3    0    0 -0.34593939993E+01  0.71320232723E+01  0.45792938472E+01  0.91544030356E+01  0.00000000000E+00 0. -1.
</event>
<event>
 7    1  0.4623443E-009  0.4614232E+02  0.7816164E-02  0.1320468E+00
        -11   -1    0    0    0    0  0.00000000000E+00  0.00000000000E+00  0.45593999997E+02  0.45594000000E+02  0.51100000000E-03 0. -1.
         11   -1    0    0    0    0 -0.00000000000E+00 -0.00000000000E+00 -0.45593999997E+02  0.45594000000E+02  0.51100000000E-03 0.  1.
    9900012    2    1    2    0    0 -0.74266631844E+01 -0.37591773768E+02  0.23681558924E+02  0.46142323025E+02  0.10000047999E+02 0.  0.
        -12    1    1    2    0    0  0.74266631844E+01  0.37591773768E+02 -0.23681558924E+02  0.45045676975E+02  0.00000000000E+00 0.  1.
         11    1    3    3    0    0 -0.42905869898E+01 -0.10601303732E+02  0.95843335216E+01  0.14921669707E+02  0.51100000000E-03 0. -1.
        -11    1    3    3    0    0 -0.13305198052E+01 -0.90385212359E+01  0.16057640233E+01  0.92759704314E+01  0.51100000000E-03 0.  1.
        -12    1    3    3    0    0 -0.18055563893E+01 -0.17951948800E+02  0.12491461379E+02  0.21944682887E+02  0.00000000000E+00 0.  1.
</event>
<event>
 7    1  0.4623443E-009  0.4614232E+02  0.7816164E-02  0.1320468E+00
        -11   -1    0    0    0    0  0.00000000000E+00  0.00000000000E+00  0.45593999997E+02  0.45594000000E+02  0.51100000000E-03 0. -1.
         11   -1    0    0    0    0 -0.00000000000E+00 -0.00000000000E+00 -0.45593999997E+02  0.45594000000E+02  0.51100000000E-03 0.  1.
    9900012    2    1    2    0    0 -0.19433847418E+02  0.27316403272E+02 -0.30087425226E+02  0.46142317966E+02  0.10000001870E+02 0.  0.
         12    1    1    2    0    0  0.19433847418E+02 -0.27316403272E+02  0.30087425226E+02  0.45045682034E+02  0.00000000000E+00 0. -1.
         11    1    3    3    0    0 -0.15292371295E+02  0.18977264206E+02 -0.19519359488E+02  0.31224967120E+02  0.51100000000E-03 0. -1.
        -11    1    3    3    0    0 -0.47351894740E+01  0.58729111998E+01 -0.57979627287E+01  0.95146979658E+01  0.51100000000E-03 0.  1.
        -12    1    3    3    0    0  0.59371335102E+00  0.24662278668E+01 -0.47701030089E+01  0.54026528807E+01  0.00000000000E+00 0.  1.
</event>
<event>
 7    1  0.4623443E-009  0.4614232E+02  0.7816164E-02  0.1320468E+00
        -11   -1    0    0    0    0  0.00000000000E+00  0.00000000000E+00  0.45593999997E+02  0.45594000000E+02  0.51100000000E-03 0. -1.
         11   -1    0    0    0    0 -0.00000000000E+00 -0.00000000000E+00 -0.45593999997E+02  0.45594000000E+02  0.51100000000E-03 0.  1.
    9900012    2    1    2    0    0  0.31595590888E+02  0.30258027962E+02  0.10737025749E+02  0.46142319390E+02  0.10000014850E+02 0.  0.
        -12    1    1    2    0    0 -0.31595590888E+02 -0.30258027962E+02 -0.10737025749E+02  0.45045680610E+02  0.00000000000E+00 0.  1.
         11    1    3    3    0    0  0.12440812647E+02  0.14742403089E+02  0.54925098645E+01  0.20056917336E+02  0.51100000000E-03 0. -1.
        -11    1    3    3    0    0  0.15825339211E+02  0.12477059900E+02  0.14695109467E+01  0.20205886459E+02  0.51100000000E-03 0.  1.
         12    1    3    3    0    0  0.33294390302E+01  0.30385649731E+01  0.37750049374E+01  0.58795155948E+01  0.00000000000E+00 0. -1.
</event>
<event>
 7    1  0.4623443E-009  0.4614232E+02  0.7816164E-02  0.1320468E+00
        -11   -1    0    0    0    0  0.00000000000E+00  0.00000000000E+00  0.45593999997E+02  0.45594000000E+02  0.51100000000E-03 0. -1.
         11   -1    0    0    0    0 -0.00000000000E+00 -0.00000000000E+00 -0.45593999997E+02  0.45594000000E+02  0.51100000000E-03 0.  1.
    9900012    2    1    2    0    0 -0.14679452873E+02 -0.42494789505E+01 -0.42374155677E+02  0.46142317884E+02  0.10000001119E+02 0.  0.
         12    1    1    2    0    0  0.14679452873E+02  0.42494789505E+01  0.42374155677E+02  0.45045682116E+02  0.00000000000E+00 0. -1.
         11    1    3    3    0    0 -0.49886309662E+01  0.47999086324E+00 -0.14649345923E+02  0.15482899160E+02  0.51100000000E-03 0. -1.
        -11    1    3    3    0    0 -0.38506937685E+01 -0.19094306496E+01 -0.20521482051E+02  0.20966759257E+02  0.51100000000E-03 0.  1.
        -12    1    3    3    0    0 -0.58401281385E+01 -0.28200391641E+01 -0.72033277018E+01  0.96926594669E+01  0.00000000000E+00 0.  1.
</event>
<event>
 7    1  0.4623443E-009  0.4614232E+02  0.7816164E-02  0.1320468E+00
        -11   -1    0    0    0    0  0.00000000000E+00  0.00000000000E+00  0.45593999997E+02  0.45594000000E+02  0.51100000000E-03 0.  1.
         11   -1    0    0    0    0 -0.00000000000E+00 -0.00000000000E+00 -0.45593999997E+02  0.45594000000E+02  0.51100000000E-03 0. -1.
    9900012    2    1    2    0    0 -0.44791959495E+01  0.43430095716E+02 -0.11084994101E+02  0.46142317583E+02  0.99999983747E+01 0.  0.
         12    1    1    2    0    0  0.44791959495E+01 -0.43430095716E+02  0.11084994101E+02  0.45045682417E+02  0.00000000000E+00 0. -1.
         11    1    3    3    0    0  0.20527480003E+01  0.17678895661E+02 -0.31557473744E+01  0.18075283342E+02  0.51100000000E-03 0. -1.
        -11    1    3    3    0    0 -0.44802717095E+01  0.19027949081E+02 -0.37987503386E+01  0.19913969599E+02  0.51100000000E-03 0.  1.
        -12    1    3    3    0    0 -0.20516722403E+01  0.67232509738E+01 -0.41304963876E+01  0.81530646414E+01  0.00000000000E+00 0.  1.
</event>
<event>
 7    1  0.4623443E-009  0.4614232E+02  0.7816164E-02  0.1320468E+00
        -11   -1    0    0    0    0  0.00000000000E+00  0.00000000000E+00  0.45593999997E+02  0.45594000000E+02  0.51100000000E-03 0. -1.
         11   -1    0    0    0    0 -0.00000000000E+00 -0.00000000000E+00 -0.45593999997E+02  0.45594000000E+02  0.51100000000E-03 0.  1.
    9900012    2    1    2    0    0 -0.42426238999E+01  0.13353371738E+02  0.42811225456E+02  0.46142318527E+02  0.10000006981E+02 0.  0.
        -12    1    1    2    0    0  0.42426238999E+01 -0.13353371738E+02 -0.42811225456E+02  0.45045681473E+02  0.00000000000E+00 0.  1.
         11    1    3    3    0    0 -0.28335846317E+01  0.13461932953E+02  0.29560576301E+02  0.32604915461E+02  0.51100000000E-03 0. -1.
        -11    1    3    3    0    0  0.16999468708E-01  0.84855596854E+00  0.71307446020E+01  0.71810761765E+01  0.51100000000E-03 0.  1.
         12    1    3    3    0    0 -0.14260387369E+01 -0.95711718373E+00  0.61199045536E+01  0.63563268896E+01  0.00000000000E+00 0. -1.
</event>
<event>
 7    1  0.4623443E-009  0.4614232E+02  0.7816164E-02  0.1320468E+00
        -11   -1    0    0    0    0  0.00000000000E+00  0.00000000000E+00  0.45593999997E+02  0.45594000000E+02  0.51100000000E-03 0. -1.
         11   -1    0    0    0    0 -0.00000000000E+00 -0.00000000000E+00 -0.45593999997E+02  0.45594000000E+02  0.51100000000E-03 0.  1.
    9900012    2    1    2    0    0  0.15199342116E+02  0.18621360707E+02  0.38096435332E+02  0.46142318073E+02  0.10000002840E+02 0.  0.
        -12    1    1    2    0    0 -0.15199342116E+02 -0.18621360707E+02 -0.38096435332E+02  0.45045681927E+02  0.00000000000E+00 0.  1.
         11    1    3    3    0    0  0.67073807834E+01  0.54242687786E+01  0.93502668920E+01  0.12721601313E+02  0.51100000000E-03 0. -1.
        -11    1    3    3    0    0  0.65123619754E+00 -0.68046152980E+00  0.74576985113E+00  0.12013781297E+01  0.51100000000E-03 0.  1.
         12    1    3    3    0    0  0.78407251346E+01  0.13877553458E+02  0.28000398588E+02  0.32219338630E+02  0.00000000000E+00 0. -1.
</event>
<event>
 7    1  0.4623443E-009  0.4614232E+02  0.7816164E-02  0.1320468E+00
        -11   -1    0    0    0    0  0.00000000000E+00  0.00000000000E+00  0.45593999997E+02  0.45594000000E+02  0.51100000000E-03 0. -1.
         11   -1    0    0    0    0 -0.00000000000E+00 -0.00000000000E+00 -0.45593999997E+02  0.45594000000E+02  0.51100000000E-03 0.  1.
    9900012    2    1    2    0    0  0.92313778994E+00  0.82773547772E-01 -0.45036143349E+02  0.46142320489E+02  0.10000024878E+02 0.  0.
         12    1    1    2    0    0 -0.92313778994E+00 -0.82773547772E-01  0.45036143349E+02  0.45045679511E+02  0.00000000000E+00 0. -1.
         11    1    3    3    0    0  0.26807501069E+01  0.27656278374E+01 -0.13342203320E+02  0.13887026614E+02  0.51100000000E-03 0. -1.
        -11    1    3    3    0    0 -0.12951596318E+01  0.65866798865E+00 -0.20807683543E+02  0.20858355080E+02  0.51100000000E-03 0.  1.
        -12    1    3    3    0    0 -0.46245268518E+00 -0.33415222783E+01 -0.10886256486E+02  0.11396938795E+02  0.00000000000E+00 0.  1.
</event>
<event>
 7    1  0.4623443E-009  0.4614232E+02  0.7816164E-02  0.1320468E+00
        -11   -1    0    0    0    0  0.00000000000E+00  0.00000000000E+00  0.45593999997E+02  0.45594000000E+02  0.51100000000E-03 0. -1.
         11   -1    0    0    0    0 -0.00000000000E+00 -0.00000000000E+00 -0.45593999997E+02  0.45594000000E+02  0.51100000000E-03 0.  1.
    9900012    2    1    2    0    0  0.16036504010E+02 -0.34949431793E+02  0.23462337650E+02  0.46142317282E+02  0.99999956295E+01 0.  0.
        -12    1    1    2    0    0 -0.16036504010E+02  0.34949431793E+02 -0.23462337650E+02  0.45045682718E+02  0.00000000000E+00 0.  1.
         11    1    3    3    0    0  0.53037406369E+01 -0.16943747617E+02  0.14160252571E+02  0.22709755639E+02  0.51100000000E-03 0. -1.
        -11    1    3    3    0    0  0.10320864373E+02 -0.14347417493E+02  0.87108745164E+01  0.19704008862E+02  0.51100000000E-03 0.  1.
        -12    1    3    3    0    0  0.41189900017E+00 -0.36582666826E+01  0.59121056283E+00  0.37285527805E+01  0.00000000000E+00 0.  1.
</event>
<event>
 7    1  0.4623443E-009  0.4614232E+02  0.7816164E-02  0.1320468E+00
        -11   -1    0    0    0    0  0.00000000000E+00  0.00000000000E+00  0.45593999997E+02  0.45594000000E+02  0.51100000000E-03 0. -1.
         11   -1    0    0    0    0 -0.00000000000E+00 -0.00000000000E+00 -0.45593999997E+02  0.45594000000E+02  0.51100000000E-03 0.  1.
    9900012    2    1    2    0    0 -0.25275098419E+02 -0.13440336086E+02  0.34779884581E+02  0.46142316459E+02  0.99999881233E+01 0.  0.
        -12    1    1    2    0    0  0.25275098419E+02  0.13440336086E+02 -0.34779884581E+02  0.45045683541E+02  0.00000000000E+00 0.  1.
         11    1    3    3    0    0 -0.13522023614E+02 -0.38181702780E+01  0.16376466520E+02  0.21578049097E+02  0.51100000000E-03 0. -1.
        -11    1    3    3    0    0 -0.55917752728E+01 -0.10640154163E+01  0.57193271885E+01  0.80691253093E+01  0.51100000000E-03 0.  1.
         12    1    3    3    0    0 -0.61612995327E+01 -0.85581503918E+01  0.12684090873E+02  0.16495142052E+02  0.00000000000E+00 0. -1.
</event>
<event>
 7    1  0.4623443E-009  0.4614232E+02  0.7816164E-02  0.1320468E+00
        -11   -1    0    0    0    0  0.00000000000E+00  0.00000000000E+00  0.45593999997E+02  0.45594000000E+02  0.51100000000E-03 0. -1.
         11   -1    0    0    0    0 -0.00000000000E+00 -0.00000000000E+00 -0.45593999997E+02  0.45594000000E+02  0.51100000000E-03 0.  1.
    9900012    2    1    2    0    0  0.34550852451E+02 -0.13012874637E+02 -0.25807308348E+02  0.46142317903E+02  0.10000001294E+02 0.  0.
         12    1    1    2    0    0 -0.34550852451E+02  0.13012874637E+02  0.25807308348E+02  0.45045682097E+02  0.00000000000E+00 0. -1.
         11    1    3    3    0    0  0.28172578651E+01 -0.32417017220E+00 -0.58660917721E+01  0.65156013628E+01  0.51100000000E-03 0. -1.
        -11    1    3    3    0    0  0.18880499318E+02 -0.75741190322E+01 -0.13080389363E+02  0.24185473321E+02  0.51100000000E-03 0.  1.
         12    1    3    3    0    0  0.12853095268E+02 -0.51145854322E+01 -0.68608272134E+01  0.15441243219E+02  0.00000000000E+00 0. -1.
</event>
<event>
 7    1  0.4623443E-009  0.4614232E+02  0.7816164E-02  0.1320468E+00
        -11   -1    0    0    0    0  0.00000000000E+00  0.00000000000E+00  0.45593999997E+02  0.45594000000E+02  0.51100000000E-03 0. -1.
         11   -1    0    0    0    0 -0.00000000000E+00 -0.00000000000E+00 -0.45593999997E+02  0.45594000000E+02  0.51100000000E-03 0.  1.
    9900012    2    1    2    0    0 -0.26506027637E+02  0.23186051770E+01  0.36347875300E+02  0.46142317966E+02  0.10000001869E+02 0.  0.
        -12    1    1    2    0    0  0.26506027637E+02 -0.23186051770E+01 -0.36347875300E+02  0.45045682034E+02  0.00000000000E+00 0.  1.
         11    1    3    3    0    0 -0.16892221162E+02 -0.14051693501E+01  0.16298814467E+02  0.23515377734E+02  0.51100000000E-03 0. -1.
        -11    1    3    3    0    0 -0.75173274912E+01  0.23639462897E+01  0.13713781011E+02  0.15816644541E+02  0.51100000000E-03 0.  1.
        -12    1    3    3    0    0 -0.20964789836E+01  0.13598282374E+01  0.63352798231E+01  0.68102956912E+01  0.00000000000E+00 0.  1.
</event>
<event>
 7    1  0.4623443E-009  0.4614232E+02  0.7816164E-02  0.1320468E+00
        -11   -1    0    0    0    0  0.00000000000E+00  0.00000000000E+00  0.45593999997E+02  0.45594000000E+02  0.51100000000E-03 0. -1.
         11   -1    0    0    0    0 -0.00000000000E+00 -0.00000000000E+00 -0.45593999997E+02  0.45594000000E+02  0.51100000000E-03 0.  1.
    9900012    2    1    2    0    0  0.44872787173E+02 -0.36188319531E+01  0.15654176775E+01  0.46142317567E+02  0.99999982264E+01 0.  0.
        -12    1    1    2    0    0 -0.44872787173E+02  0.36188319531E+01 -0.15654176775E+01  0.45045682433E+02  0.00000000000E+00 0.  1.
         11    1    3    3    0    0  0.30967018759E+02 -0.35010604272E+01  0.12213420635E+01  0.31188224567E+02  0.51100000000E-03 0. -1.
        -11    1    3    3    0    0  0.53132161436E+01 -0.15563440123E+00  0.28128034345E+01  0.60138466290E+01  0.51100000000E-03 0.  1.
         12    1    3    3    0    0  0.85925522708E+01  0.37862875367E-01 -0.24687278204E+01  0.89402463710E+01  0.00000000000E+00 0. -1.
</event>
<event>
 7    1  0.4623443E-009  0.4614232E+02  0.7816164E-02  0.1320468E+00
        -11   -1    0    0    0    0  0.00000000000E+00  0.00000000000E+00  0.45593999997E+02  0.45594000000E+02  0.51100000000E-03 0. -1.
         11   -1    0    0    0    0 -0.00000000000E+00 -0.00000000000E+00 -0.45593999997E+02  0.45594000000E+02  0.51100000000E-03 0.  1.
    9900012    2    1    2    0    0 -0.83459765762E+01 -0.14633175725E+02  0.41777127250E+02  0.46142317432E+02  0.99999969959E+01 0.  0.
        -12    1    1    2    0    0  0.83459765762E+01  0.14633175725E+02 -0.41777127250E+02  0.45045682568E+02  0.00000000000E+00 0.  1.
         11    1    3    3    0    0 -0.16927704198E+01 -0.57541915291E+01  0.26611614835E+02  0.27279190535E+02  0.51100000000E-03 0. -1.
        -11    1    3    3    0    0 -0.35098700174E+01 -0.48848138423E+01  0.95741319927E+01  0.11306838528E+02  0.51100000000E-03 0.  1.
        -12    1    3    3    0    0 -0.31433361389E+01 -0.39941703535E+01  0.55913804218E+01  0.75562883691E+01  0.00000000000E+00 0.  1.
</event>
<event>
 7    1  0.4623443E-009  0.4614232E+02  0.7816164E-02  0.1320468E+00
        -11   -1    0    0    0    0  0.00000000000E+00  0.00000000000E+00  0.45593999997E+02  0.45594000000E+02  0.51100000000E-03 0. -1.
         11   -1    0    0    0    0 -0.00000000000E+00 -0.00000000000E+00 -0.45593999997E+02  0.45594000000E+02  0.51100000000E-03 0.  1.
    9900012    2    1    2    0    0  0.10808851676E+02  0.22714028779E+02  0.37367835213E+02  0.46142317782E+02  0.10000000194E+02 0.  0.
        -12    1    1    2    0    0 -0.10808851676E+02 -0.22714028779E+02 -0.37367835213E+02  0.45045682218E+02  0.00000000000E+00 0.  1.
         11    1    3    3    0    0  0.56738505130E+01  0.13320361388E+02  0.17534772209E+02  0.22739675544E+02  0.51100000000E-03 0. -1.
        -11    1    3    3    0    0  0.16206742734E+01  0.86862345163E+01  0.13910845519E+02  0.16479953838E+02  0.51100000000E-03 0.  1.
         12    1    3    3    0    0  0.35143268894E+01  0.70743287484E+00  0.59222174853E+01  0.69226884013E+01  0.00000000000E+00 0. -1.
</event>
<event>
 7    1  0.4623443E-009  0.4614232E+02  0.7816164E-02  0.1320468E+00
        -11   -1    0    0    0    0  0.00000000000E+00  0.00000000000E+00  0.45593999997E+02  0.45594000000E+02  0.51100000000E-03 0. -1.
         11   -1    0    0    0    0 -0.00000000000E+00 -0.00000000000E+00 -0.45593999997E+02  0.45594000000E+02  0.51100000000E-03 0.  1.
    9900012    2    1    2    0    0  0.92201868539E+01 -0.20178342710E+02  0.39203770371E+02  0.46142323499E+02  0.10000052325E+02 0.  0.
        -12    1    1    2    0    0 -0.92201868539E+01  0.20178342710E+02 -0.39203770371E+02  0.45045676501E+02  0.00000000000E+00 0.  1.
         11    1    3    3    0    0  0.33349783691E+01 -0.10203140142E+02  0.15274603852E+02  0.18669217245E+02  0.51100000000E-03 0. -1.
        -11    1    3    3    0    0  0.87698895464E-01 -0.19831300281E+01  0.49787813321E+00  0.20465528826E+01  0.51100000000E-03 0.  1.
        -12    1    3    3    0    0  0.57975095893E+01 -0.79920725398E+01  0.23431288386E+02  0.25426553371E+02  0.00000000000E+00 0.  1.
</event>
<event>
 7    1  0.4623443E-009  0.4614232E+02  0.7816164E-02  0.1320468E+00
        -11   -1    0    0    0    0  0.00000000000E+00  0.00000000000E+00  0.45593999997E+02  0.45594000000E+02  0.51100000000E-03 0. -1.
         11   -1    0    0    0    0 -0.00000000000E+00 -0.00000000000E+00 -0.45593999997E+02  0.45594000000E+02  0.51100000000E-03 0.  1.
    9900012    2    1    2    0    0 -0.18627494929E+02  0.27388501509E+02  0.30528675235E+02  0.46142316591E+02  0.99999893260E+01 0.  0.
        -12    1    1    2    0    0  0.18627494929E+02 -0.27388501509E+02 -0.30528675235E+02  0.45045683409E+02  0.00000000000E+00 0.  1.
         11    1    3    3    0    0 -0.99594257933E+01  0.14928610919E+02  0.21096566082E+02  0.27696907531E+02  0.51100000000E-03 0. -1.
        -11    1    3    3    0    0 -0.50850862830E+00 -0.34997224412E+00  0.67110479871E+00  0.91183524207E+00  0.51100000000E-03 0.  1.
        -12    1    3    3    0    0 -0.81595605079E+01  0.12809862834E+02  0.87610043543E+01  0.17533573817E+02  0.00000000000E+00 0.  1.
</event>
<event>
 7    1  0.4623443E-009  0.4614232E+02  0.7816164E-02  0.1320468E+00
        -11   -1    0    0    0    0  0.00000000000E+00  0.00000000000E+00  0.45593999997E+02  0.45594000000E+02  0.51100000000E-03 0. -1.
         11   -1    0    0    0    0 -0.00000000000E+00 -0.00000000000E+00 -0.45593999997E+02  0.45594000000E+02  0.51100000000E-03 0.  1.
    9900012    2    1    2    0    0 -0.14402816155E+02  0.30790208640E+02  0.29557323877E+02  0.46142318120E+02  0.10000003271E+02 0.  0.
        -12    1    1    2    0    0  0.14402816155E+02 -0.30790208640E+02 -0.29557323877E+02  0.45045681880E+02  0.00000000000E+00 0.  1.
         11    1    3    3    0    0 -0.51149195277E+01  0.17004024392E+02  0.17088064098E+02  0.24643481535E+02  0.51100000000E-03 0. -1.
        -11    1    3    3    0    0  0.52235886093E+00  0.15498429174E+01  0.33532205072E+00  0.16695247788E+01  0.51100000000E-03 0.  1.
        -12    1    3    3    0    0 -0.98102554882E+01  0.12236341331E+02  0.12133937728E+02  0.19829311806E+02  0.00000000000E+00 0.  1.
</event>
<event>
 7    1  0.4623443E-009  0.4614232E+02  0.7816164E-02  0.1320468E+00
        -11   -1    0    0    0    0  0.00000000000E+00  0.00000000000E+00  0.45593999997E+02  0.45594000000E+02  0.51100000000E-03 0. -1.
         11   -1    0    0    0    0 -0.00000000000E+00 -0.00000000000E+00 -0.45593999997E+02  0.45594000000E+02  0.51100000000E-03 0.  1.
    9900012    2    1    2    0    0  0.39726718842E+02 -0.11110706706E+02 -0.18095675852E+02  0.46142317876E+02  0.10000001050E+02 0.  0.
         12    1    1    2    0    0 -0.39726718842E+02  0.11110706706E+02  0.18095675852E+02  0.45045682124E+02  0.00000000000E+00 0. -1.
         11    1    3    3    0    0  0.13687414105E+02 -0.66850161007E+01 -0.64031135386E+01  0.16523758907E+02  0.51100000000E-03 0. -1.
        -11    1    3    3    0    0  0.24041675663E+02 -0.32894531756E+01 -0.85554359338E+01  0.25729713468E+02  0.51100000000E-03 0.  1.
         12    1    3    3    0    0  0.19976290740E+01 -0.11362374299E+01 -0.31371263798E+01  0.38888455018E+01  0.00000000000E+00 0. -1.
</event>
<event>
 7    1  0.7146440E-009  0.4614232E+02  0.7816164E-02  0.1320468E+00
        -11   -1    0    0    0    0  0.00000000000E+00  0.00000000000E+00  0.45593999997E+02  0.45594000000E+02  0.51100000000E-03 0. -1.
         11   -1    0    0    0    0 -0.00000000000E+00 -0.00000000000E+00 -0.45593999997E+02  0.45594000000E+02  0.51100000000E-03 0.  1.
    9900012    2    1    2    0    0 -0.13132833070E+02  0.24137028903E+02 -0.35693780174E+02  0.46142318611E+02  0.10000007747E+02 0.  0.
         12    1    1    2    0    0  0.13132833070E+02 -0.24137028903E+02  0.35693780174E+02  0.45045681389E+02  0.00000000000E+00 0. -1.
         11    1    3    3    0    0 -0.19036802677E+01  0.79558563264E+01 -0.68164844535E+01  0.10648197454E+02  0.51100000000E-03 0. -1.
        -11    1    3    3    0    0 -0.31218095629E+01  0.98938655075E+01 -0.14174502327E+02  0.17565613741E+02  0.51100000000E-03 0.  1.
         12    1    3    3    0    0 -0.81073432397E+01  0.62873070695E+01 -0.14702793393E+02  0.17928507416E+02  0.00000000000E+00 0. -1.
</event>
<event>
 7    1  0.4623443E-009  0.4614232E+02  0.7816164E-02  0.1320468E+00
        -11   -1    0    0    0    0  0.00000000000E+00  0.00000000000E+00  0.45593999997E+02  0.45594000000E+02  0.51100000000E-03 0. -1.
         11   -1    0    0    0    0 -0.00000000000E+00 -0.00000000000E+00 -0.45593999997E+02  0.45594000000E+02  0.51100000000E-03 0.  1.
    9900012    2    1    2    0    0  0.80753311779E+01  0.16037204288E+02 -0.41312353668E+02  0.46142318069E+02  0.10000002807E+02 0.  0.
         12    1    1    2    0    0 -0.80753311779E+01 -0.16037204288E+02  0.41312353668E+02  0.45045681931E+02  0.00000000000E+00 0. -1.
         11    1    3    3    0    0  0.11328396372E+01  0.99901749109E+01 -0.19347559592E+02  0.21804012998E+02  0.51100000000E-03 0.  1.
        -11    1    3    3    0    0  0.72456321619E+01  0.63853316897E+01 -0.21819618605E+02  0.23861420799E+02  0.51100000000E-03 0. -1.
         12    1    3    3    0    0 -0.30314062121E+00 -0.33830231256E+00 -0.14517547088E+00  0.47688427134E+00  0.00000000000E+00 0. -1.
</event>
<event>
 7    1  0.4623443E-009  0.4614232E+02  0.7816164E-02  0.1320468E+00
        -11   -1    0    0    0    0  0.00000000000E+00  0.00000000000E+00  0.45593999997E+02  0.45594000000E+02  0.51100000000E-03 0. -1.
         11   -1    0    0    0    0 -0.00000000000E+00 -0.00000000000E+00 -0.45593999997E+02  0.45594000000E+02  0.51100000000E-03 0.  1.
    9900012    2    1    2    0    0 -0.48623990876E+01 -0.96550083634E+01  0.43729297785E+02  0.46142316565E+02  0.99999890890E+01 0.  0.
        -12    1    1    2    0    0  0.48623990876E+01  0.96550083634E+01 -0.43729297785E+02  0.45045683435E+02  0.00000000000E+00 0.  1.
         11    1    3    3    0    0 -0.17669142070E+01 -0.37168203243E+01  0.22937267719E+02  0.23303540285E+02  0.51100000000E-03 0. -1.
        -11    1    3    3    0    0 -0.46593866614E+01 -0.41200550145E+01  0.18515023968E+02  0.19531790757E+02  0.51100000000E-03 0.  1.
        -12    1    3    3    0    0  0.15639017808E+01 -0.18181330246E+01  0.22770060982E+01  0.33069855225E+01  0.00000000000E+00 0.  1.
</event>
<event>
 7    1  0.4623443E-009  0.4614232E+02  0.7816164E-02  0.1320468E+00
        -11   -1    0    0    0    0  0.00000000000E+00  0.00000000000E+00  0.45593999997E+02  0.45594000000E+02  0.51100000000E-03 0.  1.
         11   -1    0    0    0    0 -0.00000000000E+00 -0.00000000000E+00 -0.45593999997E+02  0.45594000000E+02  0.51100000000E-03 0. -1.
    9900012    2    1    2    0    0  0.32359161001E+02 -0.26417515201E+02 -0.16855653835E+02  0.46142317895E+02  0.10000001219E+02 0.  0.
         12    1    1    2    0    0 -0.32359161001E+02  0.26417515201E+02  0.16855653835E+02  0.45045682105E+02  0.00000000000E+00 0. -1.
         11    1    3    3    0    0  0.12927658361E+02 -0.14042370261E+02 -0.82727849991E+01  0.20802679759E+02  0.51100000000E-03 0.  1.
        -11    1    3    3    0    0  0.12087571351E+02 -0.66602325376E+01 -0.81417720041E+01  0.16023624130E+02  0.51100000000E-03 0. -1.
        -12    1    3    3    0    0  0.73439312895E+01 -0.57149124025E+01 -0.44109683196E+00  0.93160140065E+01  0.00000000000E+00 0.  1.
</event>
<event>
 7    1  0.4623443E-009  0.4614232E+02  0.7816164E-02  0.1320468E+00
        -11   -1    0    0    0    0  0.00000000000E+00  0.00000000000E+00  0.45593999997E+02  0.45594000000E+02  0.51100000000E-03 0. -1.
         11   -1    0    0    0    0 -0.00000000000E+00 -0.00000000000E+00 -0.45593999997E+02  0.45594000000E+02  0.51100000000E-03 0.  1.
    9900012    2    1    2    0    0 -0.31771397060E+02  0.29770473071E+02  0.11550357083E+02  0.46142317779E+02  0.10000000164E+02 0.  0.
        -12    1    1    2    0    0  0.31771397060E+02 -0.29770473071E+02 -0.11550357083E+02  0.45045682221E+02  0.00000000000E+00 0.  1.
         11    1    3    3    0    0 -0.12959870048E+02  0.11221648276E+02  0.46812366366E+01  0.17770694932E+02  0.51100000000E-03 0. -1.
        -11    1    3    3    0    0 -0.11675580391E+02  0.11020998416E+02  0.23181370306E+00  0.16057251365E+02  0.51100000000E-03 0.  1.
         12    1    3    3    0    0 -0.71359466215E+01  0.75278263794E+01  0.66373067436E+01  0.12314371482E+02  0.00000000000E+00 0. -1.
</event>
<event>
 7    1  0.4623443E-009  0.4614232E+02  0.7816164E-02  0.1320468E+00
        -11   -1    0    0    0    0  0.00000000000E+00  0.00000000000E+00  0.45593999997E+02  0.45594000000E+02  0.51100000000E-03 0. -1.
         11   -1    0    0    0    0 -0.00000000000E+00 -0.00000000000E+00 -0.45593999997E+02  0.45594000000E+02  0.51100000000E-03 0.  1.
    9900012    2    1    2    0    0  0.39577682529E+02 -0.21086786936E+02  0.42506320594E+01  0.46142318625E+02  0.10000007875E+02 0.  0.
         12    1    1    2    0    0 -0.39577682529E+02  0.21086786936E+02 -0.42506320594E+01  0.45045681375E+02  0.00000000000E+00 0. -1.
         11    1    3    3    0    0  0.63563743372E+01 -0.76788824160E+00  0.25379046373E+01  0.68872423563E+01  0.51100000000E-03 0. -1.
        -11    1    3    3    0    0  0.16664820166E+02 -0.75079084804E+01  0.11278539277E+01  0.18312754453E+02  0.51100000000E-03 0.  1.
        -12    1    3    3    0    0  0.16556488026E+02 -0.12810990214E+02  0.58487349448E+00  0.20942321816E+02  0.00000000000E+00 0.  1.
</event>
<event>
 7    1  0.4623443E-009  0.4614232E+02  0.7816164E-02  0.1320468E+00
        -11   -1    0    0    0    0  0.00000000000E+00  0.00000000000E+00  0.45593999997E+02  0.45594000000E+02  0.51100000000E-03 0. -1.
         11   -1    0    0    0    0 -0.00000000000E+00 -0.00000000000E+00 -0.45593999997E+02  0.45594000000E+02  0.51100000000E-03 0.  1.
    9900012    2    1    2    0    0  0.26023226706E+02  0.79034476915E+01  0.35908782879E+02  0.46142317616E+02  0.99999986777E+01 0.  0.
        -12    1    1    2    0    0 -0.26023226706E+02 -0.79034476915E+01 -0.35908782879E+02  0.45045682384E+02  0.00000000000E+00 0.  1.
         11    1    3    3    0    0  0.65442912107E+01  0.22272281082E+01  0.72766726212E+01  0.10036844982E+02  0.51100000000E-03 0. -1.
        -11    1    3    3    0    0  0.11693077606E+02  0.17553499370E+01  0.98141605955E+01  0.15366426578E+02  0.51100000000E-03 0.  1.
         12    1    3    3    0    0  0.77858578889E+01  0.39208696463E+01  0.18817949662E+02  0.20739046056E+02  0.00000000000E+00 0. -1.
</event>
<event>
 7    1  0.4623443E-009  0.4614232E+02  0.7816164E-02  0.1320468E+00
        -11   -1    0    0    0    0  0.00000000000E+00  0.00000000000E+00  0.45593999997E+02  0.45594000000E+02  0.51100000000E-03 0. -1.
         11   -1    0    0    0    0 -0.00000000000E+00 -0.00000000000E+00 -0.45593999997E+02  0.45594000000E+02  0.51100000000E-03 0.  1.
    9900012    2    1    2    0    0 -0.53198458705E+01  0.22605151234E+02  0.38598185019E+02  0.46142317530E+02  0.99999978963E+01 0.  0.
        -12    1    1    2    0    0  0.53198458705E+01 -0.22605151234E+02 -0.38598185019E+02  0.45045682470E+02  0.00000000000E+00 0.  1.
         11    1    3    3    0    0 -0.25032522585E+01  0.72350112811E+01  0.74252178029E+01  0.10665154466E+02  0.51100000000E-03 0.  1.
        -11    1    3    3    0    0 -0.48581452566E+01  0.94832417820E+01  0.18313538822E+02  0.21187712347E+02  0.51100000000E-03 0. -1.
         12    1    3    3    0    0  0.20415516446E+01  0.58868981707E+01  0.12859428394E+02  0.14289450718E+02  0.00000000000E+00 0. -1.
</event>
<event>
 7    1  0.4623443E-009  0.4614232E+02  0.7816164E-02  0.1320468E+00
        -11   -1    0    0    0    0  0.00000000000E+00  0.00000000000E+00  0.45593999997E+02  0.45594000000E+02  0.51100000000E-03 0. -1.
         11   -1    0    0    0    0 -0.00000000000E+00 -0.00000000000E+00 -0.45593999997E+02  0.45594000000E+02  0.51100000000E-03 0.  1.
    9900012    2    1    2    0    0 -0.21455773710E+02  0.27024903372E+02  0.28955446722E+02  0.46142317381E+02  0.99999965308E+01 0.  0.
        -12    1    1    2    0    0  0.21455773710E+02 -0.27024903372E+02 -0.28955446722E+02  0.45045682619E+02  0.00000000000E+00 0.  1.
         11    1    3    3    0    0 -0.90614336698E+01  0.11085314771E+02  0.62413633006E+01  0.15618847583E+02  0.51100000000E-03 0. -1.
        -11    1    3    3    0    0 -0.10695148468E+02  0.13498924002E+02  0.17716117108E+02  0.24707649739E+02  0.51100000000E-03 0.  1.
        -12    1    3    3    0    0 -0.16991915726E+01  0.24406645994E+01  0.49979663133E+01  0.58158200588E+01  0.00000000000E+00 0.  1.
</event>
<event>
 7    1  0.4623443E-009  0.4614232E+02  0.7816164E-02  0.1320468E+00
        -11   -1    0    0    0    0  0.00000000000E+00  0.00000000000E+00  0.45593999997E+02  0.45594000000E+02  0.51100000000E-03 0. -1.
         11   -1    0    0    0    0 -0.00000000000E+00 -0.00000000000E+00 -0.45593999997E+02  0.45594000000E+02  0.51100000000E-03 0.  1.
    9900012    2    1    2    0    0 -0.20736471432E+02 -0.23807157758E+02  0.32129906279E+02  0.46142324453E+02  0.10000061020E+02 0.  0.
        -12    1    1    2    0    0  0.20736471432E+02  0.23807157758E+02 -0.32129906279E+02  0.45045675547E+02  0.00000000000E+00 0.  1.
         11    1    3    3    0    0 -0.15742562924E+02 -0.20680148484E+02  0.25476600380E+02  0.36394422593E+02  0.51100000000E-03 0. -1.
        -11    1    3    3    0    0 -0.36102632891E+00  0.91276272337E-02 -0.53103796488E+00  0.64220316490E+00  0.51100000000E-03 0.  1.
        -12    1    3    3    0    0 -0.46328821795E+01 -0.31361369012E+01  0.71843438644E+01  0.91056986944E+01  0.00000000000E+00 0.  1.
</event>
<event>
 7    1  0.4623443E-009  0.4614232E+02  0.7816164E-02  0.1320468E+00
        -11   -1    0    0    0    0  0.00000000000E+00  0.00000000000E+00  0.45593999997E+02  0.45594000000E+02  0.51100000000E-03 0.  1.
         11   -1    0    0    0    0 -0.00000000000E+00 -0.00000000000E+00 -0.45593999997E+02  0.45594000000E+02  0.51100000000E-03 0. -1.
    9900012    2    1    2    0    0  0.24727416445E+02  0.34528475036E+02  0.15015088444E+02  0.46142316596E+02  0.99999893727E+01 0.  0.
         12    1    1    2    0    0 -0.24727416445E+02 -0.34528475036E+02 -0.15015088444E+02  0.45045683404E+02  0.00000000000E+00 0. -1.
         11    1    3    3    0    0  0.60141343459E+01  0.12080109425E+02  0.83995283350E+01  0.15894997080E+02  0.51100000000E-03 0. -1.
        -11    1    3    3    0    0  0.14439864694E+02  0.14348700061E+02  0.46378740034E+01  0.20878332341E+02  0.51100000000E-03 0.  1.
         12    1    3    3    0    0  0.42734174047E+01  0.80996655509E+01  0.19776861059E+01  0.93689871750E+01  0.00000000000E+00 0. -1.
</event>
<event>
 7    1  0.4623443E-009  0.4614232E+02  0.7816164E-02  0.1320468E+00
        -11   -1    0    0    0    0  0.00000000000E+00  0.00000000000E+00  0.45593999997E+02  0.45594000000E+02  0.51100000000E-03 0.  1.
         11   -1    0    0    0    0 -0.00000000000E+00 -0.00000000000E+00 -0.45593999997E+02  0.45594000000E+02  0.51100000000E-03 0. -1.
    9900012    2    1    2    0    0 -0.19627346219E+02  0.40436899444E+02  0.29560017344E+01  0.46142317604E+02  0.99999985689E+01 0.  0.
        -12    1    1    2    0    0  0.19627346219E+02 -0.40436899444E+02 -0.29560017344E+01  0.45045682396E+02  0.00000000000E+00 0.  1.
         11    1    3    3    0    0 -0.94368500362E+01  0.23167340638E+02  0.38460652378E+01  0.25309524470E+02  0.51100000000E-03 0. -1.
        -11    1    3    3    0    0 -0.11217603527E+01  0.45584440889E+01 -0.21582946711E+01  0.51668167133E+01  0.51100000000E-03 0.  1.
        -12    1    3    3    0    0 -0.90687358304E+01  0.12711114717E+02  0.12682311677E+01  0.15665976421E+02  0.00000000000E+00 0.  1.
</event>
<event>
 7    1  0.5046495E-009  0.4614232E+02  0.7816164E-02  0.1320468E+00
        -11   -1    0    0    0    0  0.00000000000E+00  0.00000000000E+00  0.45593999997E+02  0.45594000000E+02  0.51100000000E-03 0. -1.
         11   -1    0    0    0    0 -0.00000000000E+00 -0.00000000000E+00 -0.45593999997E+02  0.45594000000E+02  0.51100000000E-03 0.  1.
    9900012    2    1    2    0    0  0.18654312148E+02  0.28524266200E+02 -0.29453292170E+02  0.46142317147E+02  0.99999944043E+01 0.  0.
         12    1    1    2    0    0 -0.18654312148E+02 -0.28524266200E+02  0.29453292170E+02  0.45045682853E+02  0.00000000000E+00 0. -1.
         11    1    3    3    0    0  0.27896507479E+01  0.18099995120E+01 -0.64734884244E+01  0.72776577393E+01  0.51100000000E-03 0. -1.
        -11    1    3    3    0    0  0.11165217466E+02  0.16638173736E+02 -0.16775934209E+02  0.26132793099E+02  0.51100000000E-03 0.  1.
         12    1    3    3    0    0  0.46994439340E+01  0.10076092952E+02 -0.62038695374E+01  0.12731866309E+02  0.00000000000E+00 0. -1.
</event>
<event>
 7    1  0.4623443E-009  0.4614232E+02  0.7816164E-02  0.1320468E+00
        -11   -1    0    0    0    0  0.00000000000E+00  0.00000000000E+00  0.45593999997E+02  0.45594000000E+02  0.51100000000E-03 0. -1.
         11   -1    0    0    0    0 -0.00000000000E+00 -0.00000000000E+00 -0.45593999997E+02  0.45594000000E+02  0.51100000000E-03 0.  1.
    9900012    2    1    2    0    0  0.19920096047E+02 -0.17382410742E+02 -0.36471291166E+02  0.46142317532E+02  0.99999979091E+01 0.  0.
         12    1    1    2    0    0 -0.19920096047E+02  0.17382410742E+02  0.36471291166E+02  0.45045682468E+02  0.00000000000E+00 0. -1.
         11    1    3    3    0    0  0.58012397332E+01 -0.91934760933E+01 -0.10553417959E+02  0.15150875090E+02  0.51100000000E-03 0.  1.
        -11    1    3    3    0    0  0.37777007208E+00 -0.66179194577E+00 -0.69221653605E-01  0.76516057485E+00  0.51100000000E-03 0. -1.
        -12    1    3    3    0    0  0.13741086242E+02 -0.75271427030E+01 -0.25848651553E+02  0.30226281867E+02  0.00000000000E+00 0.  1.
</event>
<event>
 7    1  0.4623443E-009  0.4614232E+02  0.7816164E-02  0.1320468E+00
        -11   -1    0    0    0    0  0.00000000000E+00  0.00000000000E+00  0.45593999997E+02  0.45594000000E+02  0.51100000000E-03 0. -1.
         11   -1    0    0    0    0 -0.00000000000E+00 -0.00000000000E+00 -0.45593999997E+02  0.45594000000E+02  0.51100000000E-03 0.  1.
    9900012    2    1    2    0    0  0.35503070423E+02  0.58930471159E+01  0.27090912495E+02  0.46142317037E+02  0.99999933950E+01 0.  0.
        -12    1    1    2    0    0 -0.35503070423E+02 -0.58930471159E+01 -0.27090912495E+02  0.45045682963E+02  0.00000000000E+00 0.  1.
         11    1    3    3    0    0  0.70227497559E+01 -0.42008946139E+00  0.25794679540E+01  0.74932732818E+01  0.51100000000E-03 0. -1.
        -11    1    3    3    0    0  0.15845400033E+02  0.64820293680E+01  0.15839948610E+02  0.23323751395E+02  0.51100000000E-03 0.  1.
        -12    1    3    3    0    0  0.12634920635E+02 -0.16889279069E+00  0.86714959313E+01  0.15325292360E+02  0.00000000000E+00 0.  1.
</event>
<event>
 7    1  0.4623443E-009  0.4614232E+02  0.7816164E-02  0.1320468E+00
        -11   -1    0    0    0    0  0.00000000000E+00  0.00000000000E+00  0.45593999997E+02  0.45594000000E+02  0.51100000000E-03 0. -1.
         11   -1    0    0    0    0 -0.00000000000E+00 -0.00000000000E+00 -0.45593999997E+02  0.45594000000E+02  0.51100000000E-03 0.  1.
    9900012    2    1    2    0    0 -0.48303439394E+01  0.11186093126E+02  0.43366494146E+02  0.46142315229E+02  0.99999769111E+01 0.  0.
        -12    1    1    2    0    0  0.48303439394E+01 -0.11186093126E+02 -0.43366494146E+02  0.45045684771E+02  0.00000000000E+00 0.  1.
         11    1    3    3    0    0  0.91469681533E+00  0.48716215490E+01  0.89828373577E+01  0.10259665396E+02  0.51100000000E-03 0. -1.
        -11    1    3    3    0    0  0.95093059495E+00  0.17594528198E+01  0.97139318008E+01  0.99176819123E+01  0.51100000000E-03 0.  1.
         12    1    3    3    0    0 -0.66959713496E+01  0.45550187577E+01  0.24669724987E+02  0.25964967921E+02  0.00000000000E+00 0. -1.
</event>
<event>
 7    1  0.4623443E-009  0.4614232E+02  0.7816164E-02  0.1320468E+00
        -11   -1    0    0    0    0  0.00000000000E+00  0.00000000000E+00  0.45593999997E+02  0.45594000000E+02  0.51100000000E-03 0.  1.
         11   -1    0    0    0    0 -0.00000000000E+00 -0.00000000000E+00 -0.45593999997E+02  0.45594000000E+02  0.51100000000E-03 0. -1.
    9900012    2    1    2    0    0 -0.65725823205E+01  0.43433388182E+02 -0.99727404355E+01  0.46142316532E+02  0.99999887940E+01 0.  0.
         12    1    1    2    0    0  0.65725823205E+01 -0.43433388182E+02  0.99727404355E+01  0.45045683468E+02  0.00000000000E+00 0. -1.
         11    1    3    3    0    0 -0.44103809678E+01  0.24116308766E+02 -0.36016283157E+01  0.24779417579E+02  0.51100000000E-03 0. -1.
        -11    1    3    3    0    0 -0.13905166258E+01  0.10325367734E+02 -0.18267545145E+00  0.10420178785E+02  0.51100000000E-03 0.  1.
         12    1    3    3    0    0 -0.77168472692E+00  0.89917116823E+01 -0.61884366684E+01  0.10942720169E+02  0.00000000000E+00 0. -1.
</event>
<event>
 7    1  0.4623443E-009  0.4614232E+02  0.7816164E-02  0.1320468E+00
        -11   -1    0    0    0    0  0.00000000000E+00  0.00000000000E+00  0.45593999997E+02  0.45594000000E+02  0.51100000000E-03 0. -1.
         11   -1    0    0    0    0 -0.00000000000E+00 -0.00000000000E+00 -0.45593999997E+02  0.45594000000E+02  0.51100000000E-03 0.  1.
    9900012    2    1    2    0    0  0.66528407935E+01  0.43802641102E+02  0.81352110251E+01  0.46142319668E+02  0.10000017387E+02 0.  0.
        -12    1    1    2    0    0 -0.66528407935E+01 -0.43802641102E+02 -0.81352110251E+01  0.45045680332E+02  0.00000000000E+00 0.  1.
         11    1    3    3    0    0  0.38410142593E+01  0.23937225605E+02  0.16118789623E+01  0.24296961009E+02  0.51100000000E-03 0. -1.
        -11    1    3    3    0    0  0.18597298678E+00  0.16801053640E+02  0.49769097337E+01  0.17523687401E+02  0.51100000000E-03 0.  1.
         12    1    3    3    0    0  0.26258535474E+01  0.30643618577E+01  0.15464223290E+01  0.43216712585E+01  0.00000000000E+00 0. -1.
</event>
<event>
 7    1  0.4623443E-009  0.4614231E+02  0.7816164E-02  0.1320468E+00
        -11   -1    0    0    0    0  0.00000000000E+00  0.00000000000E+00  0.45593999997E+02  0.45594000000E+02  0.51100000000E-03 0. -1.
         11   -1    0    0    0    0 -0.00000000000E+00 -0.00000000000E+00 -0.45593999997E+02  0.45594000000E+02  0.51100000000E-03 0.  1.
    9900012    2    1    2    0    0 -0.17960609837E+02  0.81155115701E+01 -0.40505169996E+02  0.46142313967E+02  0.99999654007E+01 0.  0.
         12    1    1    2    0    0  0.17960609837E+02 -0.81155115701E+01  0.40505169996E+02  0.45045686033E+02  0.00000000000E+00 0. -1.
         11    1    3    3    0    0  0.75097592481E+00 -0.51491975352E+00 -0.21227190701E+01  0.23097713532E+01  0.51100000000E-03 0. -1.
        -11    1    3    3    0    0 -0.19453385431E+01 -0.55411928740E+00 -0.30481576323E+01  0.36582311907E+01  0.51100000000E-03 0.  1.
        -12    1    3    3    0    0 -0.16766247219E+02  0.91845506110E+01 -0.35334293294E+02  0.40174311423E+02  0.00000000000E+00 0.  1.
</event>
<event>
 7    1  0.4623443E-009  0.4614232E+02  0.7816164E-02  0.1320468E+00
        -11   -1    0    0    0    0  0.00000000000E+00  0.00000000000E+00  0.45593999997E+02  0.45594000000E+02  0.51100000000E-03 0.  1.
         11   -1    0    0    0    0 -0.00000000000E+00 -0.00000000000E+00 -0.45593999997E+02  0.45594000000E+02  0.51100000000E-03 0. -1.
    9900012    2    1    2    0    0 -0.36042270223E+02 -0.26992966516E+02 -0.12033431420E+01  0.46142317422E+02  0.99999969117E+01 0.  0.
        -12    1    1    2    0    0  0.36042270223E+02  0.26992966516E+02  0.12033431420E+01  0.45045682578E+02  0.00000000000E+00 0.  1.
         11    1    3    3    0    0 -0.21423174829E+02 -0.18707370434E+02  0.18301024345E+01  0.28500305323E+02  0.51100000000E-03 0. -1.
        -11    1    3    3    0    0 -0.14521700318E+02 -0.70651253971E+01 -0.29349610933E+01  0.16413706891E+02  0.51100000000E-03 0.  1.
         12    1    3    3    0    0 -0.97395075772E-01 -0.12204706848E+01 -0.98484483274E-01  0.12283052091E+01  0.00000000000E+00 0. -1.
</event>
<event>
 7    1  0.4623443E-009  0.4614232E+02  0.7816164E-02  0.1320468E+00
        -11   -1    0    0    0    0  0.00000000000E+00  0.00000000000E+00  0.45593999997E+02  0.45594000000E+02  0.51100000000E-03 0. -1.
         11   -1    0    0    0    0 -0.00000000000E+00 -0.00000000000E+00 -0.45593999997E+02  0.45594000000E+02  0.51100000000E-03 0.  1.
    9900012    2    1    2    0    0  0.10501558878E+02  0.71818721186E+01  0.43211705757E+02  0.46142317183E+02  0.99999947284E+01 0.  0.
        -12    1    1    2    0    0 -0.10501558878E+02 -0.71818721186E+01 -0.43211705757E+02  0.45045682817E+02  0.00000000000E+00 0.  1.
         11    1    3    3    0    0  0.23374933639E+01  0.28112725383E+01  0.17441861892E+02  0.17820933618E+02  0.51100000000E-03 0. -1.
        -11    1    3    3    0    0  0.25643695566E+01  0.54543140496E+01  0.12470085165E+02  0.13850218672E+02  0.51100000000E-03 0.  1.
         12    1    3    3    0    0  0.55996959578E+01 -0.10837144692E+01  0.13299758700E+02  0.14471164893E+02  0.00000000000E+00 0. -1.
</event>
<event>
 7    1  0.4623443E-009  0.4614232E+02  0.7816164E-02  0.1320468E+00
        -11   -1    0    0    0    0  0.00000000000E+00  0.00000000000E+00  0.45593999997E+02  0.45594000000E+02  0.51100000000E-03 0. -1.
         11   -1    0    0    0    0 -0.00000000000E+00 -0.00000000000E+00 -0.45593999997E+02  0.45594000000E+02  0.51100000000E-03 0.  1.
    9900012    2    1    2    0    0  0.42370585323E+02  0.11399705598E+02 -0.10192824318E+02  0.46142318121E+02  0.10000003282E+02 0.  0.
         12    1    1    2    0    0 -0.42370585323E+02 -0.11399705598E+02  0.10192824318E+02  0.45045681879E+02  0.00000000000E+00 0. -1.
         11    1    3    3    0    0  0.24845301276E+02  0.58319252692E+01 -0.37820169330E+01  0.25799302320E+02  0.51100000000E-03 0. -1.
        -11    1    3    3    0    0  0.14505856799E+02  0.26590495634E+01 -0.32733042792E+01  0.15106453827E+02  0.51100000000E-03 0.  1.
        -12    1    3    3    0    0  0.30194272480E+01  0.29087307657E+01 -0.31375031056E+01  0.52365619743E+01  0.00000000000E+00 0.  1.
</event>
<event>
 7    1  0.4623443E-009  0.4614232E+02  0.7816164E-02  0.1320468E+00
        -11   -1    0    0    0    0  0.00000000000E+00  0.00000000000E+00  0.45593999997E+02  0.45594000000E+02  0.51100000000E-03 0. -1.
         11   -1    0    0    0    0 -0.00000000000E+00 -0.00000000000E+00 -0.45593999997E+02  0.45594000000E+02  0.51100000000E-03 0.  1.
    9900012    2    1    2    0    0 -0.23826801577E+02  0.35603936119E+02  0.13919656734E+02  0.46142316698E+02  0.99999903081E+01 0.  0.
        -12    1    1    2    0    0  0.23826801577E+02 -0.35603936119E+02 -0.13919656734E+02  0.45045683302E+02  0.00000000000E+00 0.  1.
         11    1    3    3    0    0 -0.13107689229E+02  0.16221923105E+02  0.11178175299E+02  0.23662500067E+02  0.51100000000E-03 0. -1.
        -11    1    3    3    0    0 -0.52694450546E+01  0.68676364218E+01  0.13231425312E+01  0.87568366220E+01  0.51100000000E-03 0.  1.
         12    1    3    3    0    0 -0.54496672934E+01  0.12514376591E+02  0.14183389038E+01  0.13722980009E+02  0.00000000000E+00 0. -1.
</event>
<event>
 7    1  0.4623443E-009  0.4614231E+02  0.7816164E-02  0.1320468E+00
        -11   -1    0    0    0    0  0.00000000000E+00  0.00000000000E+00  0.45593999997E+02  0.45594000000E+02  0.51100000000E-03 0. -1.
         11   -1    0    0    0    0 -0.00000000000E+00 -0.00000000000E+00 -0.45593999997E+02  0.45594000000E+02  0.51100000000E-03 0.  1.
    9900012    2    1    2    0    0  0.18687928260E+02 -0.99014291553E+01  0.39772312804E+02  0.46142313994E+02  0.99999656498E+01 0.  0.
        -12    1    1    2    0    0 -0.18687928260E+02  0.99014291553E+01 -0.39772312804E+02  0.45045686006E+02  0.00000000000E+00 0.  1.
         11    1    3    3    0    0  0.85562664288E+01 -0.25449503514E+01  0.13242120704E+02  0.15969978976E+02  0.51100000000E-03 0. -1.
        -11    1    3    3    0    0  0.13907216889E+01 -0.19869572823E+00  0.76237534813E-01  0.14069112378E+01  0.51100000000E-03 0.  1.
        -12    1    3    3    0    0  0.87409401422E+01 -0.71577830757E+01  0.26453954565E+02  0.28765423781E+02  0.00000000000E+00 0.  1.
</event>
<event>
 7    1  0.4623443E-009  0.4614232E+02  0.7816164E-02  0.1320468E+00
        -11   -1    0    0    0    0  0.00000000000E+00  0.00000000000E+00  0.45593999997E+02  0.45594000000E+02  0.51100000000E-03 0. -1.
         11   -1    0    0    0    0 -0.00000000000E+00 -0.00000000000E+00 -0.45593999997E+02  0.45594000000E+02  0.51100000000E-03 0.  1.
    9900012    2    1    2    0    0 -0.10706871651E+01 -0.20532085081E+02  0.40079927332E+02  0.46142318034E+02  0.10000002492E+02 0.  0.
        -12    1    1    2    0    0  0.10706871651E+01  0.20532085081E+02 -0.40079927332E+02  0.45045681966E+02  0.00000000000E+00 0.  1.
         11    1    3    3    0    0  0.10446963073E+01 -0.15210355399E+02  0.32012098191E+02  0.35457308592E+02  0.51100000000E-03 0.  1.
        -11    1    3    3    0    0 -0.21868690779E+01 -0.47059146780E+01  0.84791437748E+01  0.99410215137E+01  0.51100000000E-03 0. -1.
        -12    1    3    3    0    0  0.71485605459E-01 -0.61581500381E+00 -0.41131463329E+00  0.74398792884E+00  0.00000000000E+00 0.  1.
</event>
<event>
 7    1  0.4623443E-009  0.4614232E+02  0.7816164E-02  0.1320468E+00
        -11   -1    0    0    0    0  0.00000000000E+00  0.00000000000E+00  0.45593999997E+02  0.45594000000E+02  0.51100000000E-03 0.  1.
         11   -1    0    0    0    0 -0.00000000000E+00 -0.00000000000E+00 -0.45593999997E+02  0.45594000000E+02  0.51100000000E-03 0. -1.
    9900012    2    1    2    0    0 -0.16170378237E+02  0.36943948515E+02 -0.20069301184E+02  0.46142319694E+02  0.10000017630E+02 0.  0.
         12    1    1    2    0    0  0.16170378237E+02 -0.36943948515E+02  0.20069301184E+02  0.45045680306E+02  0.00000000000E+00 0. -1.
         11    1    3    3    0    0  0.47159526949E+00  0.70693677704E+01 -0.35571356816E+01  0.79278986680E+01  0.51100000000E-03 0. -1.
        -11    1    3    3    0    0 -0.35484375128E+01  0.10142470286E+02 -0.43460619951E+01  0.11590917453E+02  0.51100000000E-03 0.  1.
        -12    1    3    3    0    0 -0.13093535994E+02  0.19732110458E+02 -0.12166103507E+02  0.26623503573E+02  0.00000000000E+00 0.  1.
</event>
<event>
 7    1  0.4826256E-009  0.4614232E+02  0.7816164E-02  0.1320468E+00
        -11   -1    0    0    0    0  0.00000000000E+00  0.00000000000E+00  0.45593999997E+02  0.45594000000E+02  0.51100000000E-03 0. -1.
         11   -1    0    0    0    0 -0.00000000000E+00 -0.00000000000E+00 -0.45593999997E+02  0.45594000000E+02  0.51100000000E-03 0.  1.
    9900012    2    1    2    0    0 -0.32795602479E+01  0.38227235766E+02 -0.23601617749E+02  0.46142318408E+02  0.10000005898E+02 0.  0.
         12    1    1    2    0    0  0.32795602479E+01 -0.38227235766E+02  0.23601617749E+02  0.45045681592E+02  0.00000000000E+00 0. -1.
         11    1    3    3    0    0  0.75481139136E+00  0.62828626371E+01 -0.44771330684E+01  0.77516981318E+01  0.51100000000E-03 0. -1.
        -11    1    3    3    0    0 -0.29432958117E+01  0.31936593329E+02 -0.17820337428E+02  0.36690235895E+02  0.51100000000E-03 0.  1.
         12    1    3    3    0    0 -0.10910758276E+01  0.77797995541E-02 -0.13041472530E+01  0.17003843814E+01  0.00000000000E+00 0. -1.
</event>
<event>
 7    1  0.4623443E-009  0.4614232E+02  0.7816164E-02  0.1320468E+00
        -11   -1    0    0    0    0  0.00000000000E+00  0.00000000000E+00  0.45593999997E+02  0.45594000000E+02  0.51100000000E-03 0. -1.
         11   -1    0    0    0    0 -0.00000000000E+00 -0.00000000000E+00 -0.45593999997E+02  0.45594000000E+02  0.51100000000E-03 0.  1.
    9900012    2    1    2    0    0 -0.26717710044E+01 -0.20228757342E+02  0.40159339168E+02  0.46142317562E+02  0.99999981828E+01 0.  0.
        -12    1    1    2    0    0  0.26717710044E+01  0.20228757342E+02 -0.40159339168E+02  0.45045682438E+02  0.00000000000E+00 0.  1.
         11    1    3    3    0    0  0.82739001650E+00 -0.12119769377E+02  0.24964772496E+02  0.27763523732E+02  0.51100000000E-03 0. -1.
        -11    1    3    3    0    0  0.14284809252E+01 -0.15525123031E+01  0.25867856657E+01  0.33380102676E+01  0.51100000000E-03 0.  1.
         12    1    3    3    0    0 -0.49276419461E+01 -0.65564756616E+01  0.12607781006E+02  0.15040783562E+02  0.00000000000E+00 0. -1.
</event>
<event>
 7    1  0.4623443E-009  0.4614232E+02  0.7816164E-02  0.1320468E+00
        -11   -1    0    0    0    0  0.00000000000E+00  0.00000000000E+00  0.45593999997E+02  0.45594000000E+02  0.51100000000E-03 0. -1.
         11   -1    0    0    0    0 -0.00000000000E+00 -0.00000000000E+00 -0.45593999997E+02  0.45594000000E+02  0.51100000000E-03 0.  1.
    9900012    2    1    2    0    0 -0.42191314031E+01 -0.11294782558E+02  0.43402076837E+02  0.46142318114E+02  0.10000003215E+02 0.  0.
        -12    1    1    2    0    0  0.42191314031E+01  0.11294782558E+02 -0.43402076837E+02  0.45045681886E+02  0.00000000000E+00 0.  1.
         11    1    3    3    0    0 -0.47535306127E+01 -0.85393988711E+01  0.20160781974E+02  0.22404787801E+02  0.51100000000E-03 0. -1.
        -11    1    3    3    0    0  0.60728179309E+00 -0.30511604818E+00  0.45071140929E+00  0.81549249822E+00  0.51100000000E-03 0.  1.
         12    1    3    3    0    0 -0.72882583529E-01 -0.24502676385E+01  0.22790583454E+02  0.22922037814E+02  0.00000000000E+00 0. -1.
</event>
<event>
 7    1  0.4623443E-009  0.4614232E+02  0.7816164E-02  0.1320468E+00
        -11   -1    0    0    0    0  0.00000000000E+00  0.00000000000E+00  0.45593999997E+02  0.45594000000E+02  0.51100000000E-03 0. -1.
         11   -1    0    0    0    0 -0.00000000000E+00 -0.00000000000E+00 -0.45593999997E+02  0.45594000000E+02  0.51100000000E-03 0.  1.
    9900012    2    1    2    0    0 -0.17867384857E+02 -0.27014186365E+02  0.31306604101E+02  0.46142321329E+02  0.10000032539E+02 0.  0.
        -12    1    1    2    0    0  0.17867384857E+02  0.27014186365E+02 -0.31306604101E+02  0.45045678671E+02  0.00000000000E+00 0.  1.
         11    1    3    3    0    0 -0.81515168915E+01 -0.94153609908E+01  0.84185311628E+01  0.15032229290E+02  0.51100000000E-03 0. -1.
        -11    1    3    3    0    0 -0.10258519685E+02 -0.17667787875E+02  0.21710332020E+02  0.29811515748E+02  0.51100000000E-03 0.  1.
         12    1    3    3    0    0  0.54265172026E+00  0.68962500281E-01  0.11777409178E+01  0.12985762917E+01  0.00000000000E+00 0. -1.
</event>
<event>
 7    1  0.4623443E-009  0.4614232E+02  0.7816164E-02  0.1320468E+00
        -11   -1    0    0    0    0  0.00000000000E+00  0.00000000000E+00  0.45593999997E+02  0.45594000000E+02  0.51100000000E-03 0. -1.
         11   -1    0    0    0    0 -0.00000000000E+00 -0.00000000000E+00 -0.45593999997E+02  0.45594000000E+02  0.51100000000E-03 0.  1.
    9900012    2    1    2    0    0 -0.79470196802E+00  0.28351043944E+02 -0.34995716168E+02  0.46142318808E+02  0.10000009546E+02 0.  0.
         12    1    1    2    0    0  0.79470196802E+00 -0.28351043944E+02  0.34995716168E+02  0.45045681192E+02  0.00000000000E+00 0. -1.
         11    1    3    3    0    0  0.73692768200E+00  0.61660886845E+00  0.21401260231E+00  0.98441381554E+00  0.51100000000E-03 0. -1.
        -11    1    3    3    0    0  0.17075146335E+01  0.10344758058E+02 -0.11281744554E+02  0.15401538428E+02  0.51100000000E-03 0.  1.
        -12    1    3    3    0    0 -0.32391442835E+01  0.17389677017E+02 -0.23927984216E+02  0.29756366564E+02  0.00000000000E+00 0.  1.
</event>
<event>
 7    1  0.4623443E-009  0.4614232E+02  0.7816164E-02  0.1320468E+00
        -11   -1    0    0    0    0  0.00000000000E+00  0.00000000000E+00  0.45593999997E+02  0.45594000000E+02  0.51100000000E-03 0. -1.
         11   -1    0    0    0    0 -0.00000000000E+00 -0.00000000000E+00 -0.45593999997E+02  0.45594000000E+02  0.51100000000E-03 0.  1.
    9900012    2    1    2    0    0 -0.29016269092E+02 -0.14299199716E+02 -0.31348087498E+02  0.46142316807E+02  0.99999912997E+01 0.  0.
         12    1    1    2    0    0  0.29016269092E+02  0.14299199716E+02  0.31348087498E+02  0.45045683193E+02  0.00000000000E+00 0. -1.
         11    1    3    3    0    0 -0.43914392693E+01 -0.40681181560E+01 -0.45512900515E+01  0.75198780297E+01  0.51100000000E-03 0. -1.
        -11    1    3    3    0    0 -0.16943440894E+01  0.10575141112E+01 -0.35493423261E+01  0.40727103012E+01  0.51100000000E-03 0.  1.
        -12    1    3    3    0    0 -0.22930485733E+02 -0.11288595671E+02 -0.23247455121E+02  0.34549728476E+02  0.00000000000E+00 0.  1.
</event>
<event>
 7    1  0.4623443E-009  0.4614232E+02  0.7816164E-02  0.1320468E+00
        -11   -1    0    0    0    0  0.00000000000E+00  0.00000000000E+00  0.45593999997E+02  0.45594000000E+02  0.51100000000E-03 0. -1.
         11   -1    0    0    0    0 -0.00000000000E+00 -0.00000000000E+00 -0.45593999997E+02  0.45594000000E+02  0.51100000000E-03 0.  1.
    9900012    2    1    2    0    0 -0.41203762653E+02  0.11069534686E+02 -0.14450917492E+02  0.46142315731E+02  0.99999814901E+01 0.  0.
         12    1    1    2    0    0  0.41203762653E+02 -0.11069534686E+02  0.14450917492E+02  0.45045684269E+02  0.00000000000E+00 0. -1.
         11    1    3    3    0    0 -0.31236057087E+02  0.96735294736E+01 -0.12027483295E+02  0.34841480874E+02  0.51100000000E-03 0.  1.
        -11    1    3    3    0    0 -0.12700965907E+01  0.20468896872E+00  0.12413893180E+01  0.17877613441E+01  0.51100000000E-03 0. -1.
         12    1    3    3    0    0 -0.86976089751E+01  0.11913162432E+01 -0.36648235149E+01  0.95130735133E+01  0.00000000000E+00 0. -1.
</event>
<event>
 7    1  0.4623443E-009  0.4614231E+02  0.7816164E-02  0.1320468E+00
        -11   -1    0    0    0    0  0.00000000000E+00  0.00000000000E+00  0.45593999997E+02  0.45594000000E+02  0.51100000000E-03 0. -1.
         11   -1    0    0    0    0 -0.00000000000E+00 -0.00000000000E+00 -0.45593999997E+02  0.45594000000E+02  0.51100000000E-03 0.  1.
    9900012    2    1    2    0    0 -0.12968947835E+02  0.30620942978E+02 -0.30385491021E+02  0.46142314064E+02  0.99999662882E+01 0.  0.
         12    1    1    2    0    0  0.12968947835E+02 -0.30620942978E+02  0.30385491021E+02  0.45045685936E+02  0.00000000000E+00 0. -1.
         11    1    3    3    0    0 -0.13911234914E+01  0.70602934132E+00 -0.10028833265E+01  0.18545827635E+01  0.51100000000E-03 0. -1.
        -11    1    3    3    0    0 -0.67782695167E+01  0.18818156531E+02 -0.23446215395E+02  0.30818711354E+02  0.51100000000E-03 0.  1.
        -12    1    3    3    0    0 -0.47995548272E+01  0.11096757105E+02 -0.59363922996E+01  0.13469019947E+02  0.00000000000E+00 0.  1.
</event>
<event>
 7    1  0.4623443E-009  0.4614232E+02  0.7816164E-02  0.1320468E+00
        -11   -1    0    0    0    0  0.00000000000E+00  0.00000000000E+00  0.45593999997E+02  0.45594000000E+02  0.51100000000E-03 0. -1.
         11   -1    0    0    0    0 -0.00000000000E+00 -0.00000000000E+00 -0.45593999997E+02  0.45594000000E+02  0.51100000000E-03 0.  1.
    9900012    2    1    2    0    0 -0.11708759180E+02  0.66718677667E+01 -0.42982608146E+02  0.46142318030E+02  0.10000002455E+02 0.  0.
         12    1    1    2    0    0  0.11708759180E+02 -0.66718677667E+01  0.42982608146E+02  0.45045681970E+02  0.00000000000E+00 0. -1.
         11    1    3    3    0    0  0.14350194855E+01  0.19531458590E+01 -0.56962627986E+01  0.61904337330E+01  0.51100000000E-03 0. -1.
        -11    1    3    3    0    0 -0.53851259682E+01  0.17668514474E+01 -0.10823848210E+02  0.12217898185E+02  0.51100000000E-03 0.  1.
        -12    1    3    3    0    0 -0.77586526975E+01  0.29518704602E+01 -0.26462497138E+02  0.27733986112E+02  0.00000000000E+00 0.  1.
</event>
<event>
 7    1  0.4623443E-009  0.4614232E+02  0.7816164E-02  0.1320468E+00
        -11   -1    0    0    0    0  0.00000000000E+00  0.00000000000E+00  0.45593999997E+02  0.45594000000E+02  0.51100000000E-03 0. -1.
         11   -1    0    0    0    0 -0.00000000000E+00 -0.00000000000E+00 -0.45593999997E+02  0.45594000000E+02  0.51100000000E-03 0.  1.
    9900012    2    1    2    0    0 -0.42464038001E+02  0.43570242552E+01 -0.14385247450E+02  0.46142317322E+02  0.99999959949E+01 0.  0.
         12    1    1    2    0    0  0.42464038001E+02 -0.43570242552E+01  0.14385247450E+02  0.45045682678E+02  0.00000000000E+00 0. -1.
         11    1    3    3    0    0 -0.22080788841E+02  0.15552217037E+01 -0.60479564925E+01  0.22946845717E+02  0.51100000000E-03 0. -1.
        -11    1    3    3    0    0 -0.19035882556E+02  0.28701938815E+01 -0.54485645955E+01  0.20007241039E+02  0.51100000000E-03 0.  1.
         12    1    3    3    0    0 -0.13473666047E+01 -0.68391330033E-01 -0.28887263621E+01  0.31882305652E+01  0.00000000000E+00 0. -1.
</event>
<event>
 7    1  0.4623443E-009  0.4614232E+02  0.7816164E-02  0.1320468E+00
        -11   -1    0    0    0    0  0.00000000000E+00  0.00000000000E+00  0.45593999997E+02  0.45594000000E+02  0.51100000000E-03 0. -1.
         11   -1    0    0    0    0 -0.00000000000E+00 -0.00000000000E+00 -0.45593999997E+02  0.45594000000E+02  0.51100000000E-03 0.  1.
    9900012    2    1    2    0    0  0.24679535492E+02 -0.18816578889E+02  0.32649200976E+02  0.46142318325E+02  0.10000005140E+02 0.  0.
        -12    1    1    2    0    0 -0.24679535492E+02  0.18816578889E+02 -0.32649200976E+02  0.45045681675E+02  0.00000000000E+00 0.  1.
         11    1    3    3    0    0  0.23321050311E+02 -0.15092796293E+02  0.29701062468E+02  0.40667148898E+02  0.51100000000E-03 0. -1.
        -11    1    3    3    0    0 -0.26895492788E+00  0.21862228124E+00  0.26480750938E+00  0.43618314185E+00  0.51100000000E-03 0.  1.
        -12    1    3    3    0    0  0.16274401095E+01 -0.39424048773E+01  0.26833309989E+01  0.50389862846E+01  0.00000000000E+00 0.  1.
</event>
<event>
 7    1  0.4623443E-009  0.4614232E+02  0.7816164E-02  0.1320468E+00
        -11   -1    0    0    0    0  0.00000000000E+00  0.00000000000E+00  0.45593999997E+02  0.45594000000E+02  0.51100000000E-03 0. -1.
         11   -1    0    0    0    0 -0.00000000000E+00 -0.00000000000E+00 -0.45593999997E+02  0.45594000000E+02  0.51100000000E-03 0.  1.
    9900012    2    1    2    0    0 -0.33061234100E+02  0.20683549163E+02 -0.22544601571E+02  0.46142318007E+02  0.10000002244E+02 0.  0.
         12    1    1    2    0    0  0.33061234100E+02 -0.20683549163E+02  0.22544601571E+02  0.45045681993E+02  0.00000000000E+00 0. -1.
         11    1    3    3    0    0 -0.10819165827E+02  0.91001331226E+01 -0.87935537695E+01  0.16649124908E+02  0.51100000000E-03 0. -1.
        -11    1    3    3    0    0 -0.72486087490E+00 -0.20705349409E+00  0.69092180214E+00  0.10225789139E+01  0.51100000000E-03 0.  1.
        -12    1    3    3    0    0 -0.21517207399E+02  0.11790469535E+02 -0.14441969603E+02  0.28470614186E+02  0.00000000000E+00 0.  1.
</event>
<event>
 7    1  0.4623443E-009  0.4614232E+02  0.7816164E-02  0.1320468E+00
        -11   -1    0    0    0    0  0.00000000000E+00  0.00000000000E+00  0.45593999997E+02  0.45594000000E+02  0.51100000000E-03 0. -1.
         11   -1    0    0    0    0 -0.00000000000E+00 -0.00000000000E+00 -0.45593999997E+02  0.45594000000E+02  0.51100000000E-03 0.  1.
    9900012    2    1    2    0    0  0.21617527322E+01  0.30364628380E+02 -0.33202855688E+02  0.46142318105E+02  0.10000003137E+02 0.  0.
         12    1    1    2    0    0 -0.21617527322E+01 -0.30364628380E+02  0.33202855688E+02  0.45045681895E+02  0.00000000000E+00 0. -1.
         11    1    3    3    0    0  0.24413641214E+01  0.15037574074E+01 -0.26174143221E+01  0.38823192950E+01  0.51100000000E-03 0. -1.
        -11    1    3    3    0    0  0.10089915495E+01  0.22269837652E+02 -0.25250185001E+02  0.33682867690E+02  0.51100000000E-03 0.  1.
         12    1    3    3    0    0 -0.12886029387E+01  0.65910333207E+01 -0.53352563650E+01  0.85771311200E+01  0.00000000000E+00 0. -1.
</event>
<event>
 7    1  0.4623443E-009  0.4614232E+02  0.7816164E-02  0.1320468E+00
        -11   -1    0    0    0    0  0.00000000000E+00  0.00000000000E+00  0.45593999997E+02  0.45594000000E+02  0.51100000000E-03 0. -1.
         11   -1    0    0    0    0 -0.00000000000E+00 -0.00000000000E+00 -0.45593999997E+02  0.45594000000E+02  0.51100000000E-03 0.  1.
    9900012    2    1    2    0    0 -0.86676710464E+00  0.12517348505E+02 -0.43262896173E+02  0.46142317809E+02  0.10000000435E+02 0.  0.
         12    1    1    2    0    0  0.86676710464E+00 -0.12517348505E+02  0.43262896173E+02  0.45045682191E+02  0.00000000000E+00 0. -1.
         11    1    3    3    0    0 -0.18425475076E+01  0.34708562057E+01 -0.71342941726E+01  0.81449357101E+01  0.51100000000E-03 0. -1.
        -11    1    3    3    0    0  0.10507722590E+01  0.13157835523E+00 -0.15355911678E+02  0.15392383147E+02  0.51100000000E-03 0.  1.
         12    1    3    3    0    0 -0.74991856039E-01  0.89149139438E+01 -0.20772690322E+02  0.22604998952E+02  0.00000000000E+00 0. -1.
</event>
<event>
 7    1  0.4623443E-009  0.4614231E+02  0.7816164E-02  0.1320468E+00
        -11   -1    0    0    0    0  0.00000000000E+00  0.00000000000E+00  0.45593999997E+02  0.45594000000E+02  0.51100000000E-03 0. -1.
         11   -1    0    0    0    0 -0.00000000000E+00 -0.00000000000E+00 -0.45593999997E+02  0.45594000000E+02  0.51100000000E-03 0.  1.
    9900012    2    1    2    0    0  0.61138128304E+01 -0.20613105937E+02  0.39583267037E+02  0.46142313492E+02  0.99999610696E+01 0.  0.
        -12    1    1    2    0    0 -0.61138128304E+01  0.20613105937E+02 -0.39583267037E+02  0.45045686508E+02  0.00000000000E+00 0.  1.
         11    1    3    3    0    0  0.70163749893E+00  0.11243096338E+00  0.11082928226E+01  0.13165292033E+01  0.51100000000E-03 0. -1.
        -11    1    3    3    0    0  0.11041602370E+01  0.17642987581E+00  0.41864653335E+00  0.11939692254E+01  0.51100000000E-03 0.  1.
         12    1    3    3    0    0  0.43080150944E+01 -0.20901966776E+02  0.38056327681E+02  0.43631815063E+02  0.00000000000E+00 0. -1.
</event>
<event>
 7    1  0.4623443E-009  0.4614232E+02  0.7816164E-02  0.1320468E+00
        -11   -1    0    0    0    0  0.00000000000E+00  0.00000000000E+00  0.45593999997E+02  0.45594000000E+02  0.51100000000E-03 0. -1.
         11   -1    0    0    0    0 -0.00000000000E+00 -0.00000000000E+00 -0.45593999997E+02  0.45594000000E+02  0.51100000000E-03 0.  1.
    9900012    2    1    2    0    0  0.76967898095E+01  0.96487542293E+01 -0.43321755429E+02  0.46142317355E+02  0.99999962941E+01 0.  0.
         12    1    1    2    0    0 -0.76967898095E+01 -0.96487542293E+01  0.43321755429E+02  0.45045682645E+02  0.00000000000E+00 0. -1.
         11    1    3    3    0    0  0.19506763759E+01  0.22987802962E+01 -0.12045358068E+02  0.12416931200E+02  0.51100000000E-03 0.  1.
        -11    1    3    3    0    0  0.76233988962E+01  0.45539502246E+01 -0.25912973367E+02  0.27392277422E+02  0.51100000000E-03 0. -1.
        -12    1    3    3    0    0 -0.18772854626E+01  0.27960237086E+01 -0.53634239940E+01  0.63331087332E+01  0.00000000000E+00 0.  1.
</event>
<event>
 7    1  0.4623443E-009  0.4614232E+02  0.7816164E-02  0.1320468E+00
        -11   -1    0    0    0    0  0.00000000000E+00  0.00000000000E+00  0.45593999997E+02  0.45594000000E+02  0.51100000000E-03 0. -1.
         11   -1    0    0    0    0 -0.00000000000E+00 -0.00000000000E+00 -0.45593999997E+02  0.45594000000E+02  0.51100000000E-03 0.  1.
    9900012    2    1    2    0    0  0.13175157212E+02 -0.73916614426E+01 -0.42436917539E+02  0.46142318779E+02  0.10000009280E+02 0.  0.
         12    1    1    2    0    0 -0.13175157212E+02  0.73916614426E+01  0.42436917539E+02  0.45045681221E+02  0.00000000000E+00 0. -1.
         11    1    3    3    0    0  0.47404380878E+01 -0.24296501377E+01 -0.74004562682E+01  0.91182074058E+01  0.51100000000E-03 0.  1.
        -11    1    3    3    0    0  0.96852289562E+00 -0.43224022744E+01 -0.11503184418E+02  0.12326574951E+02  0.51100000000E-03 0. -1.
         12    1    3    3    0    0  0.74661962290E+01 -0.63960903043E+00 -0.23533276853E+02  0.24697536422E+02  0.00000000000E+00 0. -1.
</event>
<event>
 7    1  0.4623443E-009  0.4614232E+02  0.7816164E-02  0.1320468E+00
        -11   -1    0    0    0    0  0.00000000000E+00  0.00000000000E+00  0.45593999997E+02  0.45594000000E+02  0.51100000000E-03 0. -1.
         11   -1    0    0    0    0 -0.00000000000E+00 -0.00000000000E+00 -0.45593999997E+02  0.45594000000E+02  0.51100000000E-03 0.  1.
    9900012    2    1    2    0    0 -0.49027490495E+01 -0.76202525799E+00 -0.44771597117E+02  0.46142317197E+02  0.99999948595E+01 0.  0.
         12    1    1    2    0    0  0.49027490495E+01  0.76202525799E+00  0.44771597117E+02  0.45045682803E+02  0.00000000000E+00 0. -1.
         11    1    3    3    0    0  0.15198796010E+01  0.22354360904E+01 -0.14618031915E+02  0.14865869159E+02  0.51100000000E-03 0. -1.
        -11    1    3    3    0    0 -0.25728830458E+01 -0.17848980008E+00 -0.45327759997E+01  0.52151360769E+01  0.51100000000E-03 0.  1.
        -12    1    3    3    0    0 -0.38497456046E+01 -0.28189715483E+01 -0.25620789202E+02  0.26061311962E+02  0.00000000000E+00 0.  1.
</event>
<event>
 7    1  0.4623443E-009  0.4614231E+02  0.7816164E-02  0.1320468E+00
        -11   -1    0    0    0    0  0.00000000000E+00  0.00000000000E+00  0.45593999997E+02  0.45594000000E+02  0.51100000000E-03 0.  1.
         11   -1    0    0    0    0 -0.00000000000E+00 -0.00000000000E+00 -0.45593999997E+02  0.45594000000E+02  0.51100000000E-03 0. -1.
    9900012    2    1    2    0    0 -0.25665076728E+02 -0.35208043777E+02  0.11437282093E+02  0.46142312840E+02  0.99999551224E+01 0.  0.
        -12    1    1    2    0    0  0.25665076728E+02  0.35208043777E+02 -0.11437282093E+02  0.45045687160E+02  0.00000000000E+00 0.  1.
         11    1    3    3    0    0 -0.13438201081E+02 -0.16546144256E+02  0.31483879846E+01  0.21546983204E+02  0.51100000000E-03 0. -1.
        -11    1    3    3    0    0 -0.22863194422E+01 -0.79001866460E+01  0.11703828939E+01  0.83072258915E+01  0.51100000000E-03 0.  1.
        -12    1    3    3    0    0 -0.99405562050E+01 -0.10761712875E+02  0.71185112140E+01  0.16288103744E+02  0.00000000000E+00 0.  1.
</event>
<event>
 7    1  0.4623443E-009  0.4614232E+02  0.7816164E-02  0.1320468E+00
        -11   -1    0    0    0    0  0.00000000000E+00  0.00000000000E+00  0.45593999997E+02  0.45594000000E+02  0.51100000000E-03 0. -1.
         11   -1    0    0    0    0 -0.00000000000E+00 -0.00000000000E+00 -0.45593999997E+02  0.45594000000E+02  0.51100000000E-03 0.  1.
    9900012    2    1    2    0    0 -0.17024033885E+02 -0.13529102145E+01 -0.41682915137E+02  0.46142317520E+02  0.99999977989E+01 0.  0.
         12    1    1    2    0    0  0.17024033885E+02  0.13529102145E+01  0.41682915137E+02  0.45045682480E+02  0.00000000000E+00 0. -1.
         11    1    3    3    0    0 -0.11431870143E+01  0.33886900361E+00  0.71693636814E-01  0.11945078442E+01  0.51100000000E-03 0. -1.
        -11    1    3    3    0    0 -0.81036648518E+01 -0.30491333833E+01 -0.19550976598E+02  0.21382405959E+02  0.51100000000E-03 0.  1.
        -12    1    3    3    0    0 -0.77771820188E+01  0.13573541651E+01 -0.22203632176E+02  0.23565403716E+02  0.00000000000E+00 0.  1.
</event>
<event>
 7    1  0.4623443E-009  0.4614232E+02  0.7816164E-02  0.1320468E+00
        -11   -1    0    0    0    0  0.00000000000E+00  0.00000000000E+00  0.45593999997E+02  0.45594000000E+02  0.51100000000E-03 0. -1.
         11   -1    0    0    0    0 -0.00000000000E+00 -0.00000000000E+00 -0.45593999997E+02  0.45594000000E+02  0.51100000000E-03 0.  1.
    9900012    2    1    2    0    0 -0.18215852210E+02 -0.58714366197E+01  0.40777720833E+02  0.46142317010E+02  0.99999931477E+01 0.  0.
        -12    1    1    2    0    0  0.18215852210E+02  0.58714366197E+01 -0.40777720833E+02  0.45045682990E+02  0.00000000000E+00 0.  1.
         11    1    3    3    0    0 -0.54532921173E+01  0.59446797509E+00  0.19122044143E+02  0.19893324497E+02  0.51100000000E-03 0.  1.
        -11    1    3    3    0    0 -0.99917294062E+01 -0.66457032582E+01  0.18435695157E+02  0.21997156282E+02  0.51100000000E-03 0. -1.
        -12    1    3    3    0    0 -0.27708306867E+01  0.17979866341E+00  0.32199815334E+01  0.42518362303E+01  0.00000000000E+00 0.  1.
</event>
<event>
 7    1  0.4623443E-009  0.4614232E+02  0.7816164E-02  0.1320468E+00
        -11   -1    0    0    0    0  0.00000000000E+00  0.00000000000E+00  0.45593999997E+02  0.45594000000E+02  0.51100000000E-03 0. -1.
         11   -1    0    0    0    0 -0.00000000000E+00 -0.00000000000E+00 -0.45593999997E+02  0.45594000000E+02  0.51100000000E-03 0.  1.
    9900012    2    1    2    0    0  0.74944350210E+01 -0.40469983890E+02 -0.18306482512E+02  0.46142318139E+02  0.10000003444E+02 0.  0.
         12    1    1    2    0    0 -0.74944350210E+01  0.40469983890E+02  0.18306482512E+02  0.45045681861E+02  0.00000000000E+00 0. -1.
         11    1    3    3    0    0  0.58563162292E+01 -0.19634493334E+02 -0.10696759721E+02  0.23113425472E+02  0.51100000000E-03 0. -1.
        -11    1    3    3    0    0  0.16468076047E+01 -0.12677102723E+02 -0.75967467044E+01  0.14870489887E+02  0.51100000000E-03 0.  1.
         12    1    3    3    0    0 -0.86888128663E-02 -0.81583878337E+01 -0.12976087181E-01  0.81584027799E+01  0.00000000000E+00 0. -1.
</event>
<event>
 7    1  0.4623443E-009  0.4614232E+02  0.7816164E-02  0.1320468E+00
        -11   -1    0    0    0    0  0.00000000000E+00  0.00000000000E+00  0.45593999997E+02  0.45594000000E+02  0.51100000000E-03 0. -1.
         11   -1    0    0    0    0 -0.00000000000E+00 -0.00000000000E+00 -0.45593999997E+02  0.45594000000E+02  0.51100000000E-03 0.  1.
    9900012    2    1    2    0    0 -0.19360716421E+02  0.30608797997E+02  0.26783906222E+02  0.46142317769E+02  0.10000000074E+02 0.  0.
        -12    1    1    2    0    0  0.19360716421E+02 -0.30608797997E+02 -0.26783906222E+02  0.45045682231E+02  0.00000000000E+00 0.  1.
         11    1    3    3    0    0 -0.11690576293E+02  0.13808094003E+02  0.11907606802E+02  0.21659273627E+02  0.51100000000E-03 0.  1.
        -11    1    3    3    0    0 -0.48461335029E+01  0.39995339532E+01  0.56785175510E+01  0.84691701842E+01  0.51100000000E-03 0. -1.
         12    1    3    3    0    0 -0.28240066254E+01  0.12801170041E+02  0.91977818688E+01  0.16013873958E+02  0.00000000000E+00 0. -1.
</event>
<event>
 7    1  0.4623443E-009  0.4614232E+02  0.7816164E-02  0.1320468E+00
        -11   -1    0    0    0    0  0.00000000000E+00  0.00000000000E+00  0.45593999997E+02  0.45594000000E+02  0.51100000000E-03 0. -1.
         11   -1    0    0    0    0 -0.00000000000E+00 -0.00000000000E+00 -0.45593999997E+02  0.45594000000E+02  0.51100000000E-03 0.  1.
    9900012    2    1    2    0    0  0.14646507900E+02  0.49769653267E+01 -0.42306300356E+02  0.46142318438E+02  0.10000006174E+02 0.  0.
         12    1    1    2    0    0 -0.14646507900E+02 -0.49769653267E+01  0.42306300356E+02  0.45045681562E+02  0.00000000000E+00 0. -1.
         11    1    3    3    0    0  0.86490290725E+01  0.13179069168E+01 -0.16826459667E+02  0.18965029073E+02  0.51100000000E-03 0. -1.
        -11    1    3    3    0    0  0.58729493339E+01  0.18758727371E+00 -0.17890792825E+02  0.18831016728E+02  0.51100000000E-03 0.  1.
        -12    1    3    3    0    0  0.12452949359E+00  0.34714711362E+01 -0.75890478645E+01  0.83462726372E+01  0.00000000000E+00 0.  1.
</event>
<event>
 7    1  0.4623443E-009  0.4614232E+02  0.7816164E-02  0.1320468E+00
        -11   -1    0    0    0    0  0.00000000000E+00  0.00000000000E+00  0.45593999997E+02  0.45594000000E+02  0.51100000000E-03 0. -1.
         11   -1    0    0    0    0 -0.00000000000E+00 -0.00000000000E+00 -0.45593999997E+02  0.45594000000E+02  0.51100000000E-03 0.  1.
    9900012    2    1    2    0    0  0.11461292935E+02  0.38648246904E+01 -0.43391421850E+02  0.46142316568E+02  0.99999891236E+01 0.  0.
         12    1    1    2    0    0 -0.11461292935E+02 -0.38648246904E+01  0.43391421850E+02  0.45045683432E+02  0.00000000000E+00 0. -1.
         11    1    3    3    0    0  0.70173184927E+01 -0.14235580735E+01 -0.19486800492E+02  0.20760651967E+02  0.51100000000E-03 0. -1.
        -11    1    3    3    0    0  0.28596881556E+01 -0.11005088583E+00 -0.93214179592E+01  0.97508338400E+01  0.51100000000E-03 0.  1.
        -12    1    3    3    0    0  0.15842862864E+01  0.53984336498E+01 -0.14583203399E+02  0.15630830762E+02  0.00000000000E+00 0.  1.
</event>
<event>
 7    1  0.4623443E-009  0.4614232E+02  0.7816164E-02  0.1320468E+00
        -11   -1    0    0    0    0  0.00000000000E+00  0.00000000000E+00  0.45593999997E+02  0.45594000000E+02  0.51100000000E-03 0. -1.
         11   -1    0    0    0    0 -0.00000000000E+00 -0.00000000000E+00 -0.45593999997E+02  0.45594000000E+02  0.51100000000E-03 0.  1.
    9900012    2    1    2    0    0 -0.29982673483E+02  0.18309251004E+02 -0.28194399208E+02  0.46142317319E+02  0.99999959671E+01 0.  0.
         12    1    1    2    0    0  0.29982673483E+02 -0.18309251004E+02  0.28194399208E+02  0.45045682681E+02  0.00000000000E+00 0. -1.
         11    1    3    3    0    0 -0.16623904788E+02  0.45773326771E+01 -0.12703408695E+02  0.21416880668E+02  0.51100000000E-03 0. -1.
        -11    1    3    3    0    0 -0.96327763513E+01  0.85261983639E+01 -0.10613123313E+02  0.16677074848E+02  0.51100000000E-03 0.  1.
         12    1    3    3    0    0 -0.37259923438E+01  0.52057199630E+01 -0.48778672003E+01  0.80483618025E+01  0.00000000000E+00 0. -1.
</event>
<event>
 7    1  0.4623443E-009  0.4614232E+02  0.7816164E-02  0.1320468E+00
        -11   -1    0    0    0    0  0.00000000000E+00  0.00000000000E+00  0.45593999997E+02  0.45594000000E+02  0.51100000000E-03 0. -1.
         11   -1    0    0    0    0 -0.00000000000E+00 -0.00000000000E+00 -0.45593999997E+02  0.45594000000E+02  0.51100000000E-03 0.  1.
    9900012    2    1    2    0    0  0.12950401732E+02  0.15397823964E+02  0.40302700518E+02  0.46142317000E+02  0.99999930623E+01 0.  0.
        -12    1    1    2    0    0 -0.12950401732E+02 -0.15397823964E+02 -0.40302700518E+02  0.45045683000E+02  0.00000000000E+00 0.  1.
         11    1    3    3    0    0  0.70518469275E+01  0.60567867883E+01  0.16095178151E+02  0.18586768715E+02  0.51100000000E-03 0. -1.
        -11    1    3    3    0    0 -0.23179904187E+00  0.13130728549E+01  0.89418086322E-02  0.13334059154E+01  0.51100000000E-03 0.  1.
        -12    1    3    3    0    0  0.61303538461E+01  0.80279643205E+01  0.24198580559E+02  0.26222142370E+02  0.00000000000E+00 0.  1.
</event>
<event>
 7    1  0.4623443E-009  0.4614232E+02  0.7816164E-02  0.1320468E+00
        -11   -1    0    0    0    0  0.00000000000E+00  0.00000000000E+00  0.45593999997E+02  0.45594000000E+02  0.51100000000E-03 0. -1.
         11   -1    0    0    0    0 -0.00000000000E+00 -0.00000000000E+00 -0.45593999997E+02  0.45594000000E+02  0.51100000000E-03 0.  1.
    9900012    2    1    2    0    0 -0.17786499090E+02 -0.18122971258E+02 -0.37206341164E+02  0.46142318077E+02  0.10000002881E+02 0.  0.
         12    1    1    2    0    0  0.17786499090E+02  0.18122971258E+02  0.37206341164E+02  0.45045681923E+02  0.00000000000E+00 0. -1.
         11    1    3    3    0    0 -0.11925473351E+01 -0.10595278677E+01 -0.48356515432E+01  0.50919833618E+01  0.51100000000E-03 0.  1.
        -11    1    3    3    0    0  0.34852628632E+00 -0.82649295412E-01 -0.34848442848E+01  0.35032044515E+01  0.51100000000E-03 0. -1.
        -12    1    3    3    0    0 -0.16942478041E+02 -0.16980794095E+02 -0.28885845336E+02  0.37547130264E+02  0.00000000000E+00 0.  1.
</event>
<event>
 7    1  0.4623443E-009  0.4614232E+02  0.7816164E-02  0.1320468E+00
        -11   -1    0    0    0    0  0.00000000000E+00  0.00000000000E+00  0.45593999997E+02  0.45594000000E+02  0.51100000000E-03 0. -1.
         11   -1    0    0    0    0 -0.00000000000E+00 -0.00000000000E+00 -0.45593999997E+02  0.45594000000E+02  0.51100000000E-03 0.  1.
    9900012    2    1    2    0    0  0.43355684214E+02  0.12201573397E+02  0.72093731816E+00  0.46142317658E+02  0.99999990577E+01 0.  0.
        -12    1    1    2    0    0 -0.43355684214E+02 -0.12201573397E+02 -0.72093731816E+00  0.45045682342E+02  0.00000000000E+00 0.  1.
         11    1    3    3    0    0  0.31282008825E+02  0.79514784851E+01  0.19210758277E+01  0.32333892726E+02  0.51100000000E-03 0. -1.
        -11    1    3    3    0    0  0.10163266426E+02  0.19574337367E+01 -0.23444741567E+01  0.10612261334E+02  0.51100000000E-03 0.  1.
         12    1    3    3    0    0  0.19104089634E+01  0.22926611754E+01  0.11443356472E+01  0.31961635981E+01  0.00000000000E+00 0. -1.
</event>
<event>
 7    1  0.4623443E-009  0.4614232E+02  0.7816164E-02  0.1320468E+00
        -11   -1    0    0    0    0  0.00000000000E+00  0.00000000000E+00  0.45593999997E+02  0.45594000000E+02  0.51100000000E-03 0. -1.
         11   -1    0    0    0    0 -0.00000000000E+00 -0.00000000000E+00 -0.45593999997E+02  0.45594000000E+02  0.51100000000E-03 0.  1.
    9900012    2    1    2    0    0 -0.11629094688E+02  0.30293146688E+02 -0.31244247032E+02  0.46142317053E+02  0.99999935467E+01 0.  0.
         12    1    1    2    0    0  0.11629094688E+02 -0.30293146688E+02  0.31244247032E+02  0.45045682947E+02  0.00000000000E+00 0. -1.
         11    1    3    3    0    0 -0.10537977455E+02  0.15627452192E+02 -0.19157302411E+02  0.26875052871E+02  0.51100000000E-03 0. -1.
        -11    1    3    3    0    0  0.64155520196E+00  0.80347955384E+00 -0.69310821097E+00  0.12399885983E+01  0.51100000000E-03 0.  1.
        -12    1    3    3    0    0 -0.17326724348E+01  0.13862214942E+02 -0.11393836410E+02  0.18027275584E+02  0.00000000000E+00 0.  1.
</event>
<event>
 7    1  0.4623443E-009  0.4614232E+02  0.7816164E-02  0.1320468E+00
        -11   -1    0    0    0    0  0.00000000000E+00  0.00000000000E+00  0.45593999997E+02  0.45594000000E+02  0.51100000000E-03 0. -1.
         11   -1    0    0    0    0 -0.00000000000E+00 -0.00000000000E+00 -0.45593999997E+02  0.45594000000E+02  0.51100000000E-03 0.  1.
    9900012    2    1    2    0    0 -0.19873683887E+02 -0.26295507263E+02  0.30703362948E+02  0.46142317524E+02  0.99999978345E+01 0.  0.
        -12    1    1    2    0    0  0.19873683887E+02  0.26295507263E+02 -0.30703362948E+02  0.45045682476E+02  0.00000000000E+00 0.  1.
         11    1    3    3    0    0 -0.19362885915E+01 -0.12879846189E+01 -0.11661178893E+00  0.23284579572E+01  0.51100000000E-03 0.  1.
        -11    1    3    3    0    0 -0.15161876173E+01 -0.66321006104E+00  0.26335325276E+01  0.31103321866E+01  0.51100000000E-03 0. -1.
         12    1    3    3    0    0 -0.16421207678E+02 -0.24344312583E+02  0.28186442209E+02  0.40703527380E+02  0.00000000000E+00 0. -1.
</event>
<event>
 7    1  0.4623443E-009  0.4614232E+02  0.7816164E-02  0.1320468E+00
        -11   -1    0    0    0    0  0.00000000000E+00  0.00000000000E+00  0.45593999997E+02  0.45594000000E+02  0.51100000000E-03 0.  1.
         11   -1    0    0    0    0 -0.00000000000E+00 -0.00000000000E+00 -0.45593999997E+02  0.45594000000E+02  0.51100000000E-03 0. -1.
    9900012    2    1    2    0    0  0.43185107429E+02 -0.96324871125E+01  0.84483804770E+01  0.46142318250E+02  0.10000004460E+02 0.  0.
         12    1    1    2    0    0 -0.43185107429E+02  0.96324871125E+01 -0.84483804770E+01  0.45045681750E+02  0.00000000000E+00 0. -1.
         11    1    3    3    0    0  0.13588357696E+02 -0.58998144267E+01  0.20006362528E+01  0.14948371845E+02  0.51100000000E-03 0. -1.
        -11    1    3    3    0    0  0.22383920608E+02 -0.55793463045E+01  0.51403595340E+01  0.23634557397E+02  0.51100000000E-03 0.  1.
         12    1    3    3    0    0  0.72128291254E+01  0.18466736188E+01  0.13073846902E+01  0.75593890080E+01  0.00000000000E+00 0. -1.
</event>
<event>
 7    1  0.4623443E-009  0.4614232E+02  0.7816164E-02  0.1320468E+00
        -11   -1    0    0    0    0  0.00000000000E+00  0.00000000000E+00  0.45593999997E+02  0.45594000000E+02  0.51100000000E-03 0. -1.
         11   -1    0    0    0    0 -0.00000000000E+00 -0.00000000000E+00 -0.45593999997E+02  0.45594000000E+02  0.51100000000E-03 0.  1.
    9900012    2    1    2    0    0 -0.18099330905E+02 -0.70627279730E+00 -0.41243533298E+02  0.46142316085E+02  0.99999847163E+01 0.  0.
         12    1    1    2    0    0  0.18099330905E+02  0.70627279730E+00  0.41243533298E+02  0.45045683915E+02  0.00000000000E+00 0. -1.
         11    1    3    3    0    0 -0.27966563803E+01  0.19340914153E+01 -0.30125063013E+01  0.45428175165E+01  0.51100000000E-03 0. -1.
        -11    1    3    3    0    0 -0.14323089105E+02 -0.90304183389E+00 -0.32381950528E+02  0.35419727361E+02  0.51100000000E-03 0.  1.
         12    1    3    3    0    0 -0.97958541944E+00 -0.17373223787E+01 -0.58490764685E+01  0.61797712074E+01  0.00000000000E+00 0. -1.
</event>
<event>
 7    1  0.4623443E-009  0.4614232E+02  0.7816164E-02  0.1320468E+00
        -11   -1    0    0    0    0  0.00000000000E+00  0.00000000000E+00  0.45593999997E+02  0.45594000000E+02  0.51100000000E-03 0. -1.
         11   -1    0    0    0    0 -0.00000000000E+00 -0.00000000000E+00 -0.45593999997E+02  0.45594000000E+02  0.51100000000E-03 0.  1.
    9900012    2    1    2    0    0 -0.20037465563E+02  0.24887133698E+02  0.31752858440E+02  0.46142317976E+02  0.10000001959E+02 0.  0.
        -12    1    1    2    0    0  0.20037465563E+02 -0.24887133698E+02 -0.31752858440E+02  0.45045682024E+02  0.00000000000E+00 0.  1.
         11    1    3    3    0    0 -0.11164467207E+02  0.17329618128E+02  0.20104759233E+02  0.28795179051E+02  0.51100000000E-03 0. -1.
        -11    1    3    3    0    0 -0.37786235493E+01  0.38839892041E+01  0.90541924557E+01  0.10551860943E+02  0.51100000000E-03 0.  1.
        -12    1    3    3    0    0 -0.50943748064E+01  0.36735263655E+01  0.25939067521E+01  0.67952779829E+01  0.00000000000E+00 0.  1.
</event>
<event>
 7    1  0.4623443E-009  0.4614232E+02  0.7816164E-02  0.1320468E+00
        -11   -1    0    0    0    0  0.00000000000E+00  0.00000000000E+00  0.45593999997E+02  0.45594000000E+02  0.51100000000E-03 0. -1.
         11   -1    0    0    0    0 -0.00000000000E+00 -0.00000000000E+00 -0.45593999997E+02  0.45594000000E+02  0.51100000000E-03 0.  1.
    9900012    2    1    2    0    0 -0.75679574950E+01 -0.12742953537E+02  0.42537710428E+02  0.46142315923E+02  0.99999832427E+01 0.  0.
        -12    1    1    2    0    0  0.75679574950E+01  0.12742953537E+02 -0.42537710428E+02  0.45045684077E+02  0.00000000000E+00 0.  1.
         11    1    3    3    0    0 -0.72398557876E+00  0.46187503505E+00  0.25840287742E+01  0.27229925878E+01  0.51100000000E-03 0. -1.
        -11    1    3    3    0    0  0.10841592025E+01 -0.65551969041E+01  0.16208266740E+02  0.17517246319E+02  0.51100000000E-03 0.  1.
         12    1    3    3    0    0 -0.79281311187E+01 -0.66496316676E+01  0.23745414914E+02  0.25902077017E+02  0.00000000000E+00 0. -1.
</event>
<event>
 7    1  0.4623443E-009  0.4614232E+02  0.7816164E-02  0.1320468E+00
        -11   -1    0    0    0    0  0.00000000000E+00  0.00000000000E+00  0.45593999997E+02  0.45594000000E+02  0.51100000000E-03 0. -1.
         11   -1    0    0    0    0 -0.00000000000E+00 -0.00000000000E+00 -0.45593999997E+02  0.45594000000E+02  0.51100000000E-03 0.  1.
    9900012    2    1    2    0    0  0.22956425092E+02  0.14477240791E+01 -0.38730092404E+02  0.46142318568E+02  0.10000007362E+02 0.  0.
         12    1    1    2    0    0 -0.22956425092E+02 -0.14477240791E+01  0.38730092404E+02  0.45045681432E+02  0.00000000000E+00 0. -1.
         11    1    3    3    0    0  0.53557518959E+01  0.34084964477E+01 -0.91777890593E+01  0.11159468566E+02  0.51100000000E-03 0.  1.
        -11    1    3    3    0    0  0.10854711241E+01  0.12852131293E+01 -0.14268432779E+01  0.22058790424E+01  0.51100000000E-03 0. -1.
        -12    1    3    3    0    0  0.16515202072E+02 -0.32459854979E+01 -0.28125460067E+02  0.32776970960E+02  0.00000000000E+00 0.  1.
</event>
<event>
 7    1  0.4623443E-009  0.4614232E+02  0.7816164E-02  0.1320468E+00
        -11   -1    0    0    0    0  0.00000000000E+00  0.00000000000E+00  0.45593999997E+02  0.45594000000E+02  0.51100000000E-03 0. -1.
         11   -1    0    0    0    0 -0.00000000000E+00 -0.00000000000E+00 -0.45593999997E+02  0.45594000000E+02  0.51100000000E-03 0.  1.
    9900012    2    1    2    0    0 -0.25948984957E+01  0.14697228699E+02 -0.42501430638E+02  0.46142316123E+02  0.99999850669E+01 0.  0.
         12    1    1    2    0    0  0.25948984957E+01 -0.14697228699E+02  0.42501430638E+02  0.45045683877E+02  0.00000000000E+00 0. -1.
         11    1    3    3    0    0 -0.33282651153E+00 -0.10457905701E+01 -0.24337917473E+01  0.26697928634E+01  0.51100000000E-03 0. -1.
        -11    1    3    3    0    0 -0.26943018019E+01  0.12186360402E+02 -0.24474157670E+02  0.27472732590E+02  0.51100000000E-03 0.  1.
        -12    1    3    3    0    0  0.43222981770E+00  0.35566588680E+01 -0.15593481221E+02  0.15999790670E+02  0.00000000000E+00 0.  1.
</event>
<event>
 7    1  0.4623443E-009  0.4614232E+02  0.7816164E-02  0.1320468E+00
        -11   -1    0    0    0    0  0.00000000000E+00  0.00000000000E+00  0.45593999997E+02  0.45594000000E+02  0.51100000000E-03 0. -1.
         11   -1    0    0    0    0 -0.00000000000E+00 -0.00000000000E+00 -0.45593999997E+02  0.45594000000E+02  0.51100000000E-03 0.  1.
    9900012    2    1    2    0    0  0.37512409048E+02  0.68213416544E+00 -0.24929248866E+02  0.46142316648E+02  0.99999898491E+01 0.  0.
         12    1    1    2    0    0 -0.37512409048E+02 -0.68213416544E+00  0.24929248866E+02  0.45045683352E+02  0.00000000000E+00 0. -1.
         11    1    3    3    0    0  0.67203948312E+00  0.10823307254E+01 -0.73595038551E+00  0.14712919822E+01  0.51100000000E-03 0. -1.
        -11    1    3    3    0    0  0.31440725416E+02 -0.26076733284E+01 -0.21891053066E+02  0.38399705461E+02  0.51100000000E-03 0.  1.
        -12    1    3    3    0    0  0.53996441491E+01  0.22074767685E+01 -0.23022454146E+01  0.62713192048E+01  0.00000000000E+00 0.  1.
</event>
<event>
 7    1  0.4623443E-009  0.4614232E+02  0.7816164E-02  0.1320468E+00
        -11   -1    0    0    0    0  0.00000000000E+00  0.00000000000E+00  0.45593999997E+02  0.45594000000E+02  0.51100000000E-03 0. -1.
         11   -1    0    0    0    0 -0.00000000000E+00 -0.00000000000E+00 -0.45593999997E+02  0.45594000000E+02  0.51100000000E-03 0.  1.
    9900012    2    1    2    0    0 -0.21406210942E+02  0.27123884391E+02 -0.28899523560E+02  0.46142318372E+02  0.10000005569E+02 0.  0.
         12    1    1    2    0    0  0.21406210942E+02 -0.27123884391E+02  0.28899523560E+02  0.45045681628E+02  0.00000000000E+00 0. -1.
         11    1    3    3    0    0 -0.12233600279E+02  0.19958677688E+02 -0.17021435569E+02  0.28943722289E+02  0.51100000000E-03 0. -1.
        -11    1    3    3    0    0 -0.87406295982E+01  0.47739730888E+01 -0.89156017446E+01  0.13367025831E+02  0.51100000000E-03 0.  1.
        -12    1    3    3    0    0 -0.43198106425E+00  0.23912336145E+01 -0.29624862463E+01  0.38315702523E+01  0.00000000000E+00 0.  1.
</event>
<event>
 7    1  0.4623443E-009  0.4614232E+02  0.7816164E-02  0.1320468E+00
        -11   -1    0    0    0    0  0.00000000000E+00  0.00000000000E+00  0.45593999997E+02  0.45594000000E+02  0.51100000000E-03 0.  1.
         11   -1    0    0    0    0 -0.00000000000E+00 -0.00000000000E+00 -0.45593999997E+02  0.45594000000E+02  0.51100000000E-03 0. -1.
    9900012    2    1    2    0    0 -0.40395272862E+02 -0.19197707529E+02  0.53650163376E+01  0.46142318250E+02  0.10000004461E+02 0.  0.
        -12    1    1    2    0    0  0.40395272862E+02  0.19197707529E+02 -0.53650163376E+01  0.45045681750E+02  0.00000000000E+00 0.  1.
         11    1    3    3    0    0 -0.33811455789E+02 -0.17045253309E+02  0.41397377512E+01  0.38090584557E+02  0.51100000000E-03 0. -1.
        -11    1    3    3    0    0 -0.67715735263E+00 -0.32882883079E+00  0.16924784015E+01  0.18523374101E+01  0.51100000000E-03 0.  1.
         12    1    3    3    0    0 -0.59066597202E+01 -0.18236253889E+01 -0.46719981503E+00  0.61993962833E+01  0.00000000000E+00 0. -1.
</event>
<event>
 7    1  0.4623443E-009  0.4614232E+02  0.7816164E-02  0.1320468E+00
        -11   -1    0    0    0    0  0.00000000000E+00  0.00000000000E+00  0.45593999997E+02  0.45594000000E+02  0.51100000000E-03 0.  1.
         11   -1    0    0    0    0 -0.00000000000E+00 -0.00000000000E+00 -0.45593999997E+02  0.45594000000E+02  0.51100000000E-03 0. -1.
    9900012    2    1    2    0    0 -0.41689557912E+02  0.15702160105E+02 -0.66735620415E+01  0.46142317619E+02  0.99999987004E+01 0.  0.
        -12    1    1    2    0    0  0.41689557912E+02 -0.15702160105E+02  0.66735620415E+01  0.45045682381E+02  0.00000000000E+00 0.  1.
         11    1    3    3    0    0 -0.22868981750E+02  0.71247220420E+01 -0.55214023950E+01  0.24581250480E+02  0.51100000000E-03 0. -1.
        -11    1    3    3    0    0 -0.14255678217E+02  0.60934490250E+01  0.17613915984E+01  0.15603108122E+02  0.51100000000E-03 0.  1.
         12    1    3    3    0    0 -0.45648979446E+01  0.24839890384E+01 -0.29135512449E+01  0.59579590166E+01  0.00000000000E+00 0. -1.
</event>
<event>
 7    1  0.4623443E-009  0.4614232E+02  0.7816164E-02  0.1320468E+00
        -11   -1    0    0    0    0  0.00000000000E+00  0.00000000000E+00  0.45593999997E+02  0.45594000000E+02  0.51100000000E-03 0. -1.
         11   -1    0    0    0    0 -0.00000000000E+00 -0.00000000000E+00 -0.45593999997E+02  0.45594000000E+02  0.51100000000E-03 0.  1.
    9900012    2    1    2    0    0  0.10034281637E+02 -0.16272241907E+02 -0.40787752559E+02  0.46142318482E+02  0.10000006570E+02 0.  0.
         12    1    1    2    0    0 -0.10034281637E+02  0.16272241907E+02  0.40787752559E+02  0.45045681518E+02  0.00000000000E+00 0. -1.
         11    1    3    3    0    0  0.12227583983E+00  0.13300471951E+00 -0.93112340731E+00  0.94848969271E+00  0.51100000000E-03 0. -1.
        -11    1    3    3    0    0 -0.14082620533E+00  0.93430121234E+00 -0.40551916678E+01  0.41638120154E+01  0.51100000000E-03 0.  1.
        -12    1    3    3    0    0  0.10052832003E+02 -0.17339547839E+02 -0.35801437484E+02  0.41030016774E+02  0.00000000000E+00 0.  1.
</event>
<event>
 7    1  0.4623443E-009  0.4614232E+02  0.7816164E-02  0.1320468E+00
        -11   -1    0    0    0    0  0.00000000000E+00  0.00000000000E+00  0.45593999997E+02  0.45594000000E+02  0.51100000000E-03 0.  1.
         11   -1    0    0    0    0 -0.00000000000E+00 -0.00000000000E+00 -0.45593999997E+02  0.45594000000E+02  0.51100000000E-03 0. -1.
    9900012    2    1    2    0    0 -0.32100535489E+02 -0.23123622336E+02  0.21539897803E+02  0.46142317788E+02  0.10000000245E+02 0.  0.
        -12    1    1    2    0    0  0.32100535489E+02  0.23123622336E+02 -0.21539897803E+02  0.45045682212E+02  0.00000000000E+00 0.  1.
         11    1    3    3    0    0 -0.20822454929E+02 -0.15425727337E+02  0.12726674985E+02  0.28870329919E+02  0.51100000000E-03 0. -1.
        -11    1    3    3    0    0 -0.44790504563E+01 -0.99115297022E+00  0.55030505460E+01  0.71643452439E+01  0.51100000000E-03 0.  1.
        -12    1    3    3    0    0 -0.67990301035E+01 -0.67067420280E+01  0.33101722713E+01  0.10107642626E+02  0.00000000000E+00 0.  1.
</event>
<event>
 7    1  0.4623443E-009  0.4614232E+02  0.7816164E-02  0.1320468E+00
        -11   -1    0    0    0    0  0.00000000000E+00  0.00000000000E+00  0.45593999997E+02  0.45594000000E+02  0.51100000000E-03 0. -1.
         11   -1    0    0    0    0 -0.00000000000E+00 -0.00000000000E+00 -0.45593999997E+02  0.45594000000E+02  0.51100000000E-03 0.  1.
    9900012    2    1    2    0    0 -0.21053061167E+02  0.34008606727E+02 -0.20719478159E+02  0.46142317730E+02  0.99999997148E+01 0.  0.
         12    1    1    2    0    0  0.21053061167E+02 -0.34008606727E+02  0.20719478159E+02  0.45045682270E+02  0.00000000000E+00 0. -1.
         11    1    3    3    0    0 -0.12762866395E+02  0.22634305745E+02 -0.14943099682E+02  0.29974969284E+02  0.51100000000E-03 0. -1.
        -11    1    3    3    0    0 -0.77968170313E+01  0.11972504822E+02 -0.52125458907E+01  0.15208611457E+02  0.51100000000E-03 0.  1.
         12    1    3    3    0    0 -0.49337774024E+00 -0.59820384013E+00 -0.56383258560E+00  0.95873698869E+00  0.00000000000E+00 0. -1.
</event>
<event>
 7    1  0.4623443E-009  0.4614232E+02  0.7816164E-02  0.1320468E+00
        -11   -1    0    0    0    0  0.00000000000E+00  0.00000000000E+00  0.45593999997E+02  0.45594000000E+02  0.51100000000E-03 0.  1.
         11   -1    0    0    0    0 -0.00000000000E+00 -0.00000000000E+00 -0.45593999997E+02  0.45594000000E+02  0.51100000000E-03 0. -1.
    9900012    2    1    2    0    0 -0.54255337803E+00  0.41464991793E+02  0.17591863011E+02  0.46142317046E+02  0.99999934815E+01 0.  0.
         12    1    1    2    0    0  0.54255337803E+00 -0.41464991793E+02 -0.17591863011E+02  0.45045682954E+02  0.00000000000E+00 0. -1.
         11    1    3    3    0    0 -0.23497328699E+01  0.31392647923E+02  0.10824578670E+02  0.33289504230E+02  0.51100000000E-03 0. -1.
        -11    1    3    3    0    0  0.19053689072E+01  0.10400481059E+02  0.66493334166E+01  0.12490559318E+02  0.51100000000E-03 0.  1.
         12    1    3    3    0    0 -0.98189415255E-01 -0.32813718968E+00  0.11795092390E+00  0.36225349821E+00  0.00000000000E+00 0. -1.
</event>
<event>
 7    1  0.4623443E-009  0.4614232E+02  0.7816164E-02  0.1320468E+00
        -11   -1    0    0    0    0  0.00000000000E+00  0.00000000000E+00  0.45593999997E+02  0.45594000000E+02  0.51100000000E-03 0. -1.
         11   -1    0    0    0    0 -0.00000000000E+00 -0.00000000000E+00 -0.45593999997E+02  0.45594000000E+02  0.51100000000E-03 0.  1.
    9900012    2    1    2    0    0 -0.90399385146E+01 -0.36869605784E+02  0.24249228543E+02  0.46142318698E+02  0.10000008544E+02 0.  0.
        -12    1    1    2    0    0  0.90399385146E+01  0.36869605784E+02 -0.24249228543E+02  0.45045681302E+02  0.00000000000E+00 0.  1.
         11    1    3    3    0    0 -0.82435576560E+00 -0.83932693098E+01  0.73992021318E+01  0.11219390562E+02  0.51100000000E-03 0. -1.
        -11    1    3    3    0    0 -0.41599032111E+01 -0.24675120215E+02  0.13494325577E+02  0.28429969669E+02  0.51100000000E-03 0.  1.
         12    1    3    3    0    0 -0.40556795379E+01 -0.38012162592E+01  0.33557008346E+01  0.64929584671E+01  0.00000000000E+00 0. -1.
</event>
<event>
 7    1  0.4623443E-009  0.4614232E+02  0.7816164E-02  0.1320468E+00
        -11   -1    0    0    0    0  0.00000000000E+00  0.00000000000E+00  0.45593999997E+02  0.45594000000E+02  0.51100000000E-03 0. -1.
         11   -1    0    0    0    0 -0.00000000000E+00 -0.00000000000E+00 -0.45593999997E+02  0.45594000000E+02  0.51100000000E-03 0.  1.
    9900012    2    1    2    0    0 -0.15814742189E+02  0.70580735980E+00  0.42172373273E+02  0.46142319830E+02  0.10000018862E+02 0.  0.
        -12    1    1    2    0    0  0.15814742189E+02 -0.70580735980E+00 -0.42172373273E+02  0.45045680170E+02  0.00000000000E+00 0.  1.
         11    1    3    3    0    0 -0.41315260748E+01 -0.64876045242E+00  0.15396084268E+02  0.15953990375E+02  0.51100000000E-03 0. -1.
        -11    1    3    3    0    0 -0.10947728693E+02  0.22486635713E+01  0.17006554154E+02  0.20350236752E+02  0.51100000000E-03 0.  1.
        -12    1    3    3    0    0 -0.73548742102E+00 -0.89409575905E+00  0.97697348511E+01  0.98380927030E+01  0.00000000000E+00 0.  1.
</event>
<event>
 7    1  0.4623443E-009  0.4614233E+02  0.7816164E-02  0.1320468E+00
        -11   -1    0    0    0    0  0.00000000000E+00  0.00000000000E+00  0.45593999997E+02  0.45594000000E+02  0.51100000000E-03 0. -1.
         11   -1    0    0    0    0 -0.00000000000E+00 -0.00000000000E+00 -0.45593999997E+02  0.45594000000E+02  0.51100000000E-03 0.  1.
    9900012    2    1    2    0    0  0.21393194280E+02  0.40054869662E+01 -0.39438558406E+02  0.46142327883E+02  0.10000092299E+02 0.  0.
         12    1    1    2    0    0 -0.21393194280E+02 -0.40054869662E+01  0.39438558406E+02  0.45045672117E+02  0.00000000000E+00 0. -1.
         11    1    3    3    0    0  0.25313559694E+01 -0.14285251433E+01 -0.96571052831E+01  0.10085044861E+02  0.51100000000E-03 0. -1.
        -11    1    3    3    0    0  0.13309061053E+02  0.29480182620E+01 -0.16178084034E+02  0.21155432425E+02  0.51100000000E-03 0.  1.
         12    1    3    3    0    0  0.55527772568E+01  0.24859938475E+01 -0.13603369089E+02  0.14901850598E+02  0.00000000000E+00 0. -1.
</event>
<event>
 7    1  0.4623443E-009  0.4614232E+02  0.7816164E-02  0.1320468E+00
        -11   -1    0    0    0    0  0.00000000000E+00  0.00000000000E+00  0.45593999997E+02  0.45594000000E+02  0.51100000000E-03 0. -1.
         11   -1    0    0    0    0 -0.00000000000E+00 -0.00000000000E+00 -0.45593999997E+02  0.45594000000E+02  0.51100000000E-03 0.  1.
    9900012    2    1    2    0    0  0.33654955592E+02 -0.29924854693E+02 -0.98007081915E+00  0.46142317598E+02  0.99999985085E+01 0.  0.
         12    1    1    2    0    0 -0.33654955592E+02  0.29924854693E+02  0.98007081915E+00  0.45045682402E+02  0.00000000000E+00 0. -1.
         11    1    3    3    0    0  0.11202807261E+02 -0.13304490129E+02  0.16861693867E+01  0.17474424614E+02  0.51100000000E-03 0. -1.
        -11    1    3    3    0    0  0.69769075239E+01 -0.86670253381E+01 -0.54448995686E+00  0.11139615630E+02  0.51100000000E-03 0.  1.
         12    1    3    3    0    0  0.15475240807E+02 -0.79533392260E+01 -0.21217502490E+01  0.17528277354E+02  0.00000000000E+00 0. -1.
</event>
<event>
 7    1  0.4623443E-009  0.4614232E+02  0.7816164E-02  0.1320468E+00
        -11   -1    0    0    0    0  0.00000000000E+00  0.00000000000E+00  0.45593999997E+02  0.45594000000E+02  0.51100000000E-03 0.  1.
         11   -1    0    0    0    0 -0.00000000000E+00 -0.00000000000E+00 -0.45593999997E+02  0.45594000000E+02  0.51100000000E-03 0. -1.
    9900012    2    1    2    0    0 -0.13759090083E+02  0.35993824037E+02 -0.23329069335E+02  0.46142318689E+02  0.10000008464E+02 0.  0.
         12    1    1    2    0    0  0.13759090083E+02 -0.35993824037E+02  0.23329069335E+02  0.45045681311E+02  0.00000000000E+00 0. -1.
         11    1    3    3    0    0 -0.25481230812E+01  0.43182307808E+01 -0.13090254083E+01  0.51820455511E+01  0.51100000000E-03 0. -1.
        -11    1    3    3    0    0 -0.84483078146E+01  0.24135399076E+02 -0.12370440348E+02  0.28406323031E+02  0.51100000000E-03 0.  1.
         12    1    3    3    0    0 -0.27626591870E+01  0.75401941803E+01 -0.96496035793E+01  0.12553950107E+02  0.00000000000E+00 0. -1.
</event>
<event>
 7    1  0.4623443E-009  0.4614232E+02  0.7816164E-02  0.1320468E+00
        -11   -1    0    0    0    0  0.00000000000E+00  0.00000000000E+00  0.45593999997E+02  0.45594000000E+02  0.51100000000E-03 0. -1.
         11   -1    0    0    0    0 -0.00000000000E+00 -0.00000000000E+00 -0.45593999997E+02  0.45594000000E+02  0.51100000000E-03 0.  1.
    9900012    2    1    2    0    0  0.14295325627E+02 -0.14075619203E+02  0.40331552616E+02  0.46142317331E+02  0.99999960741E+01 0.  0.
        -12    1    1    2    0    0 -0.14295325627E+02  0.14075619203E+02 -0.40331552616E+02  0.45045682669E+02  0.00000000000E+00 0.  1.
         11    1    3    3    0    0  0.18844326508E+01  0.21192793590E+00  0.92755616560E+00  0.21110093716E+01  0.51100000000E-03 0. -1.
        -11    1    3    3    0    0 -0.29687080688E+00  0.73412840350E-01  0.14323624050E+00  0.33769602133E+00  0.51100000000E-03 0.  1.
         12    1    3    3    0    0  0.12707763783E+02 -0.14360959979E+02  0.39260760210E+02  0.43693611938E+02  0.00000000000E+00 0. -1.
</event>
<event>
 7    1  0.4623443E-009  0.4614232E+02  0.7816164E-02  0.1320468E+00
        -11   -1    0    0    0    0  0.00000000000E+00  0.00000000000E+00  0.45593999997E+02  0.45594000000E+02  0.51100000000E-03 0.  1.
         11   -1    0    0    0    0 -0.00000000000E+00 -0.00000000000E+00 -0.45593999997E+02  0.45594000000E+02  0.51100000000E-03 0. -1.
    9900012    2    1    2    0    0  0.23974707074E+02 -0.32695577633E+02  0.19629725679E+02  0.46142317563E+02  0.99999981910E+01 0.  0.
        -12    1    1    2    0    0 -0.23974707074E+02  0.32695577633E+02 -0.19629725679E+02  0.45045682437E+02  0.00000000000E+00 0.  1.
         11    1    3    3    0    0  0.10955430568E+02 -0.12474292569E+02  0.66290230224E+01  0.17876615466E+02  0.51100000000E-03 0. -1.
        -11    1    3    3    0    0  0.60450331339E+01 -0.12581031399E+02  0.10900216699E+02  0.17709870157E+02  0.51100000000E-03 0.  1.
        -12    1    3    3    0    0  0.69742433720E+01 -0.76402536652E+01  0.21004859578E+01  0.10555831940E+02  0.00000000000E+00 0.  1.
</event>
<event>
 7    1  0.4623443E-009  0.4614232E+02  0.7816164E-02  0.1320468E+00
        -11   -1    0    0    0    0  0.00000000000E+00  0.00000000000E+00  0.45593999997E+02  0.45594000000E+02  0.51100000000E-03 0. -1.
         11   -1    0    0    0    0 -0.00000000000E+00 -0.00000000000E+00 -0.45593999997E+02  0.45594000000E+02  0.51100000000E-03 0.  1.
    9900012    2    1    2    0    0  0.23537462993E+02  0.32450582141E+01 -0.38269713014E+02  0.46142317620E+02  0.99999987109E+01 0.  0.
         12    1    1    2    0    0 -0.23537462993E+02 -0.32450582141E+01  0.38269713014E+02  0.45045682380E+02  0.00000000000E+00 0. -1.
         11    1    3    3    0    0  0.62082953843E+01  0.35204913991E+00 -0.15102777040E+02  0.16332811906E+02  0.51100000000E-03 0. -1.
        -11    1    3    3    0    0  0.13002288182E+02  0.48994932001E+01 -0.15882562565E+02  0.21102614186E+02  0.51100000000E-03 0.  1.
        -12    1    3    3    0    0  0.43268794262E+01 -0.20064841259E+01 -0.72843734090E+01  0.87068915279E+01  0.00000000000E+00 0.  1.
</event>
<event>
 7    1  0.4623443E-009  0.4614232E+02  0.7816164E-02  0.1320468E+00
        -11   -1    0    0    0    0  0.00000000000E+00  0.00000000000E+00  0.45593999997E+02  0.45594000000E+02  0.51100000000E-03 0. -1.
         11   -1    0    0    0    0 -0.00000000000E+00 -0.00000000000E+00 -0.45593999997E+02  0.45594000000E+02  0.51100000000E-03 0.  1.
    9900012    2    1    2    0    0  0.24753021567E+02  0.15550897521E+02  0.34272015084E+02  0.46142317540E+02  0.99999979798E+01 0.  0.
        -12    1    1    2    0    0 -0.24753021567E+02 -0.15550897521E+02 -0.34272015084E+02  0.45045682460E+02  0.00000000000E+00 0.  1.
         11    1    3    3    0    0  0.89220028346E+00  0.27286057639E+01  0.47843987803E+01  0.55795862491E+01  0.51100000000E-03 0. -1.
        -11    1    3    3    0    0  0.45540184484E+00  0.16133738678E+01  0.73415822047E+00  0.18301242120E+01  0.51100000000E-03 0.  1.
         12    1    3    3    0    0  0.23405419439E+02  0.11208917890E+02  0.28753458083E+02  0.38732607078E+02  0.00000000000E+00 0. -1.
</event>
<event>
 7    1  0.4623443E-009  0.4614231E+02  0.7816164E-02  0.1320468E+00
        -11   -1    0    0    0    0  0.00000000000E+00  0.00000000000E+00  0.45593999997E+02  0.45594000000E+02  0.51100000000E-03 0. -1.
         11   -1    0    0    0    0 -0.00000000000E+00 -0.00000000000E+00 -0.45593999997E+02  0.45594000000E+02  0.51100000000E-03 0.  1.
    9900012    2    1    2    0    0  0.15293206255E+02 -0.19195318410E+02 -0.37772633936E+02  0.46142308964E+02  0.99999197843E+01 0.  0.
         12    1    1    2    0    0 -0.15293206255E+02  0.19195318410E+02  0.37772633936E+02  0.45045691036E+02  0.00000000000E+00 0. -1.
         11    1    3    3    0    0  0.24320802180E+01 -0.60770175436E+01 -0.12703934288E+02  0.14291084741E+02  0.51100000000E-03 0. -1.
        -11    1    3    3    0    0  0.79123479501E+01 -0.11358100691E+02 -0.21235589748E+02  0.25348806157E+02  0.51100000000E-03 0.  1.
        -12    1    3    3    0    0  0.49487780866E+01 -0.17602001758E+01 -0.38331099005E+01  0.65024180670E+01  0.00000000000E+00 0.  1.
</event>
<event>
 7    1  0.4623443E-009  0.4614232E+02  0.7816164E-02  0.1320468E+00
        -11   -1    0    0    0    0  0.00000000000E+00  0.00000000000E+00  0.45593999997E+02  0.45594000000E+02  0.51100000000E-03 0. -1.
         11   -1    0    0    0    0 -0.00000000000E+00 -0.00000000000E+00 -0.45593999997E+02  0.45594000000E+02  0.51100000000E-03 0.  1.
    9900012    2    1    2    0    0  0.16950366403E+02 -0.27453898306E+02 -0.31433772686E+02  0.46142317425E+02  0.99999969316E+01 0.  0.
         12    1    1    2    0    0 -0.16950366403E+02  0.27453898306E+02  0.31433772686E+02  0.45045682575E+02  0.00000000000E+00 0. -1.
         11    1    3    3    0    0  0.82379290667E+01 -0.17276584325E+02 -0.12472254581E+02  0.22845152130E+02  0.51100000000E-03 0. -1.
        -11    1    3    3    0    0  0.26716435537E+01 -0.18742164717E+01 -0.43248799231E+01  0.54180211583E+01  0.51100000000E-03 0.  1.
         12    1    3    3    0    0  0.60407937826E+01 -0.83030975092E+01 -0.14636638182E+02  0.17879144136E+02  0.00000000000E+00 0. -1.
</event>
<event>
 7    1  0.5354352E-009  0.4614232E+02  0.7816164E-02  0.1320468E+00
        -11   -1    0    0    0    0  0.00000000000E+00  0.00000000000E+00  0.45593999997E+02  0.45594000000E+02  0.51100000000E-03 0. -1.
         11   -1    0    0    0    0 -0.00000000000E+00 -0.00000000000E+00 -0.45593999997E+02  0.45594000000E+02  0.51100000000E-03 0.  1.
    9900012    2    1    2    0    0 -0.20906578199E+02 -0.65078315879E+01 -0.39365931408E+02  0.46142318303E+02  0.10000004938E+02 0.  0.
         12    1    1    2    0    0  0.20906578199E+02  0.65078315879E+01  0.39365931408E+02  0.45045681697E+02  0.00000000000E+00 0. -1.
         11    1    3    3    0    0 -0.87377827723E+01 -0.33385654662E+01 -0.19436461461E+02  0.21570139117E+02  0.51100000000E-03 0. -1.
        -11    1    3    3    0    0 -0.12783380558E+02 -0.34721067562E+01 -0.19875028699E+02  0.23884871988E+02  0.51100000000E-03 0.  1.
         12    1    3    3    0    0  0.61458513196E+00  0.30284063457E+00 -0.54441248044E-01  0.68730719759E+00  0.00000000000E+00 0. -1.
</event>
<event>
 7    1  0.4623443E-009  0.4614232E+02  0.7816164E-02  0.1320468E+00
        -11   -1    0    0    0    0  0.00000000000E+00  0.00000000000E+00  0.45593999997E+02  0.45594000000E+02  0.51100000000E-03 0. -1.
         11   -1    0    0    0    0 -0.00000000000E+00 -0.00000000000E+00 -0.45593999997E+02  0.45594000000E+02  0.51100000000E-03 0.  1.
    9900012    2    1    2    0    0 -0.68827299817E+01  0.39684462358E+00 -0.44514988424E+02  0.46142315944E+02  0.99999834333E+01 0.  0.
         12    1    1    2    0    0  0.68827299817E+01 -0.39684462358E+00  0.44514988424E+02  0.45045684056E+02  0.00000000000E+00 0. -1.
         11    1    3    3    0    0  0.12401367532E+00 -0.29606738792E+01 -0.98726606376E+01  0.10307783347E+02  0.51100000000E-03 0. -1.
        -11    1    3    3    0    0 -0.14054097764E+01  0.31543379654E+01 -0.15970207062E+02  0.16339294308E+02  0.51100000000E-03 0.  1.
        -12    1    3    3    0    0 -0.56013338806E+01  0.20318053739E+00 -0.18672120725E+02  0.19495238289E+02  0.00000000000E+00 0.  1.
</event>
<event>
 7    1  0.4623443E-009  0.4614231E+02  0.7816164E-02  0.1320468E+00
        -11   -1    0    0    0    0  0.00000000000E+00  0.00000000000E+00  0.45593999997E+02  0.45594000000E+02  0.51100000000E-03 0. -1.
         11   -1    0    0    0    0 -0.00000000000E+00 -0.00000000000E+00 -0.45593999997E+02  0.45594000000E+02  0.51100000000E-03 0.  1.
    9900012    2    1    2    0    0 -0.13204033914E+02  0.28352855083E+02 -0.32417325087E+02  0.46142313539E+02  0.99999614969E+01 0.  0.
         12    1    1    2    0    0  0.13204033914E+02 -0.28352855083E+02  0.32417325087E+02  0.45045686461E+02  0.00000000000E+00 0. -1.
         11    1    3    3    0    0  0.62157008280E-01  0.24688714412E+01 -0.10427410635E+01  0.26807646061E+01  0.51100000000E-03 0. -1.
        -11    1    3    3    0    0 -0.42961603806E+01  0.96399346233E+01 -0.16912482642E+02  0.19935330520E+02  0.51100000000E-03 0.  1.
        -12    1    3    3    0    0 -0.89700305416E+01  0.16244049019E+02 -0.14462101382E+02  0.23526218413E+02  0.00000000000E+00 0.  1.
</event>
<event>
 7    1  0.4623443E-009  0.4614233E+02  0.7816164E-02  0.1320468E+00
        -11   -1    0    0    0    0  0.00000000000E+00  0.00000000000E+00  0.45593999997E+02  0.45594000000E+02  0.51100000000E-03 0. -1.
         11   -1    0    0    0    0 -0.00000000000E+00 -0.00000000000E+00 -0.45593999997E+02  0.45594000000E+02  0.51100000000E-03 0.  1.
    9900012    2    1    2    0    0  0.58675937915E+01 -0.22060582004E+02 -0.38833167287E+02  0.46142325215E+02  0.10000067975E+02 0.  0.
         12    1    1    2    0    0 -0.58675937915E+01  0.22060582004E+02  0.38833167287E+02  0.45045674785E+02  0.00000000000E+00 0. -1.
         11    1    3    3    0    0  0.45596440883E+01 -0.76988047133E+01 -0.13099170432E+02  0.15863486832E+02  0.51100000000E-03 0.  1.
        -11    1    3    3    0    0  0.23766670252E+01 -0.12977765351E+02 -0.25209443542E+02  0.28453242058E+02  0.51100000000E-03 0. -1.
         12    1    3    3    0    0 -0.10687173221E+01 -0.13840119396E+01 -0.52455331348E+00  0.18255963251E+01  0.00000000000E+00 0. -1.
</event>
<event>
 7    1  0.4623443E-009  0.4614232E+02  0.7816164E-02  0.1320468E+00
        -11   -1    0    0    0    0  0.00000000000E+00  0.00000000000E+00  0.45593999997E+02  0.45594000000E+02  0.51100000000E-03 0. -1.
         11   -1    0    0    0    0 -0.00000000000E+00 -0.00000000000E+00 -0.45593999997E+02  0.45594000000E+02  0.51100000000E-03 0.  1.
    9900012    2    1    2    0    0  0.33791666060E+02 -0.20227658558E+02  0.21865007513E+02  0.46142318527E+02  0.10000006985E+02 0.  0.
        -12    1    1    2    0    0 -0.33791666060E+02  0.20227658558E+02 -0.21865007513E+02  0.45045681473E+02  0.00000000000E+00 0.  1.
         11    1    3    3    0    0  0.17574342973E+02 -0.76545803622E+01  0.10076441681E+02  0.21656057090E+02  0.51100000000E-03 0. -1.
        -11    1    3    3    0    0  0.16166313377E+02 -0.13138116855E+02  0.11135426252E+02  0.23621124461E+02  0.51100000000E-03 0.  1.
        -12    1    3    3    0    0  0.51009708996E-01  0.56503865969E+00  0.65313958009E+00  0.86513697668E+00  0.00000000000E+00 0.  1.
</event>
<event>
 7    1  0.4623443E-009  0.4614232E+02  0.7816164E-02  0.1320468E+00
        -11   -1    0    0    0    0  0.00000000000E+00  0.00000000000E+00  0.45593999997E+02  0.45594000000E+02  0.51100000000E-03 0. -1.
         11   -1    0    0    0    0 -0.00000000000E+00 -0.00000000000E+00 -0.45593999997E+02  0.45594000000E+02  0.51100000000E-03 0.  1.
    9900012    2    1    2    0    0 -0.38500746276E+02  0.22562995822E+02 -0.61414275077E+01  0.46142319008E+02  0.10000011368E+02 0.  0.
         12    1    1    2    0    0  0.38500746276E+02 -0.22562995822E+02  0.61414275077E+01  0.45045680992E+02  0.00000000000E+00 0. -1.
         11    1    3    3    0    0 -0.23462532412E+00 -0.50537502799E+00 -0.38976756709E+00  0.67997939609E+00  0.51100000000E-03 0.  1.
        -11    1    3    3    0    0 -0.64443448970E+01  0.16799231956E+01 -0.19122960373E+01  0.69288238172E+01  0.51100000000E-03 0. -1.
        -12    1    3    3    0    0 -0.31821776054E+02  0.21388447654E+02 -0.38393639034E+01  0.38533515795E+02  0.00000000000E+00 0.  1.
</event>
<event>
 7    1  0.4623443E-009  0.4614232E+02  0.7816164E-02  0.1320468E+00
        -11   -1    0    0    0    0  0.00000000000E+00  0.00000000000E+00  0.45593999997E+02  0.45594000000E+02  0.51100000000E-03 0.  1.
         11   -1    0    0    0    0 -0.00000000000E+00 -0.00000000000E+00 -0.45593999997E+02  0.45594000000E+02  0.51100000000E-03 0. -1.
    9900012    2    1    2    0    0 -0.19647687045E+02 -0.38853124044E+02 -0.11554942034E+02  0.46142317193E+02  0.99999948165E+01 0.  0.
         12    1    1    2    0    0  0.19647687045E+02  0.38853124044E+02  0.11554942034E+02  0.45045682807E+02  0.00000000000E+00 0. -1.
         11    1    3    3    0    0 -0.68119687466E+01 -0.14687829372E+02 -0.60943684802E+01  0.17299612056E+02  0.51100000000E-03 0. -1.
        -11    1    3    3    0    0 -0.13121469183E+02 -0.18681465756E+02 -0.43236053961E+01  0.23234966757E+02  0.51100000000E-03 0.  1.
        -12    1    3    3    0    0  0.28575088422E+00 -0.54838289151E+01 -0.11369681578E+01  0.56077383792E+01  0.00000000000E+00 0.  1.
</event>
<event>
 7    1  0.4623443E-009  0.4614232E+02  0.7816164E-02  0.1320468E+00
        -11   -1    0    0    0    0  0.00000000000E+00  0.00000000000E+00  0.45593999997E+02  0.45594000000E+02  0.51100000000E-03 0. -1.
         11   -1    0    0    0    0 -0.00000000000E+00 -0.00000000000E+00 -0.45593999997E+02  0.45594000000E+02  0.51100000000E-03 0.  1.
    9900012    2    1    2    0    0  0.24227494408E+02  0.81619383809E+01  0.37088065952E+02  0.46142319191E+02  0.10000013043E+02 0.  0.
        -12    1    1    2    0    0 -0.24227494408E+02 -0.81619383809E+01 -0.37088065952E+02  0.45045680809E+02  0.00000000000E+00 0.  1.
         11    1    3    3    0    0  0.16206677960E+02  0.63473952039E+01  0.25022860904E+02  0.30480967906E+02  0.51100000000E-03 0. -1.
        -11    1    3    3    0    0 -0.46210842156E+00  0.12423880594E+01  0.27291418916E+01  0.30340217549E+01  0.51100000000E-03 0.  1.
         12    1    3    3    0    0  0.84829248695E+01  0.57215511771E+00  0.93360631566E+01  0.12627329531E+02  0.00000000000E+00 0. -1.
</event>
<event>
 7    1  0.4623443E-009  0.4614232E+02  0.7816164E-02  0.1320468E+00
        -11   -1    0    0    0    0  0.00000000000E+00  0.00000000000E+00  0.45593999997E+02  0.45594000000E+02  0.51100000000E-03 0. -1.
         11   -1    0    0    0    0 -0.00000000000E+00 -0.00000000000E+00 -0.45593999997E+02  0.45594000000E+02  0.51100000000E-03 0.  1.
    9900012    2    1    2    0    0  0.34280392963E+02  0.87981071538E+01  0.27866854167E+02  0.46142316606E+02  0.99999894693E+01 0.  0.
        -12    1    1    2    0    0 -0.34280392963E+02 -0.87981071538E+01 -0.27866854167E+02  0.45045683394E+02  0.00000000000E+00 0.  1.
         11    1    3    3    0    0  0.10659515295E+02  0.31808256548E+01  0.91362516966E+01  0.14394930131E+02  0.51100000000E-03 0. -1.
        -11    1    3    3    0    0  0.20316090354E+02  0.15471207253E+01  0.15334733758E+02  0.25500807232E+02  0.51100000000E-03 0.  1.
         12    1    3    3    0    0  0.33047873152E+01  0.40701607737E+01  0.33958687129E+01  0.62465792429E+01  0.00000000000E+00 0. -1.
</event>
<event>
 7    1  0.4623443E-009  0.4614232E+02  0.7816164E-02  0.1320468E+00
        -11   -1    0    0    0    0  0.00000000000E+00  0.00000000000E+00  0.45593999997E+02  0.45594000000E+02  0.51100000000E-03 0. -1.
         11   -1    0    0    0    0 -0.00000000000E+00 -0.00000000000E+00 -0.45593999997E+02  0.45594000000E+02  0.51100000000E-03 0.  1.
    9900012    2    1    2    0    0 -0.14330914618E+02 -0.40693157492E+02  0.12953968632E+02  0.46142317812E+02  0.10000000463E+02 0.  0.
        -12    1    1    2    0    0  0.14330914618E+02  0.40693157492E+02 -0.12953968632E+02  0.45045682188E+02  0.00000000000E+00 0.  1.
         11    1    3    3    0    0 -0.37323639610E+01 -0.92279310143E+01  0.28951771380E+00  0.99583669499E+01  0.51100000000E-03 0.  1.
        -11    1    3    3    0    0 -0.13769616727E+01 -0.69051858959E+01 -0.26778782986E-01  0.70411883279E+01  0.51100000000E-03 0. -1.
        -12    1    3    3    0    0 -0.92215889840E+01 -0.24560040582E+02  0.12691229702E+02  0.29142762534E+02  0.00000000000E+00 0.  1.
</event>
<event>
 7    1  0.4623443E-009  0.4614232E+02  0.7816164E-02  0.1320468E+00
        -11   -1    0    0    0    0  0.00000000000E+00  0.00000000000E+00  0.45593999997E+02  0.45594000000E+02  0.51100000000E-03 0. -1.
         11   -1    0    0    0    0 -0.00000000000E+00 -0.00000000000E+00 -0.45593999997E+02  0.45594000000E+02  0.51100000000E-03 0.  1.
    9900012    2    1    2    0    0  0.42207564687E+01  0.32589106562E+02  0.30809875872E+02  0.46142322040E+02  0.10000039014E+02 0.  0.
        -12    1    1    2    0    0 -0.42207564687E+01 -0.32589106562E+02 -0.30809875872E+02  0.45045677960E+02  0.00000000000E+00 0.  1.
         11    1    3    3    0    0  0.41962494051E+01  0.17969332886E+02  0.15981218871E+02  0.24411161183E+02  0.51100000000E-03 0.  1.
        -11    1    3    3    0    0  0.12913660338E+01  0.11045664380E+02  0.13947100600E+02  0.17838047629E+02  0.51100000000E-03 0. -1.
        -12    1    3    3    0    0 -0.12668589702E+01  0.35741092965E+01  0.88155640110E+00  0.38931132274E+01  0.00000000000E+00 0.  1.
</event>
<event>
 7    1  0.4623443E-009  0.4614232E+02  0.7816164E-02  0.1320468E+00
        -11   -1    0    0    0    0  0.00000000000E+00  0.00000000000E+00  0.45593999997E+02  0.45594000000E+02  0.51100000000E-03 0. -1.
         11   -1    0    0    0    0 -0.00000000000E+00 -0.00000000000E+00 -0.45593999997E+02  0.45594000000E+02  0.51100000000E-03 0.  1.
    9900012    2    1    2    0    0  0.17745493296E+02  0.17451015353E+02 -0.37545612699E+02  0.46142317609E+02  0.99999986102E+01 0.  0.
         12    1    1    2    0    0 -0.17745493296E+02 -0.17451015353E+02  0.37545612699E+02  0.45045682391E+02  0.00000000000E+00 0. -1.
         11    1    3    3    0    0  0.10113324536E+02  0.39426914584E+01 -0.14037652749E+02  0.17744854016E+02  0.51100000000E-03 0. -1.
        -11    1    3    3    0    0  0.70654652997E+00  0.24252111422E+01 -0.63131027247E+01  0.67997149467E+01  0.51100000000E-03 0.  1.
        -12    1    3    3    0    0  0.69256222299E+01  0.11083112753E+02 -0.17194857225E+02  0.21597748646E+02  0.00000000000E+00 0.  1.
</event>
<event>
 7    1  0.4623443E-009  0.4614232E+02  0.7816164E-02  0.1320468E+00
        -11   -1    0    0    0    0  0.00000000000E+00  0.00000000000E+00  0.45593999997E+02  0.45594000000E+02  0.51100000000E-03 0. -1.
         11   -1    0    0    0    0 -0.00000000000E+00 -0.00000000000E+00 -0.45593999997E+02  0.45594000000E+02  0.51100000000E-03 0.  1.
    9900012    2    1    2    0    0  0.35383888478E+02 -0.24039953366E+02  0.14112922362E+02  0.46142317640E+02  0.99999988922E+01 0.  0.
        -12    1    1    2    0    0 -0.35383888478E+02  0.24039953366E+02 -0.14112922362E+02  0.45045682360E+02  0.00000000000E+00 0.  1.
         11    1    3    3    0    0  0.17736095359E+02 -0.14655210526E+02  0.69984059613E+01  0.24048325522E+02  0.51100000000E-03 0. -1.
        -11    1    3    3    0    0  0.15644721540E+02 -0.62453071703E+01  0.73142317382E+01  0.18364617064E+02  0.51100000000E-03 0.  1.
        -12    1    3    3    0    0  0.20030715800E+01 -0.31394356698E+01 -0.19971533739E+00  0.37293750543E+01  0.00000000000E+00 0.  1.
</event>
<event>
 7    1  0.4623443E-009  0.4614232E+02  0.7816164E-02  0.1320468E+00
        -11   -1    0    0    0    0  0.00000000000E+00  0.00000000000E+00  0.45593999997E+02  0.45594000000E+02  0.51100000000E-03 0.  1.
         11   -1    0    0    0    0 -0.00000000000E+00 -0.00000000000E+00 -0.45593999997E+02  0.45594000000E+02  0.51100000000E-03 0. -1.
    9900012    2    1    2    0    0  0.43534930035E+02  0.11456722699E+02 -0.16021690355E+01  0.46142316813E+02  0.99999913550E+01 0.  0.
         12    1    1    2    0    0 -0.43534930035E+02 -0.11456722699E+02  0.16021690355E+01  0.45045683187E+02  0.00000000000E+00 0. -1.
         11    1    3    3    0    0  0.33616817073E+01  0.15784612863E+01 -0.17798478012E+01  0.41182887697E+01  0.51100000000E-03 0.  1.
        -11    1    3    3    0    0  0.22490034927E+02  0.18987225103E+01 -0.96014673909E+00  0.22590455954E+02  0.51100000000E-03 0. -1.
         12    1    3    3    0    0  0.17683213400E+02  0.79795389028E+01  0.11378255048E+01  0.19433572089E+02  0.00000000000E+00 0. -1.
</event>
<event>
 7    1  0.4623443E-009  0.4614232E+02  0.7816164E-02  0.1320468E+00
        -11   -1    0    0    0    0  0.00000000000E+00  0.00000000000E+00  0.45593999997E+02  0.45594000000E+02  0.51100000000E-03 0. -1.
         11   -1    0    0    0    0 -0.00000000000E+00 -0.00000000000E+00 -0.45593999997E+02  0.45594000000E+02  0.51100000000E-03 0.  1.
    9900012    2    1    2    0    0 -0.54746787117E+01 -0.44598300141E+02 -0.31832483434E+01  0.46142317049E+02  0.99999935085E+01 0.  0.
         12    1    1    2    0    0  0.54746787117E+01  0.44598300141E+02  0.31832483434E+01  0.45045682951E+02  0.00000000000E+00 0. -1.
         11    1    3    3    0    0  0.16121808812E+00 -0.16714558536E+00  0.80452334069E+00  0.83736908557E+00  0.51100000000E-03 0. -1.
        -11    1    3    3    0    0 -0.63234580850E+01 -0.30594598919E+02 -0.35754934282E+01  0.31445186574E+02  0.51100000000E-03 0.  1.
        -12    1    3    3    0    0  0.68756128516E+00 -0.13836555637E+02 -0.41227825586E+00  0.13859761390E+02  0.00000000000E+00 0.  1.
</event>
<event>
 7    1  0.4623443E-009  0.4614232E+02  0.7816164E-02  0.1320468E+00
        -11   -1    0    0    0    0  0.00000000000E+00  0.00000000000E+00  0.45593999997E+02  0.45594000000E+02  0.51100000000E-03 0. -1.
         11   -1    0    0    0    0 -0.00000000000E+00 -0.00000000000E+00 -0.45593999997E+02  0.45594000000E+02  0.51100000000E-03 0.  1.
    9900012    2    1    2    0    0 -0.22975162062E+02 -0.78204364790E+01 -0.37948600071E+02  0.46142317123E+02  0.99999941846E+01 0.  0.
         12    1    1    2    0    0  0.22975162062E+02  0.78204364790E+01  0.37948600071E+02  0.45045682877E+02  0.00000000000E+00 0. -1.
         11    1    3    3    0    0 -0.37084469313E+01 -0.20634692114E+01 -0.26214079669E+01  0.49882124873E+01  0.51100000000E-03 0. -1.
        -11    1    3    3    0    0 -0.99573153230E+01  0.13027033913E+00 -0.19127193709E+02  0.21564198067E+02  0.51100000000E-03 0.  1.
        -12    1    3    3    0    0 -0.93093998074E+01 -0.58872376067E+01 -0.16199998395E+02  0.19589906570E+02  0.00000000000E+00 0.  1.
</event>
<event>
 7    1  0.4958683E-009  0.4614232E+02  0.7816164E-02  0.1320468E+00
        -11   -1    0    0    0    0  0.00000000000E+00  0.00000000000E+00  0.45593999997E+02  0.45594000000E+02  0.51100000000E-03 0. -1.
         11   -1    0    0    0    0 -0.00000000000E+00 -0.00000000000E+00 -0.45593999997E+02  0.45594000000E+02  0.51100000000E-03 0.  1.
    9900012    2    1    2    0    0  0.42124598869E+01  0.26839221711E+02 -0.35930835416E+02  0.46142316810E+02  0.99999913278E+01 0.  0.
         12    1    1    2    0    0 -0.42124598869E+01 -0.26839221711E+02  0.35930835416E+02  0.45045683190E+02  0.00000000000E+00 0. -1.
         11    1    3    3    0    0 -0.24316490234E+01  0.90776158276E+01 -0.12749275728E+02  0.15838562369E+02  0.51100000000E-03 0. -1.
        -11    1    3    3    0    0  0.29197599054E+01  0.13677783377E+02 -0.16906043447E+02  0.21941309471E+02  0.51100000000E-03 0.  1.
         12    1    3    3    0    0  0.37243490049E+01  0.40838225060E+01 -0.62755162419E+01  0.83624449698E+01  0.00000000000E+00 0. -1.
</event>
<event>
 7    1  0.4623443E-009  0.4614232E+02  0.7816164E-02  0.1320468E+00
        -11   -1    0    0    0    0  0.00000000000E+00  0.00000000000E+00  0.45593999997E+02  0.45594000000E+02  0.51100000000E-03 0. -1.
         11   -1    0    0    0    0 -0.00000000000E+00 -0.00000000000E+00 -0.45593999997E+02  0.45594000000E+02  0.51100000000E-03 0.  1.
    9900012    2    1    2    0    0 -0.14447658998E+02 -0.63799601254E+01  0.42186191574E+02  0.46142317618E+02  0.99999986991E+01 0.  0.
        -12    1    1    2    0    0  0.14447658998E+02  0.63799601254E+01 -0.42186191574E+02  0.45045682382E+02  0.00000000000E+00 0.  1.
         11    1    3    3    0    0 -0.11593177979E+02 -0.16237431067E+01  0.27921564989E+02  0.30276263129E+02  0.51100000000E-03 0. -1.
        -11    1    3    3    0    0 -0.14471680599E+01  0.13157283148E+00  0.59004368780E+01  0.60767394560E+01  0.51100000000E-03 0.  1.
        -12    1    3    3    0    0 -0.14073129591E+01 -0.48877898501E+01  0.83641897067E+01  0.97893150340E+01  0.00000000000E+00 0.  1.
</event>
<event>
 7    1  0.4623443E-009  0.4614232E+02  0.7816164E-02  0.1320468E+00
        -11   -1    0    0    0    0  0.00000000000E+00  0.00000000000E+00  0.45593999997E+02  0.45594000000E+02  0.51100000000E-03 0. -1.
         11   -1    0    0    0    0 -0.00000000000E+00 -0.00000000000E+00 -0.45593999997E+02  0.45594000000E+02  0.51100000000E-03 0.  1.
    9900012    2    1    2    0    0  0.18476520095E+01  0.33968902853E+02  0.29526483064E+02  0.46142318952E+02  0.10000010859E+02 0.  0.
        -12    1    1    2    0    0 -0.18476520095E+01 -0.33968902853E+02 -0.29526483064E+02  0.45045681048E+02  0.00000000000E+00 0.  1.
         11    1    3    3    0    0 -0.39091291633E+00  0.97469722004E+01  0.95607600998E+01  0.13658858442E+02  0.51100000000E-03 0. -1.
        -11    1    3    3    0    0  0.10271481676E+01  0.19691907085E+02  0.19563703128E+02  0.27777053810E+02  0.51100000000E-03 0.  1.
        -12    1    3    3    0    0  0.12114167583E+01  0.45300235669E+01  0.40201983580E+00  0.47064067001E+01  0.00000000000E+00 0.  1.
</event>
<event>
 7    1  0.4623443E-009  0.4614232E+02  0.7816164E-02  0.1320468E+00
        -11   -1    0    0    0    0  0.00000000000E+00  0.00000000000E+00  0.45593999997E+02  0.45594000000E+02  0.51100000000E-03 0. -1.
         11   -1    0    0    0    0 -0.00000000000E+00 -0.00000000000E+00 -0.45593999997E+02  0.45594000000E+02  0.51100000000E-03 0.  1.
    9900012    2    1    2    0    0 -0.74384373701E+01 -0.38363999552E+02  0.22405057840E+02  0.46142318421E+02  0.10000006018E+02 0.  0.
        -12    1    1    2    0    0  0.74384373701E+01  0.38363999552E+02 -0.22405057840E+02  0.45045681579E+02  0.00000000000E+00 0.  1.
         11    1    3    3    0    0 -0.36059354124E+01 -0.92439148440E+01  0.53162657098E+01  0.11256794091E+02  0.51100000000E-03 0. -1.
        -11    1    3    3    0    0  0.13368229799E+01 -0.74787933232E+00  0.12880523994E+01  0.20013741329E+01  0.51100000000E-03 0.  1.
        -12    1    3    3    0    0 -0.51693249375E+01 -0.28372205375E+02  0.15800739731E+02  0.32884150197E+02  0.00000000000E+00 0.  1.
</event>
<event>
 7    1  0.4623443E-009  0.4614232E+02  0.7816164E-02  0.1320468E+00
        -11   -1    0    0    0    0  0.00000000000E+00  0.00000000000E+00  0.45593999997E+02  0.45594000000E+02  0.51100000000E-03 0. -1.
         11   -1    0    0    0    0 -0.00000000000E+00 -0.00000000000E+00 -0.45593999997E+02  0.45594000000E+02  0.51100000000E-03 0.  1.
    9900012    2    1    2    0    0  0.33452556463E+02  0.12017858602E+02 -0.27669673984E+02  0.46142319655E+02  0.10000017273E+02 0.  0.
         12    1    1    2    0    0 -0.33452556463E+02 -0.12017858602E+02  0.27669673984E+02  0.45045680345E+02  0.00000000000E+00 0. -1.
         11    1    3    3    0    0  0.24575568364E+01  0.39919776057E+00  0.70085551691E-01  0.24907542436E+01  0.51100000000E-03 0. -1.
        -11    1    3    3    0    0  0.97842132377E+01  0.86213969888E+00 -0.66158258204E+01  0.11842434931E+02  0.51100000000E-03 0.  1.
        -12    1    3    3    0    0  0.21210786389E+02  0.10756521143E+02 -0.21123933716E+02  0.31809130481E+02  0.00000000000E+00 0.  1.
</event>
<event>
 7    1  0.4623443E-009  0.4614232E+02  0.7816164E-02  0.1320468E+00
        -11   -1    0    0    0    0  0.00000000000E+00  0.00000000000E+00  0.45593999997E+02  0.45594000000E+02  0.51100000000E-03 0. -1.
         11   -1    0    0    0    0 -0.00000000000E+00 -0.00000000000E+00 -0.45593999997E+02  0.45594000000E+02  0.51100000000E-03 0.  1.
    9900012    2    1    2    0    0  0.19368490132E+02 -0.20821490348E+02 -0.34934804496E+02  0.46142318348E+02  0.10000005351E+02 0.  0.
         12    1    1    2    0    0 -0.19368490132E+02  0.20821490348E+02  0.34934804496E+02  0.45045681652E+02  0.00000000000E+00 0. -1.
         11    1    3    3    0    0  0.10164179679E+02 -0.58944389172E+01 -0.12288139631E+02  0.17001568591E+02  0.51100000000E-03 0. -1.
        -11    1    3    3    0    0  0.58085866100E+01 -0.10624699660E+02 -0.11405641003E+02  0.16634679685E+02  0.51100000000E-03 0.  1.
        -12    1    3    3    0    0  0.33957238431E+01 -0.43023517702E+01 -0.11241023862E+02  0.12506070071E+02  0.00000000000E+00 0.  1.
</event>
<event>
 7    1  0.4623443E-009  0.4614232E+02  0.7816164E-02  0.1320468E+00
        -11   -1    0    0    0    0  0.00000000000E+00  0.00000000000E+00  0.45593999997E+02  0.45594000000E+02  0.51100000000E-03 0. -1.
         11   -1    0    0    0    0 -0.00000000000E+00 -0.00000000000E+00 -0.45593999997E+02  0.45594000000E+02  0.51100000000E-03 0.  1.
    9900012    2    1    2    0    0 -0.25410609022E+02 -0.25920398740E+02  0.26674845285E+02  0.46142317713E+02  0.99999995601E+01 0.  0.
        -12    1    1    2    0    0  0.25410609022E+02  0.25920398740E+02 -0.26674845285E+02  0.45045682287E+02  0.00000000000E+00 0.  1.
         11    1    3    3    0    0 -0.12777674496E+02 -0.11371610486E+02  0.12029630023E+02  0.20911587441E+02  0.51100000000E-03 0. -1.
        -11    1    3    3    0    0 -0.52387643760E+01 -0.68297583112E+01  0.10934284691E+02  0.13915776397E+02  0.51100000000E-03 0.  1.
        -12    1    3    3    0    0 -0.73941701499E+01 -0.77190299429E+01  0.37109305715E+01  0.11314953874E+02  0.00000000000E+00 0.  1.
</event>
<event>
 7    1  0.4623443E-009  0.4614232E+02  0.7816164E-02  0.1320468E+00
        -11   -1    0    0    0    0  0.00000000000E+00  0.00000000000E+00  0.45593999997E+02  0.45594000000E+02  0.51100000000E-03 0. -1.
         11   -1    0    0    0    0 -0.00000000000E+00 -0.00000000000E+00 -0.45593999997E+02  0.45594000000E+02  0.51100000000E-03 0.  1.
    9900012    2    1    2    0    0  0.37985486800E+02 -0.11798419862E+02  0.21142695929E+02  0.46142317523E+02  0.99999978313E+01 0.  0.
        -12    1    1    2    0    0 -0.37985486800E+02  0.11798419862E+02 -0.21142695929E+02  0.45045682477E+02  0.00000000000E+00 0.  1.
         11    1    3    3    0    0  0.32833206929E+01  0.11219902735E+01  0.13706319888E+00  0.34724405722E+01  0.51100000000E-03 0.  1.
        -11    1    3    3    0    0  0.18263225512E+02 -0.56383898635E+01  0.97396115894E+01  0.21452199900E+02  0.51100000000E-03 0. -1.
        -12    1    3    3    0    0  0.16438940594E+02 -0.72820202716E+01  0.11266021141E+02  0.21217677051E+02  0.00000000000E+00 0.  1.
</event>
<event>
 7    1  0.4623443E-009  0.4614231E+02  0.7816164E-02  0.1320468E+00
        -11   -1    0    0    0    0  0.00000000000E+00  0.00000000000E+00  0.45593999997E+02  0.45594000000E+02  0.51100000000E-03 0. -1.
         11   -1    0    0    0    0 -0.00000000000E+00 -0.00000000000E+00 -0.45593999997E+02  0.45594000000E+02  0.51100000000E-03 0.  1.
    9900012    2    1    2    0    0  0.26924248335E+02 -0.54093347872E+01  0.35706272719E+02  0.46142312496E+02  0.99999519887E+01 0.  0.
        -12    1    1    2    0    0 -0.26924248335E+02  0.54093347872E+01 -0.35706272719E+02  0.45045687504E+02  0.00000000000E+00 0.  1.
         11    1    3    3    0    0  0.30131115787E+01 -0.17123423549E+01  0.84252351052E+01  0.91101890521E+01  0.51100000000E-03 0.  1.
        -11    1    3    3    0    0  0.16222010173E+02 -0.19152761421E+01  0.22499928230E+02  0.27804112419E+02  0.51100000000E-03 0. -1.
         12    1    3    3    0    0  0.76891265830E+01 -0.17817162902E+01  0.47811093834E+01  0.92280110254E+01  0.00000000000E+00 0. -1.
</event>
<event>
 7    1  0.4623443E-009  0.4614232E+02  0.7816164E-02  0.1320468E+00
        -11   -1    0    0    0    0  0.00000000000E+00  0.00000000000E+00  0.45593999997E+02  0.45594000000E+02  0.51100000000E-03 0. -1.
         11   -1    0    0    0    0 -0.00000000000E+00 -0.00000000000E+00 -0.45593999997E+02  0.45594000000E+02  0.51100000000E-03 0.  1.
    9900012    2    1    2    0    0  0.29575841874E+02 -0.91173936443E+01  0.32730051166E+02  0.46142317202E+02  0.99999949017E+01 0.  0.
        -12    1    1    2    0    0 -0.29575841874E+02  0.91173936443E+01 -0.32730051166E+02  0.45045682798E+02  0.00000000000E+00 0.  1.
         11    1    3    3    0    0  0.81003225125E+01 -0.27301055803E+01  0.12148394025E+02  0.14854365653E+02  0.51100000000E-03 0.  1.
        -11    1    3    3    0    0  0.10836919191E+01 -0.18537266543E+01  0.42868111707E+01  0.47945219739E+01  0.51100000000E-03 0. -1.
         12    1    3    3    0    0  0.20391827442E+02 -0.45335614097E+01  0.16294845970E+02  0.26493429575E+02  0.00000000000E+00 0. -1.
</event>
<event>
 7    1  0.4623443E-009  0.4614232E+02  0.7816164E-02  0.1320468E+00
        -11   -1    0    0    0    0  0.00000000000E+00  0.00000000000E+00  0.45593999997E+02  0.45594000000E+02  0.51100000000E-03 0. -1.
         11   -1    0    0    0    0 -0.00000000000E+00 -0.00000000000E+00 -0.45593999997E+02  0.45594000000E+02  0.51100000000E-03 0.  1.
    9900012    2    1    2    0    0  0.20022622503E+02  0.29248905404E+02  0.27797656171E+02  0.46142316879E+02  0.99999919588E+01 0.  0.
        -12    1    1    2    0    0 -0.20022622503E+02 -0.29248905404E+02 -0.27797656171E+02  0.45045683121E+02  0.00000000000E+00 0.  1.
         11    1    3    3    0    0  0.29261664341E+01  0.59787087810E+01  0.18983950139E+01  0.69217998077E+01  0.51100000000E-03 0. -1.
        -11    1    3    3    0    0  0.69089207765E+01  0.64927147885E+01  0.57358824817E+01  0.11081014382E+02  0.51100000000E-03 0.  1.
         12    1    3    3    0    0  0.10187535292E+02  0.16777481834E+02  0.20163378675E+02  0.28139502690E+02  0.00000000000E+00 0. -1.
</event>
<event>
 7    1  0.4623443E-009  0.4614231E+02  0.7816164E-02  0.1320468E+00
        -11   -1    0    0    0    0  0.00000000000E+00  0.00000000000E+00  0.45593999997E+02  0.45594000000E+02  0.51100000000E-03 0. -1.
         11   -1    0    0    0    0 -0.00000000000E+00 -0.00000000000E+00 -0.45593999997E+02  0.45594000000E+02  0.51100000000E-03 0.  1.
    9900012    2    1    2    0    0  0.25199348808E+02 -0.37264676747E+02 -0.23346813385E+01  0.46142311523E+02  0.99999431167E+01 0.  0.
         12    1    1    2    0    0 -0.25199348808E+02  0.37264676747E+02  0.23346813385E+01  0.45045688477E+02  0.00000000000E+00 0. -1.
         11    1    3    3    0    0  0.16938869162E+01 -0.81814766322E+01 -0.57700024851E+00  0.83748876001E+01  0.51100000000E-03 0. -1.
        -11    1    3    3    0    0  0.14413977692E+02 -0.21312308603E+02 -0.19837159597E+01  0.25805278145E+02  0.51100000000E-03 0.  1.
         12    1    3    3    0    0  0.90914841992E+01 -0.77708915124E+01  0.22603486972E+00  0.11962145778E+02  0.00000000000E+00 0. -1.
</event>
<event>
 7    1  0.4623443E-009  0.4614232E+02  0.7816164E-02  0.1320468E+00
        -11   -1    0    0    0    0  0.00000000000E+00  0.00000000000E+00  0.45593999997E+02  0.45594000000E+02  0.51100000000E-03 0. -1.
         11   -1    0    0    0    0 -0.00000000000E+00 -0.00000000000E+00 -0.45593999997E+02  0.45594000000E+02  0.51100000000E-03 0.  1.
    9900012    2    1    2    0    0  0.29560619305E+02 -0.14160381635E+02 -0.30899297963E+02  0.46142320559E+02  0.10000025509E+02 0.  0.
         12    1    1    2    0    0 -0.29560619305E+02  0.14160381635E+02  0.30899297963E+02  0.45045679441E+02  0.00000000000E+00 0. -1.
         11    1    3    3    0    0  0.11196227731E+02 -0.92069055383E+01 -0.17374268665E+02  0.22627148228E+02  0.51100000000E-03 0.  1.
        -11    1    3    3    0    0  0.86027059170E+01 -0.85882161181E+00 -0.63523621249E+01  0.10728309675E+02  0.51100000000E-03 0. -1.
        -12    1    3    3    0    0  0.97616856566E+01 -0.40946544848E+01 -0.71726671729E+01  0.12786862656E+02  0.00000000000E+00 0.  1.
</event>
<event>
 7    1  0.4623443E-009  0.4614232E+02  0.7816164E-02  0.1320468E+00
        -11   -1    0    0    0    0  0.00000000000E+00  0.00000000000E+00  0.45593999997E+02  0.45594000000E+02  0.51100000000E-03 0. -1.
         11   -1    0    0    0    0 -0.00000000000E+00 -0.00000000000E+00 -0.45593999997E+02  0.45594000000E+02  0.51100000000E-03 0.  1.
    9900012    2    1    2    0    0  0.16415701688E+02  0.37812241433E+02  0.18162392724E+02  0.46142319035E+02  0.10000011616E+02 0.  0.
        -12    1    1    2    0    0 -0.16415701688E+02 -0.37812241433E+02 -0.18162392724E+02  0.45045680965E+02  0.00000000000E+00 0.  1.
         11    1    3    3    0    0  0.10509216701E+01  0.32030607173E+01  0.45433532307E+00  0.34015371764E+01  0.51100000000E-03 0. -1.
        -11    1    3    3    0    0 -0.10862889616E+01  0.13276977073E+01  0.31946463202E+00  0.17449535301E+01  0.51100000000E-03 0.  1.
        -12    1    3    3    0    0  0.16451068980E+02  0.33281483009E+02  0.17388592769E+02  0.40995828328E+02  0.00000000000E+00 0.  1.
</event>
<event>
 7    1  0.4623443E-009  0.4614232E+02  0.7816164E-02  0.1320468E+00
        -11   -1    0    0    0    0  0.00000000000E+00  0.00000000000E+00  0.45593999997E+02  0.45594000000E+02  0.51100000000E-03 0. -1.
         11   -1    0    0    0    0 -0.00000000000E+00 -0.00000000000E+00 -0.45593999997E+02  0.45594000000E+02  0.51100000000E-03 0.  1.
    9900012    2    1    2    0    0  0.37232544721E+01  0.38376850784E+02  0.23290946517E+02  0.46142317747E+02  0.99999998747E+01 0.  0.
        -12    1    1    2    0    0 -0.37232544721E+01 -0.38376850784E+02 -0.23290946517E+02  0.45045682253E+02  0.00000000000E+00 0.  1.
         11    1    3    3    0    0  0.62631601816E+01  0.23111447948E+02  0.11109114278E+02  0.26396564588E+02  0.51100000000E-03 0. -1.
        -11    1    3    3    0    0 -0.11139044675E+01  0.57955151879E+01  0.55119643826E+01  0.80753037758E+01  0.51100000000E-03 0.  1.
         12    1    3    3    0    0 -0.14260012419E+01  0.94698876472E+01  0.66698678564E+01  0.11670449384E+02  0.00000000000E+00 0. -1.
</event>
<event>
 7    1  0.4623443E-009  0.4614232E+02  0.7816164E-02  0.1320468E+00
        -11   -1    0    0    0    0  0.00000000000E+00  0.00000000000E+00  0.45593999997E+02  0.45594000000E+02  0.51100000000E-03 0. -1.
         11   -1    0    0    0    0 -0.00000000000E+00 -0.00000000000E+00 -0.45593999997E+02  0.45594000000E+02  0.51100000000E-03 0.  1.
    9900012    2    1    2    0    0 -0.18885849827E+02 -0.87161936282E+01 -0.39955799866E+02  0.46142319874E+02  0.10000019269E+02 0.  0.
         12    1    1    2    0    0  0.18885849827E+02  0.87161936282E+01  0.39955799866E+02  0.45045680126E+02  0.00000000000E+00 0. -1.
         11    1    3    3    0    0 -0.12581225138E+01 -0.31580116493E+00 -0.76083987741E+01  0.77181820918E+01  0.51100000000E-03 0. -1.
        -11    1    3    3    0    0 -0.18256372195E+02 -0.84296351219E+01 -0.31372623539E+02  0.37263861609E+02  0.51100000000E-03 0.  1.
        -12    1    3    3    0    0  0.62864488210E+00  0.29242658612E-01 -0.97477755305E+00  0.11602761735E+01  0.00000000000E+00 0.  1.
</event>
<event>
 7    1  0.4623443E-009  0.4614232E+02  0.7816164E-02  0.1320468E+00
        -11   -1    0    0    0    0  0.00000000000E+00  0.00000000000E+00  0.45593999997E+02  0.45594000000E+02  0.51100000000E-03 0. -1.
         11   -1    0    0    0    0 -0.00000000000E+00 -0.00000000000E+00 -0.45593999997E+02  0.45594000000E+02  0.51100000000E-03 0.  1.
    9900012    2    1    2    0    0  0.11828111378E+02  0.57726395890E+01  0.43079992705E+02  0.46142319208E+02  0.10000013192E+02 0.  0.
        -12    1    1    2    0    0 -0.11828111378E+02 -0.57726395890E+01 -0.43079992705E+02  0.45045680792E+02  0.00000000000E+00 0.  1.
         11    1    3    3    0    0  0.68438721819E+01  0.22283323401E+01  0.25444910697E+02  0.26443288981E+02  0.51100000000E-03 0. -1.
        -11    1    3    3    0    0 -0.84378757238E+00  0.88022627372E+00  0.82211571430E+01  0.83110890256E+01  0.51100000000E-03 0.  1.
         12    1    3    3    0    0  0.58280267688E+01  0.26640809752E+01  0.94139248642E+01  0.11387941202E+02  0.00000000000E+00 0. -1.
</event>
<event>
 7    1  0.4623443E-009  0.4614232E+02  0.7816164E-02  0.1320468E+00
        -11   -1    0    0    0    0  0.00000000000E+00  0.00000000000E+00  0.45593999997E+02  0.45594000000E+02  0.51100000000E-03 0. -1.
         11   -1    0    0    0    0 -0.00000000000E+00 -0.00000000000E+00 -0.45593999997E+02  0.45594000000E+02  0.51100000000E-03 0.  1.
    9900012    2    1    2    0    0  0.24250671669E-01 -0.25829244664E+02 -0.36904783654E+02  0.46142317359E+02  0.99999963354E+01 0.  0.
         12    1    1    2    0    0 -0.24250671669E-01  0.25829244664E+02  0.36904783654E+02  0.45045682641E+02  0.00000000000E+00 0. -1.
         11    1    3    3    0    0 -0.25883948331E+01 -0.62197467074E+01 -0.12894366620E+02  0.14548186407E+02  0.51100000000E-03 0. -1.
        -11    1    3    3    0    0 -0.14819462744E+01 -0.49249756006E+01 -0.44978026659E+01  0.68324064947E+01  0.51100000000E-03 0.  1.
        -12    1    3    3    0    0  0.40945917792E+01 -0.14684522356E+02 -0.19512614368E+02  0.24761724458E+02  0.00000000000E+00 0.  1.
</event>
<event>
 7    1  0.4623443E-009  0.4614232E+02  0.7816164E-02  0.1320468E+00
        -11   -1    0    0    0    0  0.00000000000E+00  0.00000000000E+00  0.45593999997E+02  0.45594000000E+02  0.51100000000E-03 0. -1.
         11   -1    0    0    0    0 -0.00000000000E+00 -0.00000000000E+00 -0.45593999997E+02  0.45594000000E+02  0.51100000000E-03 0.  1.
    9900012    2    1    2    0    0 -0.39554148757E+01  0.24176400462E+02 -0.37801718166E+02  0.46142317161E+02  0.99999945257E+01 0.  0.
         12    1    1    2    0    0  0.39554148757E+01 -0.24176400462E+02  0.37801718166E+02  0.45045682839E+02  0.00000000000E+00 0. -1.
         11    1    3    3    0    0  0.57617997246E+00  0.14764680406E+01 -0.27579497027E+00  0.16087275600E+01  0.51100000000E-03 0. -1.
        -11    1    3    3    0    0 -0.21575658560E+01  0.19655325271E+02 -0.33853273705E+02  0.39204987473E+02  0.51100000000E-03 0.  1.
        -12    1    3    3    0    0 -0.23740289921E+01  0.30446071507E+01 -0.36726494909E+01  0.53286021281E+01  0.00000000000E+00 0.  1.
</event>
<event>
 7    1  0.4623443E-009  0.4614231E+02  0.7816164E-02  0.1320468E+00
        -11   -1    0    0    0    0  0.00000000000E+00  0.00000000000E+00  0.45593999997E+02  0.45594000000E+02  0.51100000000E-03 0. -1.
         11   -1    0    0    0    0 -0.00000000000E+00 -0.00000000000E+00 -0.45593999997E+02  0.45594000000E+02  0.51100000000E-03 0.  1.
    9900012    2    1    2    0    0  0.13307090087E+02  0.14411165271E+02 -0.40550633230E+02  0.46142310013E+02  0.99999293441E+01 0.  0.
         12    1    1    2    0    0 -0.13307090087E+02 -0.14411165271E+02  0.40550633230E+02  0.45045689987E+02  0.00000000000E+00 0. -1.
         11    1    3    3    0    0  0.45894845215E+01  0.11868608351E+01 -0.12369477504E+02  0.13246734723E+02  0.51100000000E-03 0. -1.
        -11    1    3    3    0    0  0.15916057178E+01  0.53359998152E+01 -0.14753694744E+02  0.15769515263E+02  0.51100000000E-03 0.  1.
         12    1    3    3    0    0  0.71259998481E+01  0.78883046205E+01 -0.13427460982E+02  0.17126060027E+02  0.00000000000E+00 0. -1.
</event>
<event>
 7    1  0.4623443E-009  0.4614232E+02  0.7816164E-02  0.1320468E+00
        -11   -1    0    0    0    0  0.00000000000E+00  0.00000000000E+00  0.45593999997E+02  0.45594000000E+02  0.51100000000E-03 0. -1.
         11   -1    0    0    0    0 -0.00000000000E+00 -0.00000000000E+00 -0.45593999997E+02  0.45594000000E+02  0.51100000000E-03 0.  1.
    9900012    2    1    2    0    0 -0.10004034791E+02  0.31796739485E+02  0.30298518061E+02  0.46142317070E+02  0.99999936934E+01 0.  0.
        -12    1    1    2    0    0  0.10004034791E+02 -0.31796739485E+02 -0.30298518061E+02  0.45045682930E+02  0.00000000000E+00 0.  1.
         11    1    3    3    0    0 -0.28403762326E+01  0.63738164749E+01  0.32738469786E+01  0.77078757060E+01  0.51100000000E-03 0. -1.
        -11    1    3    3    0    0  0.19963449401E+00  0.94898401743E+01  0.69245395212E+01  0.11749305014E+02  0.51100000000E-03 0.  1.
         12    1    3    3    0    0 -0.73632930525E+01  0.15933082836E+02  0.20100131561E+02  0.26685136350E+02  0.00000000000E+00 0. -1.
</event>
<event>
 7    1  0.4623443E-009  0.4614232E+02  0.7816164E-02  0.1320468E+00
        -11   -1    0    0    0    0  0.00000000000E+00  0.00000000000E+00  0.45593999997E+02  0.45594000000E+02  0.51100000000E-03 0. -1.
         11   -1    0    0    0    0 -0.00000000000E+00 -0.00000000000E+00 -0.45593999997E+02  0.45594000000E+02  0.51100000000E-03 0.  1.
    9900012    2    1    2    0    0 -0.20024511931E+02  0.37381862826E+01  0.40176590057E+02  0.46142317595E+02  0.99999984854E+01 0.  0.
        -12    1    1    2    0    0  0.20024511931E+02 -0.37381862826E+01 -0.40176590057E+02  0.45045682405E+02  0.00000000000E+00 0.  1.
         11    1    3    3    0    0 -0.35988471698E+01  0.73717892443E+00  0.91478728266E+01  0.98579263149E+01  0.51100000000E-03 0. -1.
        -11    1    3    3    0    0 -0.60724054283E+01 -0.30686471582E+01  0.10872059402E+02  0.12825458236E+02  0.51100000000E-03 0.  1.
        -12    1    3    3    0    0 -0.10353259333E+02  0.60696545164E+01  0.20156657828E+02  0.23458933044E+02  0.00000000000E+00 0.  1.
</event>
<event>
 7    1  0.4623443E-009  0.4614232E+02  0.7816164E-02  0.1320468E+00
        -11   -1    0    0    0    0  0.00000000000E+00  0.00000000000E+00  0.45593999997E+02  0.45594000000E+02  0.51100000000E-03 0. -1.
         11   -1    0    0    0    0 -0.00000000000E+00 -0.00000000000E+00 -0.45593999997E+02  0.45594000000E+02  0.51100000000E-03 0.  1.
    9900012    2    1    2    0    0  0.37970488242E+01  0.13072197179E+02  0.42939646392E+02  0.46142321505E+02  0.10000034136E+02 0.  0.
        -12    1    1    2    0    0 -0.37970488242E+01 -0.13072197179E+02 -0.42939646392E+02  0.45045678495E+02  0.00000000000E+00 0.  1.
         11    1    3    3    0    0 -0.22781701183E+01  0.14464599255E+01  0.63531777434E+01  0.69025483051E+01  0.51100000000E-03 0. -1.
        -11    1    3    3    0    0  0.70070713573E+00  0.70905365322E+01  0.19617275589E+02  0.20871133190E+02  0.51100000000E-03 0.  1.
        -12    1    3    3    0    0  0.53745118068E+01  0.45352007217E+01  0.16969193059E+02  0.18368640010E+02  0.00000000000E+00 0.  1.
</event>
<event>
 7    1  0.4623443E-009  0.4614232E+02  0.7816164E-02  0.1320468E+00
        -11   -1    0    0    0    0  0.00000000000E+00  0.00000000000E+00  0.45593999997E+02  0.45594000000E+02  0.51100000000E-03 0. -1.
         11   -1    0    0    0    0 -0.00000000000E+00 -0.00000000000E+00 -0.45593999997E+02  0.45594000000E+02  0.51100000000E-03 0.  1.
    9900012    2    1    2    0    0 -0.17234236542E+02  0.38429648672E+02  0.15976752429E+02  0.46142318471E+02  0.10000006471E+02 0.  0.
        -12    1    1    2    0    0  0.17234236542E+02 -0.38429648672E+02 -0.15976752429E+02  0.45045681529E+02  0.00000000000E+00 0.  1.
         11    1    3    3    0    0 -0.82045388594E+01  0.24267203715E+02  0.59679354455E+01  0.26302621310E+02  0.51100000000E-03 0.  1.
        -11    1    3    3    0    0 -0.28126730455E+01  0.19828502673E+01  0.16946511754E+01  0.38359702438E+01  0.51100000000E-03 0. -1.
        -12    1    3    3    0    0 -0.62170246376E+01  0.12179594690E+02  0.83141658081E+01  0.16003726917E+02  0.00000000000E+00 0.  1.
</event>
<event>
 7    1  0.4623443E-009  0.4614232E+02  0.7816164E-02  0.1320468E+00
        -11   -1    0    0    0    0  0.00000000000E+00  0.00000000000E+00  0.45593999997E+02  0.45594000000E+02  0.51100000000E-03 0.  1.
         11   -1    0    0    0    0 -0.00000000000E+00 -0.00000000000E+00 -0.45593999997E+02  0.45594000000E+02  0.51100000000E-03 0. -1.
    9900012    2    1    2    0    0  0.44255084468E+02  0.35738450661E+01 -0.76045195894E+01  0.46142316655E+02  0.99999899136E+01 0.  0.
         12    1    1    2    0    0 -0.44255084468E+02 -0.35738450661E+01  0.76045195894E+01  0.45045683345E+02  0.00000000000E+00 0. -1.
         11    1    3    3    0    0  0.11259082546E+01  0.19603789040E+00 -0.46488501054E+00  0.12337822282E+01  0.51100000000E-03 0. -1.
        -11    1    3    3    0    0  0.38740907188E+02  0.53556248966E+01 -0.82470090806E+01  0.39969410389E+02  0.51100000000E-03 0.  1.
         12    1    3    3    0    0  0.43882690251E+01 -0.19778177209E+01  0.11073745018E+01  0.49391240378E+01  0.00000000000E+00 0. -1.
</event>
<event>
 7    1  0.4623443E-009  0.4614232E+02  0.7816164E-02  0.1320468E+00
        -11   -1    0    0    0    0  0.00000000000E+00  0.00000000000E+00  0.45593999997E+02  0.45594000000E+02  0.51100000000E-03 0.  1.
         11   -1    0    0    0    0 -0.00000000000E+00 -0.00000000000E+00 -0.45593999997E+02  0.45594000000E+02  0.51100000000E-03 0. -1.
    9900012    2    1    2    0    0  0.43143038057E+02  0.11518800668E+02  0.59252991283E+01  0.46142315730E+02  0.99999814793E+01 0.  0.
        -12    1    1    2    0    0 -0.43143038057E+02 -0.11518800668E+02 -0.59252991283E+01  0.45045684270E+02  0.00000000000E+00 0.  1.
         11    1    3    3    0    0  0.20885897026E+02  0.51420680855E+01  0.13400870475E+01  0.21551273566E+02  0.51100000000E-03 0. -1.
        -11    1    3    3    0    0  0.10786646494E+02  0.10018816207E+01 -0.72145179135E+00  0.10857071535E+02  0.51100000000E-03 0.  1.
        -12    1    3    3    0    0  0.11470494537E+02  0.53748509617E+01  0.53066638722E+01  0.13733970629E+02  0.00000000000E+00 0.  1.
</event>
<event>
 7    1  0.4623443E-009  0.4614232E+02  0.7816164E-02  0.1320468E+00
        -11   -1    0    0    0    0  0.00000000000E+00  0.00000000000E+00  0.45593999997E+02  0.45594000000E+02  0.51100000000E-03 0. -1.
         11   -1    0    0    0    0 -0.00000000000E+00 -0.00000000000E+00 -0.45593999997E+02  0.45594000000E+02  0.51100000000E-03 0.  1.
    9900012    2    1    2    0    0  0.14076560315E+02 -0.34222751861E+02 -0.25685925747E+02  0.46142322331E+02  0.10000041668E+02 0.  0.
         12    1    1    2    0    0 -0.14076560315E+02  0.34222751861E+02  0.25685925747E+02  0.45045677669E+02  0.00000000000E+00 0. -1.
         11    1    3    3    0    0  0.71454154543E+00 -0.66748072574E+01 -0.81530337547E+01  0.10561040726E+02  0.51100000000E-03 0. -1.
        -11    1    3    3    0    0  0.57995392560E+01 -0.96552954473E+01 -0.87510255643E+01  0.14263233660E+02  0.51100000000E-03 0.  1.
         12    1    3    3    0    0  0.75624795133E+01 -0.17892649156E+02 -0.87818664280E+01  0.21318047945E+02  0.00000000000E+00 0. -1.
</event>
<event>
 7    1  0.4623443E-009  0.4614232E+02  0.7816164E-02  0.1320468E+00
        -11   -1    0    0    0    0  0.00000000000E+00  0.00000000000E+00  0.45593999997E+02  0.45594000000E+02  0.51100000000E-03 0. -1.
         11   -1    0    0    0    0 -0.00000000000E+00 -0.00000000000E+00 -0.45593999997E+02  0.45594000000E+02  0.51100000000E-03 0.  1.
    9900012    2    1    2    0    0  0.32295339571E+02 -0.20505527810E+02 -0.23783352397E+02  0.46142317854E+02  0.10000000851E+02 0.  0.
         12    1    1    2    0    0 -0.32295339571E+02  0.20505527810E+02  0.23783352397E+02  0.45045682146E+02  0.00000000000E+00 0. -1.
         11    1    3    3    0    0  0.18632539742E+01 -0.88172395609E+00 -0.51290111429E+00  0.21241987481E+01  0.51100000000E-03 0. -1.
        -11    1    3    3    0    0  0.54673348257E+01 -0.37287357405E+01 -0.42602686032E+00  0.66314945123E+01  0.51100000000E-03 0.  1.
        -12    1    3    3    0    0  0.24964750771E+02 -0.15895068113E+02 -0.22844424422E+02  0.37386624594E+02  0.00000000000E+00 0.  1.
</event>
<event>
 7    1  0.4623443E-009  0.4614232E+02  0.7816164E-02  0.1320468E+00
        -11   -1    0    0    0    0  0.00000000000E+00  0.00000000000E+00  0.45593999997E+02  0.45594000000E+02  0.51100000000E-03 0. -1.
         11   -1    0    0    0    0 -0.00000000000E+00 -0.00000000000E+00 -0.45593999997E+02  0.45594000000E+02  0.51100000000E-03 0.  1.
    9900012    2    1    2    0    0  0.40157634719E+01 -0.44853638049E+02  0.10669121610E+01  0.46142317587E+02  0.99999984116E+01 0.  0.
        -12    1    1    2    0    0 -0.40157634719E+01  0.44853638049E+02 -0.10669121610E+01  0.45045682413E+02  0.00000000000E+00 0.  1.
         11    1    3    3    0    0 -0.99810472226E+00 -0.74001796713E+01  0.23086632582E+01  0.78159323504E+01  0.51100000000E-03 0. -1.
        -11    1    3    3    0    0 -0.65432187695E-01  0.17130606826E+00 -0.29641312695E+00  0.34855149283E+00  0.51100000000E-03 0.  1.
         12    1    3    3    0    0  0.50793003818E+01 -0.37624764446E+02 -0.94533797025E+00  0.37977833744E+02  0.00000000000E+00 0. -1.
</event>
<event>
 7    1  0.4623443E-009  0.4614231E+02  0.7816164E-02  0.1320468E+00
        -11   -1    0    0    0    0  0.00000000000E+00  0.00000000000E+00  0.45593999997E+02  0.45594000000E+02  0.51100000000E-03 0. -1.
         11   -1    0    0    0    0 -0.00000000000E+00 -0.00000000000E+00 -0.45593999997E+02  0.45594000000E+02  0.51100000000E-03 0.  1.
    9900012    2    1    2    0    0 -0.22297306339E+02  0.26933718868E+02  0.28399273882E+02  0.46142313869E+02  0.99999645052E+01 0.  0.
        -12    1    1    2    0    0  0.22297306339E+02 -0.26933718868E+02 -0.28399273882E+02  0.45045686131E+02  0.00000000000E+00 0.  1.
         11    1    3    3    0    0 -0.90720684260E+00 -0.22150546860E+00  0.24963199225E+01  0.26652771609E+01  0.51100000000E-03 0. -1.
        -11    1    3    3    0    0 -0.42179156868E+01  0.70883209999E+01  0.85196539368E+01  0.11858313995E+02  0.51100000000E-03 0.  1.
        -12    1    3    3    0    0 -0.17172183810E+02  0.20066903337E+02  0.17383300022E+02  0.31618722713E+02  0.00000000000E+00 0.  1.
</event>
<event>
 7    1  0.4623443E-009  0.4614231E+02  0.7816164E-02  0.1320468E+00
        -11   -1    0    0    0    0  0.00000000000E+00  0.00000000000E+00  0.45593999997E+02  0.45594000000E+02  0.51100000000E-03 0. -1.
         11   -1    0    0    0    0 -0.00000000000E+00 -0.00000000000E+00 -0.45593999997E+02  0.45594000000E+02  0.51100000000E-03 0.  1.
    9900012    2    1    2    0    0  0.72041203257E+01 -0.13059928916E+02 -0.42504739113E+02  0.46142312747E+02  0.99999542815E+01 0.  0.
         12    1    1    2    0    0 -0.72041203257E+01  0.13059928916E+02  0.42504739113E+02  0.45045687253E+02  0.00000000000E+00 0. -1.
         11    1    3    3    0    0 -0.15915611503E+01 -0.35286557250E+01 -0.69227845087E+01  0.79315461126E+01  0.51100000000E-03 0. -1.
        -11    1    3    3    0    0  0.85862941134E+00  0.36995319064E+00 -0.97608053938E+00  0.13516076760E+01  0.51100000000E-03 0.  1.
        -12    1    3    3    0    0  0.79370520646E+01 -0.99012263814E+01 -0.34605874065E+02  0.36859158959E+02  0.00000000000E+00 0.  1.
</event>
<event>
 7    1  0.4623443E-009  0.4614232E+02  0.7816164E-02  0.1320468E+00
        -11   -1    0    0    0    0  0.00000000000E+00  0.00000000000E+00  0.45593999997E+02  0.45594000000E+02  0.51100000000E-03 0. -1.
         11   -1    0    0    0    0 -0.00000000000E+00 -0.00000000000E+00 -0.45593999997E+02  0.45594000000E+02  0.51100000000E-03 0.  1.
    9900012    2    1    2    0    0  0.14919913657E+02 -0.21443224813E+02  0.36697381708E+02  0.46142317209E+02  0.99999949643E+01 0.  0.
        -12    1    1    2    0    0 -0.14919913657E+02  0.21443224813E+02 -0.36697381708E+02  0.45045682791E+02  0.00000000000E+00 0.  1.
         11    1    3    3    0    0  0.60746584620E+01 -0.41397502658E+01  0.56780816496E+01  0.92886823163E+01  0.51100000000E-03 0.  1.
        -11    1    3    3    0    0  0.18207159293E+01 -0.50394720763E+01  0.54788450456E+01  0.76634867129E+01  0.51100000000E-03 0. -1.
         12    1    3    3    0    0  0.70245392653E+01 -0.12264002471E+02  0.25540455013E+02  0.29190148180E+02  0.00000000000E+00 0. -1.
</event>
<event>
 7    1  0.4623443E-009  0.4614232E+02  0.7816164E-02  0.1320468E+00
        -11   -1    0    0    0    0  0.00000000000E+00  0.00000000000E+00  0.45593999997E+02  0.45594000000E+02  0.51100000000E-03 0. -1.
         11   -1    0    0    0    0 -0.00000000000E+00 -0.00000000000E+00 -0.45593999997E+02  0.45594000000E+02  0.51100000000E-03 0.  1.
    9900012    2    1    2    0    0  0.31685634042E+02  0.31545857318E+02  0.54765837799E+01  0.46142317759E+02  0.99999999838E+01 0.  0.
        -12    1    1    2    0    0 -0.31685634042E+02 -0.31545857318E+02 -0.54765837799E+01  0.45045682241E+02  0.00000000000E+00 0.  1.
         11    1    3    3    0    0  0.17603333880E+02  0.13183568624E+02  0.34905320095E+01  0.22268086117E+02  0.51100000000E-03 0. -1.
        -11    1    3    3    0    0  0.55053500648E+01  0.32003848710E+01  0.34425753515E+00  0.63772922287E+01  0.51100000000E-03 0.  1.
         12    1    3    3    0    0  0.85769500977E+01  0.15161903823E+02  0.16417942353E+01  0.17496939413E+02  0.00000000000E+00 0. -1.
</event>
<event>
 7    1  0.4623443E-009  0.4614232E+02  0.7816164E-02  0.1320468E+00
        -11   -1    0    0    0    0  0.00000000000E+00  0.00000000000E+00  0.45593999997E+02  0.45594000000E+02  0.51100000000E-03 0. -1.
         11   -1    0    0    0    0 -0.00000000000E+00 -0.00000000000E+00 -0.45593999997E+02  0.45594000000E+02  0.51100000000E-03 0.  1.
    9900012    2    1    2    0    0  0.26786105131E+02 -0.36072395338E+02 -0.32249599965E+01  0.46142317627E+02  0.99999987787E+01 0.  0.
        -12    1    1    2    0    0 -0.26786105131E+02  0.36072395338E+02  0.32249599965E+01  0.45045682373E+02  0.00000000000E+00 0.  1.
         11    1    3    3    0    0  0.12918672499E+02 -0.23252648892E+02 -0.24697047587E+01  0.26714737908E+02  0.51100000000E-03 0. -1.
        -11    1    3    3    0    0  0.22068361670E+01 -0.43741582838E+01 -0.11176567454E+01  0.50251908841E+01  0.51100000000E-03 0.  1.
         12    1    3    3    0    0  0.11660596464E+02 -0.84455881615E+01  0.36240150757E+00  0.14402388835E+02  0.00000000000E+00 0. -1.
</event>
<event>
 7    1  0.4623443E-009  0.4614232E+02  0.7816164E-02  0.1320468E+00
        -11   -1    0    0    0    0  0.00000000000E+00  0.00000000000E+00  0.45593999997E+02  0.45594000000E+02  0.51100000000E-03 0. -1.
         11   -1    0    0    0    0 -0.00000000000E+00 -0.00000000000E+00 -0.45593999997E+02  0.45594000000E+02  0.51100000000E-03 0.  1.
    9900012    2    1    2    0    0  0.54543664365E+01 -0.10999307505E+02  0.43340265046E+02  0.46142318153E+02  0.10000003574E+02 0.  0.
        -12    1    1    2    0    0 -0.54543664365E+01  0.10999307505E+02 -0.43340265046E+02  0.45045681847E+02  0.00000000000E+00 0.  1.
         11    1    3    3    0    0  0.51681100348E+01 -0.34082006918E+01  0.25522409371E+02  0.26262493668E+02  0.51100000000E-03 0. -1.
        -11    1    3    3    0    0  0.11266407701E+01 -0.48887464361E+01  0.64854951615E+01  0.81994395475E+01  0.51100000000E-03 0.  1.
         12    1    3    3    0    0 -0.84038436836E+00 -0.27023603770E+01  0.11332360513E+02  0.11680384938E+02  0.00000000000E+00 0. -1.
</event>
<event>
 7    1  0.4623443E-009  0.4614232E+02  0.7816164E-02  0.1320468E+00
        -11   -1    0    0    0    0  0.00000000000E+00  0.00000000000E+00  0.45593999997E+02  0.45594000000E+02  0.51100000000E-03 0. -1.
         11   -1    0    0    0    0 -0.00000000000E+00 -0.00000000000E+00 -0.45593999997E+02  0.45594000000E+02  0.51100000000E-03 0.  1.
    9900012    2    1    2    0    0 -0.11474486223E+02  0.11905578750E+02 -0.41901154892E+02  0.46142318511E+02  0.10000006841E+02 0.  0.
         12    1    1    2    0    0  0.11474486223E+02 -0.11905578750E+02  0.41901154892E+02  0.45045681489E+02  0.00000000000E+00 0. -1.
         11    1    3    3    0    0 -0.48118654955E+01  0.60970077569E+01 -0.91413389535E+01  0.11995483786E+02  0.51100000000E-03 0.  1.
        -11    1    3    3    0    0 -0.22073035247E+01  0.42364583581E+01 -0.13653750613E+02  0.14465292058E+02  0.51100000000E-03 0. -1.
        -12    1    3    3    0    0 -0.44553172025E+01  0.15721126354E+01 -0.19106065326E+02  0.19681542667E+02  0.00000000000E+00 0.  1.
</event>
<event>
 7    1  0.4623443E-009  0.4614232E+02  0.7816164E-02  0.1320468E+00
        -11   -1    0    0    0    0  0.00000000000E+00  0.00000000000E+00  0.45593999997E+02  0.45594000000E+02  0.51100000000E-03 0. -1.
         11   -1    0    0    0    0 -0.00000000000E+00 -0.00000000000E+00 -0.45593999997E+02  0.45594000000E+02  0.51100000000E-03 0.  1.
    9900012    2    1    2    0    0  0.12122781549E+02 -0.30962492303E+02  0.30388742206E+02  0.46142318576E+02  0.10000007429E+02 0.  0.
        -12    1    1    2    0    0 -0.12122781549E+02  0.30962492303E+02 -0.30388742206E+02  0.45045681424E+02  0.00000000000E+00 0.  1.
         11    1    3    3    0    0  0.90322280884E+01 -0.15330271280E+02  0.17747962900E+02  0.25131425529E+02  0.51100000000E-03 0. -1.
        -11    1    3    3    0    0  0.43672817248E+00 -0.12851148752E+00  0.19257404643E+01  0.19788186618E+01  0.51100000000E-03 0.  1.
        -12    1    3    3    0    0  0.26538252886E+01 -0.15503709535E+02  0.10715038842E+02  0.19032074385E+02  0.00000000000E+00 0.  1.
</event>
<event>
 7    1  0.4623443E-009  0.4614232E+02  0.7816164E-02  0.1320468E+00
        -11   -1    0    0    0    0  0.00000000000E+00  0.00000000000E+00  0.45593999997E+02  0.45594000000E+02  0.51100000000E-03 0. -1.
         11   -1    0    0    0    0 -0.00000000000E+00 -0.00000000000E+00 -0.45593999997E+02  0.45594000000E+02  0.51100000000E-03 0.  1.
    9900012    2    1    2    0    0  0.28412152001E+02 -0.25046559610E+01  0.34865310860E+02  0.46142316698E+02  0.99999903041E+01 0.  0.
        -12    1    1    2    0    0 -0.28412152001E+02  0.25046559610E+01 -0.34865310860E+02  0.45045683302E+02  0.00000000000E+00 0.  1.
         11    1    3    3    0    0  0.11903811649E+02 -0.18312543709E+01  0.90833436511E+01  0.15085136939E+02  0.51100000000E-03 0. -1.
        -11    1    3    3    0    0 -0.39173496239E+00  0.38450263889E-01  0.46271641744E+00  0.60748781686E+00  0.51100000000E-03 0.  1.
        -12    1    3    3    0    0  0.16900075315E+02 -0.71185185402E+00  0.25319250791E+02  0.30449691942E+02  0.00000000000E+00 0.  1.
</event>
<event>
 7    1  0.4623443E-009  0.4614231E+02  0.7816164E-02  0.1320468E+00
        -11   -1    0    0    0    0  0.00000000000E+00  0.00000000000E+00  0.45593999997E+02  0.45594000000E+02  0.51100000000E-03 0. -1.
         11   -1    0    0    0    0 -0.00000000000E+00 -0.00000000000E+00 -0.45593999997E+02  0.45594000000E+02  0.51100000000E-03 0.  1.
    9900012    2    1    2    0    0 -0.34720693582E+02  0.71983930450E+01  0.27780759820E+02  0.46142311622E+02  0.99999440180E+01 0.  0.
        -12    1    1    2    0    0  0.34720693582E+02 -0.71983930450E+01 -0.27780759820E+02  0.45045688378E+02  0.00000000000E+00 0.  1.
         11    1    3    3    0    0 -0.17709273014E+02  0.10224108266E+01  0.15024013337E+02  0.23246174988E+02  0.51100000000E-03 0. -1.
        -11    1    3    3    0    0 -0.15456058758E+01  0.27624156333E+01  0.18573386325E+01  0.36700878343E+01  0.51100000000E-03 0.  1.
        -12    1    3    3    0    0 -0.15465814693E+02  0.34135665851E+01  0.10899407851E+02  0.19226048799E+02  0.00000000000E+00 0.  1.
</event>
<event>
 7    1  0.4623443E-009  0.4614232E+02  0.7816164E-02  0.1320468E+00
        -11   -1    0    0    0    0  0.00000000000E+00  0.00000000000E+00  0.45593999997E+02  0.45594000000E+02  0.51100000000E-03 0.  1.
         11   -1    0    0    0    0 -0.00000000000E+00 -0.00000000000E+00 -0.45593999997E+02  0.45594000000E+02  0.51100000000E-03 0. -1.
    9900012    2    1    2    0    0  0.12926600251E+02 -0.39575607183E+02 -0.17198475767E+02  0.46142320444E+02  0.10000024461E+02 0.  0.
         12    1    1    2    0    0 -0.12926600251E+02  0.39575607183E+02  0.17198475767E+02  0.45045679556E+02  0.00000000000E+00 0. -1.
         11    1    3    3    0    0  0.54241240630E+00 -0.11598584740E+02 -0.37324874198E+01  0.12196427419E+02  0.51100000000E-03 0. -1.
        -11    1    3    3    0    0  0.84753457099E+01 -0.24333531524E+02 -0.11863770876E+02  0.28367257551E+02  0.51100000000E-03 0.  1.
         12    1    3    3    0    0  0.39088421351E+01 -0.36434909199E+01 -0.16022174707E+01  0.55786354733E+01  0.00000000000E+00 0. -1.
</event>
<event>
 7    1  0.4623443E-009  0.4614232E+02  0.7816164E-02  0.1320468E+00
        -11   -1    0    0    0    0  0.00000000000E+00  0.00000000000E+00  0.45593999997E+02  0.45594000000E+02  0.51100000000E-03 0. -1.
         11   -1    0    0    0    0 -0.00000000000E+00 -0.00000000000E+00 -0.45593999997E+02  0.45594000000E+02  0.51100000000E-03 0.  1.
    9900012    2    1    2    0    0  0.14389232910E+02  0.40481208202E+02  0.13540126558E+02  0.46142320202E+02  0.10000022260E+02 0.  0.
        -12    1    1    2    0    0 -0.14389232910E+02 -0.40481208202E+02 -0.13540126558E+02  0.45045679798E+02  0.00000000000E+00 0.  1.
         11    1    3    3    0    0  0.31951378268E+01  0.14507820428E+02  0.87442385094E+01  0.17237965851E+02  0.51100000000E-03 0. -1.
        -11    1    3    3    0    0  0.89119009453E+01  0.23194898246E+02  0.48069098203E+01  0.25308727060E+02  0.51100000000E-03 0.  1.
        -12    1    3    3    0    0  0.22821941380E+01  0.27784895278E+01 -0.11021771648E-01  0.35956272914E+01  0.00000000000E+00 0.  1.
</event>
<event>
 7    1  0.4623443E-009  0.4614232E+02  0.7816164E-02  0.1320468E+00
        -11   -1    0    0    0    0  0.00000000000E+00  0.00000000000E+00  0.45593999997E+02  0.45594000000E+02  0.51100000000E-03 0. -1.
         11   -1    0    0    0    0 -0.00000000000E+00 -0.00000000000E+00 -0.45593999997E+02  0.45594000000E+02  0.51100000000E-03 0.  1.
    9900012    2    1    2    0    0  0.55591066503E+01 -0.19815890592E+02  0.40069194131E+02  0.46142317577E+02  0.99999983176E+01 0.  0.
        -12    1    1    2    0    0 -0.55591066503E+01  0.19815890592E+02 -0.40069194131E+02  0.45045682423E+02  0.00000000000E+00 0.  1.
         11    1    3    3    0    0  0.43846175292E+01 -0.46176454327E+01  0.12523794000E+02  0.14049659663E+02  0.51100000000E-03 0. -1.
        -11    1    3    3    0    0  0.18647960184E+01 -0.11521108007E+02  0.24933270956E+02  0.27529645742E+02  0.51100000000E-03 0.  1.
        -12    1    3    3    0    0 -0.69030689735E+00 -0.36771371525E+01  0.26121291751E+01  0.45630121716E+01  0.00000000000E+00 0.  1.
</event>
<event>
 7    1  0.4623443E-009  0.4614232E+02  0.7816164E-02  0.1320468E+00
        -11   -1    0    0    0    0  0.00000000000E+00  0.00000000000E+00  0.45593999997E+02  0.45594000000E+02  0.51100000000E-03 0. -1.
         11   -1    0    0    0    0 -0.00000000000E+00 -0.00000000000E+00 -0.45593999997E+02  0.45594000000E+02  0.51100000000E-03 0.  1.
    9900012    2    1    2    0    0  0.33822084107E+02 -0.42798245381E+01 -0.29442541130E+02  0.46142317636E+02  0.99999988579E+01 0.  0.
         12    1    1    2    0    0 -0.33822084107E+02  0.42798245381E+01  0.29442541130E+02  0.45045682364E+02  0.00000000000E+00 0. -1.
         11    1    3    3    0    0  0.95814755908E+01  0.22352177242E+01 -0.77795212074E+01  0.12542799658E+02  0.51100000000E-03 0. -1.
        -11    1    3    3    0    0  0.17317431776E+01  0.92162377456E-01 -0.35881231850E+01  0.39852298038E+01  0.51100000000E-03 0.  1.
        -12    1    3    3    0    0  0.22508865339E+02 -0.66072046397E+01 -0.18074896738E+02  0.29614288175E+02  0.00000000000E+00 0.  1.
</event>
<event>
 7    1  0.4623443E-009  0.4614232E+02  0.7816164E-02  0.1320468E+00
        -11   -1    0    0    0    0  0.00000000000E+00  0.00000000000E+00  0.45593999997E+02  0.45594000000E+02  0.51100000000E-03 0. -1.
         11   -1    0    0    0    0 -0.00000000000E+00 -0.00000000000E+00 -0.45593999997E+02  0.45594000000E+02  0.51100000000E-03 0.  1.
    9900012    2    1    2    0    0  0.29142062158E+02  0.13182004918E+02 -0.31718895990E+02  0.46142318705E+02  0.10000008611E+02 0.  0.
         12    1    1    2    0    0 -0.29142062158E+02 -0.13182004918E+02  0.31718895990E+02  0.45045681295E+02  0.00000000000E+00 0. -1.
         11    1    3    3    0    0  0.10011248245E+02  0.18738860701E+01 -0.10441772598E+02  0.14586540223E+02  0.51100000000E-03 0.  1.
        -11    1    3    3    0    0  0.17766484896E+02  0.11320950401E+02 -0.21580129440E+02  0.30158147995E+02  0.51100000000E-03 0. -1.
         12    1    3    3    0    0  0.13643290169E+01 -0.12831553501E-01  0.30300604833E+00  0.13976304878E+01  0.00000000000E+00 0. -1.
</event>
<event>
 7    1  0.4623443E-009  0.4614232E+02  0.7816164E-02  0.1320468E+00
        -11   -1    0    0    0    0  0.00000000000E+00  0.00000000000E+00  0.45593999997E+02  0.45594000000E+02  0.51100000000E-03 0.  1.
         11   -1    0    0    0    0 -0.00000000000E+00 -0.00000000000E+00 -0.45593999997E+02  0.45594000000E+02  0.51100000000E-03 0. -1.
    9900012    2    1    2    0    0  0.31331492254E+02 -0.27670861007E+01  0.32245841557E+02  0.46142317964E+02  0.10000001854E+02 0.  0.
        -12    1    1    2    0    0 -0.31331492254E+02  0.27670861007E+01 -0.32245841557E+02  0.45045682036E+02  0.00000000000E+00 0.  1.
         11    1    3    3    0    0  0.58518139740E+01 -0.20240211816E+01  0.23949515569E+01  0.66389895128E+01  0.51100000000E-03 0. -1.
        -11    1    3    3    0    0  0.13185318342E+02 -0.22991913182E+01  0.17200793203E+02  0.21794636670E+02  0.51100000000E-03 0.  1.
        -12    1    3    3    0    0  0.12294359938E+02  0.15561263991E+01  0.12650096797E+02  0.17708691782E+02  0.00000000000E+00 0.  1.
</event>
<event>
 7    1  0.4623443E-009  0.4614232E+02  0.7816164E-02  0.1320468E+00
        -11   -1    0    0    0    0  0.00000000000E+00  0.00000000000E+00  0.45593999997E+02  0.45594000000E+02  0.51100000000E-03 0. -1.
         11   -1    0    0    0    0 -0.00000000000E+00 -0.00000000000E+00 -0.45593999997E+02  0.45594000000E+02  0.51100000000E-03 0.  1.
    9900012    2    1    2    0    0  0.23722796951E+02 -0.23324884677E+02  0.30369262670E+02  0.46142318126E+02  0.10000003332E+02 0.  0.
        -12    1    1    2    0    0 -0.23722796951E+02  0.23324884677E+02 -0.30369262670E+02  0.45045681874E+02  0.00000000000E+00 0.  1.
         11    1    3    3    0    0  0.16694810723E+02 -0.14907965606E+02  0.18238435591E+02  0.28872212881E+02  0.51100000000E-03 0. -1.
        -11    1    3    3    0    0  0.15657003086E+01 -0.33367018873E+01  0.91081219274E+00  0.37966532700E+01  0.51100000000E-03 0.  1.
         12    1    3    3    0    0  0.54622859196E+01 -0.50802171833E+01  0.11220014886E+02  0.13473451975E+02  0.00000000000E+00 0. -1.
</event>
<event>
 7    1  0.4623443E-009  0.4614232E+02  0.7816164E-02  0.1320468E+00
        -11   -1    0    0    0    0  0.00000000000E+00  0.00000000000E+00  0.45593999997E+02  0.45594000000E+02  0.51100000000E-03 0.  1.
         11   -1    0    0    0    0 -0.00000000000E+00 -0.00000000000E+00 -0.45593999997E+02  0.45594000000E+02  0.51100000000E-03 0. -1.
    9900012    2    1    2    0    0 -0.22617461542E+02 -0.37220099415E+02 -0.11499046330E+02  0.46142318369E+02  0.10000005547E+02 0.  0.
         12    1    1    2    0    0  0.22617461542E+02  0.37220099415E+02  0.11499046330E+02  0.45045681631E+02  0.00000000000E+00 0. -1.
         11    1    3    3    0    0 -0.88681875460E+01 -0.72286128267E+01 -0.19381067569E+01  0.11604044632E+02  0.51100000000E-03 0. -1.
        -11    1    3    3    0    0 -0.26618635051E+01 -0.97224620250E+01 -0.26302170494E+01  0.10417764978E+02  0.51100000000E-03 0.  1.
         12    1    3    3    0    0 -0.11087410491E+02 -0.20269024563E+02 -0.69307225235E+01  0.24120508760E+02  0.00000000000E+00 0. -1.
</event>
<event>
 7    1  0.4623443E-009  0.4614232E+02  0.7816164E-02  0.1320468E+00
        -11   -1    0    0    0    0  0.00000000000E+00  0.00000000000E+00  0.45593999997E+02  0.45594000000E+02  0.51100000000E-03 0. -1.
         11   -1    0    0    0    0 -0.00000000000E+00 -0.00000000000E+00 -0.45593999997E+02  0.45594000000E+02  0.51100000000E-03 0.  1.
    9900012    2    1    2    0    0  0.10480952213E+02 -0.29663241224E+02 -0.32239032661E+02  0.46142318008E+02  0.10000002255E+02 0.  0.
         12    1    1    2    0    0 -0.10480952213E+02  0.29663241224E+02  0.32239032661E+02  0.45045681992E+02  0.00000000000E+00 0. -1.
         11    1    3    3    0    0  0.50428593048E+01 -0.94852229300E+01 -0.92865098755E+01  0.14199970068E+02  0.51100000000E-03 0. -1.
        -11    1    3    3    0    0 -0.10301645194E+01 -0.62255890468E+01 -0.10055195332E+02  0.11871232090E+02  0.51100000000E-03 0.  1.
        -12    1    3    3    0    0  0.64682574273E+01 -0.13952429247E+02 -0.12897327453E+02  0.20071115850E+02  0.00000000000E+00 0.  1.
</event>
<event>
 7    1  0.4623443E-009  0.4614232E+02  0.7816164E-02  0.1320468E+00
        -11   -1    0    0    0    0  0.00000000000E+00  0.00000000000E+00  0.45593999997E+02  0.45594000000E+02  0.51100000000E-03 0. -1.
         11   -1    0    0    0    0 -0.00000000000E+00 -0.00000000000E+00 -0.45593999997E+02  0.45594000000E+02  0.51100000000E-03 0.  1.
    9900012    2    1    2    0    0  0.22994075334E+02 -0.24372588149E+01  0.38658061920E+02  0.46142317827E+02  0.10000000599E+02 0.  0.
        -12    1    1    2    0    0 -0.22994075334E+02  0.24372588149E+01 -0.38658061920E+02  0.45045682173E+02  0.00000000000E+00 0.  1.
         11    1    3    3    0    0  0.49223180620E+01 -0.23521619260E+00  0.31187896996E+01  0.58319286015E+01  0.51100000000E-03 0. -1.
        -11    1    3    3    0    0 -0.21496474030E+00 -0.30361688366E+00  0.22600453025E+01  0.22904580507E+01  0.51100000000E-03 0.  1.
         12    1    3    3    0    0  0.18286722013E+02 -0.18984257387E+01  0.33279226918E+02  0.38019931175E+02  0.00000000000E+00 0. -1.
</event>
<event>
 7    1  0.4623443E-009  0.4614232E+02  0.7816164E-02  0.1320468E+00
        -11   -1    0    0    0    0  0.00000000000E+00  0.00000000000E+00  0.45593999997E+02  0.45594000000E+02  0.51100000000E-03 0. -1.
         11   -1    0    0    0    0 -0.00000000000E+00 -0.00000000000E+00 -0.45593999997E+02  0.45594000000E+02  0.51100000000E-03 0.  1.
    9900012    2    1    2    0    0  0.56559927925E+01 -0.30097838311E+02  0.33033972120E+02  0.46142318304E+02  0.10000004946E+02 0.  0.
        -12    1    1    2    0    0 -0.56559927925E+01  0.30097838311E+02 -0.33033972120E+02  0.45045681696E+02  0.00000000000E+00 0.  1.
         11    1    3    3    0    0 -0.18398328385E+00 -0.22021060299E+02  0.24158431954E+02  0.32689306834E+02  0.51100000000E-03 0. -1.
        -11    1    3    3    0    0  0.24419379805E+01 -0.22352257153E+01  0.23593839607E+01  0.40652168496E+01  0.51100000000E-03 0.  1.
         12    1    3    3    0    0  0.33980380959E+01 -0.58415522962E+01  0.65161562056E+01  0.93877946199E+01  0.00000000000E+00 0. -1.
</event>
<event>
 7    1  0.4623443E-009  0.4614232E+02  0.7816164E-02  0.1320468E+00
        -11   -1    0    0    0    0  0.00000000000E+00  0.00000000000E+00  0.45593999997E+02  0.45594000000E+02  0.51100000000E-03 0. -1.
         11   -1    0    0    0    0 -0.00000000000E+00 -0.00000000000E+00 -0.45593999997E+02  0.45594000000E+02  0.51100000000E-03 0.  1.
    9900012    2    1    2    0    0 -0.77059882113E+01  0.22525739309E+02 -0.38240323914E+02  0.46142316979E+02  0.99999928716E+01 0.  0.
         12    1    1    2    0    0  0.77059882113E+01 -0.22525739309E+02  0.38240323914E+02  0.45045683021E+02  0.00000000000E+00 0. -1.
         11    1    3    3    0    0 -0.10899799429E+01  0.20636655410E+01 -0.52691535911E+01  0.57628770218E+01  0.51100000000E-03 0. -1.
        -11    1    3    3    0    0  0.17939279137E+01  0.80092505639E+01 -0.13243247552E+02  0.15580432534E+02  0.51100000000E-03 0.  1.
         12    1    3    3    0    0 -0.84099361822E+01  0.12452823204E+02 -0.19727922771E+02  0.24799007423E+02  0.00000000000E+00 0. -1.
</event>
<event>
 7    1  0.4623443E-009  0.4614232E+02  0.7816164E-02  0.1320468E+00
        -11   -1    0    0    0    0  0.00000000000E+00  0.00000000000E+00  0.45593999997E+02  0.45594000000E+02  0.51100000000E-03 0. -1.
         11   -1    0    0    0    0 -0.00000000000E+00 -0.00000000000E+00 -0.45593999997E+02  0.45594000000E+02  0.51100000000E-03 0.  1.
    9900012    2    1    2    0    0 -0.22171397708E+02 -0.16770117024E+02  0.35444402589E+02  0.46142319006E+02  0.10000011355E+02 0.  0.
        -12    1    1    2    0    0  0.22171397708E+02  0.16770117024E+02 -0.35444402589E+02  0.45045680994E+02  0.00000000000E+00 0.  1.
         11    1    3    3    0    0 -0.10485254254E+02 -0.66165148319E+01  0.17764785297E+02  0.21663481304E+02  0.51100000000E-03 0. -1.
        -11    1    3    3    0    0 -0.68188643248E+01 -0.14795783966E+01  0.69505942685E+01  0.98486965563E+01  0.51100000000E-03 0.  1.
         12    1    3    3    0    0 -0.48672791285E+01 -0.86740237954E+01  0.10729023023E+02  0.14630141146E+02  0.00000000000E+00 0. -1.
</event>
<event>
 7    1  0.4623443E-009  0.4614232E+02  0.7816164E-02  0.1320468E+00
        -11   -1    0    0    0    0  0.00000000000E+00  0.00000000000E+00  0.45593999997E+02  0.45594000000E+02  0.51100000000E-03 0. -1.
         11   -1    0    0    0    0 -0.00000000000E+00 -0.00000000000E+00 -0.45593999997E+02  0.45594000000E+02  0.51100000000E-03 0.  1.
    9900012    2    1    2    0    0 -0.32670786082E+02  0.29311286173E+02  0.10128266492E+02  0.46142317161E+02  0.99999945272E+01 0.  0.
        -12    1    1    2    0    0  0.32670786082E+02 -0.29311286173E+02 -0.10128266492E+02  0.45045682839E+02  0.00000000000E+00 0.  1.
         11    1    3    3    0    0 -0.42131506198E+00 -0.31600449158E+00 -0.96335985100E-01  0.53539340984E+00  0.51100000000E-03 0. -1.
        -11    1    3    3    0    0 -0.15267765802E+02  0.11298710361E+02  0.11672440368E+01  0.19029660725E+02  0.51100000000E-03 0.  1.
         12    1    3    3    0    0 -0.16981705218E+02  0.18328580304E+02  0.90573584405E+01  0.26577263026E+02  0.00000000000E+00 0. -1.
</event>
<event>
 7    1  0.5206114E-009  0.4614232E+02  0.7816164E-02  0.1320468E+00
        -11   -1    0    0    0    0  0.00000000000E+00  0.00000000000E+00  0.45593999997E+02  0.45594000000E+02  0.51100000000E-03 0. -1.
         11   -1    0    0    0    0 -0.00000000000E+00 -0.00000000000E+00 -0.45593999997E+02  0.45594000000E+02  0.51100000000E-03 0.  1.
    9900012    2    1    2    0    0 -0.20555407494E+02 -0.55245630756E+00 -0.40078466299E+02  0.46142318230E+02  0.10000004277E+02 0.  0.
         12    1    1    2    0    0  0.20555407494E+02  0.55245630756E+00  0.40078466299E+02  0.45045681770E+02  0.00000000000E+00 0. -1.
         11    1    3    3    0    0 -0.66368842019E+01 -0.20384898142E+00 -0.11804645610E+02  0.13543981857E+02  0.51100000000E-03 0.  1.
        -11    1    3    3    0    0 -0.94363754705E+01 -0.12343428731E+00 -0.25804510408E+02  0.27476047308E+02  0.51100000000E-03 0. -1.
         12    1    3    3    0    0 -0.44821478218E+01 -0.22517303883E+00 -0.24693102817E+01  0.51222890646E+01  0.00000000000E+00 0. -1.
</event>
<event>
 7    1  0.4623443E-009  0.4614232E+02  0.7816164E-02  0.1320468E+00
        -11   -1    0    0    0    0  0.00000000000E+00  0.00000000000E+00  0.45593999997E+02  0.45594000000E+02  0.51100000000E-03 0. -1.
         11   -1    0    0    0    0 -0.00000000000E+00 -0.00000000000E+00 -0.45593999997E+02  0.45594000000E+02  0.51100000000E-03 0.  1.
    9900012    2    1    2    0    0  0.13507232031E+02  0.12190848730E+02 -0.41207419614E+02  0.46142317176E+02  0.99999946624E+01 0.  0.
         12    1    1    2    0    0 -0.13507232031E+02 -0.12190848730E+02  0.41207419614E+02  0.45045682824E+02  0.00000000000E+00 0. -1.
         11    1    3    3    0    0  0.82841798892E+00  0.14746080224E+01 -0.17261490186E+01  0.24166786877E+01  0.51100000000E-03 0. -1.
        -11    1    3    3    0    0  0.12501253436E+02  0.11818736187E+02 -0.33696677117E+02  0.37834242579E+02  0.51100000000E-03 0.  1.
         12    1    3    3    0    0  0.17756060608E+00 -0.11024954799E+01 -0.57845934782E+01  0.58913959093E+01  0.00000000000E+00 0. -1.
</event>
<event>
 7    1  0.4623443E-009  0.4614232E+02  0.7816164E-02  0.1320468E+00
        -11   -1    0    0    0    0  0.00000000000E+00  0.00000000000E+00  0.45593999997E+02  0.45594000000E+02  0.51100000000E-03 0.  1.
         11   -1    0    0    0    0 -0.00000000000E+00 -0.00000000000E+00 -0.45593999997E+02  0.45594000000E+02  0.51100000000E-03 0. -1.
    9900012    2    1    2    0    0  0.35218203502E+02 -0.26775973447E+02 -0.84757552541E+01  0.46142322749E+02  0.10000045480E+02 0.  0.
         12    1    1    2    0    0 -0.35218203502E+02  0.26775973447E+02  0.84757552541E+01  0.45045677251E+02  0.00000000000E+00 0. -1.
         11    1    3    3    0    0  0.19137157630E+02 -0.11104968318E+02 -0.71365210069E+01  0.23248248446E+02  0.51100000000E-03 0. -1.
        -11    1    3    3    0    0  0.13116290558E+02 -0.11631370309E+02 -0.26117330841E+01  0.17724192597E+02  0.51100000000E-03 0.  1.
         12    1    3    3    0    0  0.29647553139E+01 -0.40396348204E+01  0.12724988369E+01  0.51698817050E+01  0.00000000000E+00 0. -1.
</event>
<event>
 7    1  0.4623443E-009  0.4614232E+02  0.7816164E-02  0.1320468E+00
        -11   -1    0    0    0    0  0.00000000000E+00  0.00000000000E+00  0.45593999997E+02  0.45594000000E+02  0.51100000000E-03 0. -1.
         11   -1    0    0    0    0 -0.00000000000E+00 -0.00000000000E+00 -0.45593999997E+02  0.45594000000E+02  0.51100000000E-03 0.  1.
    9900012    2    1    2    0    0  0.10823970076E+02 -0.73201291502E+01  0.43108825566E+02  0.46142318069E+02  0.10000002805E+02 0.  0.
        -12    1    1    2    0    0 -0.10823970076E+02  0.73201291502E+01 -0.43108825566E+02  0.45045681931E+02  0.00000000000E+00 0.  1.
         11    1    3    3    0    0  0.17262542187E+01 -0.46942020602E+01  0.26929581324E+02  0.27390104730E+02  0.51100000000E-03 0. -1.
        -11    1    3    3    0    0  0.20541746068E+01 -0.69284386938E+00  0.40448498362E+01  0.45891694675E+01  0.51100000000E-03 0.  1.
         12    1    3    3    0    0  0.70435412507E+01 -0.19330832206E+01  0.12134394406E+02  0.14163043871E+02  0.00000000000E+00 0. -1.
</event>
<event>
 7    1  0.4623443E-009  0.4614232E+02  0.7816164E-02  0.1320468E+00
        -11   -1    0    0    0    0  0.00000000000E+00  0.00000000000E+00  0.45593999997E+02  0.45594000000E+02  0.51100000000E-03 0. -1.
         11   -1    0    0    0    0 -0.00000000000E+00 -0.00000000000E+00 -0.45593999997E+02  0.45594000000E+02  0.51100000000E-03 0.  1.
    9900012    2    1    2    0    0  0.27186036555E+02  0.26304011933E+02  0.24456735880E+02  0.46142316996E+02  0.99999930247E+01 0.  0.
        -12    1    1    2    0    0 -0.27186036555E+02 -0.26304011933E+02 -0.24456735880E+02  0.45045683004E+02  0.00000000000E+00 0.  1.
         11    1    3    3    0    0  0.20436388861E-01  0.19657229121E+01  0.15359331302E+01  0.24947094128E+01  0.51100000000E-03 0. -1.
        -11    1    3    3    0    0  0.18418014265E+02  0.16312356914E+02  0.11440710332E+02  0.27133117970E+02  0.51100000000E-03 0.  1.
         12    1    3    3    0    0  0.87475859010E+01  0.80259321065E+01  0.11480092418E+02  0.16514489614E+02  0.00000000000E+00 0. -1.
</event>
<event>
 7    1  0.4623443E-009  0.4614232E+02  0.7816164E-02  0.1320468E+00
        -11   -1    0    0    0    0  0.00000000000E+00  0.00000000000E+00  0.45593999997E+02  0.45594000000E+02  0.51100000000E-03 0. -1.
         11   -1    0    0    0    0 -0.00000000000E+00 -0.00000000000E+00 -0.45593999997E+02  0.45594000000E+02  0.51100000000E-03 0.  1.
    9900012    2    1    2    0    0  0.95174500660E+01  0.41726429149E+01  0.43830590459E+02  0.46142318024E+02  0.10000002399E+02 0.  0.
        -12    1    1    2    0    0 -0.95174500660E+01 -0.41726429149E+01 -0.43830590459E+02  0.45045681976E+02  0.00000000000E+00 0.  1.
         11    1    3    3    0    0  0.80225484109E+01  0.63759745687E+01  0.30431203161E+02  0.32110317046E+02  0.51100000000E-03 0. -1.
        -11    1    3    3    0    0 -0.11744381892E+00  0.64662089362E+00  0.45311332624E+01  0.45785456788E+01  0.51100000000E-03 0.  1.
         12    1    3    3    0    0  0.16123454741E+01 -0.28499525474E+01  0.88682540358E+01  0.94534552992E+01  0.00000000000E+00 0. -1.
</event>
<event>
 7    1  0.4623443E-009  0.4614232E+02  0.7816164E-02  0.1320468E+00
        -11   -1    0    0    0    0  0.00000000000E+00  0.00000000000E+00  0.45593999997E+02  0.45594000000E+02  0.51100000000E-03 0. -1.
         11   -1    0    0    0    0 -0.00000000000E+00 -0.00000000000E+00 -0.45593999997E+02  0.45594000000E+02  0.51100000000E-03 0.  1.
    9900012    2    1    2    0    0  0.16727045007E+02  0.23210118398E+02 -0.34793822723E+02  0.46142315074E+02  0.99999755006E+01 0.  0.
         12    1    1    2    0    0 -0.16727045007E+02 -0.23210118398E+02  0.34793822723E+02  0.45045684926E+02  0.00000000000E+00 0. -1.
         11    1    3    3    0    0  0.12032099458E+02  0.13487090864E+02 -0.17536277323E+02  0.25183209882E+02  0.51100000000E-03 0. -1.
        -11    1    3    3    0    0  0.38797617067E+01  0.25979642555E+01 -0.58558810178E+01  0.74895468441E+01  0.51100000000E-03 0.  1.
        -12    1    3    3    0    0  0.81518384251E+00  0.71250632789E+01 -0.11401664382E+02  0.13469558348E+02  0.00000000000E+00 0.  1.
</event>
<event>
 7    1  0.4623443E-009  0.4614232E+02  0.7816164E-02  0.1320468E+00
        -11   -1    0    0    0    0  0.00000000000E+00  0.00000000000E+00  0.45593999997E+02  0.45594000000E+02  0.51100000000E-03 0. -1.
         11   -1    0    0    0    0 -0.00000000000E+00 -0.00000000000E+00 -0.45593999997E+02  0.45594000000E+02  0.51100000000E-03 0.  1.
    9900012    2    1    2    0    0 -0.32676322569E+01  0.44105402188E+02 -0.85527499507E+01  0.46142318138E+02  0.10000003433E+02 0.  0.
         12    1    1    2    0    0  0.32676322569E+01 -0.44105402188E+02  0.85527499507E+01  0.45045681862E+02  0.00000000000E+00 0. -1.
         11    1    3    3    0    0 -0.65453448178E+01  0.28091914555E+02 -0.59424647538E+01  0.29450128858E+02  0.51100000000E-03 0. -1.
        -11    1    3    3    0    0  0.27189408135E+01  0.13098780364E+02 -0.29669606876E+01  0.13703048645E+02  0.51100000000E-03 0.  1.
        -12    1    3    3    0    0  0.55877174731E+00  0.29147072687E+01  0.35667549081E+00  0.29891406347E+01  0.00000000000E+00 0.  1.
</event>
<event>
 7    1  0.4623443E-009  0.4614232E+02  0.7816164E-02  0.1320468E+00
        -11   -1    0    0    0    0  0.00000000000E+00  0.00000000000E+00  0.45593999997E+02  0.45594000000E+02  0.51100000000E-03 0.  1.
         11   -1    0    0    0    0 -0.00000000000E+00 -0.00000000000E+00 -0.45593999997E+02  0.45594000000E+02  0.51100000000E-03 0. -1.
    9900012    2    1    2    0    0 -0.25652138140E+02 -0.32326100409E+02 -0.18058366121E+02  0.46142317124E+02  0.99999941932E+01 0.  0.
         12    1    1    2    0    0  0.25652138140E+02  0.32326100409E+02  0.18058366121E+02  0.45045682876E+02  0.00000000000E+00 0. -1.
         11    1    3    3    0    0  0.49263148308E+00 -0.14986511523E+01  0.23875699774E+00  0.15955081383E+01  0.51100000000E-03 0.  1.
        -11    1    3    3    0    0 -0.29648829067E+01 -0.32406190708E+01 -0.34076658678E+01  0.55591662630E+01  0.51100000000E-03 0. -1.
        -12    1    3    3    0    0 -0.23179886716E+02 -0.27586830185E+02 -0.14889457251E+02  0.38987642723E+02  0.00000000000E+00 0.  1.
</event>
<event>
 7    1  0.4623443E-009  0.4614232E+02  0.7816164E-02  0.1320468E+00
        -11   -1    0    0    0    0  0.00000000000E+00  0.00000000000E+00  0.45593999997E+02  0.45594000000E+02  0.51100000000E-03 0. -1.
         11   -1    0    0    0    0 -0.00000000000E+00 -0.00000000000E+00 -0.45593999997E+02  0.45594000000E+02  0.51100000000E-03 0.  1.
    9900012    2    1    2    0    0 -0.26137102186E+02 -0.23851092803E+02 -0.27876347919E+02  0.46142317500E+02  0.99999976190E+01 0.  0.
         12    1    1    2    0    0  0.26137102186E+02  0.23851092803E+02  0.27876347919E+02  0.45045682500E+02  0.00000000000E+00 0. -1.
         11    1    3    3    0    0 -0.14856398982E+02 -0.13422795724E+02 -0.19139217021E+02  0.27698261032E+02  0.51100000000E-03 0. -1.
        -11    1    3    3    0    0 -0.12861265492E+01 -0.57037208455E+00 -0.29336561931E+01  0.32535802949E+01  0.51100000000E-03 0.  1.
         12    1    3    3    0    0 -0.99945766554E+01 -0.98579249942E+01 -0.58034747047E+01  0.15190476173E+02  0.00000000000E+00 0. -1.
</event>
<event>
 7    1  0.4623443E-009  0.4614232E+02  0.7816164E-02  0.1320468E+00
        -11   -1    0    0    0    0  0.00000000000E+00  0.00000000000E+00  0.45593999997E+02  0.45594000000E+02  0.51100000000E-03 0. -1.
         11   -1    0    0    0    0 -0.00000000000E+00 -0.00000000000E+00 -0.45593999997E+02  0.45594000000E+02  0.51100000000E-03 0.  1.
    9900012    2    1    2    0    0 -0.24647237159E+02 -0.12516551700E+02  0.35566319371E+02  0.46142318302E+02  0.10000004933E+02 0.  0.
        -12    1    1    2    0    0  0.24647237159E+02  0.12516551700E+02 -0.35566319371E+02  0.45045681698E+02  0.00000000000E+00 0.  1.
         11    1    3    3    0    0 -0.10162583470E+00 -0.20151009294E+00  0.98903798791E+00  0.10144607092E+01  0.51100000000E-03 0.  1.
        -11    1    3    3    0    0 -0.18328796208E+02 -0.13251905311E+02  0.25491139164E+02  0.34078672817E+02  0.51100000000E-03 0. -1.
         12    1    3    3    0    0 -0.62168151163E+01  0.93686370425E+00  0.90861422187E+01  0.11049184776E+02  0.00000000000E+00 0. -1.
</event>
<event>
 7    1  0.4623443E-009  0.4614232E+02  0.7816164E-02  0.1320468E+00
        -11   -1    0    0    0    0  0.00000000000E+00  0.00000000000E+00  0.45593999997E+02  0.45594000000E+02  0.51100000000E-03 0. -1.
         11   -1    0    0    0    0 -0.00000000000E+00 -0.00000000000E+00 -0.45593999997E+02  0.45594000000E+02  0.51100000000E-03 0.  1.
    9900012    2    1    2    0    0 -0.42861087177E+02  0.13556370656E+02  0.28749856074E+01  0.46142317393E+02  0.99999966388E+01 0.  0.
        -12    1    1    2    0    0  0.42861087177E+02 -0.13556370656E+02 -0.28749856074E+01  0.45045682607E+02  0.00000000000E+00 0.  1.
         11    1    3    3    0    0 -0.20904371246E+02  0.84861292224E+01  0.10951569378E+01  0.22587751003E+02  0.51100000000E-03 0. -1.
        -11    1    3    3    0    0 -0.19974501426E+01  0.27371270764E+01  0.40190551433E+00  0.34122133591E+01  0.51100000000E-03 0.  1.
        -12    1    3    3    0    0 -0.19959265788E+02  0.23331143574E+01  0.13779231553E+01  0.20142353031E+02  0.00000000000E+00 0.  1.
</event>
<event>
 7    1  0.4623443E-009  0.4614232E+02  0.7816164E-02  0.1320468E+00
        -11   -1    0    0    0    0  0.00000000000E+00  0.00000000000E+00  0.45593999997E+02  0.45594000000E+02  0.51100000000E-03 0. -1.
         11   -1    0    0    0    0 -0.00000000000E+00 -0.00000000000E+00 -0.45593999997E+02  0.45594000000E+02  0.51100000000E-03 0.  1.
    9900012    2    1    2    0    0 -0.32179678579E+02  0.31432028476E+02 -0.23684019438E+01  0.46142318127E+02  0.10000003340E+02 0.  0.
        -12    1    1    2    0    0  0.32179678579E+02 -0.31432028476E+02  0.23684019438E+01  0.45045681873E+02  0.00000000000E+00 0.  1.
         11    1    3    3    0    0 -0.10020828052E+02  0.15372475981E+02 -0.13142214040E+01  0.18397206059E+02  0.51100000000E-03 0. -1.
        -11    1    3    3    0    0 -0.86483808172E+00 -0.23122426086E+00  0.14754959812E+00  0.90729306810E+00  0.51100000000E-03 0.  1.
         12    1    3    3    0    0 -0.21294012445E+02  0.16290776756E+02 -0.12017301379E+01  0.26837819000E+02  0.00000000000E+00 0. -1.
</event>
<event>
 7    1  0.4623443E-009  0.4614231E+02  0.7816164E-02  0.1320468E+00
        -11   -1    0    0    0    0  0.00000000000E+00  0.00000000000E+00  0.45593999997E+02  0.45594000000E+02  0.51100000000E-03 0. -1.
         11   -1    0    0    0    0 -0.00000000000E+00 -0.00000000000E+00 -0.45593999997E+02  0.45594000000E+02  0.51100000000E-03 0.  1.
    9900012    2    1    2    0    0  0.31065892139E+01 -0.12956036740E+02  0.43030270254E+02  0.46142312719E+02  0.99999540186E+01 0.  0.
        -12    1    1    2    0    0 -0.31065892139E+01  0.12956036740E+02 -0.43030270254E+02  0.45045687281E+02  0.00000000000E+00 0.  1.
         11    1    3    3    0    0  0.26664638007E+01 -0.33784194057E+01  0.93236249466E+01  0.10269066622E+02  0.51100000000E-03 0. -1.
        -11    1    3    3    0    0  0.20462363512E+01 -0.83307537793E+01  0.32251614943E+02  0.33372971226E+02  0.51100000000E-03 0.  1.
        -12    1    3    3    0    0 -0.16061109380E+01 -0.12468635553E+01  0.14550303641E+01  0.25002748711E+01  0.00000000000E+00 0.  1.
</event>
<event>
 7    1  0.4623443E-009  0.4614232E+02  0.7816164E-02  0.1320468E+00
        -11   -1    0    0    0    0  0.00000000000E+00  0.00000000000E+00  0.45593999997E+02  0.45594000000E+02  0.51100000000E-03 0. -1.
         11   -1    0    0    0    0 -0.00000000000E+00 -0.00000000000E+00 -0.45593999997E+02  0.45594000000E+02  0.51100000000E-03 0.  1.
    9900012    2    1    2    0    0 -0.18466377927E+02 -0.27394122730E+02 -0.30621374803E+02  0.46142315759E+02  0.99999817464E+01 0.  0.
         12    1    1    2    0    0  0.18466377927E+02  0.27394122730E+02  0.30621374803E+02  0.45045684241E+02  0.00000000000E+00 0. -1.
         11    1    3    3    0    0  0.11693509298E+00  0.44441953662E+00 -0.13282636083E+00  0.47835723446E+00  0.51100000000E-03 0. -1.
        -11    1    3    3    0    0 -0.78368617753E+01 -0.68998445107E+01 -0.86917194054E+01  0.13585663151E+02  0.51100000000E-03 0.  1.
        -12    1    3    3    0    0 -0.10746451244E+02 -0.20938697756E+02 -0.21796829037E+02  0.32078295374E+02  0.00000000000E+00 0.  1.
</event>
<event>
 7    1  0.4623443E-009  0.4614232E+02  0.7816164E-02  0.1320468E+00
        -11   -1    0    0    0    0  0.00000000000E+00  0.00000000000E+00  0.45593999997E+02  0.45594000000E+02  0.51100000000E-03 0. -1.
         11   -1    0    0    0    0 -0.00000000000E+00 -0.00000000000E+00 -0.45593999997E+02  0.45594000000E+02  0.51100000000E-03 0.  1.
    9900012    2    1    2    0    0  0.30327684018E+02 -0.97868414139E+01  0.31836499934E+02  0.46142318622E+02  0.10000007854E+02 0.  0.
        -12    1    1    2    0    0 -0.30327684018E+02  0.97868414139E+01 -0.31836499934E+02  0.45045681378E+02  0.00000000000E+00 0.  1.
         11    1    3    3    0    0  0.19001370732E+02 -0.10018199525E+02  0.21793183356E+02  0.30599987785E+02  0.51100000000E-03 0. -1.
        -11    1    3    3    0    0  0.16193259558E+01 -0.15477519677E+00  0.34126109267E+01  0.37804874700E+01  0.51100000000E-03 0.  1.
         12    1    3    3    0    0  0.97069873301E+01  0.38613330815E+00  0.66307056515E+01  0.11761843367E+02  0.00000000000E+00 0. -1.
</event>
<event>
 7    1  0.4623443E-009  0.4614232E+02  0.7816164E-02  0.1320468E+00
        -11   -1    0    0    0    0  0.00000000000E+00  0.00000000000E+00  0.45593999997E+02  0.45594000000E+02  0.51100000000E-03 0. -1.
         11   -1    0    0    0    0 -0.00000000000E+00 -0.00000000000E+00 -0.45593999997E+02  0.45594000000E+02  0.51100000000E-03 0.  1.
    9900012    2    1    2    0    0 -0.32416182636E+02 -0.30720300437E+02  0.58794328225E+01  0.46142317789E+02  0.10000000250E+02 0.  0.
        -12    1    1    2    0    0  0.32416182636E+02  0.30720300437E+02 -0.58794328225E+01  0.45045682211E+02  0.00000000000E+00 0.  1.
         11    1    3    3    0    0 -0.86045645829E+01 -0.87718985472E+01 -0.12818642228E+01  0.12354266952E+02  0.51100000000E-03 0. -1.
        -11    1    3    3    0    0 -0.19020861221E+02 -0.15917014786E+02  0.28614699520E+01  0.24966628364E+02  0.51100000000E-03 0.  1.
        -12    1    3    3    0    0 -0.47907568315E+01 -0.60313871029E+01  0.42998270933E+01  0.88214224723E+01  0.00000000000E+00 0.  1.
</event>
<event>
 7    1  0.4916404E-009  0.4614232E+02  0.7816164E-02  0.1320468E+00
        -11   -1    0    0    0    0  0.00000000000E+00  0.00000000000E+00  0.45593999997E+02  0.45594000000E+02  0.51100000000E-03 0.  1.
         11   -1    0    0    0    0 -0.00000000000E+00 -0.00000000000E+00 -0.45593999997E+02  0.45594000000E+02  0.51100000000E-03 0. -1.
    9900012    2    1    2    0    0  0.79779328148E-01  0.39669957750E+02 -0.21340139470E+02  0.46142318017E+02  0.10000002338E+02 0.  0.
         12    1    1    2    0    0 -0.79779328148E-01 -0.39669957750E+02  0.21340139470E+02  0.45045681983E+02  0.00000000000E+00 0. -1.
         11    1    3    3    0    0 -0.26277965320E+01  0.19293891280E+02 -0.10908804454E+02  0.22319533378E+02  0.51100000000E-03 0. -1.
        -11    1    3    3    0    0 -0.75307492584E-01  0.13414693692E+02 -0.90956235690E+01  0.16207715646E+02  0.51100000000E-03 0.  1.
         12    1    3    3    0    0  0.27828833527E+01  0.69613727777E+01 -0.13357114472E+01  0.76150689934E+01  0.00000000000E+00 0. -1.
</event>
<event>
 7    1  0.4623443E-009  0.4614231E+02  0.7816164E-02  0.1320468E+00
        -11   -1    0    0    0    0  0.00000000000E+00  0.00000000000E+00  0.45593999997E+02  0.45594000000E+02  0.51100000000E-03 0. -1.
         11   -1    0    0    0    0 -0.00000000000E+00 -0.00000000000E+00 -0.45593999997E+02  0.45594000000E+02  0.51100000000E-03 0.  1.
    9900012    2    1    2    0    0  0.98879845863E+01  0.67965955508E+01  0.43418298660E+02  0.46142305325E+02  0.99998865947E+01 0.  0.
        -12    1    1    2    0    0 -0.98879845863E+01 -0.67965955508E+01 -0.43418298660E+02  0.45045694675E+02  0.00000000000E+00 0.  1.
         11    1    3    3    0    0  0.30420470244E+01 -0.11218723379E+01  0.93062791496E+01  0.98549215884E+01  0.51100000000E-03 0. -1.
        -11    1    3    3    0    0  0.79731605478E+01  0.78391017547E+01  0.31911015980E+02  0.33813248093E+02  0.51100000000E-03 0.  1.
        -12    1    3    3    0    0 -0.11272229859E+01  0.79366134004E-01  0.22010035299E+01  0.24741356434E+01  0.00000000000E+00 0.  1.
</event>
<event>
 7    1  0.4623443E-009  0.4614232E+02  0.7816164E-02  0.1320468E+00
        -11   -1    0    0    0    0  0.00000000000E+00  0.00000000000E+00  0.45593999997E+02  0.45594000000E+02  0.51100000000E-03 0. -1.
         11   -1    0    0    0    0 -0.00000000000E+00 -0.00000000000E+00 -0.45593999997E+02  0.45594000000E+02  0.51100000000E-03 0.  1.
    9900012    2    1    2    0    0 -0.17688943149E+02 -0.16647130118E+01  0.41393761095E+02  0.46142318334E+02  0.10000005224E+02 0.  0.
        -12    1    1    2    0    0  0.17688943149E+02  0.16647130118E+01 -0.41393761095E+02  0.45045681666E+02  0.00000000000E+00 0.  1.
         11    1    3    3    0    0 -0.68275876859E+01 -0.22478790709E+01  0.75313574830E+01  0.10411064294E+02  0.51100000000E-03 0. -1.
        -11    1    3    3    0    0 -0.29698869005E+01  0.77365509665E+00  0.14506847825E+02  0.14827926506E+02  0.51100000000E-03 0.  1.
        -12    1    3    3    0    0 -0.78914685625E+01 -0.19048903755E+00  0.19355555788E+02  0.20903327534E+02  0.00000000000E+00 0.  1.
</event>
<event>
 7    1  0.4623443E-009  0.4614232E+02  0.7816164E-02  0.1320468E+00
        -11   -1    0    0    0    0  0.00000000000E+00  0.00000000000E+00  0.45593999997E+02  0.45594000000E+02  0.51100000000E-03 0. -1.
         11   -1    0    0    0    0 -0.00000000000E+00 -0.00000000000E+00 -0.45593999997E+02  0.45594000000E+02  0.51100000000E-03 0.  1.
    9900012    2    1    2    0    0  0.10744905466E+02  0.15869731924E+02 -0.40765331141E+02  0.46142316435E+02  0.99999879068E+01 0.  0.
         12    1    1    2    0    0 -0.10744905466E+02 -0.15869731924E+02  0.40765331141E+02  0.45045683565E+02  0.00000000000E+00 0. -1.
         11    1    3    3    0    0  0.29494505221E+01  0.22297261754E+01 -0.26914069579E+01  0.45732492687E+01  0.51100000000E-03 0. -1.
        -11    1    3    3    0    0  0.67063219486E+01  0.60989690497E+01 -0.20628561489E+02  0.22532415027E+02  0.51100000000E-03 0.  1.
        -12    1    3    3    0    0  0.10891329957E+01  0.75410366985E+01 -0.17445362694E+02  0.19036652140E+02  0.00000000000E+00 0.  1.
</event>
<event>
 7    1  0.4623443E-009  0.4614232E+02  0.7816164E-02  0.1320468E+00
        -11   -1    0    0    0    0  0.00000000000E+00  0.00000000000E+00  0.45593999997E+02  0.45594000000E+02  0.51100000000E-03 0. -1.
         11   -1    0    0    0    0 -0.00000000000E+00 -0.00000000000E+00 -0.45593999997E+02  0.45594000000E+02  0.51100000000E-03 0.  1.
    9900012    2    1    2    0    0  0.19136628268E+02 -0.10944252182E+02 -0.39282642908E+02  0.46142320616E+02  0.10000026036E+02 0.  0.
         12    1    1    2    0    0 -0.19136628268E+02  0.10944252182E+02  0.39282642908E+02  0.45045679384E+02  0.00000000000E+00 0. -1.
         11    1    3    3    0    0  0.63380619657E+01 -0.20881495833E+01 -0.52343184552E+01  0.84811254038E+01  0.51100000000E-03 0. -1.
        -11    1    3    3    0    0  0.45323753320E+01 -0.54568695503E+01 -0.16753185206E+02  0.18193104910E+02  0.51100000000E-03 0.  1.
        -12    1    3    3    0    0  0.82661909707E+01 -0.33992330484E+01 -0.17295139246E+02  0.19468090303E+02  0.00000000000E+00 0.  1.
</event>
<event>
 7    1  0.4623443E-009  0.4614232E+02  0.7816164E-02  0.1320468E+00
        -11   -1    0    0    0    0  0.00000000000E+00  0.00000000000E+00  0.45593999997E+02  0.45594000000E+02  0.51100000000E-03 0. -1.
         11   -1    0    0    0    0 -0.00000000000E+00 -0.00000000000E+00 -0.45593999997E+02  0.45594000000E+02  0.51100000000E-03 0.  1.
    9900012    2    1    2    0    0 -0.16942417710E+02 -0.18943400316E+02  0.37191606177E+02  0.46142317594E+02  0.99999984771E+01 0.  0.
        -12    1    1    2    0    0  0.16942417710E+02  0.18943400316E+02 -0.37191606177E+02  0.45045682406E+02  0.00000000000E+00 0.  1.
         11    1    3    3    0    0 -0.95422697760E+01 -0.12708495599E+02  0.14821548472E+02  0.21731062382E+02  0.51100000000E-03 0. -1.
        -11    1    3    3    0    0 -0.68458921951E+00 -0.16405599353E+00  0.12913234042E+01  0.14707457849E+01  0.51100000000E-03 0.  1.
         12    1    3    3    0    0 -0.67155587145E+01 -0.60708487231E+01  0.21078734300E+02  0.22940509427E+02  0.00000000000E+00 0. -1.
</event>
<event>
 7    1  0.4623443E-009  0.4614232E+02  0.7816164E-02  0.1320468E+00
        -11   -1    0    0    0    0  0.00000000000E+00  0.00000000000E+00  0.45593999997E+02  0.45594000000E+02  0.51100000000E-03 0. -1.
         11   -1    0    0    0    0 -0.00000000000E+00 -0.00000000000E+00 -0.45593999997E+02  0.45594000000E+02  0.51100000000E-03 0.  1.
    9900012    2    1    2    0    0  0.89445399824E+01  0.28684485952E+02  0.33560526711E+02  0.46142317821E+02  0.10000000549E+02 0.  0.
        -12    1    1    2    0    0 -0.89445399824E+01 -0.28684485952E+02 -0.33560526711E+02  0.45045682179E+02  0.00000000000E+00 0.  1.
         11    1    3    3    0    0  0.62786969582E+00  0.32436892814E+01  0.51849443284E+01  0.61481207258E+01  0.51100000000E-03 0. -1.
        -11    1    3    3    0    0 -0.12306025311E+01  0.95582101315E+01  0.90721531257E+01  0.13235472266E+02  0.51100000000E-03 0.  1.
        -12    1    3    3    0    0  0.95472728176E+01  0.15882586539E+02  0.19303429257E+02  0.26758724829E+02  0.00000000000E+00 0.  1.
</event>
<event>
 7    1  0.4623443E-009  0.4614232E+02  0.7816164E-02  0.1320468E+00
        -11   -1    0    0    0    0  0.00000000000E+00  0.00000000000E+00  0.45593999997E+02  0.45594000000E+02  0.51100000000E-03 0. -1.
         11   -1    0    0    0    0 -0.00000000000E+00 -0.00000000000E+00 -0.45593999997E+02  0.45594000000E+02  0.51100000000E-03 0.  1.
    9900012    2    1    2    0    0  0.25619585154E+02  0.16295870379E+02 -0.33274536287E+02  0.46142319852E+02  0.10000019067E+02 0.  0.
         12    1    1    2    0    0 -0.25619585154E+02 -0.16295870379E+02  0.33274536287E+02  0.45045680148E+02  0.00000000000E+00 0. -1.
         11    1    3    3    0    0  0.71259333778E+01  0.75789691148E+01 -0.98387057971E+01  0.14318513588E+02  0.51100000000E-03 0.  1.
        -11    1    3    3    0    0  0.75357539591E+01  0.63255339769E+01 -0.76679722279E+01  0.12473883364E+02  0.51100000000E-03 0. -1.
         12    1    3    3    0    0  0.10957897817E+02  0.23913672871E+01 -0.15767858262E+02  0.19349922900E+02  0.00000000000E+00 0. -1.
</event>
<event>
 7    1  0.4623443E-009  0.4614232E+02  0.7816164E-02  0.1320468E+00
        -11   -1    0    0    0    0  0.00000000000E+00  0.00000000000E+00  0.45593999997E+02  0.45594000000E+02  0.51100000000E-03 0. -1.
         11   -1    0    0    0    0 -0.00000000000E+00 -0.00000000000E+00 -0.45593999997E+02  0.45594000000E+02  0.51100000000E-03 0.  1.
    9900012    2    1    2    0    0  0.28580180320E+01 -0.25939922401E+02 -0.36716016358E+02  0.46142315429E+02  0.99999787328E+01 0.  0.
         12    1    1    2    0    0 -0.28580180320E+01  0.25939922401E+02  0.36716016358E+02  0.45045684571E+02  0.00000000000E+00 0. -1.
         11    1    3    3    0    0  0.22804199502E+01 -0.52617696902E+01 -0.91799395648E+01  0.10823946882E+02  0.51100000000E-03 0. -1.
        -11    1    3    3    0    0  0.17190068268E+01 -0.61226123465E+00 -0.38056479593E+01  0.42205218802E+01  0.51100000000E-03 0.  1.
        -12    1    3    3    0    0 -0.11414087451E+01 -0.20065891477E+02 -0.23730428834E+02  0.31097846667E+02  0.00000000000E+00 0.  1.
</event>
<event>
 7    1  0.4623443E-009  0.4614232E+02  0.7816164E-02  0.1320468E+00
        -11   -1    0    0    0    0  0.00000000000E+00  0.00000000000E+00  0.45593999997E+02  0.45594000000E+02  0.51100000000E-03 0. -1.
         11   -1    0    0    0    0 -0.00000000000E+00 -0.00000000000E+00 -0.45593999997E+02  0.45594000000E+02  0.51100000000E-03 0.  1.
    9900012    2    1    2    0    0 -0.32404681986E+02 -0.15165897329E+02 -0.27368696811E+02  0.46142318503E+02  0.10000006765E+02 0.  0.
         12    1    1    2    0    0  0.32404681986E+02  0.15165897329E+02  0.27368696811E+02  0.45045681497E+02  0.00000000000E+00 0. -1.
         11    1    3    3    0    0 -0.84379402636E+01 -0.14431060321E+01 -0.40356430634E+01  0.94640269498E+01  0.51100000000E-03 0. -1.
        -11    1    3    3    0    0 -0.10885525604E+02 -0.27797236896E+01 -0.87944628957E+01  0.14267589472E+02  0.51100000000E-03 0.  1.
        -12    1    3    3    0    0 -0.13081216119E+02 -0.10943067607E+02 -0.14538590851E+02  0.22410702081E+02  0.00000000000E+00 0.  1.
</event>
<event>
 7    1  0.4623443E-009  0.4614232E+02  0.7816164E-02  0.1320468E+00
        -11   -1    0    0    0    0  0.00000000000E+00  0.00000000000E+00  0.45593999997E+02  0.45594000000E+02  0.51100000000E-03 0. -1.
         11   -1    0    0    0    0 -0.00000000000E+00 -0.00000000000E+00 -0.45593999997E+02  0.45594000000E+02  0.51100000000E-03 0.  1.
    9900012    2    1    2    0    0  0.10642042170E+02  0.37761531315E+02  0.22134294911E+02  0.46142319629E+02  0.10000017035E+02 0.  0.
        -12    1    1    2    0    0 -0.10642042170E+02 -0.37761531315E+02 -0.22134294911E+02  0.45045680371E+02  0.00000000000E+00 0.  1.
         11    1    3    3    0    0  0.10337002068E+01  0.82693609472E+01  0.35679592408E+01  0.90653847131E+01  0.51100000000E-03 0. -1.
        -11    1    3    3    0    0  0.82731581812E+01  0.12571324411E+02  0.75005942949E+01  0.16814941534E+02  0.51100000000E-03 0.  1.
         12    1    3    3    0    0  0.13351837824E+01  0.16920845957E+02  0.11065741376E+02  0.20261993383E+02  0.00000000000E+00 0. -1.
</event>
<event>
 7    1  0.4623443E-009  0.4614232E+02  0.7816164E-02  0.1320468E+00
        -11   -1    0    0    0    0  0.00000000000E+00  0.00000000000E+00  0.45593999997E+02  0.45594000000E+02  0.51100000000E-03 0. -1.
         11   -1    0    0    0    0 -0.00000000000E+00 -0.00000000000E+00 -0.45593999997E+02  0.45594000000E+02  0.51100000000E-03 0.  1.
    9900012    2    1    2    0    0  0.33648577853E+02 -0.21817696550E+02 -0.20515233695E+02  0.46142317767E+02  0.10000000055E+02 0.  0.
         12    1    1    2    0    0 -0.33648577853E+02  0.21817696550E+02  0.20515233695E+02  0.45045682233E+02  0.00000000000E+00 0. -1.
         11    1    3    3    0    0  0.74954321938E+01 -0.81187046319E+01 -0.36105446762E+01  0.11624581790E+02  0.51100000000E-03 0. -1.
        -11    1    3    3    0    0  0.18254320919E+02 -0.12047938929E+02 -0.10761108685E+02  0.24375695376E+02  0.51100000000E-03 0.  1.
         12    1    3    3    0    0  0.78988247403E+01 -0.16510529890E+01 -0.61435803336E+01  0.10142040602E+02  0.00000000000E+00 0. -1.
</event>
<event>
 7    1  0.4623443E-009  0.4614231E+02  0.7816164E-02  0.1320468E+00
        -11   -1    0    0    0    0  0.00000000000E+00  0.00000000000E+00  0.45593999997E+02  0.45594000000E+02  0.51100000000E-03 0. -1.
         11   -1    0    0    0    0 -0.00000000000E+00 -0.00000000000E+00 -0.45593999997E+02  0.45594000000E+02  0.51100000000E-03 0.  1.
    9900012    2    1    2    0    0  0.18201887692E+02  0.31408430102E+01  0.41084549496E+02  0.46142314106E+02  0.99999666679E+01 0.  0.
        -12    1    1    2    0    0 -0.18201887692E+02 -0.31408430102E+01 -0.41084549496E+02  0.45045685894E+02  0.00000000000E+00 0.  1.
         11    1    3    3    0    0  0.44612874108E+01 -0.45067717596E+00  0.11668924111E+02  0.12500799393E+02  0.51100000000E-03 0. -1.
        -11    1    3    3    0    0  0.38177564674E+01 -0.26080205490E+01  0.83966580331E+01  0.95854526244E+01  0.51100000000E-03 0.  1.
        -12    1    3    3    0    0  0.99228438141E+01  0.61995407351E+01  0.21018967352E+02  0.24056062089E+02  0.00000000000E+00 0.  1.
</event>
<event>
 7    1  0.4623443E-009  0.4614232E+02  0.7816164E-02  0.1320468E+00
        -11   -1    0    0    0    0  0.00000000000E+00  0.00000000000E+00  0.45593999997E+02  0.45594000000E+02  0.51100000000E-03 0. -1.
         11   -1    0    0    0    0 -0.00000000000E+00 -0.00000000000E+00 -0.45593999997E+02  0.45594000000E+02  0.51100000000E-03 0.  1.
    9900012    2    1    2    0    0 -0.27202549494E+02 -0.23471581490E+02 -0.27170197543E+02  0.46142317953E+02  0.10000001747E+02 0.  0.
         12    1    1    2    0    0  0.27202549494E+02  0.23471581490E+02  0.27170197543E+02  0.45045682047E+02  0.00000000000E+00 0. -1.
         11    1    3    3    0    0 -0.12298824644E+01 -0.14844442946E+01 -0.24315387181E+01  0.31029931580E+01  0.51100000000E-03 0. -1.
        -11    1    3    3    0    0 -0.19112984185E+02 -0.16352260256E+02 -0.12977801370E+02  0.28304167690E+02  0.51100000000E-03 0.  1.
        -12    1    3    3    0    0 -0.68596828448E+01 -0.56348769388E+01 -0.11760857454E+02  0.14735157105E+02  0.00000000000E+00 0.  1.
</event>
<event>
 7    1  0.4623443E-009  0.4614231E+02  0.7816164E-02  0.1320468E+00
        -11   -1    0    0    0    0  0.00000000000E+00  0.00000000000E+00  0.45593999997E+02  0.45594000000E+02  0.51100000000E-03 0. -1.
         11   -1    0    0    0    0 -0.00000000000E+00 -0.00000000000E+00 -0.45593999997E+02  0.45594000000E+02  0.51100000000E-03 0.  1.
    9900012    2    1    2    0    0  0.35091232387E+01 -0.23776168823E+02 -0.38098473009E+02  0.46142314352E+02  0.99999689167E+01 0.  0.
         12    1    1    2    0    0 -0.35091232387E+01  0.23776168823E+02  0.38098473009E+02  0.45045685648E+02  0.00000000000E+00 0. -1.
         11    1    3    3    0    0  0.64263529438E+00 -0.61024032438E+01 -0.71714508215E+01  0.94383267912E+01  0.51100000000E-03 0. -1.
        -11    1    3    3    0    0  0.16509315436E+00 -0.32279395510E+01 -0.10336257924E+01  0.33934100894E+01  0.51100000000E-03 0.  1.
        -12    1    3    3    0    0  0.27013947900E+01 -0.14445826029E+02 -0.29893396395E+02  0.33310577472E+02  0.00000000000E+00 0.  1.
</event>
<event>
 7    1  0.4623443E-009  0.4614232E+02  0.7816164E-02  0.1320468E+00
        -11   -1    0    0    0    0  0.00000000000E+00  0.00000000000E+00  0.45593999997E+02  0.45594000000E+02  0.51100000000E-03 0. -1.
         11   -1    0    0    0    0 -0.00000000000E+00 -0.00000000000E+00 -0.45593999997E+02  0.45594000000E+02  0.51100000000E-03 0.  1.
    9900012    2    1    2    0    0  0.13534314207E+02 -0.19099711446E+01 -0.42921877574E+02  0.46142320682E+02  0.10000026631E+02 0.  0.
         12    1    1    2    0    0 -0.13534314207E+02  0.19099711446E+01  0.42921877574E+02  0.45045679318E+02  0.00000000000E+00 0. -1.
         11    1    3    3    0    0  0.53087573652E+01  0.83786339542E+00 -0.13866893762E+02  0.14871975749E+02  0.51100000000E-03 0. -1.
        -11    1    3    3    0    0  0.23872484529E+01  0.15532442856E+01 -0.16727091498E+02  0.16967825825E+02  0.51100000000E-03 0.  1.
         12    1    3    3    0    0  0.58383083885E+01 -0.43010788256E+01 -0.12327892314E+02  0.14302519107E+02  0.00000000000E+00 0. -1.
</event>
<event>
 7    1  0.4623443E-009  0.4614232E+02  0.7816164E-02  0.1320468E+00
        -11   -1    0    0    0    0  0.00000000000E+00  0.00000000000E+00  0.45593999997E+02  0.45594000000E+02  0.51100000000E-03 0. -1.
         11   -1    0    0    0    0 -0.00000000000E+00 -0.00000000000E+00 -0.45593999997E+02  0.45594000000E+02  0.51100000000E-03 0.  1.
    9900012    2    1    2    0    0  0.44325008305E+01  0.26704798329E+02 -0.36004446188E+02  0.46142318046E+02  0.10000002597E+02 0.  0.
         12    1    1    2    0    0 -0.44325008305E+01 -0.26704798329E+02  0.36004446188E+02  0.45045681954E+02  0.00000000000E+00 0. -1.
         11    1    3    3    0    0 -0.16021436948E+01  0.86807800140E+01 -0.16925981899E+02  0.19089569654E+02  0.51100000000E-03 0. -1.
        -11    1    3    3    0    0  0.50999467137E+00  0.13647024840E+01 -0.25873386610E+01  0.29693145745E+01  0.51100000000E-03 0.  1.
        -12    1    3    3    0    0  0.55246498539E+01  0.16659315831E+02 -0.16491125629E+02  0.24083433818E+02  0.00000000000E+00 0.  1.
</event>
<event>
 7    1  0.4623443E-009  0.4614232E+02  0.7816164E-02  0.1320468E+00
        -11   -1    0    0    0    0  0.00000000000E+00  0.00000000000E+00  0.45593999997E+02  0.45594000000E+02  0.51100000000E-03 0. -1.
         11   -1    0    0    0    0 -0.00000000000E+00 -0.00000000000E+00 -0.45593999997E+02  0.45594000000E+02  0.51100000000E-03 0.  1.
    9900012    2    1    2    0    0 -0.26194537499E+02  0.23166002718E+02 -0.28395350060E+02  0.46142318945E+02  0.10000010793E+02 0.  0.
         12    1    1    2    0    0  0.26194537499E+02 -0.23166002718E+02  0.28395350060E+02  0.45045681055E+02  0.00000000000E+00 0. -1.
         11    1    3    3    0    0 -0.27051948506E+01  0.11874920425E+01 -0.59995546679E+01  0.66875162060E+01  0.51100000000E-03 0. -1.
        -11    1    3    3    0    0 -0.72902417610E+01  0.88704284326E+01 -0.61019017014E+01  0.13002512455E+02  0.51100000000E-03 0.  1.
        -12    1    3    3    0    0 -0.16199100887E+02  0.13108082243E+02 -0.16293893690E+02  0.26452290284E+02  0.00000000000E+00 0.  1.
</event>
<event>
 7    1  0.4623443E-009  0.4614232E+02  0.7816164E-02  0.1320468E+00
        -11   -1    0    0    0    0  0.00000000000E+00  0.00000000000E+00  0.45593999997E+02  0.45594000000E+02  0.51100000000E-03 0. -1.
         11   -1    0    0    0    0 -0.00000000000E+00 -0.00000000000E+00 -0.45593999997E+02  0.45594000000E+02  0.51100000000E-03 0.  1.
    9900012    2    1    2    0    0  0.14639080913E+02  0.71173612393E+01 -0.42001833209E+02  0.46142317477E+02  0.99999974115E+01 0.  0.
         12    1    1    2    0    0 -0.14639080913E+02 -0.71173612393E+01  0.42001833209E+02  0.45045682523E+02  0.00000000000E+00 0. -1.
         11    1    3    3    0    0  0.49398684507E+00  0.27109475039E+01 -0.56170974626E+01  0.62565999982E+01  0.51100000000E-03 0.  1.
        -11    1    3    3    0    0  0.14863179314E+01  0.11812929171E+01 -0.95657383596E+00  0.21259416064E+01  0.51100000000E-03 0. -1.
        -12    1    3    3    0    0  0.12658776136E+02  0.32251208183E+01 -0.35428161911E+02  0.37759775873E+02  0.00000000000E+00 0.  1.
</event>
<event>
 7    1  0.4623443E-009  0.4614232E+02  0.7816164E-02  0.1320468E+00
        -11   -1    0    0    0    0  0.00000000000E+00  0.00000000000E+00  0.45593999997E+02  0.45594000000E+02  0.51100000000E-03 0. -1.
         11   -1    0    0    0    0 -0.00000000000E+00 -0.00000000000E+00 -0.45593999997E+02  0.45594000000E+02  0.51100000000E-03 0.  1.
    9900012    2    1    2    0    0 -0.39628668968E+02  0.81625010620E+01 -0.19800396927E+02  0.46142317119E+02  0.99999941453E+01 0.  0.
         12    1    1    2    0    0  0.39628668968E+02 -0.81625010620E+01  0.19800396927E+02  0.45045682881E+02  0.00000000000E+00 0. -1.
         11    1    3    3    0    0 -0.60528298407E+01  0.30424076496E+01 -0.36965360547E+01  0.77173423179E+01  0.51100000000E-03 0. -1.
        -11    1    3    3    0    0 -0.27445883033E+00 -0.69901999381E+00 -0.13392706617E+01  0.15354487187E+01  0.51100000000E-03 0.  1.
         12    1    3    3    0    0 -0.33301380297E+02  0.58191134062E+01 -0.14764590211E+02  0.36889526082E+02  0.00000000000E+00 0. -1.
</event>
<event>
 7    1  0.4623443E-009  0.4614232E+02  0.7816164E-02  0.1320468E+00
        -11   -1    0    0    0    0  0.00000000000E+00  0.00000000000E+00  0.45593999997E+02  0.45594000000E+02  0.51100000000E-03 0. -1.
         11   -1    0    0    0    0 -0.00000000000E+00 -0.00000000000E+00 -0.45593999997E+02  0.45594000000E+02  0.51100000000E-03 0.  1.
    9900012    2    1    2    0    0 -0.41154689637E+02 -0.97567294806E+01  0.15498749594E+02  0.46142317762E+02  0.10000000009E+02 0.  0.
        -12    1    1    2    0    0  0.41154689637E+02  0.97567294806E+01 -0.15498749594E+02  0.45045682238E+02  0.00000000000E+00 0.  1.
         11    1    3    3    0    0 -0.11637222590E+02 -0.40548322131E+01  0.35220091170E+01  0.12816831214E+02  0.51100000000E-03 0. -1.
        -11    1    3    3    0    0 -0.20365570766E+02 -0.76130474486E+00  0.56362206424E+01  0.21144811206E+02  0.51100000000E-03 0.  1.
        -12    1    3    3    0    0 -0.91518962806E+01 -0.49405925227E+01  0.63405198349E+01  0.12180675342E+02  0.00000000000E+00 0.  1.
</event>
<event>
 7    1  0.4623443E-009  0.4614232E+02  0.7816164E-02  0.1320468E+00
        -11   -1    0    0    0    0  0.00000000000E+00  0.00000000000E+00  0.45593999997E+02  0.45594000000E+02  0.51100000000E-03 0. -1.
         11   -1    0    0    0    0 -0.00000000000E+00 -0.00000000000E+00 -0.45593999997E+02  0.45594000000E+02  0.51100000000E-03 0.  1.
    9900012    2    1    2    0    0  0.28284870436E+02 -0.41197436530E+01 -0.34815330448E+02  0.46142318547E+02  0.10000007167E+02 0.  0.
         12    1    1    2    0    0 -0.28284870436E+02  0.41197436530E+01  0.34815330448E+02  0.45045681453E+02  0.00000000000E+00 0. -1.
         11    1    3    3    0    0  0.20607060648E+01 -0.13342318627E+01 -0.37026383648E+01  0.44425460347E+01  0.51100000000E-03 0. -1.
        -11    1    3    3    0    0  0.53085204298E+01  0.23889110240E+01 -0.39759674323E+01  0.70495107858E+01  0.51100000000E-03 0.  1.
        -12    1    3    3    0    0  0.20915643941E+02 -0.51744228143E+01 -0.27136724651E+02  0.34650261727E+02  0.00000000000E+00 0.  1.
</event>
<event>
 7    1  0.4623443E-009  0.4614232E+02  0.7816164E-02  0.1320468E+00
        -11   -1    0    0    0    0  0.00000000000E+00  0.00000000000E+00  0.45593999997E+02  0.45594000000E+02  0.51100000000E-03 0. -1.
         11   -1    0    0    0    0 -0.00000000000E+00 -0.00000000000E+00 -0.45593999997E+02  0.45594000000E+02  0.51100000000E-03 0.  1.
    9900012    2    1    2    0    0 -0.28207174595E+02  0.21701968564E+02 -0.27613282015E+02  0.46142317833E+02  0.10000000660E+02 0.  0.
         12    1    1    2    0    0  0.28207174595E+02 -0.21701968564E+02  0.27613282015E+02  0.45045682167E+02  0.00000000000E+00 0. -1.
         11    1    3    3    0    0 -0.32201080430E+01  0.85180447588E+00 -0.54232772741E+01  0.63644798159E+01  0.51100000000E-03 0. -1.
        -11    1    3    3    0    0 -0.98828828536E+01  0.11230346942E+02 -0.11970867411E+02  0.19159690309E+02  0.51100000000E-03 0.  1.
        -12    1    3    3    0    0 -0.15104183699E+02  0.96198171466E+01 -0.10219137330E+02  0.20618147708E+02  0.00000000000E+00 0.  1.
</event>
<event>
 7    1  0.4623443E-009  0.4614232E+02  0.7816164E-02  0.1320468E+00
        -11   -1    0    0    0    0  0.00000000000E+00  0.00000000000E+00  0.45593999997E+02  0.45594000000E+02  0.51100000000E-03 0. -1.
         11   -1    0    0    0    0 -0.00000000000E+00 -0.00000000000E+00 -0.45593999997E+02  0.45594000000E+02  0.51100000000E-03 0.  1.
    9900012    2    1    2    0    0 -0.52211982962E+01 -0.63601335403E+01  0.44287709708E+02  0.46142318282E+02  0.10000004746E+02 0.  0.
        -12    1    1    2    0    0  0.52211982962E+01  0.63601335403E+01 -0.44287709708E+02  0.45045681718E+02  0.00000000000E+00 0.  1.
         11    1    3    3    0    0 -0.28509510927E+01 -0.38101905123E+00  0.18444573200E+02  0.18667495238E+02  0.51100000000E-03 0. -1.
        -11    1    3    3    0    0  0.14451219154E+01 -0.52431005848E+01  0.15413434604E+02  0.16344798795E+02  0.51100000000E-03 0.  1.
        -12    1    3    3    0    0 -0.38153691188E+01 -0.73601390425E+00  0.10429701904E+02  0.11130024249E+02  0.00000000000E+00 0.  1.
</event>
<event>
 7    1  0.4623443E-009  0.4614232E+02  0.7816164E-02  0.1320468E+00
        -11   -1    0    0    0    0  0.00000000000E+00  0.00000000000E+00  0.45593999997E+02  0.45594000000E+02  0.51100000000E-03 0. -1.
         11   -1    0    0    0    0 -0.00000000000E+00 -0.00000000000E+00 -0.45593999997E+02  0.45594000000E+02  0.51100000000E-03 0.  1.
    9900012    2    1    2    0    0 -0.13046927789E+02 -0.33727775763E+02  0.26857554278E+02  0.46142318693E+02  0.10000008494E+02 0.  0.
        -12    1    1    2    0    0  0.13046927789E+02  0.33727775763E+02 -0.26857554278E+02  0.45045681307E+02  0.00000000000E+00 0.  1.
         11    1    3    3    0    0 -0.41714862999E+01 -0.14751869695E+02  0.12273001162E+02  0.19637859233E+02  0.51100000000E-03 0. -1.
        -11    1    3    3    0    0 -0.26483478413E+01 -0.59817759588E+00  0.15120579942E+01  0.31077133658E+01  0.51100000000E-03 0.  1.
        -12    1    3    3    0    0 -0.62270936480E+01 -0.18377728472E+02  0.13072495121E+02  0.23396746094E+02  0.00000000000E+00 0.  1.
</event>
<event>
 7    1  0.4623443E-009  0.4614232E+02  0.7816164E-02  0.1320468E+00
        -11   -1    0    0    0    0  0.00000000000E+00  0.00000000000E+00  0.45593999997E+02  0.45594000000E+02  0.51100000000E-03 0. -1.
         11   -1    0    0    0    0 -0.00000000000E+00 -0.00000000000E+00 -0.45593999997E+02  0.45594000000E+02  0.51100000000E-03 0.  1.
    9900012    2    1    2    0    0 -0.29040498320E+02 -0.15990473017E+02  0.30497012315E+02  0.46142317298E+02  0.99999957730E+01 0.  0.
        -12    1    1    2    0    0  0.29040498320E+02  0.15990473017E+02 -0.30497012315E+02  0.45045682702E+02  0.00000000000E+00 0.  1.
         11    1    3    3    0    0 -0.92620700587E+01 -0.85076943794E+01  0.10153221114E+02  0.16163375411E+02  0.51100000000E-03 0. -1.
        -11    1    3    3    0    0  0.44159564242E+00 -0.33027147708E+00  0.73164098955E+00  0.91617943586E+00  0.51100000000E-03 0.  1.
        -12    1    3    3    0    0 -0.20220023904E+02 -0.71525071606E+01  0.19612150211E+02  0.29062762450E+02  0.00000000000E+00 0.  1.
</event>
<event>
 7    1  0.4623443E-009  0.4614232E+02  0.7816164E-02  0.1320468E+00
        -11   -1    0    0    0    0  0.00000000000E+00  0.00000000000E+00  0.45593999997E+02  0.45594000000E+02  0.51100000000E-03 0. -1.
         11   -1    0    0    0    0 -0.00000000000E+00 -0.00000000000E+00 -0.45593999997E+02  0.45594000000E+02  0.51100000000E-03 0.  1.
    9900012    2    1    2    0    0  0.21862218581E+02  0.35165441498E+02  0.17735518986E+02  0.46142317513E+02  0.99999977344E+01 0.  0.
        -12    1    1    2    0    0 -0.21862218581E+02 -0.35165441498E+02 -0.17735518986E+02  0.45045682487E+02  0.00000000000E+00 0.  1.
         11    1    3    3    0    0  0.18836371631E+01  0.54337372146E+01 -0.21621633425E+00  0.57550272670E+01  0.51100000000E-03 0. -1.
        -11    1    3    3    0    0  0.48482418261E+01  0.10942870092E+02  0.46574209168E+01  0.12843030192E+02  0.51100000000E-03 0.  1.
        -12    1    3    3    0    0  0.15130339592E+02  0.18788834191E+02  0.13294314404E+02  0.27544260054E+02  0.00000000000E+00 0.  1.
</event>
<event>
 7    1  0.4623443E-009  0.4614232E+02  0.7816164E-02  0.1320468E+00
        -11   -1    0    0    0    0  0.00000000000E+00  0.00000000000E+00  0.45593999997E+02  0.45594000000E+02  0.51100000000E-03 0. -1.
         11   -1    0    0    0    0 -0.00000000000E+00 -0.00000000000E+00 -0.45593999997E+02  0.45594000000E+02  0.51100000000E-03 0.  1.
    9900012    2    1    2    0    0 -0.17194902546E+02  0.29654829079E+02  0.29223961943E+02  0.46142317489E+02  0.99999975173E+01 0.  0.
        -12    1    1    2    0    0  0.17194902546E+02 -0.29654829079E+02 -0.29223961943E+02  0.45045682511E+02  0.00000000000E+00 0.  1.
         11    1    3    3    0    0 -0.30349452836E+01  0.38760572616E+01  0.14847076762E+01  0.51418936117E+01  0.51100000000E-03 0.  1.
        -11    1    3    3    0    0 -0.51359479392E+01  0.13154733041E+02  0.93397122659E+01  0.16930894485E+02  0.51100000000E-03 0. -1.
        -12    1    3    3    0    0 -0.90240093231E+01  0.12624038776E+02  0.18399542001E+02  0.24069529392E+02  0.00000000000E+00 0.  1.
</event>
<event>
 7    1  0.4623443E-009  0.4614232E+02  0.7816164E-02  0.1320468E+00
        -11   -1    0    0    0    0  0.00000000000E+00  0.00000000000E+00  0.45593999997E+02  0.45594000000E+02  0.51100000000E-03 0. -1.
         11   -1    0    0    0    0 -0.00000000000E+00 -0.00000000000E+00 -0.45593999997E+02  0.45594000000E+02  0.51100000000E-03 0.  1.
    9900012    2    1    2    0    0  0.62958667609E+01 -0.36490358268E+02  0.25650127773E+02  0.46142320523E+02  0.10000025188E+02 0.  0.
        -12    1    1    2    0    0 -0.62958667609E+01  0.36490358268E+02 -0.25650127773E+02  0.45045679477E+02  0.00000000000E+00 0.  1.
         11    1    3    3    0    0 -0.18468643379E+01 -0.65199157412E+01  0.34028129177E+01  0.75828322656E+01  0.51100000000E-03 0. -1.
        -11    1    3    3    0    0  0.41154766125E+01 -0.12281590260E+02  0.62931085277E+01  0.14400618815E+02  0.51100000000E-03 0.  1.
        -12    1    3    3    0    0  0.40272544863E+01 -0.17688852266E+02  0.15954206327E+02  0.24158869442E+02  0.00000000000E+00 0.  1.
</event>
<event>
 7    1  0.4623443E-009  0.4614232E+02  0.7816164E-02  0.1320468E+00
        -11   -1    0    0    0    0  0.00000000000E+00  0.00000000000E+00  0.45593999997E+02  0.45594000000E+02  0.51100000000E-03 0. -1.
         11   -1    0    0    0    0 -0.00000000000E+00 -0.00000000000E+00 -0.45593999997E+02  0.45594000000E+02  0.51100000000E-03 0.  1.
    9900012    2    1    2    0    0 -0.11999117677E+02  0.25326958164E+02  0.35265845636E+02  0.46142317596E+02  0.99999984916E+01 0.  0.
        -12    1    1    2    0    0  0.11999117677E+02 -0.25326958164E+02 -0.35265845636E+02  0.45045682404E+02  0.00000000000E+00 0.  1.
         11    1    3    3    0    0  0.65921759033E+00  0.36701253241E+01  0.44663512621E+01  0.58183057314E+01  0.51100000000E-03 0. -1.
        -11    1    3    3    0    0 -0.21222138077E+00  0.71479377823E+00  0.41548129034E+01  0.42211892381E+01  0.51100000000E-03 0.  1.
         12    1    3    3    0    0 -0.12446113886E+02  0.20942039062E+02  0.26644681470E+02  0.36102822626E+02  0.00000000000E+00 0. -1.
</event>
<event>
 7    1  0.4623443E-009  0.4614232E+02  0.7816164E-02  0.1320468E+00
        -11   -1    0    0    0    0  0.00000000000E+00  0.00000000000E+00  0.45593999997E+02  0.45594000000E+02  0.51100000000E-03 0.  1.
         11   -1    0    0    0    0 -0.00000000000E+00 -0.00000000000E+00 -0.45593999997E+02  0.45594000000E+02  0.51100000000E-03 0. -1.
    9900012    2    1    2    0    0  0.11332842380E+02 -0.41814444147E+02  0.12338252990E+02  0.46142317159E+02  0.99999945115E+01 0.  0.
        -12    1    1    2    0    0 -0.11332842380E+02  0.41814444147E+02 -0.12338252990E+02  0.45045682841E+02  0.00000000000E+00 0.  1.
         11    1    3    3    0    0  0.99736977020E+00 -0.38807517418E+01  0.36500884450E+01  0.54201592650E+01  0.51100000000E-03 0. -1.
        -11    1    3    3    0    0  0.73543062925E+00 -0.12124115138E+00 -0.37019308971E-01  0.74627630110E+00  0.51100000000E-03 0.  1.
         12    1    3    3    0    0  0.96000419810E+01 -0.37812451254E+02  0.87251838540E+01  0.39975881593E+02  0.00000000000E+00 0. -1.
</event>
<event>
 7    1  0.4623443E-009  0.4614232E+02  0.7816164E-02  0.1320468E+00
        -11   -1    0    0    0    0  0.00000000000E+00  0.00000000000E+00  0.45593999997E+02  0.45594000000E+02  0.51100000000E-03 0. -1.
         11   -1    0    0    0    0 -0.00000000000E+00 -0.00000000000E+00 -0.45593999997E+02  0.45594000000E+02  0.51100000000E-03 0.  1.
    9900012    2    1    2    0    0 -0.87815316305E+01 -0.78331863952E+01  0.43481482995E+02  0.46142317961E+02  0.10000001822E+02 0.  0.
        -12    1    1    2    0    0  0.87815316305E+01  0.78331863952E+01 -0.43481482995E+02  0.45045682039E+02  0.00000000000E+00 0.  1.
         11    1    3    3    0    0 -0.32352557579E+01 -0.34779602613E+01  0.24045190752E+02  0.24509881394E+02  0.51100000000E-03 0.  1.
        -11    1    3    3    0    0 -0.31666167843E+01 -0.41140009021E+01  0.18227625451E+02  0.18952540598E+02  0.51100000000E-03 0. -1.
        -12    1    3    3    0    0 -0.23796590884E+01 -0.24122523173E+00  0.12086667932E+01  0.26798959693E+01  0.00000000000E+00 0.  1.
</event>
<event>
 7    1  0.7189093E-009  0.4614232E+02  0.7816164E-02  0.1320468E+00
        -11   -1    0    0    0    0  0.00000000000E+00  0.00000000000E+00  0.45593999997E+02  0.45594000000E+02  0.51100000000E-03 0. -1.
         11   -1    0    0    0    0 -0.00000000000E+00 -0.00000000000E+00 -0.45593999997E+02  0.45594000000E+02  0.51100000000E-03 0.  1.
    9900012    2    1    2    0    0 -0.14673614971E+02  0.57596614023E+01 -0.42197451424E+02  0.46142316717E+02  0.99999904793E+01 0.  0.
         12    1    1    2    0    0  0.14673614971E+02 -0.57596614023E+01  0.42197451424E+02  0.45045683283E+02  0.00000000000E+00 0. -1.
         11    1    3    3    0    0 -0.10669268242E+02  0.37373961894E+01 -0.30325898623E+02  0.32364510543E+02  0.51100000000E-03 0. -1.
        -11    1    3    3    0    0 -0.34653075605E+01  0.15399343286E+01 -0.12344348959E+02  0.12913663527E+02  0.51100000000E-03 0.  1.
         12    1    3    3    0    0 -0.53903916843E+00  0.48233088427E+00  0.47279615831E+00  0.86414264698E+00  0.00000000000E+00 0. -1.
</event>
<event>
 7    1  0.4623443E-009  0.4614232E+02  0.7816164E-02  0.1320468E+00
        -11   -1    0    0    0    0  0.00000000000E+00  0.00000000000E+00  0.45593999997E+02  0.45594000000E+02  0.51100000000E-03 0. -1.
         11   -1    0    0    0    0 -0.00000000000E+00 -0.00000000000E+00 -0.45593999997E+02  0.45594000000E+02  0.51100000000E-03 0.  1.
    9900012    2    1    2    0    0  0.91426245715E+01 -0.13386320144E+02 -0.42027757707E+02  0.46142316867E+02  0.99999918506E+01 0.  0.
         12    1    1    2    0    0 -0.91426245715E+01  0.13386320144E+02  0.42027757707E+02  0.45045683133E+02  0.00000000000E+00 0. -1.
         11    1    3    3    0    0  0.47058856272E+01 -0.56004163542E+01 -0.10328235372E+02  0.12656321307E+02  0.51100000000E-03 0. -1.
        -11    1    3    3    0    0  0.33189910470E+01 -0.60105134561E+01 -0.13304228627E+02  0.14971455280E+02  0.51100000000E-03 0.  1.
        -12    1    3    3    0    0  0.11177478974E+01 -0.17753903333E+01 -0.18395293708E+02  0.18514540280E+02  0.00000000000E+00 0.  1.
</event>
<event>
 7    1  0.4623443E-009  0.4614232E+02  0.7816164E-02  0.1320468E+00
        -11   -1    0    0    0    0  0.00000000000E+00  0.00000000000E+00  0.45593999997E+02  0.45594000000E+02  0.51100000000E-03 0. -1.
         11   -1    0    0    0    0 -0.00000000000E+00 -0.00000000000E+00 -0.45593999997E+02  0.45594000000E+02  0.51100000000E-03 0.  1.
    9900012    2    1    2    0    0  0.26340488978E+02  0.24461837929E+02  0.27146095667E+02  0.46142318914E+02  0.10000010517E+02 0.  0.
        -12    1    1    2    0    0 -0.26340488978E+02 -0.24461837929E+02 -0.27146095667E+02  0.45045681086E+02  0.00000000000E+00 0.  1.
         11    1    3    3    0    0  0.78391156494E+01  0.61202812881E+01  0.66216262824E+01  0.11948033817E+02  0.51100000000E-03 0. -1.
        -11    1    3    3    0    0  0.11109526062E+02  0.14195909400E+02  0.17693978785E+02  0.25259103280E+02  0.51100000000E-03 0.  1.
        -12    1    3    3    0    0  0.73918472672E+01  0.41456472413E+01  0.28304905997E+01  0.89351818171E+01  0.00000000000E+00 0.  1.
</event>
<event>
 7    1  0.4623443E-009  0.4614232E+02  0.7816164E-02  0.1320468E+00
        -11   -1    0    0    0    0  0.00000000000E+00  0.00000000000E+00  0.45593999997E+02  0.45594000000E+02  0.51100000000E-03 0. -1.
         11   -1    0    0    0    0 -0.00000000000E+00 -0.00000000000E+00 -0.45593999997E+02  0.45594000000E+02  0.51100000000E-03 0.  1.
    9900012    2    1    2    0    0 -0.34621127606E+02 -0.27724358134E+02 -0.78645392105E+01  0.46142317769E+02  0.10000000071E+02 0.  0.
         12    1    1    2    0    0  0.34621127606E+02  0.27724358134E+02  0.78645392105E+01  0.45045682231E+02  0.00000000000E+00 0. -1.
         11    1    3    3    0    0 -0.28162059371E+01 -0.18072738374E+01  0.75450208903E+00  0.34302373485E+01  0.51100000000E-03 0. -1.
        -11    1    3    3    0    0 -0.10042334015E+02 -0.48417196489E+01 -0.49420118324E+01  0.12194843289E+02  0.51100000000E-03 0.  1.
         12    1    3    3    0    0 -0.21762587654E+02 -0.21075364648E+02 -0.36770294672E+01  0.30517237132E+02  0.00000000000E+00 0. -1.
</event>
<event>
 7    1  0.4623443E-009  0.4614232E+02  0.7816164E-02  0.1320468E+00
        -11   -1    0    0    0    0  0.00000000000E+00  0.00000000000E+00  0.45593999997E+02  0.45594000000E+02  0.51100000000E-03 0. -1.
         11   -1    0    0    0    0 -0.00000000000E+00 -0.00000000000E+00 -0.45593999997E+02  0.45594000000E+02  0.51100000000E-03 0.  1.
    9900012    2    1    2    0    0 -0.23372401319E+02 -0.18317118436E+02 -0.33872223972E+02  0.46142317321E+02  0.99999959845E+01 0.  0.
         12    1    1    2    0    0  0.23372401319E+02  0.18317118436E+02  0.33872223972E+02  0.45045682679E+02  0.00000000000E+00 0. -1.
         11    1    3    3    0    0 -0.41114321369E+00  0.30695746698E+00 -0.30878713384E+01  0.31302094647E+01  0.51100000000E-03 0. -1.
        -11    1    3    3    0    0 -0.54911785136E+01 -0.73518615798E+01 -0.10828925772E+02  0.14193961525E+02  0.51100000000E-03 0.  1.
        -12    1    3    3    0    0 -0.17470079591E+02 -0.11272214324E+02 -0.19955426862E+02  0.28818146331E+02  0.00000000000E+00 0.  1.
</event>
<event>
 7    1  0.4623443E-009  0.4614232E+02  0.7816164E-02  0.1320468E+00
        -11   -1    0    0    0    0  0.00000000000E+00  0.00000000000E+00  0.45593999997E+02  0.45594000000E+02  0.51100000000E-03 0. -1.
         11   -1    0    0    0    0 -0.00000000000E+00 -0.00000000000E+00 -0.45593999997E+02  0.45594000000E+02  0.51100000000E-03 0.  1.
    9900012    2    1    2    0    0  0.23669887581E+02 -0.30800011529E+02 -0.22808095931E+02  0.46142317318E+02  0.99999959599E+01 0.  0.
        -12    1    1    2    0    0 -0.23669887581E+02  0.30800011529E+02  0.22808095931E+02  0.45045682682E+02  0.00000000000E+00 0.  1.
         11    1    3    3    0    0  0.69707112765E+01 -0.84733005710E+01 -0.47963156679E+01  0.11974651666E+02  0.51100000000E-03 0.  1.
        -11    1    3    3    0    0  0.42228077144E+01 -0.11786633678E+02 -0.59389461007E+01  0.13857413882E+02  0.51100000000E-03 0. -1.
         12    1    3    3    0    0  0.12476368590E+02 -0.10540077280E+02 -0.12072834162E+02  0.20310251771E+02  0.00000000000E+00 0. -1.
</event>
<event>
 7    1  0.5656352E-009  0.4614232E+02  0.7816164E-02  0.1320468E+00
        -11   -1    0    0    0    0  0.00000000000E+00  0.00000000000E+00  0.45593999997E+02  0.45594000000E+02  0.51100000000E-03 0. -1.
         11   -1    0    0    0    0 -0.00000000000E+00 -0.00000000000E+00 -0.45593999997E+02  0.45594000000E+02  0.51100000000E-03 0.  1.
    9900012    2    1    2    0    0  0.56175819793E+01 -0.21342115889E+02 -0.39269202454E+02  0.46142318750E+02  0.10000009017E+02 0.  0.
         12    1    1    2    0    0 -0.56175819793E+01  0.21342115889E+02  0.39269202454E+02  0.45045681250E+02  0.00000000000E+00 0. -1.
         11    1    3    3    0    0  0.37465947985E+01 -0.79010819984E+01 -0.17973444147E+02  0.19987715329E+02  0.51100000000E-03 0. -1.
        -11    1    3    3    0    0  0.36802749448E+01 -0.11401237812E+02 -0.19511496474E+02  0.22896094476E+02  0.51100000000E-03 0.  1.
         12    1    3    3    0    0 -0.18092877640E+01 -0.20397960785E+01 -0.17842618330E+01  0.32585089449E+01  0.00000000000E+00 0. -1.
</event>
<event>
 7    1  0.5045611E-009  0.4614232E+02  0.7816164E-02  0.1320468E+00
        -11   -1    0    0    0    0  0.00000000000E+00  0.00000000000E+00  0.45593999997E+02  0.45594000000E+02  0.51100000000E-03 0. -1.
         11   -1    0    0    0    0 -0.00000000000E+00 -0.00000000000E+00 -0.45593999997E+02  0.45594000000E+02  0.51100000000E-03 0.  1.
    9900012    2    1    2    0    0  0.37596802623E+02  0.51519754389E+01 -0.24270376043E+02  0.46142316836E+02  0.99999915654E+01 0.  0.
         12    1    1    2    0    0 -0.37596802623E+02 -0.51519754389E+01  0.24270376043E+02  0.45045683164E+02  0.00000000000E+00 0. -1.
         11    1    3    3    0    0  0.24085761207E+02  0.37546471281E+01 -0.14952800691E+02  0.28597334085E+02  0.51100000000E-03 0. -1.
        -11    1    3    3    0    0  0.12126693492E+02  0.30202397857E+01 -0.89714846857E+01  0.15383955316E+02  0.51100000000E-03 0.  1.
         12    1    3    3    0    0  0.13843479236E+01 -0.16229114748E+01 -0.34609066630E+00  0.21610274357E+01  0.00000000000E+00 0. -1.
</event>
<event>
 7    1  0.4623443E-009  0.4614232E+02  0.7816164E-02  0.1320468E+00
        -11   -1    0    0    0    0  0.00000000000E+00  0.00000000000E+00  0.45593999997E+02  0.45594000000E+02  0.51100000000E-03 0. -1.
         11   -1    0    0    0    0 -0.00000000000E+00 -0.00000000000E+00 -0.45593999997E+02  0.45594000000E+02  0.51100000000E-03 0.  1.
    9900012    2    1    2    0    0  0.23046096675E+02  0.20333561029E+02 -0.32932312597E+02  0.46142317754E+02  0.99999999320E+01 0.  0.
         12    1    1    2    0    0 -0.23046096675E+02 -0.20333561029E+02  0.32932312597E+02  0.45045682246E+02  0.00000000000E+00 0. -1.
         11    1    3    3    0    0  0.18202537232E+01  0.63079347337E+00  0.31573767960E+00  0.19521563888E+01  0.51100000000E-03 0. -1.
        -11    1    3    3    0    0  0.29763107066E+01  0.21514945899E+01 -0.56325944056E+01  0.67240965483E+01  0.51100000000E-03 0.  1.
        -12    1    3    3    0    0  0.18249532245E+02  0.17551272966E+02 -0.27615455871E+02  0.37466064816E+02  0.00000000000E+00 0.  1.
</event>
<event>
 7    1  0.4623443E-009  0.4614232E+02  0.7816164E-02  0.1320468E+00
        -11   -1    0    0    0    0  0.00000000000E+00  0.00000000000E+00  0.45593999997E+02  0.45594000000E+02  0.51100000000E-03 0. -1.
         11   -1    0    0    0    0 -0.00000000000E+00 -0.00000000000E+00 -0.45593999997E+02  0.45594000000E+02  0.51100000000E-03 0.  1.
    9900012    2    1    2    0    0 -0.20033796563E+02  0.33310804766E+02 -0.22762925297E+02  0.46142317777E+02  0.10000000144E+02 0.  0.
         12    1    1    2    0    0  0.20033796563E+02 -0.33310804766E+02  0.22762925297E+02  0.45045682223E+02  0.00000000000E+00 0. -1.
         11    1    3    3    0    0 -0.17985722996E+02  0.31491143913E+02 -0.17710091885E+02  0.40358713204E+02  0.51100000000E-03 0.  1.
        -11    1    3    3    0    0 -0.17355059114E+00  0.31642139853E+00 -0.11007257707E+01  0.11583780871E+01  0.51100000000E-03 0. -1.
         12    1    3    3    0    0 -0.18745229752E+01  0.15032394551E+01 -0.39521076407E+01  0.46252264861E+01  0.00000000000E+00 0. -1.
</event>
<event>
 7    1  0.4623443E-009  0.4614232E+02  0.7816164E-02  0.1320468E+00
        -11   -1    0    0    0    0  0.00000000000E+00  0.00000000000E+00  0.45593999997E+02  0.45594000000E+02  0.51100000000E-03 0. -1.
         11   -1    0    0    0    0 -0.00000000000E+00 -0.00000000000E+00 -0.45593999997E+02  0.45594000000E+02  0.51100000000E-03 0.  1.
    9900012    2    1    2    0    0 -0.15683914273E+02  0.10434227359E+02 -0.40917664085E+02  0.46142317613E+02  0.99999986510E+01 0.  0.
         12    1    1    2    0    0  0.15683914273E+02 -0.10434227359E+02  0.40917664085E+02  0.45045682387E+02  0.00000000000E+00 0. -1.
         11    1    3    3    0    0 -0.15764968141E+01  0.26466563248E+01 -0.27801499051E+01  0.41496223517E+01  0.51100000000E-03 0. -1.
        -11    1    3    3    0    0 -0.91258926337E+01  0.10371227408E+01 -0.20236269296E+02  0.22223054138E+02  0.51100000000E-03 0.  1.
         12    1    3    3    0    0 -0.49815248256E+01  0.67504482934E+01 -0.17901244884E+02  0.19769641123E+02  0.00000000000E+00 0. -1.
</event>
<event>
 7    1  0.4623443E-009  0.4614232E+02  0.7816164E-02  0.1320468E+00
        -11   -1    0    0    0    0  0.00000000000E+00  0.00000000000E+00  0.45593999997E+02  0.45594000000E+02  0.51100000000E-03 0. -1.
         11   -1    0    0    0    0 -0.00000000000E+00 -0.00000000000E+00 -0.45593999997E+02  0.45594000000E+02  0.51100000000E-03 0.  1.
    9900012    2    1    2    0    0  0.16757028822E+02 -0.59984215244E+01  0.41380363327E+02  0.46142317135E+02  0.99999942911E+01 0.  0.
        -12    1    1    2    0    0 -0.16757028822E+02  0.59984215244E+01 -0.41380363327E+02  0.45045682865E+02  0.00000000000E+00 0.  1.
         11    1    3    3    0    0  0.59709732349E+01 -0.39539025852E+01  0.16469038081E+02  0.17958704925E+02  0.51100000000E-03 0. -1.
        -11    1    3    3    0    0  0.84028970099E+01 -0.35524359679E+01  0.12615604838E+02  0.15568621171E+02  0.51100000000E-03 0.  1.
        -12    1    3    3    0    0  0.23831585770E+01  0.15079170286E+01  0.12295720408E+02  0.12614991039E+02  0.00000000000E+00 0.  1.
</event>
<event>
 7    1  0.4623443E-009  0.4614232E+02  0.7816164E-02  0.1320468E+00
        -11   -1    0    0    0    0  0.00000000000E+00  0.00000000000E+00  0.45593999997E+02  0.45594000000E+02  0.51100000000E-03 0. -1.
         11   -1    0    0    0    0 -0.00000000000E+00 -0.00000000000E+00 -0.45593999997E+02  0.45594000000E+02  0.51100000000E-03 0.  1.
    9900012    2    1    2    0    0  0.22206783735E+02  0.31010252694E+02 -0.23965318880E+02  0.46142317355E+02  0.99999962928E+01 0.  0.
         12    1    1    2    0    0 -0.22206783735E+02 -0.31010252694E+02  0.23965318880E+02  0.45045682645E+02  0.00000000000E+00 0. -1.
         11    1    3    3    0    0  0.22324245303E+02  0.28312117164E+02 -0.20965021629E+02  0.41707074206E+02  0.51100000000E-03 0. -1.
        -11    1    3    3    0    0  0.73195279133E+00  0.61609780781E+00 -0.52591933199E+00  0.10917521708E+01  0.51100000000E-03 0.  1.
         12    1    3    3    0    0 -0.84941435998E+00  0.20820377218E+01 -0.24743779194E+01  0.33434909777E+01  0.00000000000E+00 0. -1.
</event>
<event>
 7    1  0.5564529E-009  0.4614231E+02  0.7816164E-02  0.1320468E+00
        -11   -1    0    0    0    0  0.00000000000E+00  0.00000000000E+00  0.45593999997E+02  0.45594000000E+02  0.51100000000E-03 0. -1.
         11   -1    0    0    0    0 -0.00000000000E+00 -0.00000000000E+00 -0.45593999997E+02  0.45594000000E+02  0.51100000000E-03 0.  1.
    9900012    2    1    2    0    0 -0.80504698785E+01 -0.68051104444E+01 -0.43794910715E+02  0.46142314325E+02  0.99999686656E+01 0.  0.
         12    1    1    2    0    0  0.80504698785E+01  0.68051104444E+01  0.43794910715E+02  0.45045685675E+02  0.00000000000E+00 0. -1.
         11    1    3    3    0    0 -0.45085975550E+01 -0.18163366657E+01 -0.21401886219E+02  0.21946919255E+02  0.51100000000E-03 0. -1.
        -11    1    3    3    0    0 -0.19436587443E+01 -0.60718141623E+01 -0.20587645810E+02  0.21552166870E+02  0.51100000000E-03 0.  1.
         12    1    3    3    0    0 -0.15982135792E+01  0.10830403837E+01 -0.18053786862E+01  0.26432282001E+01  0.00000000000E+00 0. -1.
</event>
<event>
 7    1  0.4623443E-009  0.4614231E+02  0.7816164E-02  0.1320468E+00
        -11   -1    0    0    0    0  0.00000000000E+00  0.00000000000E+00  0.45593999997E+02  0.45594000000E+02  0.51100000000E-03 0. -1.
         11   -1    0    0    0    0 -0.00000000000E+00 -0.00000000000E+00 -0.45593999997E+02  0.45594000000E+02  0.51100000000E-03 0.  1.
    9900012    2    1    2    0    0  0.23014234375E+02  0.50802566257E+01 -0.38388145906E+02  0.46142314997E+02  0.99999747942E+01 0.  0.
         12    1    1    2    0    0 -0.23014234375E+02 -0.50802566257E+01  0.38388145906E+02  0.45045685003E+02  0.00000000000E+00 0. -1.
         11    1    3    3    0    0  0.74846046092E+00  0.15021416500E+01 -0.38620014534E+01  0.42108999140E+01  0.51100000000E-03 0. -1.
        -11    1    3    3    0    0  0.17159990088E+02  0.57038276351E+01 -0.28493326527E+02  0.33747126786E+02  0.51100000000E-03 0.  1.
         12    1    3    3    0    0  0.51057838262E+01 -0.21257126594E+01 -0.60328179262E+01  0.81842882966E+01  0.00000000000E+00 0. -1.
</event>
<event>
 7    1  0.4623443E-009  0.4614232E+02  0.7816164E-02  0.1320468E+00
        -11   -1    0    0    0    0  0.00000000000E+00  0.00000000000E+00  0.45593999997E+02  0.45594000000E+02  0.51100000000E-03 0. -1.
         11   -1    0    0    0    0 -0.00000000000E+00 -0.00000000000E+00 -0.45593999997E+02  0.45594000000E+02  0.51100000000E-03 0.  1.
    9900012    2    1    2    0    0 -0.41440483956E+02  0.17368267544E+01 -0.17572227513E+02  0.46142318105E+02  0.10000003133E+02 0.  0.
         12    1    1    2    0    0  0.41440483956E+02 -0.17368267544E+01  0.17572227513E+02  0.45045681895E+02  0.00000000000E+00 0. -1.
         11    1    3    3    0    0 -0.13903031383E+02  0.41032318925E-01 -0.10432151759E+02  0.17381765039E+02  0.51100000000E-03 0. -1.
        -11    1    3    3    0    0 -0.99217610050E+01 -0.41554429377E+00 -0.41764427834E+01  0.10772961203E+02  0.51100000000E-03 0.  1.
         12    1    3    3    0    0 -0.17615691567E+02  0.21113387292E+01 -0.29636329707E+01  0.17987591862E+02  0.00000000000E+00 0. -1.
</event>
<event>
 7    1  0.4623443E-009  0.4614232E+02  0.7816164E-02  0.1320468E+00
        -11   -1    0    0    0    0  0.00000000000E+00  0.00000000000E+00  0.45593999997E+02  0.45594000000E+02  0.51100000000E-03 0.  1.
         11   -1    0    0    0    0 -0.00000000000E+00 -0.00000000000E+00 -0.45593999997E+02  0.45594000000E+02  0.51100000000E-03 0. -1.
    9900012    2    1    2    0    0 -0.30830998579E+02  0.32835952802E+02 -0.60268630087E+00  0.46142317625E+02  0.99999987632E+01 0.  0.
         12    1    1    2    0    0  0.30830998579E+02 -0.32835952802E+02  0.60268630087E+00  0.45045682375E+02  0.00000000000E+00 0. -1.
         11    1    3    3    0    0 -0.59658408002E+00  0.33503818248E+00 -0.11749214716E+01  0.13596337278E+01  0.51100000000E-03 0. -1.
        -11    1    3    3    0    0 -0.97925243516E+01  0.83369696032E+01 -0.20518383200E+01  0.13023388042E+02  0.51100000000E-03 0.  1.
        -12    1    3    3    0    0 -0.20441890147E+02  0.24163945017E+02  0.26240734907E+01  0.31759295856E+02  0.00000000000E+00 0.  1.
</event>
<event>
 7    1  0.4623443E-009  0.4614232E+02  0.7816164E-02  0.1320468E+00
        -11   -1    0    0    0    0  0.00000000000E+00  0.00000000000E+00  0.45593999997E+02  0.45594000000E+02  0.51100000000E-03 0. -1.
         11   -1    0    0    0    0 -0.00000000000E+00 -0.00000000000E+00 -0.45593999997E+02  0.45594000000E+02  0.51100000000E-03 0.  1.
    9900012    2    1    2    0    0 -0.28338420601E+02  0.97343951290E+01  0.33634640786E+02  0.46142316616E+02  0.99999895572E+01 0.  0.
        -12    1    1    2    0    0  0.28338420601E+02 -0.97343951290E+01 -0.33634640786E+02  0.45045683384E+02  0.00000000000E+00 0.  1.
         11    1    3    3    0    0 -0.10106121107E+02  0.46695775372E+01  0.15258027510E+02  0.18887721990E+02  0.51100000000E-03 0. -1.
        -11    1    3    3    0    0 -0.72046162825E+01  0.52408560473E+01  0.10083243432E+02  0.13455291385E+02  0.51100000000E-03 0.  1.
        -12    1    3    3    0    0 -0.11027683212E+02 -0.17603845547E+00  0.82933698438E+01  0.13799303241E+02  0.00000000000E+00 0.  1.
</event>
<event>
 7    1  0.4623443E-009  0.4614232E+02  0.7816164E-02  0.1320468E+00
        -11   -1    0    0    0    0  0.00000000000E+00  0.00000000000E+00  0.45593999997E+02  0.45594000000E+02  0.51100000000E-03 0. -1.
         11   -1    0    0    0    0 -0.00000000000E+00 -0.00000000000E+00 -0.45593999997E+02  0.45594000000E+02  0.51100000000E-03 0.  1.
    9900012    2    1    2    0    0 -0.37328618516E+01  0.18593689879E+02  0.40858949020E+02  0.46142320119E+02  0.10000021500E+02 0.  0.
        -12    1    1    2    0    0  0.37328618516E+01 -0.18593689879E+02 -0.40858949020E+02  0.45045679881E+02  0.00000000000E+00 0.  1.
         11    1    3    3    0    0 -0.13036503345E+01  0.11227991862E+02  0.23618376283E+02  0.26183869155E+02  0.51100000000E-03 0. -1.
        -11    1    3    3    0    0 -0.15663007063E+01  0.45488631229E+01  0.36143436343E+01  0.60173859592E+01  0.51100000000E-03 0.  1.
         12    1    3    3    0    0 -0.86291081078E+00  0.28168348946E+01  0.13626229103E+02  0.13941065004E+02  0.00000000000E+00 0. -1.
</event>
<event>
 7    1  0.4623443E-009  0.4614232E+02  0.7816164E-02  0.1320468E+00
        -11   -1    0    0    0    0  0.00000000000E+00  0.00000000000E+00  0.45593999997E+02  0.45594000000E+02  0.51100000000E-03 0. -1.
         11   -1    0    0    0    0 -0.00000000000E+00 -0.00000000000E+00 -0.45593999997E+02  0.45594000000E+02  0.51100000000E-03 0.  1.
    9900012    2    1    2    0    0 -0.19197991057E+02 -0.29873385975E+02 -0.27715183710E+02  0.46142318095E+02  0.10000003042E+02 0.  0.
         12    1    1    2    0    0  0.19197991057E+02  0.29873385975E+02  0.27715183710E+02  0.45045681905E+02  0.00000000000E+00 0. -1.
         11    1    3    3    0    0 -0.38757739623E+01 -0.83934302068E+01 -0.26237332061E+01  0.96101649643E+01  0.51100000000E-03 0. -1.
        -11    1    3    3    0    0 -0.26432649785E+01 -0.55987392445E+01 -0.67189524818E+01  0.91365777832E+01  0.51100000000E-03 0.  1.
         12    1    3    3    0    0 -0.12678952116E+02 -0.15881216524E+02 -0.18372498022E+02  0.27395575347E+02  0.00000000000E+00 0. -1.
</event>
<event>
 7    1  0.4623443E-009  0.4614232E+02  0.7816164E-02  0.1320468E+00
        -11   -1    0    0    0    0  0.00000000000E+00  0.00000000000E+00  0.45593999997E+02  0.45594000000E+02  0.51100000000E-03 0. -1.
         11   -1    0    0    0    0 -0.00000000000E+00 -0.00000000000E+00 -0.45593999997E+02  0.45594000000E+02  0.51100000000E-03 0.  1.
    9900012    2    1    2    0    0  0.38438803320E+01  0.14199681470E+02 -0.42575897375E+02  0.46142318663E+02  0.10000008221E+02 0.  0.
         12    1    1    2    0    0 -0.38438803320E+01 -0.14199681470E+02  0.42575897375E+02  0.45045681337E+02  0.00000000000E+00 0. -1.
         11    1    3    3    0    0  0.25937811988E+00  0.53094615937E+00 -0.55176586503E+01  0.55492105813E+01  0.51100000000E-03 0. -1.
        -11    1    3    3    0    0  0.43129483873E+01  0.14574223496E+02 -0.32335031065E+02  0.35729032292E+02  0.51100000000E-03 0.  1.
        -12    1    3    3    0    0 -0.72844617520E+00 -0.90548818575E+00 -0.47232076597E+01  0.48640757890E+01  0.00000000000E+00 0.  1.
</event>
<event>
 7    1  0.4623443E-009  0.4614231E+02  0.7816164E-02  0.1320468E+00
        -11   -1    0    0    0    0  0.00000000000E+00  0.00000000000E+00  0.45593999997E+02  0.45594000000E+02  0.51100000000E-03 0. -1.
         11   -1    0    0    0    0 -0.00000000000E+00 -0.00000000000E+00 -0.45593999997E+02  0.45594000000E+02  0.51100000000E-03 0.  1.
    9900012    2    1    2    0    0  0.14129994225E+02 -0.42221582712E+02 -0.68407436409E+01  0.46142305899E+02  0.99998918318E+01 0.  0.
         12    1    1    2    0    0 -0.14129994225E+02  0.42221582712E+02  0.68407436409E+01  0.45045694101E+02  0.00000000000E+00 0. -1.
         11    1    3    3    0    0  0.77817255525E+01 -0.24858847831E+02  0.81614815313E+00  0.26061152433E+02  0.51100000000E-03 0. -1.
        -11    1    3    3    0    0  0.55893748603E+00 -0.76979815431E+00 -0.11847826779E+00  0.95866452565E+00  0.51100000000E-03 0.  1.
         12    1    3    3    0    0  0.57893311867E+01 -0.16592936726E+02 -0.75384135262E+01  0.19122488941E+02  0.00000000000E+00 0. -1.
</event>
<event>
 7    1  0.4623443E-009  0.4614232E+02  0.7816164E-02  0.1320468E+00
        -11   -1    0    0    0    0  0.00000000000E+00  0.00000000000E+00  0.45593999997E+02  0.45594000000E+02  0.51100000000E-03 0. -1.
         11   -1    0    0    0    0 -0.00000000000E+00 -0.00000000000E+00 -0.45593999997E+02  0.45594000000E+02  0.51100000000E-03 0.  1.
    9900012    2    1    2    0    0  0.19506782688E+02 -0.41643431484E+01  0.40388824781E+02  0.46142317722E+02  0.99999996452E+01 0.  0.
        -12    1    1    2    0    0 -0.19506782688E+02  0.41643431484E+01 -0.40388824781E+02  0.45045682278E+02  0.00000000000E+00 0.  1.
         11    1    3    3    0    0  0.13610559883E+02 -0.31788599459E+01  0.19659615746E+02  0.24121628933E+02  0.51100000000E-03 0. -1.
        -11    1    3    3    0    0  0.41994737062E+01 -0.11589601722E+01  0.74333884864E+01  0.86159174057E+01  0.51100000000E-03 0.  1.
        -12    1    3    3    0    0  0.16967490988E+01  0.17347696976E+00  0.13295820549E+02  0.13404771383E+02  0.00000000000E+00 0.  1.
</event>
<event>
 7    1  0.4623443E-009  0.4614232E+02  0.7816164E-02  0.1320468E+00
        -11   -1    0    0    0    0  0.00000000000E+00  0.00000000000E+00  0.45593999997E+02  0.45594000000E+02  0.51100000000E-03 0. -1.
         11   -1    0    0    0    0 -0.00000000000E+00 -0.00000000000E+00 -0.45593999997E+02  0.45594000000E+02  0.51100000000E-03 0.  1.
    9900012    2    1    2    0    0 -0.18228012286E+02  0.12372756979E+02 -0.39290812805E+02  0.46142317432E+02  0.99999969975E+01 0.  0.
         12    1    1    2    0    0  0.18228012286E+02 -0.12372756979E+02  0.39290812805E+02  0.45045682568E+02  0.00000000000E+00 0. -1.
         11    1    3    3    0    0  0.85198669890E-01  0.19966110206E+00 -0.14118707984E+00  0.25895447797E+00  0.51100000000E-03 0. -1.
        -11    1    3    3    0    0 -0.15824776554E+02  0.13736881720E+02 -0.33480883314E+02  0.39498038181E+02  0.51100000000E-03 0.  1.
        -12    1    3    3    0    0 -0.24884344013E+01 -0.15637858432E+01 -0.56687424111E+01  0.63853247729E+01  0.00000000000E+00 0.  1.
</event>
<event>
 7    1  0.4623443E-009  0.4614232E+02  0.7816164E-02  0.1320468E+00
        -11   -1    0    0    0    0  0.00000000000E+00  0.00000000000E+00  0.45593999997E+02  0.45594000000E+02  0.51100000000E-03 0.  1.
         11   -1    0    0    0    0 -0.00000000000E+00 -0.00000000000E+00 -0.45593999997E+02  0.45594000000E+02  0.51100000000E-03 0. -1.
    9900012    2    1    2    0    0  0.26502338017E+02  0.34887798590E+02 -0.10468098343E+02  0.46142317702E+02  0.99999994572E+01 0.  0.
         12    1    1    2    0    0 -0.26502338017E+02 -0.34887798590E+02  0.10468098343E+02  0.45045682298E+02  0.00000000000E+00 0. -1.
         11    1    3    3    0    0  0.83149220324E+01  0.92245057694E+01 -0.54985271462E+01  0.13581724343E+02  0.51100000000E-03 0. -1.
        -11    1    3    3    0    0  0.23530467272E+00 -0.31063385914E+00  0.37096551258E+00  0.53803099919E+00  0.51100000000E-03 0.  1.
        -12    1    3    3    0    0  0.17952111312E+02  0.25973926679E+02 -0.53405367093E+01  0.32022562359E+02  0.00000000000E+00 0.  1.
</event>
<event>
 7    1  0.4623443E-009  0.4614232E+02  0.7816164E-02  0.1320468E+00
        -11   -1    0    0    0    0  0.00000000000E+00  0.00000000000E+00  0.45593999997E+02  0.45594000000E+02  0.51100000000E-03 0. -1.
         11   -1    0    0    0    0 -0.00000000000E+00 -0.00000000000E+00 -0.45593999997E+02  0.45594000000E+02  0.51100000000E-03 0.  1.
    9900012    2    1    2    0    0 -0.19642571085E+02  0.16309352601E+02 -0.37111828313E+02  0.46142318943E+02  0.10000010782E+02 0.  0.
         12    1    1    2    0    0  0.19642571085E+02 -0.16309352601E+02  0.37111828313E+02  0.45045681057E+02  0.00000000000E+00 0. -1.
         11    1    3    3    0    0 -0.57350584144E+01  0.61936793432E+01 -0.14332178599E+02  0.16633216841E+02  0.51100000000E-03 0. -1.
        -11    1    3    3    0    0 -0.76522279582E+01  0.68094039025E+01 -0.18753083863E+02  0.21368264527E+02  0.51100000000E-03 0.  1.
        -12    1    3    3    0    0 -0.62552847125E+01  0.33062693554E+01 -0.40265658504E+01  0.81408375756E+01  0.00000000000E+00 0.  1.
</event>
<event>
 7    1  0.4623443E-009  0.4614232E+02  0.7816164E-02  0.1320468E+00
        -11   -1    0    0    0    0  0.00000000000E+00  0.00000000000E+00  0.45593999997E+02  0.45594000000E+02  0.51100000000E-03 0. -1.
         11   -1    0    0    0    0 -0.00000000000E+00 -0.00000000000E+00 -0.45593999997E+02  0.45594000000E+02  0.51100000000E-03 0.  1.
    9900012    2    1    2    0    0 -0.20603975552E+01 -0.58708187264E+00  0.44994708405E+02  0.46142315549E+02  0.99999798309E+01 0.  0.
        -12    1    1    2    0    0  0.20603975552E+01  0.58708187264E+00 -0.44994708405E+02  0.45045684451E+02  0.00000000000E+00 0.  1.
         11    1    3    3    0    0 -0.22642801689E+01 -0.47347226132E+01  0.24872142268E+02  0.25419835251E+02  0.51100000000E-03 0. -1.
        -11    1    3    3    0    0  0.13585891763E+01  0.22716733504E+01  0.88786976313E+01  0.92648548963E+01  0.51100000000E-03 0.  1.
         12    1    3    3    0    0 -0.11547065626E+01  0.18759673901E+01  0.11243868505E+02  0.11457625402E+02  0.00000000000E+00 0. -1.
</event>
<event>
 7    1  0.4623443E-009  0.4614232E+02  0.7816164E-02  0.1320468E+00
        -11   -1    0    0    0    0  0.00000000000E+00  0.00000000000E+00  0.45593999997E+02  0.45594000000E+02  0.51100000000E-03 0. -1.
         11   -1    0    0    0    0 -0.00000000000E+00 -0.00000000000E+00 -0.45593999997E+02  0.45594000000E+02  0.51100000000E-03 0.  1.
    9900012    2    1    2    0    0 -0.11814424172E+02 -0.59429755622E+01 -0.43060585785E+02  0.46142316242E+02  0.99999861512E+01 0.  0.
         12    1    1    2    0    0  0.11814424172E+02  0.59429755622E+01  0.43060585785E+02  0.45045683758E+02  0.00000000000E+00 0. -1.
         11    1    3    3    0    0 -0.22622269868E+01 -0.10475732242E+01 -0.39641626934E+01  0.46829122051E+01  0.51100000000E-03 0. -1.
        -11    1    3    3    0    0 -0.63430732397E+01  0.17528479002E+00 -0.29234487338E+02  0.29915222765E+02  0.51100000000E-03 0.  1.
        -12    1    3    3    0    0 -0.32091239459E+01 -0.50706871280E+01 -0.98619357531E+01  0.11544181272E+02  0.00000000000E+00 0.  1.
</event>
<event>
 7    1  0.4623443E-009  0.4614232E+02  0.7816164E-02  0.1320468E+00
        -11   -1    0    0    0    0  0.00000000000E+00  0.00000000000E+00  0.45593999997E+02  0.45594000000E+02  0.51100000000E-03 0. -1.
         11   -1    0    0    0    0 -0.00000000000E+00 -0.00000000000E+00 -0.45593999997E+02  0.45594000000E+02  0.51100000000E-03 0.  1.
    9900012    2    1    2    0    0  0.19640773097E+02 -0.17287755395E+02 -0.36667247261E+02  0.46142317896E+02  0.10000001233E+02 0.  0.
         12    1    1    2    0    0 -0.19640773097E+02  0.17287755395E+02  0.36667247261E+02  0.45045682104E+02  0.00000000000E+00 0. -1.
         11    1    3    3    0    0  0.75786896784E+01 -0.59800295608E+01 -0.11440789071E+02  0.14969600717E+02  0.51100000000E-03 0. -1.
        -11    1    3    3    0    0  0.88759999082E+01 -0.49410046891E+01 -0.19682052572E+02  0.22149042765E+02  0.51100000000E-03 0.  1.
        -12    1    3    3    0    0  0.31860835105E+01 -0.63667211452E+01 -0.55444056182E+01  0.90236744143E+01  0.00000000000E+00 0.  1.
</event>
<event>
 7    1  0.4623443E-009  0.4614232E+02  0.7816164E-02  0.1320468E+00
        -11   -1    0    0    0    0  0.00000000000E+00  0.00000000000E+00  0.45593999997E+02  0.45594000000E+02  0.51100000000E-03 0. -1.
         11   -1    0    0    0    0 -0.00000000000E+00 -0.00000000000E+00 -0.45593999997E+02  0.45594000000E+02  0.51100000000E-03 0.  1.
    9900012    2    1    2    0    0 -0.32079861485E+02 -0.16090559464E+01  0.31581748888E+02  0.46142318334E+02  0.10000005223E+02 0.  0.
        -12    1    1    2    0    0  0.32079861485E+02  0.16090559464E+01 -0.31581748888E+02  0.45045681666E+02  0.00000000000E+00 0.  1.
         11    1    3    3    0    0 -0.10503679768E+02  0.34661483528E+01  0.11555678241E+02  0.15996098678E+02  0.51100000000E-03 0. -1.
        -11    1    3    3    0    0 -0.64390220703E+01 -0.14129129467E+00  0.75177013067E+01  0.98993333942E+01  0.51100000000E-03 0.  1.
        -12    1    3    3    0    0 -0.15137159647E+02 -0.49339130045E+01  0.12508369340E+02  0.20246886261E+02  0.00000000000E+00 0.  1.
</event>
<event>
 7    1  0.4623443E-009  0.4614232E+02  0.7816164E-02  0.1320468E+00
        -11   -1    0    0    0    0  0.00000000000E+00  0.00000000000E+00  0.45593999997E+02  0.45594000000E+02  0.51100000000E-03 0. -1.
         11   -1    0    0    0    0 -0.00000000000E+00 -0.00000000000E+00 -0.45593999997E+02  0.45594000000E+02  0.51100000000E-03 0.  1.
    9900012    2    1    2    0    0 -0.53203629461E+01 -0.74694848222E+01 -0.44102311325E+02  0.46142319523E+02  0.10000016068E+02 0.  0.
         12    1    1    2    0    0  0.53203629461E+01  0.74694848222E+01  0.44102311325E+02  0.45045680477E+02  0.00000000000E+00 0. -1.
         11    1    3    3    0    0  0.49108119705E-01  0.19854422913E+01 -0.62756212193E+01  0.65823866986E+01  0.51100000000E-03 0. -1.
        -11    1    3    3    0    0 -0.51472604540E+01 -0.58725120748E+01 -0.22432719628E+02  0.23753054507E+02  0.51100000000E-03 0.  1.
         12    1    3    3    0    0 -0.22221061177E+00 -0.35824150387E+01 -0.15393970478E+02  0.15806878318E+02  0.00000000000E+00 0. -1.
</event>
<event>
 7    1  0.4623443E-009  0.4614232E+02  0.7816164E-02  0.1320468E+00
        -11   -1    0    0    0    0  0.00000000000E+00  0.00000000000E+00  0.45593999997E+02  0.45594000000E+02  0.51100000000E-03 0. -1.
         11   -1    0    0    0    0 -0.00000000000E+00 -0.00000000000E+00 -0.45593999997E+02  0.45594000000E+02  0.51100000000E-03 0.  1.
    9900012    2    1    2    0    0  0.38703783224E+02 -0.14961150995E+02  0.17529819161E+02  0.46142318356E+02  0.10000005428E+02 0.  0.
        -12    1    1    2    0    0 -0.38703783224E+02  0.14961150995E+02 -0.17529819161E+02  0.45045681644E+02  0.00000000000E+00 0.  1.
         11    1    3    3    0    0  0.25945673275E+02 -0.93912961237E+01  0.78701999839E+01  0.28693456617E+02  0.51100000000E-03 0. -1.
        -11    1    3    3    0    0  0.11001567927E+02 -0.62432782618E+01  0.83697014330E+01  0.15167891174E+02  0.51100000000E-03 0.  1.
        -12    1    3    3    0    0  0.17565420218E+01  0.67342339069E+00  0.12899177440E+01  0.22809705661E+01  0.00000000000E+00 0.  1.
</event>
<event>
 7    1  0.4623443E-009  0.4614232E+02  0.7816164E-02  0.1320468E+00
        -11   -1    0    0    0    0  0.00000000000E+00  0.00000000000E+00  0.45593999997E+02  0.45594000000E+02  0.51100000000E-03 0.  1.
         11   -1    0    0    0    0 -0.00000000000E+00 -0.00000000000E+00 -0.45593999997E+02  0.45594000000E+02  0.51100000000E-03 0. -1.
    9900012    2    1    2    0    0 -0.33176131126E+02  0.25365285720E+02 -0.16883723597E+02  0.46142317425E+02  0.99999969387E+01 0.  0.
         12    1    1    2    0    0  0.33176131126E+02 -0.25365285720E+02  0.16883723597E+02  0.45045682575E+02  0.00000000000E+00 0. -1.
         11    1    3    3    0    0 -0.20695842646E+02  0.16181401898E+02 -0.14782743033E+02  0.30144405153E+02  0.51100000000E-03 0. -1.
        -11    1    3    3    0    0 -0.54888076183E+01  0.56068948706E+01  0.82195845296E-01  0.78467213267E+01  0.51100000000E-03 0.  1.
        -12    1    3    3    0    0 -0.69914808616E+01  0.35769889508E+01 -0.21831764093E+01  0.81511909453E+01  0.00000000000E+00 0.  1.
</event>
<event>
 7    1  0.4623443E-009  0.4614232E+02  0.7816164E-02  0.1320468E+00
        -11   -1    0    0    0    0  0.00000000000E+00  0.00000000000E+00  0.45593999997E+02  0.45594000000E+02  0.51100000000E-03 0. -1.
         11   -1    0    0    0    0 -0.00000000000E+00 -0.00000000000E+00 -0.45593999997E+02  0.45594000000E+02  0.51100000000E-03 0.  1.
    9900012    2    1    2    0    0 -0.17891366434E+02 -0.41126397273E+02 -0.41990339518E+01  0.46142318391E+02  0.10000005741E+02 0.  0.
        -12    1    1    2    0    0  0.17891366434E+02  0.41126397273E+02  0.41990339518E+01  0.45045681609E+02  0.00000000000E+00 0.  1.
         11    1    3    3    0    0 -0.57197151260E+01 -0.14582973221E+02 -0.90858688920E+00  0.15690882049E+02  0.51100000000E-03 0. -1.
        -11    1    3    3    0    0 -0.80034051503E+01 -0.14067342364E+02 -0.55397660771E+01  0.17106537453E+02  0.51100000000E-03 0.  1.
        -12    1    3    3    0    0 -0.41682461574E+01 -0.12476081688E+02  0.22493190145E+01  0.13344898888E+02  0.00000000000E+00 0.  1.
</event>
<event>
 7    1  0.4623443E-009  0.4614232E+02  0.7816164E-02  0.1320468E+00
        -11   -1    0    0    0    0  0.00000000000E+00  0.00000000000E+00  0.45593999997E+02  0.45594000000E+02  0.51100000000E-03 0. -1.
         11   -1    0    0    0    0 -0.00000000000E+00 -0.00000000000E+00 -0.45593999997E+02  0.45594000000E+02  0.51100000000E-03 0.  1.
    9900012    2    1    2    0    0 -0.88055242723E+01  0.25560825879E+02 -0.36030826396E+02  0.46142317320E+02  0.99999959799E+01 0.  0.
         12    1    1    2    0    0  0.88055242723E+01 -0.25560825879E+02  0.36030826396E+02  0.45045682680E+02  0.00000000000E+00 0. -1.
         11    1    3    3    0    0 -0.24979128305E+01  0.65507962873E+01 -0.69733078125E+01  0.98883528768E+01  0.51100000000E-03 0.  1.
        -11    1    3    3    0    0 -0.18884655427E+01 -0.20985791164E+00 -0.18616299745E+01  0.26600768546E+01  0.51100000000E-03 0. -1.
         12    1    3    3    0    0 -0.44191458990E+01  0.19219887503E+02 -0.27195888609E+02  0.33593887589E+02  0.00000000000E+00 0. -1.
</event>
<event>
 7    1  0.4623443E-009  0.4614232E+02  0.7816164E-02  0.1320468E+00
        -11   -1    0    0    0    0  0.00000000000E+00  0.00000000000E+00  0.45593999997E+02  0.45594000000E+02  0.51100000000E-03 0. -1.
         11   -1    0    0    0    0 -0.00000000000E+00 -0.00000000000E+00 -0.45593999997E+02  0.45594000000E+02  0.51100000000E-03 0.  1.
    9900012    2    1    2    0    0  0.39085589748E+01  0.10673778615E+02 -0.43587924878E+02  0.46142316763E+02  0.99999908953E+01 0.  0.
         12    1    1    2    0    0 -0.39085589748E+01 -0.10673778615E+02  0.43587924878E+02  0.45045683237E+02  0.00000000000E+00 0. -1.
         11    1    3    3    0    0  0.31300193222E+01  0.53892620536E+01 -0.25648691256E+02  0.26395009563E+02  0.51100000000E-03 0. -1.
        -11    1    3    3    0    0 -0.75901965428E+00  0.61261302764E+00 -0.11983891387E+02  0.12023521057E+02  0.51100000000E-03 0.  1.
         12    1    3    3    0    0  0.15375593068E+01  0.46719035337E+01 -0.59553422346E+01  0.77237861429E+01  0.00000000000E+00 0. -1.
</event>
<event>
 7    1  0.4623443E-009  0.4614232E+02  0.7816164E-02  0.1320468E+00
        -11   -1    0    0    0    0  0.00000000000E+00  0.00000000000E+00  0.45593999997E+02  0.45594000000E+02  0.51100000000E-03 0. -1.
         11   -1    0    0    0    0 -0.00000000000E+00 -0.00000000000E+00 -0.45593999997E+02  0.45594000000E+02  0.51100000000E-03 0.  1.
    9900012    2    1    2    0    0 -0.13169150087E+02  0.51054352252E+01  0.42774073598E+02  0.46142319241E+02  0.10000013498E+02 0.  0.
        -12    1    1    2    0    0  0.13169150087E+02 -0.51054352252E+01 -0.42774073598E+02  0.45045680759E+02  0.00000000000E+00 0.  1.
         11    1    3    3    0    0 -0.63325270942E+01  0.38559644861E+01  0.19484333318E+02  0.20847268565E+02  0.51100000000E-03 0. -1.
        -11    1    3    3    0    0 -0.78236687711E+01  0.25515169504E+01  0.19054708685E+02  0.20755769201E+02  0.51100000000E-03 0.  1.
        -12    1    3    3    0    0  0.98704577807E+00 -0.13020462113E+01  0.42350315943E+01  0.45392814750E+01  0.00000000000E+00 0.  1.
</event>
<event>
 7    1  0.4623443E-009  0.4614232E+02  0.7816164E-02  0.1320468E+00
        -11   -1    0    0    0    0  0.00000000000E+00  0.00000000000E+00  0.45593999997E+02  0.45594000000E+02  0.51100000000E-03 0. -1.
         11   -1    0    0    0    0 -0.00000000000E+00 -0.00000000000E+00 -0.45593999997E+02  0.45594000000E+02  0.51100000000E-03 0.  1.
    9900012    2    1    2    0    0  0.31438731271E+02 -0.24909044732E+01  0.32163877981E+02  0.46142317901E+02  0.10000001275E+02 0.  0.
        -12    1    1    2    0    0 -0.31438731271E+02  0.24909044732E+01 -0.32163877981E+02  0.45045682099E+02  0.00000000000E+00 0.  1.
         11    1    3    3    0    0  0.11743590167E+01  0.98372317222E+00  0.29052032539E+01  0.32843624324E+01  0.51100000000E-03 0. -1.
        -11    1    3    3    0    0  0.15604794291E+02  0.12102758352E+01  0.11916799074E+02  0.19671920926E+02  0.51100000000E-03 0.  1.
         12    1    3    3    0    0  0.14659577963E+02 -0.46849034806E+01  0.17341875652E+02  0.23186034543E+02  0.00000000000E+00 0. -1.
</event>
<event>
 7    1  0.4623443E-009  0.4614232E+02  0.7816164E-02  0.1320468E+00
        -11   -1    0    0    0    0  0.00000000000E+00  0.00000000000E+00  0.45593999997E+02  0.45594000000E+02  0.51100000000E-03 0. -1.
         11   -1    0    0    0    0 -0.00000000000E+00 -0.00000000000E+00 -0.45593999997E+02  0.45594000000E+02  0.51100000000E-03 0.  1.
    9900012    2    1    2    0    0  0.31661339136E+02 -0.20247497829E+02 -0.24833683847E+02  0.46142318547E+02  0.10000007162E+02 0.  0.
         12    1    1    2    0    0 -0.31661339136E+02  0.20247497829E+02  0.24833683847E+02  0.45045681453E+02  0.00000000000E+00 0. -1.
         11    1    3    3    0    0  0.11420031552E+02 -0.67148343128E+01 -0.13388192020E+02  0.18834803060E+02  0.51100000000E-03 0. -1.
        -11    1    3    3    0    0  0.26748711212E+01 -0.26104158928E+01 -0.35857565317E+01  0.51794649159E+01  0.51100000000E-03 0.  1.
        -12    1    3    3    0    0  0.17566436462E+02 -0.10922247623E+02 -0.78597352955E+01  0.22128050570E+02  0.00000000000E+00 0.  1.
</event>
<event>
 7    1  0.4623443E-009  0.4614232E+02  0.7816164E-02  0.1320468E+00
        -11   -1    0    0    0    0  0.00000000000E+00  0.00000000000E+00  0.45593999997E+02  0.45594000000E+02  0.51100000000E-03 0. -1.
         11   -1    0    0    0    0 -0.00000000000E+00 -0.00000000000E+00 -0.45593999997E+02  0.45594000000E+02  0.51100000000E-03 0.  1.
    9900012    2    1    2    0    0 -0.18149310345E+02  0.33655605069E+02  0.23812099482E+02  0.46142319849E+02  0.10000019036E+02 0.  0.
        -12    1    1    2    0    0  0.18149310345E+02 -0.33655605069E+02 -0.23812099482E+02  0.45045680151E+02  0.00000000000E+00 0.  1.
         11    1    3    3    0    0 -0.61409503488E+01  0.17884903865E+02  0.14812313932E+02  0.24020526675E+02  0.51100000000E-03 0. -1.
        -11    1    3    3    0    0 -0.51575467657E+01  0.72692073144E+01  0.19454773580E+01  0.91228584354E+01  0.51100000000E-03 0.  1.
         12    1    3    3    0    0 -0.68508132302E+01  0.85014938891E+01  0.70543081927E+01  0.12998934739E+02  0.00000000000E+00 0. -1.
</event>
<event>
 7    1  0.4623443E-009  0.4614232E+02  0.7816164E-02  0.1320468E+00
        -11   -1    0    0    0    0  0.00000000000E+00  0.00000000000E+00  0.45593999997E+02  0.45594000000E+02  0.51100000000E-03 0. -1.
         11   -1    0    0    0    0 -0.00000000000E+00 -0.00000000000E+00 -0.45593999997E+02  0.45594000000E+02  0.51100000000E-03 0.  1.
    9900012    2    1    2    0    0  0.12728006592E+02 -0.35809485850E+02  0.24182476360E+02  0.46142316616E+02  0.99999895591E+01 0.  0.
        -12    1    1    2    0    0 -0.12728006592E+02  0.35809485850E+02 -0.24182476360E+02  0.45045683384E+02  0.00000000000E+00 0.  1.
         11    1    3    3    0    0  0.54769441697E+01 -0.19237975110E+02  0.13612969755E+02  0.24195238159E+02  0.51100000000E-03 0. -1.
        -11    1    3    3    0    0  0.65356529800E+01 -0.77286212726E+01  0.73517833704E+01  0.12509798785E+02  0.51100000000E-03 0.  1.
         12    1    3    3    0    0  0.71540944209E+00 -0.88428894668E+01  0.32177232350E+01  0.94372796721E+01  0.00000000000E+00 0. -1.
</event>
<event>
 7    1  0.4623443E-009  0.4614232E+02  0.7816164E-02  0.1320468E+00
        -11   -1    0    0    0    0  0.00000000000E+00  0.00000000000E+00  0.45593999997E+02  0.45594000000E+02  0.51100000000E-03 0. -1.
         11   -1    0    0    0    0 -0.00000000000E+00 -0.00000000000E+00 -0.45593999997E+02  0.45594000000E+02  0.51100000000E-03 0.  1.
    9900012    2    1    2    0    0  0.20283823394E+02  0.17730235095E+02  0.36101506345E+02  0.46142317760E+02  0.99999999928E+01 0.  0.
        -12    1    1    2    0    0 -0.20283823394E+02 -0.17730235095E+02 -0.36101506345E+02  0.45045682240E+02  0.00000000000E+00 0.  1.
         11    1    3    3    0    0  0.42341174124E+01  0.50536515120E+01  0.13155326956E+02  0.14714950610E+02  0.51100000000E-03 0. -1.
        -11    1    3    3    0    0  0.16840983211E+01 -0.32860739425E+00  0.38794514913E+01  0.42419705455E+01  0.51100000000E-03 0.  1.
        -12    1    3    3    0    0  0.14365607661E+02  0.13005190978E+02  0.19066727898E+02  0.27185396605E+02  0.00000000000E+00 0.  1.
</event>
<event>
 7    1  0.4623443E-009  0.4614232E+02  0.7816164E-02  0.1320468E+00
        -11   -1    0    0    0    0  0.00000000000E+00  0.00000000000E+00  0.45593999997E+02  0.45594000000E+02  0.51100000000E-03 0.  1.
         11   -1    0    0    0    0 -0.00000000000E+00 -0.00000000000E+00 -0.45593999997E+02  0.45594000000E+02  0.51100000000E-03 0. -1.
    9900012    2    1    2    0    0  0.96115299749E+01  0.42444261475E+02 -0.11628271018E+02  0.46142317327E+02  0.99999960390E+01 0.  0.
        -12    1    1    2    0    0 -0.96115299749E+01 -0.42444261475E+02  0.11628271018E+02  0.45045682673E+02  0.00000000000E+00 0.  1.
         11    1    3    3    0    0  0.40888142377E+01  0.16631033375E+02 -0.24181076584E+01  0.17296153269E+02  0.51100000000E-03 0. -1.
        -11    1    3    3    0    0  0.71292922819E+01  0.23180763547E+02 -0.81604273920E+01  0.25588418915E+02  0.51100000000E-03 0.  1.
        -12    1    3    3    0    0 -0.16065765446E+01  0.26324645530E+01 -0.10497359675E+01  0.32577451432E+01  0.00000000000E+00 0.  1.
</event>
<event>
 7    1  0.4623443E-009  0.4614232E+02  0.7816164E-02  0.1320468E+00
        -11   -1    0    0    0    0  0.00000000000E+00  0.00000000000E+00  0.45593999997E+02  0.45594000000E+02  0.51100000000E-03 0. -1.
         11   -1    0    0    0    0 -0.00000000000E+00 -0.00000000000E+00 -0.45593999997E+02  0.45594000000E+02  0.51100000000E-03 0.  1.
    9900012    2    1    2    0    0 -0.19934967718E+02 -0.49481942030E+01  0.40090222100E+02  0.46142317945E+02  0.10000001676E+02 0.  0.
        -12    1    1    2    0    0  0.19934967718E+02  0.49481942030E+01 -0.40090222100E+02  0.45045682055E+02  0.00000000000E+00 0.  1.
         11    1    3    3    0    0 -0.87499089551E+01 -0.25340683722E+01  0.19451623209E+02  0.21479014292E+02  0.51100000000E-03 0. -1.
        -11    1    3    3    0    0 -0.61101701928E+01 -0.32105061607E+01  0.17058046159E+02  0.18401588752E+02  0.51100000000E-03 0.  1.
        -12    1    3    3    0    0 -0.50748885698E+01  0.79638032990E+00  0.35805527326E+01  0.62617149006E+01  0.00000000000E+00 0.  1.
</event>
<event>
 7    1  0.4623443E-009  0.4614231E+02  0.7816164E-02  0.1320468E+00
        -11   -1    0    0    0    0  0.00000000000E+00  0.00000000000E+00  0.45593999997E+02  0.45594000000E+02  0.51100000000E-03 0. -1.
         11   -1    0    0    0    0 -0.00000000000E+00 -0.00000000000E+00 -0.45593999997E+02  0.45594000000E+02  0.51100000000E-03 0.  1.
    9900012    2    1    2    0    0  0.14298923316E+02  0.38277636522E+02 -0.18959894318E+02  0.46142309216E+02  0.99999220742E+01 0.  0.
         12    1    1    2    0    0 -0.14298923316E+02 -0.38277636522E+02  0.18959894318E+02  0.45045690784E+02  0.00000000000E+00 0. -1.
         11    1    3    3    0    0  0.65209044981E+01  0.15916456710E+02 -0.11545906321E+02  0.20716267586E+02  0.51100000000E-03 0. -1.
        -11    1    3    3    0    0 -0.25779171176E+00  0.37517517383E+01  0.21719027576E+00  0.37668646842E+01  0.51100000000E-03 0.  1.
        -12    1    3    3    0    0  0.80358105296E+01  0.18609428074E+02 -0.76311782724E+01  0.21659176945E+02  0.00000000000E+00 0.  1.
</event>
<event>
 7    1  0.4623443E-009  0.4614232E+02  0.7816164E-02  0.1320468E+00
        -11   -1    0    0    0    0  0.00000000000E+00  0.00000000000E+00  0.45593999997E+02  0.45594000000E+02  0.51100000000E-03 0. -1.
         11   -1    0    0    0    0 -0.00000000000E+00 -0.00000000000E+00 -0.45593999997E+02  0.45594000000E+02  0.51100000000E-03 0.  1.
    9900012    2    1    2    0    0  0.16511048661E+02 -0.31078890590E+02  0.28117631377E+02  0.46142319158E+02  0.10000012742E+02 0.  0.
        -12    1    1    2    0    0 -0.16511048661E+02  0.31078890590E+02 -0.28117631377E+02  0.45045680842E+02  0.00000000000E+00 0.  1.
         11    1    3    3    0    0  0.71769705423E+01 -0.12253039254E+02  0.87376709051E+01  0.16673115193E+02  0.51100000000E-03 0. -1.
        -11    1    3    3    0    0  0.54203369331E+01 -0.16613311452E+02  0.17010047178E+02  0.24386961170E+02  0.51100000000E-03 0.  1.
        -12    1    3    3    0    0  0.39137411860E+01 -0.22125398847E+01  0.23699132939E+01  0.50822427955E+01  0.00000000000E+00 0.  1.
</event>
<event>
 7    1  0.4623443E-009  0.4614232E+02  0.7816164E-02  0.1320468E+00
        -11   -1    0    0    0    0  0.00000000000E+00  0.00000000000E+00  0.45593999997E+02  0.45594000000E+02  0.51100000000E-03 0. -1.
         11   -1    0    0    0    0 -0.00000000000E+00 -0.00000000000E+00 -0.45593999997E+02  0.45594000000E+02  0.51100000000E-03 0.  1.
    9900012    2    1    2    0    0  0.41830619949E+02 -0.15177512633E+02  0.69968473725E+01  0.46142317319E+02  0.99999959702E+01 0.  0.
        -12    1    1    2    0    0 -0.41830619949E+02  0.15177512633E+02 -0.69968473725E+01  0.45045682681E+02  0.00000000000E+00 0.  1.
         11    1    3    3    0    0  0.32679917007E+02 -0.94906017559E+01  0.27827997120E+01  0.34143703252E+02  0.51100000000E-03 0. -1.
        -11    1    3    3    0    0  0.74924074883E+01 -0.30094477857E+01  0.32644104453E+01  0.87091516098E+01  0.51100000000E-03 0.  1.
         12    1    3    3    0    0  0.16582954537E+01 -0.26774630917E+01  0.94963721520E+00  0.32894624576E+01  0.00000000000E+00 0. -1.
</event>
<event>
 7    1  0.4623443E-009  0.4614232E+02  0.7816164E-02  0.1320468E+00
        -11   -1    0    0    0    0  0.00000000000E+00  0.00000000000E+00  0.45593999997E+02  0.45594000000E+02  0.51100000000E-03 0. -1.
         11   -1    0    0    0    0 -0.00000000000E+00 -0.00000000000E+00 -0.45593999997E+02  0.45594000000E+02  0.51100000000E-03 0.  1.
    9900012    2    1    2    0    0  0.27663972861E+02  0.13697335636E+01 -0.35523823308E+02  0.46142316667E+02  0.99999900246E+01 0.  0.
         12    1    1    2    0    0 -0.27663972861E+02 -0.13697335636E+01  0.35523823308E+02  0.45045683333E+02  0.00000000000E+00 0. -1.
         11    1    3    3    0    0  0.51995112718E+01 -0.88331934304E+00 -0.12606981251E+02  0.13665692337E+02  0.51100000000E-03 0. -1.
        -11    1    3    3    0    0  0.83657523632E+01  0.13726713049E+01 -0.11647333692E+02  0.14405916198E+02  0.51100000000E-03 0.  1.
        -12    1    3    3    0    0  0.14098709226E+02  0.88038160175E+00 -0.11269508366E+02  0.18070708133E+02  0.00000000000E+00 0.  1.
</event>
<event>
 7    1  0.4623443E-009  0.4614232E+02  0.7816164E-02  0.1320468E+00
        -11   -1    0    0    0    0  0.00000000000E+00  0.00000000000E+00  0.45593999997E+02  0.45594000000E+02  0.51100000000E-03 0. -1.
         11   -1    0    0    0    0 -0.00000000000E+00 -0.00000000000E+00 -0.45593999997E+02  0.45594000000E+02  0.51100000000E-03 0.  1.
    9900012    2    1    2    0    0  0.96915908256E+01  0.25163537121E+02  0.36083000671E+02  0.46142317959E+02  0.10000001801E+02 0.  0.
        -12    1    1    2    0    0 -0.96915908256E+01 -0.25163537121E+02 -0.36083000671E+02  0.45045682041E+02  0.00000000000E+00 0.  1.
         11    1    3    3    0    0  0.55994672942E+01  0.21681183549E+02  0.23538238137E+02  0.32488096419E+02  0.51100000000E-03 0. -1.
        -11    1    3    3    0    0  0.24297384506E+01  0.21758513923E+01  0.70991699390E+01  0.78125650272E+01  0.51100000000E-03 0.  1.
         12    1    3    3    0    0  0.16623850808E+01  0.13065021795E+01  0.54455925949E+01  0.58416565126E+01  0.00000000000E+00 0. -1.
</event>
<event>
 7    1  0.4623443E-009  0.4614232E+02  0.7816164E-02  0.1320468E+00
        -11   -1    0    0    0    0  0.00000000000E+00  0.00000000000E+00  0.45593999997E+02  0.45594000000E+02  0.51100000000E-03 0.  1.
         11   -1    0    0    0    0 -0.00000000000E+00 -0.00000000000E+00 -0.45593999997E+02  0.45594000000E+02  0.51100000000E-03 0. -1.
    9900012    2    1    2    0    0 -0.42554414367E+02 -0.14331820888E+02 -0.35824859281E+01  0.46142317881E+02  0.10000001095E+02 0.  0.
        -12    1    1    2    0    0  0.42554414367E+02  0.14331820888E+02  0.35824859281E+01  0.45045682119E+02  0.00000000000E+00 0.  1.
         11    1    3    3    0    0 -0.20800110427E+02 -0.89935342288E+01  0.76770584678E+00  0.22674162040E+02  0.51100000000E-03 0.  1.
        -11    1    3    3    0    0 -0.18910594116E+02 -0.62663076727E+01 -0.46639504140E+01  0.20460440254E+02  0.51100000000E-03 0. -1.
        -12    1    3    3    0    0 -0.28437098242E+01  0.92802101338E+00  0.31375863908E+00  0.30077155865E+01  0.00000000000E+00 0.  1.
</event>
<event>
 7    1  0.4623443E-009  0.4614232E+02  0.7816164E-02  0.1320468E+00
        -11   -1    0    0    0    0  0.00000000000E+00  0.00000000000E+00  0.45593999997E+02  0.45594000000E+02  0.51100000000E-03 0.  1.
         11   -1    0    0    0    0 -0.00000000000E+00 -0.00000000000E+00 -0.45593999997E+02  0.45594000000E+02  0.51100000000E-03 0. -1.
    9900012    2    1    2    0    0  0.22259603758E+02 -0.37244059366E+02 -0.12103867001E+02  0.46142317478E+02  0.99999974140E+01 0.  0.
         12    1    1    2    0    0 -0.22259603758E+02  0.37244059366E+02  0.12103867001E+02  0.45045682522E+02  0.00000000000E+00 0. -1.
         11    1    3    3    0    0  0.26490971451E+01 -0.42997631003E+01  0.27016853602E+00  0.50575359318E+01  0.51100000000E-03 0. -1.
        -11    1    3    3    0    0  0.95370895608E+01 -0.23371822202E+02 -0.88432353907E+01  0.26746980442E+02  0.51100000000E-03 0.  1.
         12    1    3    3    0    0  0.10073417052E+02 -0.95724740638E+01 -0.35308001462E+01  0.14337801104E+02  0.00000000000E+00 0. -1.
</event>
<event>
 7    1  0.4623443E-009  0.4614231E+02  0.7816164E-02  0.1320468E+00
        -11   -1    0    0    0    0  0.00000000000E+00  0.00000000000E+00  0.45593999997E+02  0.45594000000E+02  0.51100000000E-03 0. -1.
         11   -1    0    0    0    0 -0.00000000000E+00 -0.00000000000E+00 -0.45593999997E+02  0.45594000000E+02  0.51100000000E-03 0.  1.
    9900012    2    1    2    0    0  0.17335636727E+02  0.25961098064E+02  0.32474779778E+02  0.46142309473E+02  0.99999244243E+01 0.  0.
        -12    1    1    2    0    0 -0.17335636727E+02 -0.25961098064E+02 -0.32474779778E+02  0.45045690527E+02  0.00000000000E+00 0.  1.
         11    1    3    3    0    0  0.55684666230E+01  0.67912032821E+01  0.69082374536E+01  0.11173719503E+02  0.51100000000E-03 0. -1.
        -11    1    3    3    0    0  0.11994145134E+01  0.45734527663E+01  0.16175763295E+01  0.49971610764E+01  0.51100000000E-03 0.  1.
        -12    1    3    3    0    0  0.10567755591E+02  0.14596442015E+02  0.23948965995E+02  0.29971428894E+02  0.00000000000E+00 0.  1.
</event>
<event>
 7    1  0.4623443E-009  0.4614232E+02  0.7816164E-02  0.1320468E+00
        -11   -1    0    0    0    0  0.00000000000E+00  0.00000000000E+00  0.45593999997E+02  0.45594000000E+02  0.51100000000E-03 0. -1.
         11   -1    0    0    0    0 -0.00000000000E+00 -0.00000000000E+00 -0.45593999997E+02  0.45594000000E+02  0.51100000000E-03 0.  1.
    9900012    2    1    2    0    0  0.69645164527E+01  0.14333023783E+02 -0.42132806938E+02  0.46142317847E+02  0.10000000782E+02 0.  0.
         12    1    1    2    0    0 -0.69645164527E+01 -0.14333023783E+02  0.42132806938E+02  0.45045682153E+02  0.00000000000E+00 0. -1.
         11    1    3    3    0    0  0.90834982669E+00  0.26953884755E-01 -0.24940621834E+01  0.26544627244E+01  0.51100000000E-03 0. -1.
        -11    1    3    3    0    0  0.81889136953E+01  0.13008340826E+02 -0.34777701826E+02  0.38023200590E+02  0.51100000000E-03 0.  1.
         12    1    3    3    0    0 -0.21327470693E+01  0.12977290717E+01 -0.48610429284E+01  0.54646545323E+01  0.00000000000E+00 0. -1.
</event>
<event>
 7    1  0.4623443E-009  0.4614232E+02  0.7816164E-02  0.1320468E+00
        -11   -1    0    0    0    0  0.00000000000E+00  0.00000000000E+00  0.45593999997E+02  0.45594000000E+02  0.51100000000E-03 0. -1.
         11   -1    0    0    0    0 -0.00000000000E+00 -0.00000000000E+00 -0.45593999997E+02  0.45594000000E+02  0.51100000000E-03 0.  1.
    9900012    2    1    2    0    0 -0.23624601691E+02 -0.32258121561E+02  0.20746209518E+02  0.46142318508E+02  0.10000006814E+02 0.  0.
        -12    1    1    2    0    0  0.23624601691E+02  0.32258121561E+02 -0.20746209518E+02  0.45045681492E+02  0.00000000000E+00 0.  1.
         11    1    3    3    0    0 -0.19707367475E+02 -0.27082143186E+02  0.16099165610E+02  0.37161888352E+02  0.51100000000E-03 0. -1.
        -11    1    3    3    0    0  0.92982366643E-01 -0.48668350164E+00 -0.67140163021E+00  0.83443811121E+00  0.51100000000E-03 0.  1.
        -12    1    3    3    0    0 -0.40102165833E+01 -0.46892948734E+01  0.53184455383E+01  0.81459920450E+01  0.00000000000E+00 0.  1.
</event>
<event>
 7    1  0.4623443E-009  0.4614232E+02  0.7816164E-02  0.1320468E+00
        -11   -1    0    0    0    0  0.00000000000E+00  0.00000000000E+00  0.45593999997E+02  0.45594000000E+02  0.51100000000E-03 0. -1.
         11   -1    0    0    0    0 -0.00000000000E+00 -0.00000000000E+00 -0.45593999997E+02  0.45594000000E+02  0.51100000000E-03 0.  1.
    9900012    2    1    2    0    0  0.18190016797E+02 -0.37402091837E+02 -0.17300875022E+02  0.46142318061E+02  0.10000002734E+02 0.  0.
         12    1    1    2    0    0 -0.18190016797E+02  0.37402091837E+02  0.17300875022E+02  0.45045681939E+02  0.00000000000E+00 0. -1.
         11    1    3    3    0    0  0.88628638890E+01 -0.16698131636E+02 -0.74790161837E+01  0.20330116571E+02  0.51100000000E-03 0.  1.
        -11    1    3    3    0    0  0.57848089462E+01 -0.19087150822E+02 -0.77132238146E+01  0.21384039911E+02  0.51100000000E-03 0. -1.
         12    1    3    3    0    0  0.35423439618E+01 -0.16168093795E+01 -0.21086350235E+01  0.44281615797E+01  0.00000000000E+00 0. -1.
</event>
<event>
 7    1  0.4623443E-009  0.4614232E+02  0.7816164E-02  0.1320468E+00
        -11   -1    0    0    0    0  0.00000000000E+00  0.00000000000E+00  0.45593999997E+02  0.45594000000E+02  0.51100000000E-03 0. -1.
         11   -1    0    0    0    0 -0.00000000000E+00 -0.00000000000E+00 -0.45593999997E+02  0.45594000000E+02  0.51100000000E-03 0.  1.
    9900012    2    1    2    0    0  0.28933794195E+02 -0.17994130517E+02 -0.29464561411E+02  0.46142316980E+02  0.99999928788E+01 0.  0.
         12    1    1    2    0    0 -0.28933794195E+02  0.17994130517E+02  0.29464561411E+02  0.45045683020E+02  0.00000000000E+00 0. -1.
         11    1    3    3    0    0  0.50997347245E+01 -0.45172144308E+00 -0.18416679301E+01  0.54408719474E+01  0.51100000000E-03 0. -1.
        -11    1    3    3    0    0  0.46457184730E+01 -0.24252675417E+01 -0.31046429496E+01  0.60912585633E+01  0.51100000000E-03 0.  1.
         12    1    3    3    0    0  0.19188340998E+02 -0.15117141532E+02 -0.24518250531E+02  0.34610186470E+02  0.00000000000E+00 0. -1.
</event>
<event>
 7    1  0.4623443E-009  0.4614231E+02  0.7816164E-02  0.1320468E+00
        -11   -1    0    0    0    0  0.00000000000E+00  0.00000000000E+00  0.45593999997E+02  0.45594000000E+02  0.51100000000E-03 0. -1.
         11   -1    0    0    0    0 -0.00000000000E+00 -0.00000000000E+00 -0.45593999997E+02  0.45594000000E+02  0.51100000000E-03 0.  1.
    9900012    2    1    2    0    0  0.38486373411E+01 -0.31718585798E+02 -0.31752695942E+02  0.46142307709E+02  0.99999083342E+01 0.  0.
         12    1    1    2    0    0 -0.38486373411E+01  0.31718585798E+02  0.31752695942E+02  0.45045692291E+02  0.00000000000E+00 0. -1.
         11    1    3    3    0    0  0.11190265457E+01 -0.67854540495E+00 -0.16227399730E+01  0.20846893192E+01  0.51100000000E-03 0. -1.
        -11    1    3    3    0    0  0.40037713350E+01 -0.74409829283E+01 -0.91596757641E+01  0.12461864716E+02  0.51100000000E-03 0.  1.
        -12    1    3    3    0    0 -0.12741605396E+01 -0.23599057465E+02 -0.20970280205E+02  0.31595753673E+02  0.00000000000E+00 0.  1.
</event>
<event>
 7    1  0.4623443E-009  0.4614232E+02  0.7816164E-02  0.1320468E+00
        -11   -1    0    0    0    0  0.00000000000E+00  0.00000000000E+00  0.45593999997E+02  0.45594000000E+02  0.51100000000E-03 0. -1.
         11   -1    0    0    0    0 -0.00000000000E+00 -0.00000000000E+00 -0.45593999997E+02  0.45594000000E+02  0.51100000000E-03 0.  1.
    9900012    2    1    2    0    0 -0.19130200933E+02 -0.20447074805E+02  0.35285490059E+02  0.46142320246E+02  0.10000022662E+02 0.  0.
        -12    1    1    2    0    0  0.19130200933E+02  0.20447074805E+02 -0.35285490059E+02  0.45045679754E+02  0.00000000000E+00 0.  1.
         11    1    3    3    0    0 -0.10015050028E+02 -0.10698619431E+02  0.20372194548E+02  0.25095577215E+02  0.51100000000E-03 0. -1.
        -11    1    3    3    0    0 -0.29502083199E+01 -0.28821292807E+01  0.94796279860E+01  0.10337975882E+02  0.51100000000E-03 0.  1.
        -12    1    3    3    0    0 -0.61649425850E+01 -0.68663260929E+01  0.54336675242E+01  0.10708767149E+02  0.00000000000E+00 0.  1.
</event>
<event>
 7    1  0.4623443E-009  0.4614232E+02  0.7816164E-02  0.1320468E+00
        -11   -1    0    0    0    0  0.00000000000E+00  0.00000000000E+00  0.45593999997E+02  0.45594000000E+02  0.51100000000E-03 0. -1.
         11   -1    0    0    0    0 -0.00000000000E+00 -0.00000000000E+00 -0.45593999997E+02  0.45594000000E+02  0.51100000000E-03 0.  1.
    9900012    2    1    2    0    0  0.80457414961E+01  0.22230243580E+02 -0.38343133112E+02  0.46142317158E+02  0.99999945002E+01 0.  0.
         12    1    1    2    0    0 -0.80457414961E+01 -0.22230243580E+02  0.38343133112E+02  0.45045682842E+02  0.00000000000E+00 0. -1.
         11    1    3    3    0    0  0.40202593297E+01  0.12847740207E+02 -0.21148732402E+02  0.25069818427E+02  0.51100000000E-03 0.  1.
        -11    1    3    3    0    0 -0.74240753169E+00  0.17339096830E+01 -0.79143224685E+01  0.81359764090E+01  0.51100000000E-03 0. -1.
         12    1    3    3    0    0  0.47678896982E+01  0.76485936898E+01 -0.92800782417E+01  0.12936522322E+02  0.00000000000E+00 0. -1.
</event>
<event>
 7    1  0.4623443E-009  0.4614232E+02  0.7816164E-02  0.1320468E+00
        -11   -1    0    0    0    0  0.00000000000E+00  0.00000000000E+00  0.45593999997E+02  0.45594000000E+02  0.51100000000E-03 0. -1.
         11   -1    0    0    0    0 -0.00000000000E+00 -0.00000000000E+00 -0.45593999997E+02  0.45594000000E+02  0.51100000000E-03 0.  1.
    9900012    2    1    2    0    0 -0.19771356782E+02 -0.18648487997E+02 -0.35922708641E+02  0.46142315970E+02  0.99999836701E+01 0.  0.
         12    1    1    2    0    0  0.19771356782E+02  0.18648487997E+02  0.35922708641E+02  0.45045684030E+02  0.00000000000E+00 0. -1.
         11    1    3    3    0    0 -0.50510359951E+01 -0.81420540376E+01 -0.65068880698E+01  0.11582124209E+02  0.51100000000E-03 0. -1.
        -11    1    3    3    0    0 -0.44088303673E+01 -0.38876311270E+01 -0.10093979633E+02  0.11680748524E+02  0.51100000000E-03 0.  1.
         12    1    3    3    0    0 -0.10311490420E+02 -0.66188028324E+01 -0.19321840938E+02  0.22879443238E+02  0.00000000000E+00 0. -1.
</event>
<event>
 7    1  0.4623443E-009  0.4614232E+02  0.7816164E-02  0.1320468E+00
        -11   -1    0    0    0    0  0.00000000000E+00  0.00000000000E+00  0.45593999997E+02  0.45594000000E+02  0.51100000000E-03 0. -1.
         11   -1    0    0    0    0 -0.00000000000E+00 -0.00000000000E+00 -0.45593999997E+02  0.45594000000E+02  0.51100000000E-03 0.  1.
    9900012    2    1    2    0    0 -0.20445672242E+01  0.42978169156E+02 -0.13334541189E+02  0.46142320208E+02  0.10000022316E+02 0.  0.
         12    1    1    2    0    0  0.20445672242E+01 -0.42978169156E+02  0.13334541189E+02  0.45045679792E+02  0.00000000000E+00 0. -1.
         11    1    3    3    0    0 -0.34248256366E+01  0.11274484309E+02 -0.68940954807E+01  0.13651812328E+02  0.51100000000E-03 0. -1.
        -11    1    3    3    0    0  0.13910648007E+01  0.67532147194E+01 -0.13352119202E+01  0.70230877439E+01  0.51100000000E-03 0.  1.
         12    1    3    3    0    0 -0.10806388311E-01  0.24950470128E+02 -0.51052337878E+01  0.25467420137E+02  0.00000000000E+00 0. -1.
</event>
<event>
 7    1  0.4623443E-009  0.4614232E+02  0.7816164E-02  0.1320468E+00
        -11   -1    0    0    0    0  0.00000000000E+00  0.00000000000E+00  0.45593999997E+02  0.45594000000E+02  0.51100000000E-03 0. -1.
         11   -1    0    0    0    0 -0.00000000000E+00 -0.00000000000E+00 -0.45593999997E+02  0.45594000000E+02  0.51100000000E-03 0.  1.
    9900012    2    1    2    0    0  0.14492726088E+02  0.58665072951E+01 -0.42245218648E+02  0.46142317455E+02  0.99999972085E+01 0.  0.
         12    1    1    2    0    0 -0.14492726088E+02 -0.58665072951E+01  0.42245218648E+02  0.45045682545E+02  0.00000000000E+00 0. -1.
         11    1    3    3    0    0  0.15721233733E+01  0.41756798780E+01 -0.14298418837E+02  0.14978406318E+02  0.51100000000E-03 0. -1.
        -11    1    3    3    0    0  0.81828064570E+01  0.25188547799E+00 -0.21698697550E+02  0.23191706351E+02  0.51100000000E-03 0.  1.
         12    1    3    3    0    0  0.47377962581E+01  0.14389419391E+01 -0.62481022612E+01  0.79722047863E+01  0.00000000000E+00 0. -1.
</event>
<event>
 7    1  0.4623443E-009  0.4614232E+02  0.7816164E-02  0.1320468E+00
        -11   -1    0    0    0    0  0.00000000000E+00  0.00000000000E+00  0.45593999997E+02  0.45594000000E+02  0.51100000000E-03 0. -1.
         11   -1    0    0    0    0 -0.00000000000E+00 -0.00000000000E+00 -0.45593999997E+02  0.45594000000E+02  0.51100000000E-03 0.  1.
    9900012    2    1    2    0    0  0.91187745580E+01 -0.16345299709E+02 -0.40973071960E+02  0.46142317656E+02  0.99999990438E+01 0.  0.
         12    1    1    2    0    0 -0.91187745580E+01  0.16345299709E+02  0.40973071960E+02  0.45045682344E+02  0.00000000000E+00 0. -1.
         11    1    3    3    0    0 -0.87721760224E+00 -0.39281524853E+01 -0.38848398111E+01  0.55939139507E+01  0.51100000000E-03 0. -1.
        -11    1    3    3    0    0  0.15020190259E+01 -0.32860748676E+01 -0.54278996874E+01  0.65204635163E+01  0.51100000000E-03 0.  1.
        -12    1    3    3    0    0  0.84939731343E+01 -0.91310723559E+01 -0.31660332461E+02  0.34027940189E+02  0.00000000000E+00 0.  1.
</event>
<event>
 7    1  0.4623443E-009  0.4614232E+02  0.7816164E-02  0.1320468E+00
        -11   -1    0    0    0    0  0.00000000000E+00  0.00000000000E+00  0.45593999997E+02  0.45594000000E+02  0.51100000000E-03 0.  1.
         11   -1    0    0    0    0 -0.00000000000E+00 -0.00000000000E+00 -0.45593999997E+02  0.45594000000E+02  0.51100000000E-03 0. -1.
    9900012    2    1    2    0    0  0.27635692624E+02  0.30084155985E+02 -0.18982239230E+02  0.46142319249E+02  0.10000013567E+02 0.  0.
         12    1    1    2    0    0 -0.27635692624E+02 -0.30084155985E+02  0.18982239230E+02  0.45045680751E+02  0.00000000000E+00 0. -1.
         11    1    3    3    0    0  0.16013252853E+02  0.18531240349E+02 -0.13424931876E+02  0.27929553021E+02  0.51100000000E-03 0. -1.
        -11    1    3    3    0    0  0.95724304061E+01  0.10908135098E+02 -0.64553541601E+01  0.15883653005E+02  0.51100000000E-03 0.  1.
         12    1    3    3    0    0  0.20500093651E+01  0.64478053745E+00  0.89804680594E+00  0.23291132227E+01  0.00000000000E+00 0. -1.
</event>
<event>
 7    1  0.4623443E-009  0.4614232E+02  0.7816164E-02  0.1320468E+00
        -11   -1    0    0    0    0  0.00000000000E+00  0.00000000000E+00  0.45593999997E+02  0.45594000000E+02  0.51100000000E-03 0. -1.
         11   -1    0    0    0    0 -0.00000000000E+00 -0.00000000000E+00 -0.45593999997E+02  0.45594000000E+02  0.51100000000E-03 0.  1.
    9900012    2    1    2    0    0 -0.19207631192E+02  0.17032816753E+02 -0.37014366533E+02  0.46142320159E+02  0.10000021863E+02 0.  0.
         12    1    1    2    0    0  0.19207631192E+02 -0.17032816753E+02  0.37014366533E+02  0.45045679841E+02  0.00000000000E+00 0. -1.
         11    1    3    3    0    0 -0.98799029211E+01  0.76531851248E+01 -0.11524884752E+02  0.17000196855E+02  0.51100000000E-03 0. -1.
        -11    1    3    3    0    0 -0.73841119404E+01  0.40261135667E+01 -0.14422583879E+02  0.16695676854E+02  0.51100000000E-03 0.  1.
        -12    1    3    3    0    0 -0.19436163305E+01  0.53535180618E+01 -0.11066897901E+02  0.12446446450E+02  0.00000000000E+00 0.  1.
</event>
<event>
 7    1  0.4623443E-009  0.4614231E+02  0.7816164E-02  0.1320468E+00
        -11   -1    0    0    0    0  0.00000000000E+00  0.00000000000E+00  0.45593999997E+02  0.45594000000E+02  0.51100000000E-03 0. -1.
         11   -1    0    0    0    0 -0.00000000000E+00 -0.00000000000E+00 -0.45593999997E+02  0.45594000000E+02  0.51100000000E-03 0.  1.
    9900012    2    1    2    0    0  0.13060726885E+02  0.75573255461E+01 -0.42443116238E+02  0.46142313501E+02  0.99999611566E+01 0.  0.
         12    1    1    2    0    0 -0.13060726885E+02 -0.75573255461E+01  0.42443116238E+02  0.45045686499E+02  0.00000000000E+00 0. -1.
         11    1    3    3    0    0  0.73418566519E+01  0.93952973656E+00 -0.14804372017E+02  0.16551586217E+02  0.51100000000E-03 0. -1.
        -11    1    3    3    0    0  0.32467806553E+00 -0.95271467338E+00 -0.12045230376E+01  0.15696996860E+01  0.51100000000E-03 0.  1.
        -12    1    3    3    0    0  0.53941921673E+01  0.75705104830E+01 -0.26434221183E+02  0.28021027598E+02  0.00000000000E+00 0.  1.
</event>
<event>
 7    1  0.4623443E-009  0.4614232E+02  0.7816164E-02  0.1320468E+00
        -11   -1    0    0    0    0  0.00000000000E+00  0.00000000000E+00  0.45593999997E+02  0.45594000000E+02  0.51100000000E-03 0. -1.
         11   -1    0    0    0    0 -0.00000000000E+00 -0.00000000000E+00 -0.45593999997E+02  0.45594000000E+02  0.51100000000E-03 0.  1.
    9900012    2    1    2    0    0 -0.17930920527E+02  0.12688939955E+02  0.39326663763E+02  0.46142316623E+02  0.99999896249E+01 0.  0.
        -12    1    1    2    0    0  0.17930920527E+02 -0.12688939955E+02 -0.39326663763E+02  0.45045683377E+02  0.00000000000E+00 0.  1.
         11    1    3    3    0    0 -0.10789587733E+01  0.14408076975E+01  0.92375986751E+01  0.94113393520E+01  0.51100000000E-03 0. -1.
        -11    1    3    3    0    0  0.34174878802E+00 -0.13548537356E+00  0.19885505354E+00  0.41796185711E+00  0.51100000000E-03 0.  1.
         12    1    3    3    0    0 -0.17193710542E+02  0.11383617631E+02  0.29890210035E+02  0.36313015414E+02  0.00000000000E+00 0. -1.
</event>
<event>
 7    1  0.4623443E-009  0.4614232E+02  0.7816164E-02  0.1320468E+00
        -11   -1    0    0    0    0  0.00000000000E+00  0.00000000000E+00  0.45593999997E+02  0.45594000000E+02  0.51100000000E-03 0. -1.
         11   -1    0    0    0    0 -0.00000000000E+00 -0.00000000000E+00 -0.45593999997E+02  0.45594000000E+02  0.51100000000E-03 0.  1.
    9900012    2    1    2    0    0 -0.85021940960E+01  0.39913303273E+02  0.19072346395E+02  0.46142317858E+02  0.10000000884E+02 0.  0.
        -12    1    1    2    0    0  0.85021940960E+01 -0.39913303273E+02 -0.19072346395E+02  0.45045682142E+02  0.00000000000E+00 0.  1.
         11    1    3    3    0    0 -0.21916550105E+01  0.52584267168E+01  0.16336022028E+01  0.59264710949E+01  0.51100000000E-03 0. -1.
        -11    1    3    3    0    0 -0.35506944109E+01  0.78691583652E+01  0.10591289960E+01  0.86978640290E+01  0.51100000000E-03 0.  1.
        -12    1    3    3    0    0 -0.27598446747E+01  0.26785718191E+02  0.16379615197E+02  0.31517982734E+02  0.00000000000E+00 0.  1.
</event>
<event>
 7    1  0.4623443E-009  0.4614232E+02  0.7816164E-02  0.1320468E+00
        -11   -1    0    0    0    0  0.00000000000E+00  0.00000000000E+00  0.45593999997E+02  0.45594000000E+02  0.51100000000E-03 0. -1.
         11   -1    0    0    0    0 -0.00000000000E+00 -0.00000000000E+00 -0.45593999997E+02  0.45594000000E+02  0.51100000000E-03 0.  1.
    9900012    2    1    2    0    0  0.38576719562E+02 -0.18527367878E+01  0.23184426650E+02  0.46142316912E+02  0.99999922580E+01 0.  0.
        -12    1    1    2    0    0 -0.38576719562E+02  0.18527367878E+01 -0.23184426650E+02  0.45045683088E+02  0.00000000000E+00 0.  1.
         11    1    3    3    0    0  0.28060797083E+02 -0.51221840707E+01  0.15327020317E+02  0.32381517176E+02  0.51100000000E-03 0. -1.
        -11    1    3    3    0    0  0.44076071926E+00 -0.33499010498E+00  0.15024410975E+00  0.57363920343E+00  0.51100000000E-03 0.  1.
         12    1    3    3    0    0  0.10075161760E+02  0.36044373878E+01  0.77071622237E+01  0.13187160532E+02  0.00000000000E+00 0. -1.
</event>
<event>
 7    1  0.4623443E-009  0.4614232E+02  0.7816164E-02  0.1320468E+00
        -11   -1    0    0    0    0  0.00000000000E+00  0.00000000000E+00  0.45593999997E+02  0.45594000000E+02  0.51100000000E-03 0. -1.
         11   -1    0    0    0    0 -0.00000000000E+00 -0.00000000000E+00 -0.45593999997E+02  0.45594000000E+02  0.51100000000E-03 0.  1.
    9900012    2    1    2    0    0  0.15365497062E+02 -0.25007879363E+02  0.34170469197E+02  0.46142317684E+02  0.99999992960E+01 0.  0.
        -12    1    1    2    0    0 -0.15365497062E+02  0.25007879363E+02 -0.34170469197E+02  0.45045682316E+02  0.00000000000E+00 0.  1.
         11    1    3    3    0    0  0.55965936764E+01 -0.25143600687E+01  0.77155239968E+01  0.98576456692E+01  0.51100000000E-03 0.  1.
        -11    1    3    3    0    0  0.51549491355E+01 -0.14901275952E+02  0.18971732384E+02  0.24668768828E+02  0.51100000000E-03 0. -1.
        -12    1    3    3    0    0  0.46139542502E+01 -0.75922433424E+01  0.74832128164E+01  0.11615903187E+02  0.00000000000E+00 0.  1.
</event>
<event>
 7    1  0.4623443E-009  0.4614232E+02  0.7816164E-02  0.1320468E+00
        -11   -1    0    0    0    0  0.00000000000E+00  0.00000000000E+00  0.45593999997E+02  0.45594000000E+02  0.51100000000E-03 0. -1.
         11   -1    0    0    0    0 -0.00000000000E+00 -0.00000000000E+00 -0.45593999997E+02  0.45594000000E+02  0.51100000000E-03 0.  1.
    9900012    2    1    2    0    0  0.30749606433E+02  0.13351660837E+02  0.30088343282E+02  0.46142317140E+02  0.99999943328E+01 0.  0.
        -12    1    1    2    0    0 -0.30749606433E+02 -0.13351660837E+02 -0.30088343282E+02  0.45045682860E+02  0.00000000000E+00 0.  1.
         11    1    3    3    0    0  0.17325592691E+02  0.66321138404E+01  0.15040248604E+02  0.23882423965E+02  0.51100000000E-03 0. -1.
        -11    1    3    3    0    0  0.66027113295E+01  0.59126330475E+00  0.34451744559E+01  0.74709180486E+01  0.51100000000E-03 0.  1.
        -12    1    3    3    0    0  0.68213024125E+01  0.61282836920E+01  0.11602920222E+02  0.14788975126E+02  0.00000000000E+00 0.  1.
</event>
<event>
 7    1  0.4623443E-009  0.4614232E+02  0.7816164E-02  0.1320468E+00
        -11   -1    0    0    0    0  0.00000000000E+00  0.00000000000E+00  0.45593999997E+02  0.45594000000E+02  0.51100000000E-03 0. -1.
         11   -1    0    0    0    0 -0.00000000000E+00 -0.00000000000E+00 -0.45593999997E+02  0.45594000000E+02  0.51100000000E-03 0.  1.
    9900012    2    1    2    0    0 -0.32205491291E+01 -0.99345813141E+01  0.43818325643E+02  0.46142317579E+02  0.99999983401E+01 0.  0.
        -12    1    1    2    0    0  0.32205491291E+01  0.99345813141E+01 -0.43818325643E+02  0.45045682421E+02  0.00000000000E+00 0.  1.
         11    1    3    3    0    0 -0.50401746538E+01 -0.59375445222E+01  0.30540910371E+02  0.31518328033E+02  0.51100000000E-03 0. -1.
        -11    1    3    3    0    0  0.96904713701E+00 -0.23984326040E+01  0.12294354900E+02  0.12563546234E+02  0.51100000000E-03 0.  1.
        -12    1    3    3    0    0  0.85057838776E+00 -0.15986041880E+01  0.98306037275E+00  0.20604433115E+01  0.00000000000E+00 0.  1.
</event>
<event>
 7    1  0.4623443E-009  0.4614232E+02  0.7816164E-02  0.1320468E+00
        -11   -1    0    0    0    0  0.00000000000E+00  0.00000000000E+00  0.45593999997E+02  0.45594000000E+02  0.51100000000E-03 0. -1.
         11   -1    0    0    0    0 -0.00000000000E+00 -0.00000000000E+00 -0.45593999997E+02  0.45594000000E+02  0.51100000000E-03 0.  1.
    9900012    2    1    2    0    0  0.55950171938E+01 -0.31936398905E+02  0.31271004507E+02  0.46142317463E+02  0.99999972774E+01 0.  0.
        -12    1    1    2    0    0 -0.55950171938E+01  0.31936398905E+02 -0.31271004507E+02  0.45045682537E+02  0.00000000000E+00 0.  1.
         11    1    3    3    0    0 -0.55439039260E+00 -0.43509653684E+01  0.65724229476E+01  0.79015816143E+01  0.51100000000E-03 0. -1.
        -11    1    3    3    0    0  0.35286477375E+01 -0.17084314974E+02  0.10406883281E+02  0.20313256579E+02  0.51100000000E-03 0.  1.
        -12    1    3    3    0    0  0.26207598488E+01 -0.10501118563E+02  0.14291698279E+02  0.17927479269E+02  0.00000000000E+00 0.  1.
</event>
<event>
 7    1  0.4623443E-009  0.4614233E+02  0.7816164E-02  0.1320468E+00
        -11   -1    0    0    0    0  0.00000000000E+00  0.00000000000E+00  0.45593999997E+02  0.45594000000E+02  0.51100000000E-03 0.  1.
         11   -1    0    0    0    0 -0.00000000000E+00 -0.00000000000E+00 -0.45593999997E+02  0.45594000000E+02  0.51100000000E-03 0. -1.
    9900012    2    1    2    0    0 -0.32041377398E+02  0.28546780877E+02  0.13694679017E+02  0.46142325431E+02  0.10000069937E+02 0.  0.
        -12    1    1    2    0    0  0.32041377398E+02 -0.28546780877E+02 -0.13694679017E+02  0.45045674569E+02  0.00000000000E+00 0.  1.
         11    1    3    3    0    0 -0.53745434252E+00  0.24454210720E+00  0.58017030755E-01  0.59331631485E+00  0.51100000000E-03 0. -1.
        -11    1    3    3    0    0 -0.80364565751E+01  0.85197458120E+01 -0.57339611859E+00  0.11726017498E+02  0.51100000000E-03 0.  1.
        -12    1    3    3    0    0 -0.23467466481E+02  0.19782492958E+02  0.14210058105E+02  0.33822991618E+02  0.00000000000E+00 0.  1.
</event>
<event>
 7    1  0.4623443E-009  0.4614232E+02  0.7816164E-02  0.1320468E+00
        -11   -1    0    0    0    0  0.00000000000E+00  0.00000000000E+00  0.45593999997E+02  0.45594000000E+02  0.51100000000E-03 0. -1.
         11   -1    0    0    0    0 -0.00000000000E+00 -0.00000000000E+00 -0.45593999997E+02  0.45594000000E+02  0.51100000000E-03 0.  1.
    9900012    2    1    2    0    0  0.13303133263E+02 -0.84535681396E+01  0.42198070722E+02  0.46142319391E+02  0.10000014862E+02 0.  0.
        -12    1    1    2    0    0 -0.13303133263E+02  0.84535681396E+01 -0.42198070722E+02  0.45045680609E+02  0.00000000000E+00 0.  1.
         11    1    3    3    0    0  0.36911731445E+01 -0.49960684965E+00  0.10559138259E+02  0.11196864169E+02  0.51100000000E-03 0. -1.
        -11    1    3    3    0    0  0.10088593902E+02 -0.42541029250E+01  0.21207018884E+02  0.23866603630E+02  0.51100000000E-03 0.  1.
        -12    1    3    3    0    0 -0.47663378352E+00 -0.36998583650E+01  0.10431913579E+02  0.11078851592E+02  0.00000000000E+00 0.  1.
</event>
<event>
 7    1  0.4623443E-009  0.4614232E+02  0.7816164E-02  0.1320468E+00
        -11   -1    0    0    0    0  0.00000000000E+00  0.00000000000E+00  0.45593999997E+02  0.45594000000E+02  0.51100000000E-03 0. -1.
         11   -1    0    0    0    0 -0.00000000000E+00 -0.00000000000E+00 -0.45593999997E+02  0.45594000000E+02  0.51100000000E-03 0.  1.
    9900012    2    1    2    0    0  0.34127750325E+02 -0.28824481250E+02  0.57930568649E+01  0.46142316862E+02  0.99999917980E+01 0.  0.
        -12    1    1    2    0    0 -0.34127750325E+02  0.28824481250E+02 -0.57930568649E+01  0.45045683138E+02  0.00000000000E+00 0.  1.
         11    1    3    3    0    0  0.29687514199E+02 -0.26282541007E+02  0.48261498629E+01  0.39942611130E+02  0.51100000000E-03 0. -1.
        -11    1    3    3    0    0  0.35280475591E+01 -0.22367077198E+01 -0.73815171516E+00  0.42420336183E+01  0.51100000000E-03 0.  1.
        -12    1    3    3    0    0  0.91218856687E+00 -0.30523252236E+00  0.17050587171E+01  0.19576721132E+01  0.00000000000E+00 0.  1.
</event>
<event>
 7    1  0.6556961E-009  0.4614232E+02  0.7816164E-02  0.1320468E+00
        -11   -1    0    0    0    0  0.00000000000E+00  0.00000000000E+00  0.45593999997E+02  0.45594000000E+02  0.51100000000E-03 0. -1.
         11   -1    0    0    0    0 -0.00000000000E+00 -0.00000000000E+00 -0.45593999997E+02  0.45594000000E+02  0.51100000000E-03 0.  1.
    9900012    2    1    2    0    0  0.24047719762E+02 -0.94359397286E+01 -0.36902353135E+02  0.46142318173E+02  0.10000003760E+02 0.  0.
         12    1    1    2    0    0 -0.24047719762E+02  0.94359397286E+01  0.36902353135E+02  0.45045681827E+02  0.00000000000E+00 0. -1.
         11    1    3    3    0    0  0.77920654773E+01 -0.31789565800E+01 -0.18170046635E+02  0.20024301344E+02  0.51100000000E-03 0. -1.
        -11    1    3    3    0    0  0.46280045465E+01 -0.17975073938E+01 -0.91293996732E+01  0.10392083408E+02  0.51100000000E-03 0.  1.
         12    1    3    3    0    0  0.11627649738E+02 -0.44594757548E+01 -0.96029068273E+01  0.15725933421E+02  0.00000000000E+00 0. -1.
</event>
<event>
 7    1  0.4623443E-009  0.4614232E+02  0.7816164E-02  0.1320468E+00
        -11   -1    0    0    0    0  0.00000000000E+00  0.00000000000E+00  0.45593999997E+02  0.45594000000E+02  0.51100000000E-03 0. -1.
         11   -1    0    0    0    0 -0.00000000000E+00 -0.00000000000E+00 -0.45593999997E+02  0.45594000000E+02  0.51100000000E-03 0.  1.
    9900012    2    1    2    0    0  0.10758662989E+02  0.36780156554E+02  0.23676670545E+02  0.46142317926E+02  0.10000001504E+02 0.  0.
        -12    1    1    2    0    0 -0.10758662989E+02 -0.36780156554E+02 -0.23676670545E+02  0.45045682074E+02  0.00000000000E+00 0.  1.
         11    1    3    3    0    0  0.49797124819E+00  0.54932714119E-01  0.68153921144E+00  0.84586578424E+00  0.51100000000E-03 0. -1.
        -11    1    3    3    0    0  0.19344750866E+01  0.35285484350E+01 -0.70353931659E-01  0.40246487866E+01  0.51100000000E-03 0.  1.
         12    1    3    3    0    0  0.83262166539E+01  0.33196675405E+02  0.23065485265E+02  0.41271803355E+02  0.00000000000E+00 0. -1.
</event>
<event>
 7    1  0.4623443E-009  0.4614232E+02  0.7816164E-02  0.1320468E+00
        -11   -1    0    0    0    0  0.00000000000E+00  0.00000000000E+00  0.45593999997E+02  0.45594000000E+02  0.51100000000E-03 0. -1.
         11   -1    0    0    0    0 -0.00000000000E+00 -0.00000000000E+00 -0.45593999997E+02  0.45594000000E+02  0.51100000000E-03 0.  1.
    9900012    2    1    2    0    0 -0.13101535828E+02  0.14474147831E+01  0.43073981360E+02  0.46142321841E+02  0.10000037201E+02 0.  0.
        -12    1    1    2    0    0  0.13101535828E+02 -0.14474147831E+01 -0.43073981360E+02  0.45045678159E+02  0.00000000000E+00 0.  1.
         11    1    3    3    0    0 -0.64603799041E+01 -0.10192667800E+01  0.32866867295E+02  0.33511287342E+02  0.51100000000E-03 0. -1.
        -11    1    3    3    0    0 -0.35038858596E+01  0.24367596333E+01  0.52708769648E+01  0.67821204551E+01  0.51100000000E-03 0.  1.
         12    1    3    3    0    0 -0.31372700640E+01  0.29921929729E-01  0.49362371002E+01  0.58489140433E+01  0.00000000000E+00 0. -1.
</event>
<event>
 7    1  0.4623443E-009  0.4614232E+02  0.7816164E-02  0.1320468E+00
        -11   -1    0    0    0    0  0.00000000000E+00  0.00000000000E+00  0.45593999997E+02  0.45594000000E+02  0.51100000000E-03 0.  1.
         11   -1    0    0    0    0 -0.00000000000E+00 -0.00000000000E+00 -0.45593999997E+02  0.45594000000E+02  0.51100000000E-03 0. -1.
    9900012    2    1    2    0    0 -0.29230029109E+02  0.24696209816E+02 -0.23765854988E+02  0.46142320470E+02  0.10000024704E+02 0.  0.
         12    1    1    2    0    0  0.29230029109E+02 -0.24696209816E+02  0.23765854988E+02  0.45045679530E+02  0.00000000000E+00 0. -1.
         11    1    3    3    0    0 -0.14608395663E+02  0.18489380504E+02 -0.14311318000E+02  0.27569480199E+02  0.51100000000E-03 0.  1.
        -11    1    3    3    0    0 -0.80762514831E+01  0.28142927043E+01 -0.42638441845E+01  0.95564872696E+01  0.51100000000E-03 0. -1.
        -12    1    3    3    0    0 -0.65453819632E+01  0.33925366075E+01 -0.51906928034E+01  0.90163530020E+01  0.00000000000E+00 0.  1.
</event>
<event>
 7    1  0.4623443E-009  0.4614232E+02  0.7816164E-02  0.1320468E+00
        -11   -1    0    0    0    0  0.00000000000E+00  0.00000000000E+00  0.45593999997E+02  0.45594000000E+02  0.51100000000E-03 0. -1.
         11   -1    0    0    0    0 -0.00000000000E+00 -0.00000000000E+00 -0.45593999997E+02  0.45594000000E+02  0.51100000000E-03 0.  1.
    9900012    2    1    2    0    0 -0.27978548231E+02  0.52437043022E+00  0.35299282889E+02  0.46142317655E+02  0.99999990307E+01 0.  0.
        -12    1    1    2    0    0  0.27978548231E+02 -0.52437043022E+00 -0.35299282889E+02  0.45045682345E+02  0.00000000000E+00 0.  1.
         11    1    3    3    0    0 -0.19060953915E+02  0.31101077207E+01  0.20084664908E+02  0.27863712942E+02  0.51100000000E-03 0. -1.
        -11    1    3    3    0    0 -0.81616677277E+01 -0.84029143441E+00  0.12815163095E+02  0.15216678850E+02  0.51100000000E-03 0.  1.
        -12    1    3    3    0    0 -0.75592658820E+00 -0.17454458560E+01  0.23994548854E+01  0.30619258630E+01  0.00000000000E+00 0.  1.
</event>
<event>
 7    1  0.4623443E-009  0.4614231E+02  0.7816164E-02  0.1320468E+00
        -11   -1    0    0    0    0  0.00000000000E+00  0.00000000000E+00  0.45593999997E+02  0.45594000000E+02  0.51100000000E-03 0. -1.
         11   -1    0    0    0    0 -0.00000000000E+00 -0.00000000000E+00 -0.45593999997E+02  0.45594000000E+02  0.51100000000E-03 0.  1.
    9900012    2    1    2    0    0  0.19349204437E+02 -0.75460598730E+00  0.40671274931E+02  0.46142314890E+02  0.99999738183E+01 0.  0.
        -12    1    1    2    0    0 -0.19349204437E+02  0.75460598730E+00 -0.40671274931E+02  0.45045685110E+02  0.00000000000E+00 0.  1.
         11    1    3    3    0    0  0.28973956379E+01  0.89181658043E+00  0.16993335524E+01  0.34753378367E+01  0.51100000000E-03 0.  1.
        -11    1    3    3    0    0  0.13660617486E+02 -0.28367171301E+01  0.28005269828E+02  0.31288249752E+02  0.51100000000E-03 0. -1.
        -12    1    3    3    0    0  0.27911913135E+01  0.11902945624E+01  0.10966671551E+02  0.11378727301E+02  0.00000000000E+00 0.  1.
</event>
<event>
 7    1  0.4623443E-009  0.4614231E+02  0.7816164E-02  0.1320468E+00
        -11   -1    0    0    0    0  0.00000000000E+00  0.00000000000E+00  0.45593999997E+02  0.45594000000E+02  0.51100000000E-03 0. -1.
         11   -1    0    0    0    0 -0.00000000000E+00 -0.00000000000E+00 -0.45593999997E+02  0.45594000000E+02  0.51100000000E-03 0.  1.
    9900012    2    1    2    0    0  0.26673394259E+01  0.33289916685E+02 -0.30228805440E+02  0.46142312850E+02  0.99999552123E+01 0.  0.
         12    1    1    2    0    0 -0.26673394259E+01 -0.33289916685E+02  0.30228805440E+02  0.45045687150E+02  0.00000000000E+00 0. -1.
         11    1    3    3    0    0  0.34774882977E+01  0.46253294083E+01 -0.45144431194E+01  0.73394001073E+01  0.51100000000E-03 0. -1.
        -11    1    3    3    0    0 -0.39481573588E-01  0.13629296702E+02 -0.15336903793E+02  0.20517794853E+02  0.51100000000E-03 0.  1.
        -12    1    3    3    0    0 -0.77066729817E+00  0.15035290574E+02 -0.10377458528E+02  0.18285117890E+02  0.00000000000E+00 0.  1.
</event>
<event>
 7    1  0.4623443E-009  0.4614232E+02  0.7816164E-02  0.1320468E+00
        -11   -1    0    0    0    0  0.00000000000E+00  0.00000000000E+00  0.45593999997E+02  0.45594000000E+02  0.51100000000E-03 0. -1.
         11   -1    0    0    0    0 -0.00000000000E+00 -0.00000000000E+00 -0.45593999997E+02  0.45594000000E+02  0.51100000000E-03 0.  1.
    9900012    2    1    2    0    0 -0.40015450246E+01  0.41225018381E+02 -0.17708729086E+02  0.46142316644E+02  0.99999898165E+01 0.  0.
         12    1    1    2    0    0  0.40015450246E+01 -0.41225018381E+02  0.17708729086E+02  0.45045683356E+02  0.00000000000E+00 0. -1.
         11    1    3    3    0    0  0.28498004047E+01  0.17392834847E+02 -0.57593005899E+01  0.18541887981E+02  0.51100000000E-03 0. -1.
        -11    1    3    3    0    0 -0.11153819884E+01  0.71501286868E+01 -0.33037253334E+01  0.79550624484E+01  0.51100000000E-03 0.  1.
         12    1    3    3    0    0 -0.57359634409E+01  0.16682054848E+02 -0.86457031626E+01  0.19645366215E+02  0.00000000000E+00 0. -1.
</event>
<event>
 7    1  0.4623443E-009  0.4614232E+02  0.7816164E-02  0.1320468E+00
        -11   -1    0    0    0    0  0.00000000000E+00  0.00000000000E+00  0.45593999997E+02  0.45594000000E+02  0.51100000000E-03 0. -1.
         11   -1    0    0    0    0 -0.00000000000E+00 -0.00000000000E+00 -0.45593999997E+02  0.45594000000E+02  0.51100000000E-03 0.  1.
    9900012    2    1    2    0    0  0.11291926526E+02  0.25545466216E+02 -0.35341689455E+02  0.46142318050E+02  0.10000002630E+02 0.  0.
         12    1    1    2    0    0 -0.11291926526E+02 -0.25545466216E+02  0.35341689455E+02  0.45045681950E+02  0.00000000000E+00 0. -1.
         11    1    3    3    0    0  0.23304524912E+01  0.43442381044E+01 -0.11542554475E+02  0.12551254025E+02  0.51100000000E-03 0. -1.
        -11    1    3    3    0    0  0.32408771944E+01  0.13142782813E+02 -0.16284865429E+02  0.21176233550E+02  0.51100000000E-03 0.  1.
        -12    1    3    3    0    0  0.57205968398E+01  0.80584452989E+01 -0.75142695501E+01  0.12414830475E+02  0.00000000000E+00 0.  1.
</event>
<event>
 7    1  0.4623443E-009  0.4614232E+02  0.7816164E-02  0.1320468E+00
        -11   -1    0    0    0    0  0.00000000000E+00  0.00000000000E+00  0.45593999997E+02  0.45594000000E+02  0.51100000000E-03 0. -1.
         11   -1    0    0    0    0 -0.00000000000E+00 -0.00000000000E+00 -0.45593999997E+02  0.45594000000E+02  0.51100000000E-03 0.  1.
    9900012    2    1    2    0    0 -0.11443126093E+02  0.16158072879E+02  0.40460907638E+02  0.46142317622E+02  0.99999987344E+01 0.  0.
        -12    1    1    2    0    0  0.11443126093E+02 -0.16158072879E+02 -0.40460907638E+02  0.45045682378E+02  0.00000000000E+00 0.  1.
         11    1    3    3    0    0 -0.33093746608E+01  0.21986593910E+01  0.22747227264E+01  0.45782559459E+01  0.51100000000E-03 0. -1.
        -11    1    3    3    0    0 -0.62041233040E-01  0.93173377453E+00  0.38718389298E+01  0.39828524829E+01  0.51100000000E-03 0.  1.
        -12    1    3    3    0    0 -0.80717101994E+01  0.13027679713E+02  0.34314345982E+02  0.37581209193E+02  0.00000000000E+00 0.  1.
</event>
<event>
 7    1  0.4623443E-009  0.4614232E+02  0.7816164E-02  0.1320468E+00
        -11   -1    0    0    0    0  0.00000000000E+00  0.00000000000E+00  0.45593999997E+02  0.45594000000E+02  0.51100000000E-03 0. -1.
         11   -1    0    0    0    0 -0.00000000000E+00 -0.00000000000E+00 -0.45593999997E+02  0.45594000000E+02  0.51100000000E-03 0.  1.
    9900012    2    1    2    0    0 -0.39174022882E+01  0.26167970769E+02  0.36455517812E+02  0.46142317479E+02  0.99999974280E+01 0.  0.
        -12    1    1    2    0    0  0.39174022882E+01 -0.26167970769E+02 -0.36455517812E+02  0.45045682521E+02  0.00000000000E+00 0.  1.
         11    1    3    3    0    0 -0.21259728420E+01  0.60174528033E+01  0.77292814185E+01  0.10023536815E+02  0.51100000000E-03 0. -1.
        -11    1    3    3    0    0  0.14223985716E+01  0.14811583055E+02  0.24231210797E+02  0.28435150557E+02  0.51100000000E-03 0.  1.
        -12    1    3    3    0    0 -0.32138280178E+01  0.53389349107E+01  0.44950255968E+01  0.76836301072E+01  0.00000000000E+00 0.  1.
</event>
<event>
 7    1  0.4623443E-009  0.4614232E+02  0.7816164E-02  0.1320468E+00
        -11   -1    0    0    0    0  0.00000000000E+00  0.00000000000E+00  0.45593999997E+02  0.45594000000E+02  0.51100000000E-03 0. -1.
         11   -1    0    0    0    0 -0.00000000000E+00 -0.00000000000E+00 -0.45593999997E+02  0.45594000000E+02  0.51100000000E-03 0.  1.
    9900012    2    1    2    0    0 -0.29613242317E+02 -0.33560633371E+02 -0.50846061817E+01  0.46142318156E+02  0.10000003599E+02 0.  0.
         12    1    1    2    0    0  0.29613242317E+02  0.33560633371E+02  0.50846061817E+01  0.45045681844E+02  0.00000000000E+00 0. -1.
         11    1    3    3    0    0 -0.42529708946E+00 -0.25365049286E+01 -0.62537482438E+00  0.26468526213E+01  0.51100000000E-03 0. -1.
        -11    1    3    3    0    0 -0.13502195895E+02 -0.16002507877E+02  0.14486305852E+01  0.20987807965E+02  0.51100000000E-03 0.  1.
         12    1    3    3    0    0 -0.15685749332E+02 -0.15021620565E+02 -0.59078619424E+01  0.22507657569E+02  0.00000000000E+00 0. -1.
</event>
<event>
 7    1  0.4623443E-009  0.4614232E+02  0.7816164E-02  0.1320468E+00
        -11   -1    0    0    0    0  0.00000000000E+00  0.00000000000E+00  0.45593999997E+02  0.45594000000E+02  0.51100000000E-03 0. -1.
         11   -1    0    0    0    0 -0.00000000000E+00 -0.00000000000E+00 -0.45593999997E+02  0.45594000000E+02  0.51100000000E-03 0.  1.
    9900012    2    1    2    0    0 -0.11592681524E+01  0.22058532831E+02  0.39258001521E+02  0.46142318112E+02  0.10000003203E+02 0.  0.
        -12    1    1    2    0    0  0.11592681524E+01 -0.22058532831E+02 -0.39258001521E+02  0.45045681888E+02  0.00000000000E+00 0.  1.
         11    1    3    3    0    0  0.97639435812E+00  0.70487625806E+01  0.18316593454E+02  0.19650343404E+02  0.51100000000E-03 0. -1.
        -11    1    3    3    0    0  0.14291660783E+01  0.98329573861E+01  0.12532136893E+02  0.15993249264E+02  0.51100000000E-03 0.  1.
        -12    1    3    3    0    0 -0.35648285888E+01  0.51768128647E+01  0.84092711736E+01  0.10498725445E+02  0.00000000000E+00 0.  1.
</event>
<event>
 7    1  0.4623443E-009  0.4614232E+02  0.7816164E-02  0.1320468E+00
        -11   -1    0    0    0    0  0.00000000000E+00  0.00000000000E+00  0.45593999997E+02  0.45594000000E+02  0.51100000000E-03 0. -1.
         11   -1    0    0    0    0 -0.00000000000E+00 -0.00000000000E+00 -0.45593999997E+02  0.45594000000E+02  0.51100000000E-03 0.  1.
    9900012    2    1    2    0    0  0.31320684341E+02 -0.25833103433E+02 -0.19513555026E+02  0.46142319515E+02  0.10000015995E+02 0.  0.
         12    1    1    2    0    0 -0.31320684341E+02  0.25833103433E+02  0.19513555026E+02  0.45045680485E+02  0.00000000000E+00 0. -1.
         11    1    3    3    0    0  0.46077663348E+01 -0.54550912830E+01 -0.91612472353E+00  0.71992233104E+01  0.51100000000E-03 0. -1.
        -11    1    3    3    0    0  0.10405653829E+02 -0.11184176888E+02 -0.61810336839E+01  0.16479339245E+02  0.51100000000E-03 0.  1.
        -12    1    3    3    0    0  0.16307264177E+02 -0.91938352611E+01 -0.12416396619E+02  0.22463756960E+02  0.00000000000E+00 0.  1.
</event>
<event>
 7    1  0.4623443E-009  0.4614232E+02  0.7816164E-02  0.1320468E+00
        -11   -1    0    0    0    0  0.00000000000E+00  0.00000000000E+00  0.45593999997E+02  0.45594000000E+02  0.51100000000E-03 0. -1.
         11   -1    0    0    0    0 -0.00000000000E+00 -0.00000000000E+00 -0.45593999997E+02  0.45594000000E+02  0.51100000000E-03 0.  1.
    9900012    2    1    2    0    0  0.25069819957E+02  0.22976527931E+02 -0.29541437988E+02  0.46142320220E+02  0.10000022425E+02 0.  0.
         12    1    1    2    0    0 -0.25069819957E+02 -0.22976527931E+02  0.29541437988E+02  0.45045679780E+02  0.00000000000E+00 0. -1.
         11    1    3    3    0    0  0.40970863143E+01  0.35844225982E+01 -0.58068687456E+01  0.79595179828E+01  0.51100000000E-03 0. -1.
        -11    1    3    3    0    0  0.38804093158E+01  0.58874685404E+00 -0.60955727877E+01  0.72498418732E+01  0.51100000000E-03 0.  1.
        -12    1    3    3    0    0  0.17092324327E+02  0.18803358479E+02 -0.17638996454E+02  0.30932960364E+02  0.00000000000E+00 0.  1.
</event>
<event>
 7    1  0.4623443E-009  0.4614231E+02  0.7816164E-02  0.1320468E+00
        -11   -1    0    0    0    0  0.00000000000E+00  0.00000000000E+00  0.45593999997E+02  0.45594000000E+02  0.51100000000E-03 0. -1.
         11   -1    0    0    0    0 -0.00000000000E+00 -0.00000000000E+00 -0.45593999997E+02  0.45594000000E+02  0.51100000000E-03 0.  1.
    9900012    2    1    2    0    0 -0.11828420922E+02  0.39500598386E+02  0.18135736503E+02  0.46142314826E+02  0.99999732311E+01 0.  0.
        -12    1    1    2    0    0  0.11828420922E+02 -0.39500598386E+02 -0.18135736503E+02  0.45045685174E+02  0.00000000000E+00 0.  1.
         11    1    3    3    0    0 -0.47176023220E+00  0.68875088060E+01  0.46488204201E+01  0.83229722353E+01  0.51100000000E-03 0. -1.
        -11    1    3    3    0    0 -0.31705617538E+01  0.96025956467E+01  0.42219429030E+00  0.10121292075E+02  0.51100000000E-03 0.  1.
        -12    1    3    3    0    0 -0.81860989362E+01  0.23010493933E+02  0.13064721792E+02  0.27698050515E+02  0.00000000000E+00 0.  1.
</event>
<event>
 7    1  0.4623443E-009  0.4614232E+02  0.7816164E-02  0.1320468E+00
        -11   -1    0    0    0    0  0.00000000000E+00  0.00000000000E+00  0.45593999997E+02  0.45594000000E+02  0.51100000000E-03 0. -1.
         11   -1    0    0    0    0 -0.00000000000E+00 -0.00000000000E+00 -0.45593999997E+02  0.45594000000E+02  0.51100000000E-03 0.  1.
    9900012    2    1    2    0    0  0.70034048391E+01  0.25086596579E+02 -0.36752258158E+02  0.46142317777E+02  0.10000000142E+02 0.  0.
         12    1    1    2    0    0 -0.70034048391E+01 -0.25086596579E+02  0.36752258158E+02  0.45045682223E+02  0.00000000000E+00 0. -1.
         11    1    3    3    0    0 -0.21300919549E+00  0.21398543586E+01 -0.49618303856E+00  0.22069316850E+01  0.51100000000E-03 0. -1.
        -11    1    3    3    0    0  0.19026190845E+00  0.84234000724E+01 -0.95612654525E+01  0.12743926620E+02  0.51100000000E-03 0.  1.
        -12    1    3    3    0    0  0.70261521262E+01  0.14523342148E+02 -0.26694809667E+02  0.31191459472E+02  0.00000000000E+00 0.  1.
</event>
<event>
 7    1  0.4623443E-009  0.4614232E+02  0.7816164E-02  0.1320468E+00
        -11   -1    0    0    0    0  0.00000000000E+00  0.00000000000E+00  0.45593999997E+02  0.45594000000E+02  0.51100000000E-03 0. -1.
         11   -1    0    0    0    0 -0.00000000000E+00 -0.00000000000E+00 -0.45593999997E+02  0.45594000000E+02  0.51100000000E-03 0.  1.
    9900012    2    1    2    0    0  0.17253042918E+02  0.92743778112E+01 -0.40563925067E+02  0.46142316627E+02  0.99999896614E+01 0.  0.
         12    1    1    2    0    0 -0.17253042918E+02 -0.92743778112E+01  0.40563925067E+02  0.45045683373E+02  0.00000000000E+00 0. -1.
         11    1    3    3    0    0  0.31775445700E+01  0.32750979661E+01 -0.13963128327E+02  0.14689860759E+02  0.51100000000E-03 0.  1.
        -11    1    3    3    0    0  0.69837935839E+00  0.47803998415E+00 -0.71954057796E+01  0.72450065941E+01  0.51100000000E-03 0. -1.
         12    1    3    3    0    0  0.13377118989E+02  0.55212398609E+01 -0.19405390960E+02  0.24207449274E+02  0.00000000000E+00 0. -1.
</event>
<event>
 7    1  0.4623443E-009  0.4614232E+02  0.7816164E-02  0.1320468E+00
        -11   -1    0    0    0    0  0.00000000000E+00  0.00000000000E+00  0.45593999997E+02  0.45594000000E+02  0.51100000000E-03 0.  1.
         11   -1    0    0    0    0 -0.00000000000E+00 -0.00000000000E+00 -0.45593999997E+02  0.45594000000E+02  0.51100000000E-03 0. -1.
    9900012    2    1    2    0    0  0.30169745886E+02 -0.26250338447E+02 -0.20732098089E+02  0.46142315117E+02  0.99999758922E+01 0.  0.
         12    1    1    2    0    0 -0.30169745886E+02  0.26250338447E+02  0.20732098089E+02  0.45045684883E+02  0.00000000000E+00 0. -1.
         11    1    3    3    0    0  0.89321377752E+00 -0.83803920510E-01 -0.28090461850E+00  0.94008596164E+00  0.51100000000E-03 0. -1.
        -11    1    3    3    0    0  0.29835240117E+02 -0.25502722219E+02 -0.19238158577E+02  0.43710835488E+02  0.51100000000E-03 0.  1.
        -12    1    3    3    0    0 -0.55870800862E+00 -0.66381230782E+00 -0.12130348935E+01  0.14913936676E+01  0.00000000000E+00 0.  1.
</event>
<event>
 7    1  0.4623443E-009  0.4614232E+02  0.7816164E-02  0.1320468E+00
        -11   -1    0    0    0    0  0.00000000000E+00  0.00000000000E+00  0.45593999997E+02  0.45594000000E+02  0.51100000000E-03 0. -1.
         11   -1    0    0    0    0 -0.00000000000E+00 -0.00000000000E+00 -0.45593999997E+02  0.45594000000E+02  0.51100000000E-03 0.  1.
    9900012    2    1    2    0    0 -0.32445359765E+02 -0.17475533430E+02 -0.25904011525E+02  0.46142318164E+02  0.10000003677E+02 0.  0.
         12    1    1    2    0    0  0.32445359765E+02  0.17475533430E+02  0.25904011525E+02  0.45045681836E+02  0.00000000000E+00 0. -1.
         11    1    3    3    0    0 -0.71562027696E+01 -0.59860926297E+01 -0.40154915458E+01  0.10157200188E+02  0.51100000000E-03 0. -1.
        -11    1    3    3    0    0 -0.20974426358E+02 -0.65111623954E+01 -0.16377026447E+02  0.27395780556E+02  0.51100000000E-03 0.  1.
        -12    1    3    3    0    0 -0.43147306370E+01 -0.49782784052E+01 -0.55114935323E+01  0.85893374195E+01  0.00000000000E+00 0.  1.
</event>
<event>
 7    1  0.4623443E-009  0.4614232E+02  0.7816164E-02  0.1320468E+00
        -11   -1    0    0    0    0  0.00000000000E+00  0.00000000000E+00  0.45593999997E+02  0.45594000000E+02  0.51100000000E-03 0. -1.
         11   -1    0    0    0    0 -0.00000000000E+00 -0.00000000000E+00 -0.45593999997E+02  0.45594000000E+02  0.51100000000E-03 0.  1.
    9900012    2    1    2    0    0  0.25808841771E+02  0.11097189983E+02  0.35211780400E+02  0.46142318542E+02  0.10000007120E+02 0.  0.
        -12    1    1    2    0    0 -0.25808841771E+02 -0.11097189983E+02 -0.35211780400E+02  0.45045681458E+02  0.00000000000E+00 0.  1.
         11    1    3    3    0    0  0.10004478996E+02  0.80220110527E+01  0.21302822877E+02  0.24864684275E+02  0.51100000000E-03 0. -1.
        -11    1    3    3    0    0  0.56424853628E+01  0.10981786299E+01  0.50989920546E+01  0.76839675694E+01  0.51100000000E-03 0.  1.
         12    1    3    3    0    0  0.10161877412E+02  0.19770003005E+01  0.88099654685E+01  0.13593666697E+02  0.00000000000E+00 0. -1.
</event>
<event>
 7    1  0.4623443E-009  0.4614232E+02  0.7816164E-02  0.1320468E+00
        -11   -1    0    0    0    0  0.00000000000E+00  0.00000000000E+00  0.45593999997E+02  0.45594000000E+02  0.51100000000E-03 0. -1.
         11   -1    0    0    0    0 -0.00000000000E+00 -0.00000000000E+00 -0.45593999997E+02  0.45594000000E+02  0.51100000000E-03 0.  1.
    9900012    2    1    2    0    0  0.34174158259E+01  0.25754991634E+02 -0.36798305662E+02  0.46142316249E+02  0.99999862091E+01 0.  0.
         12    1    1    2    0    0 -0.34174158259E+01 -0.25754991634E+02  0.36798305662E+02  0.45045683751E+02  0.00000000000E+00 0. -1.
         11    1    3    3    0    0  0.50731993029E+01  0.16824087646E+02 -0.18265955948E+02  0.25346250674E+02  0.51100000000E-03 0. -1.
        -11    1    3    3    0    0  0.15798377828E+00  0.47853061808E+01 -0.78511739660E+01  0.91959255665E+01  0.51100000000E-03 0.  1.
         12    1    3    3    0    0 -0.18137672553E+01  0.41455978068E+01 -0.10681175748E+02  0.11600140008E+02  0.00000000000E+00 0. -1.
</event>
<event>
 7    1  0.4623443E-009  0.4614232E+02  0.7816164E-02  0.1320468E+00
        -11   -1    0    0    0    0  0.00000000000E+00  0.00000000000E+00  0.45593999997E+02  0.45594000000E+02  0.51100000000E-03 0. -1.
         11   -1    0    0    0    0 -0.00000000000E+00 -0.00000000000E+00 -0.45593999997E+02  0.45594000000E+02  0.51100000000E-03 0.  1.
    9900012    2    1    2    0    0  0.72889289720E+01  0.14228471439E+01 -0.44429277671E+02  0.46142315480E+02  0.99999791984E+01 0.  0.
         12    1    1    2    0    0 -0.72889289720E+01 -0.14228471439E+01  0.44429277671E+02  0.45045684520E+02  0.00000000000E+00 0. -1.
         11    1    3    3    0    0 -0.10883756429E+01  0.19306494844E+01 -0.12481328089E+02  0.12676573673E+02  0.51100000000E-03 0. -1.
        -11    1    3    3    0    0  0.33930137760E+01  0.23611365237E+01 -0.15482836154E+02  0.16025159088E+02  0.51100000000E-03 0.  1.
        -12    1    3    3    0    0  0.49842908389E+01 -0.28689388642E+01 -0.16465113428E+02  0.17440582719E+02  0.00000000000E+00 0.  1.
</event>
<event>
 7    1  0.4623443E-009  0.4614232E+02  0.7816164E-02  0.1320468E+00
        -11   -1    0    0    0    0  0.00000000000E+00  0.00000000000E+00  0.45593999997E+02  0.45594000000E+02  0.51100000000E-03 0. -1.
         11   -1    0    0    0    0 -0.00000000000E+00 -0.00000000000E+00 -0.45593999997E+02  0.45594000000E+02  0.51100000000E-03 0.  1.
    9900012    2    1    2    0    0 -0.28327807222E+02  0.34995037363E+02 -0.14128428637E+01  0.46142318442E+02  0.10000006212E+02 0.  0.
         12    1    1    2    0    0  0.28327807222E+02 -0.34995037363E+02  0.14128428637E+01  0.45045681558E+02  0.00000000000E+00 0. -1.
         11    1    3    3    0    0 -0.64821314367E+01  0.97661273578E+01 -0.42936877131E+01  0.12483229789E+02  0.51100000000E-03 0. -1.
        -11    1    3    3    0    0 -0.24408733892E+01  0.14391828789E+01  0.34290440283E+00  0.28542413969E+01  0.51100000000E-03 0.  1.
        -12    1    3    3    0    0 -0.19404802396E+02  0.23789727127E+02  0.25379404465E+01  0.30804847256E+02  0.00000000000E+00 0.  1.
</event>
<event>
 7    1  0.4623443E-009  0.4614232E+02  0.7816164E-02  0.1320468E+00
        -11   -1    0    0    0    0  0.00000000000E+00  0.00000000000E+00  0.45593999997E+02  0.45594000000E+02  0.51100000000E-03 0. -1.
         11   -1    0    0    0    0 -0.00000000000E+00 -0.00000000000E+00 -0.45593999997E+02  0.45594000000E+02  0.51100000000E-03 0.  1.
    9900012    2    1    2    0    0  0.12714858430E+02 -0.46841970523E+01 -0.42959332295E+02  0.46142316986E+02  0.99999929338E+01 0.  0.
         12    1    1    2    0    0 -0.12714858430E+02  0.46841970523E+01  0.42959332295E+02  0.45045683014E+02  0.00000000000E+00 0. -1.
         11    1    3    3    0    0  0.29571234765E+01 -0.50490424426E+00 -0.22151622878E+02  0.22353834212E+02  0.51100000000E-03 0. -1.
        -11    1    3    3    0    0  0.42572215809E+01 -0.42669563448E+01 -0.11023594225E+02  0.12563856173E+02  0.51100000000E-03 0.  1.
        -12    1    3    3    0    0  0.55005133724E+01  0.87663536777E-01 -0.97841151924E+01  0.11224626602E+02  0.00000000000E+00 0.  1.
</event>
<event>
 7    1  0.4623443E-009  0.4614233E+02  0.7816164E-02  0.1320468E+00
        -11   -1    0    0    0    0  0.00000000000E+00  0.00000000000E+00  0.45593999997E+02  0.45594000000E+02  0.51100000000E-03 0. -1.
         11   -1    0    0    0    0 -0.00000000000E+00 -0.00000000000E+00 -0.45593999997E+02  0.45594000000E+02  0.51100000000E-03 0.  1.
    9900012    2    1    2    0    0 -0.12228151662E+02 -0.33283091585E+02 -0.27781664760E+02  0.46142325676E+02  0.10000072174E+02 0.  0.
         12    1    1    2    0    0  0.12228151662E+02  0.33283091585E+02  0.27781664760E+02  0.45045674324E+02  0.00000000000E+00 0. -1.
         11    1    3    3    0    0 -0.20787800408E+01 -0.20579892749E+00 -0.20724729729E+01  0.29425880006E+01  0.51100000000E-03 0. -1.
        -11    1    3    3    0    0 -0.13303079486E+01 -0.19464175804E+01 -0.15996695961E+01  0.28490706753E+01  0.51100000000E-03 0.  1.
         12    1    3    3    0    0 -0.88190636726E+01 -0.31130875077E+02 -0.24109522190E+02  0.40350667000E+02  0.00000000000E+00 0. -1.
</event>
<event>
 7    1  0.4623443E-009  0.4614232E+02  0.7816164E-02  0.1320468E+00
        -11   -1    0    0    0    0  0.00000000000E+00  0.00000000000E+00  0.45593999997E+02  0.45594000000E+02  0.51100000000E-03 0. -1.
         11   -1    0    0    0    0 -0.00000000000E+00 -0.00000000000E+00 -0.45593999997E+02  0.45594000000E+02  0.51100000000E-03 0.  1.
    9900012    2    1    2    0    0 -0.27481846395E+02 -0.15873426192E+02 -0.31967110699E+02  0.46142315337E+02  0.99999778933E+01 0.  0.
         12    1    1    2    0    0  0.27481846395E+02  0.15873426192E+02  0.31967110699E+02  0.45045684663E+02  0.00000000000E+00 0. -1.
         11    1    3    3    0    0 -0.87270937612E+01 -0.32519426082E+01 -0.41592961161E+01  0.10199854935E+02  0.51100000000E-03 0. -1.
        -11    1    3    3    0    0 -0.27850545056E+01 -0.30912944620E+01 -0.46004181101E+01  0.62029410039E+01  0.51100000000E-03 0.  1.
        -12    1    3    3    0    0 -0.15969698128E+02 -0.95301891216E+01 -0.23207396473E+02  0.29739519398E+02  0.00000000000E+00 0.  1.
</event>
<event>
 7    1  0.4623443E-009  0.4614232E+02  0.7816164E-02  0.1320468E+00
        -11   -1    0    0    0    0  0.00000000000E+00  0.00000000000E+00  0.45593999997E+02  0.45594000000E+02  0.51100000000E-03 0. -1.
         11   -1    0    0    0    0 -0.00000000000E+00 -0.00000000000E+00 -0.45593999997E+02  0.45594000000E+02  0.51100000000E-03 0.  1.
    9900012    2    1    2    0    0  0.35141413323E+02  0.84318189575E+01 -0.26890498754E+02  0.46142318470E+02  0.10000006467E+02 0.  0.
         12    1    1    2    0    0 -0.35141413323E+02 -0.84318189575E+01  0.26890498754E+02  0.45045681530E+02  0.00000000000E+00 0. -1.
         11    1    3    3    0    0  0.21885448439E+01  0.34527663969E+00  0.33296629177E+00  0.22404935403E+01  0.51100000000E-03 0. -1.
        -11    1    3    3    0    0  0.99468702129E+01  0.36458590789E+01 -0.11761596948E+02  0.15829329692E+02  0.51100000000E-03 0.  1.
         12    1    3    3    0    0  0.23005998266E+02  0.44406832389E+01 -0.15461868097E+02  0.28072495238E+02  0.00000000000E+00 0. -1.
</event>
<event>
 7    1  0.4623443E-009  0.4614232E+02  0.7816164E-02  0.1320468E+00
        -11   -1    0    0    0    0  0.00000000000E+00  0.00000000000E+00  0.45593999997E+02  0.45594000000E+02  0.51100000000E-03 0. -1.
         11   -1    0    0    0    0 -0.00000000000E+00 -0.00000000000E+00 -0.45593999997E+02  0.45594000000E+02  0.51100000000E-03 0.  1.
    9900012    2    1    2    0    0  0.49034439533E+01  0.40880499895E+02 -0.18271683532E+02  0.46142318149E+02  0.10000003542E+02 0.  0.
         12    1    1    2    0    0 -0.49034439533E+01 -0.40880499895E+02  0.18271683532E+02  0.45045681851E+02  0.00000000000E+00 0. -1.
         11    1    3    3    0    0  0.12834211102E+01  0.18080742384E+02 -0.51021025521E+01  0.18830609805E+02  0.51100000000E-03 0. -1.
        -11    1    3    3    0    0  0.42469809033E+01  0.22837642467E+02 -0.12445226278E+02  0.26352958422E+02  0.51100000000E-03 0.  1.
         12    1    3    3    0    0 -0.62695806016E+00 -0.37884956011E-01 -0.72435470191E+00  0.95874992218E+00  0.00000000000E+00 0. -1.
</event>
<event>
 7    1  0.4623443E-009  0.4614232E+02  0.7816164E-02  0.1320468E+00
        -11   -1    0    0    0    0  0.00000000000E+00  0.00000000000E+00  0.45593999997E+02  0.45594000000E+02  0.51100000000E-03 0. -1.
         11   -1    0    0    0    0 -0.00000000000E+00 -0.00000000000E+00 -0.45593999997E+02  0.45594000000E+02  0.51100000000E-03 0.  1.
    9900012    2    1    2    0    0 -0.32506158679E+02 -0.27785526415E+02  0.14157247133E+02  0.46142317892E+02  0.10000001196E+02 0.  0.
        -12    1    1    2    0    0  0.32506158679E+02  0.27785526415E+02 -0.14157247133E+02  0.45045682108E+02  0.00000000000E+00 0.  1.
         11    1    3    3    0    0 -0.76943735458E+01 -0.69637205414E+01  0.49548423386E+01  0.11499880473E+02  0.51100000000E-03 0. -1.
        -11    1    3    3    0    0 -0.16573428175E+02 -0.14785246630E+02  0.10082429490E+02  0.24391339120E+02  0.51100000000E-03 0.  1.
        -12    1    3    3    0    0 -0.82383569577E+01 -0.60365592434E+01 -0.88002469659E+00  0.10251098299E+02  0.00000000000E+00 0.  1.
</event>
<event>
 7    1  0.4623443E-009  0.4614232E+02  0.7816164E-02  0.1320468E+00
        -11   -1    0    0    0    0  0.00000000000E+00  0.00000000000E+00  0.45593999997E+02  0.45594000000E+02  0.51100000000E-03 0. -1.
         11   -1    0    0    0    0 -0.00000000000E+00 -0.00000000000E+00 -0.45593999997E+02  0.45594000000E+02  0.51100000000E-03 0.  1.
    9900012    2    1    2    0    0 -0.37990375564E+01  0.37417226932E+02  0.24791771196E+02  0.46142317891E+02  0.10000001188E+02 0.  0.
        -12    1    1    2    0    0  0.37990375564E+01 -0.37417226932E+02 -0.24791771196E+02  0.45045682109E+02  0.00000000000E+00 0.  1.
         11    1    3    3    0    0 -0.30804502494E+01  0.15036460097E+02  0.14391398208E+02  0.21040357616E+02  0.51100000000E-03 0. -1.
        -11    1    3    3    0    0  0.12639132108E+01  0.12938462167E+02  0.75866544651E+01  0.15051863874E+02  0.51100000000E-03 0.  1.
         12    1    3    3    0    0 -0.19825005178E+01  0.94423046681E+01  0.28137185228E+01  0.10050096401E+02  0.00000000000E+00 0. -1.
</event>
<event>
 7    1  0.4623443E-009  0.4614232E+02  0.7816164E-02  0.1320468E+00
        -11   -1    0    0    0    0  0.00000000000E+00  0.00000000000E+00  0.45593999997E+02  0.45594000000E+02  0.51100000000E-03 0. -1.
         11   -1    0    0    0    0 -0.00000000000E+00 -0.00000000000E+00 -0.45593999997E+02  0.45594000000E+02  0.51100000000E-03 0.  1.
    9900012    2    1    2    0    0 -0.21766263298E+01  0.15192980407E+01  0.44967402759E+02  0.46142320078E+02  0.10000021127E+02 0.  0.
        -12    1    1    2    0    0  0.21766263298E+01 -0.15192980407E+01 -0.44967402759E+02  0.45045679922E+02  0.00000000000E+00 0.  1.
         11    1    3    3    0    0 -0.97018684403E-01 -0.25851656648E+01  0.98223690370E+01  0.10157333700E+02  0.51100000000E-03 0. -1.
        -11    1    3    3    0    0 -0.42969746445E+01  0.26007490612E+01  0.24330376903E+02  0.24843412150E+02  0.51100000000E-03 0.  1.
        -12    1    3    3    0    0  0.22173669991E+01  0.15037146443E+01  0.10814656819E+02  0.11141574227E+02  0.00000000000E+00 0.  1.
</event>
<event>
 7    1  0.4623443E-009  0.4614232E+02  0.7816164E-02  0.1320468E+00
        -11   -1    0    0    0    0  0.00000000000E+00  0.00000000000E+00  0.45593999997E+02  0.45594000000E+02  0.51100000000E-03 0. -1.
         11   -1    0    0    0    0 -0.00000000000E+00 -0.00000000000E+00 -0.45593999997E+02  0.45594000000E+02  0.51100000000E-03 0.  1.
    9900012    2    1    2    0    0  0.36439763538E+02 -0.13581638795E+02 -0.22733152627E+02  0.46142317550E+02  0.99999980719E+01 0.  0.
         12    1    1    2    0    0 -0.36439763538E+02  0.13581638795E+02  0.22733152627E+02  0.45045682450E+02  0.00000000000E+00 0. -1.
         11    1    3    3    0    0  0.10277531791E+02 -0.74592131780E+01 -0.71329951280E+01  0.14565271735E+02  0.51100000000E-03 0. -1.
        -11    1    3    3    0    0  0.21583742594E+02 -0.41044383102E+01 -0.14848096323E+02  0.26517358897E+02  0.51100000000E-03 0.  1.
        -12    1    3    3    0    0  0.45784891532E+01 -0.20179873068E+01 -0.75206117612E+00  0.50596869181E+01  0.00000000000E+00 0.  1.
</event>
<event>
 7    1  0.4623443E-009  0.4614232E+02  0.7816164E-02  0.1320468E+00
        -11   -1    0    0    0    0  0.00000000000E+00  0.00000000000E+00  0.45593999997E+02  0.45594000000E+02  0.51100000000E-03 0. -1.
         11   -1    0    0    0    0 -0.00000000000E+00 -0.00000000000E+00 -0.45593999997E+02  0.45594000000E+02  0.51100000000E-03 0.  1.
    9900012    2    1    2    0    0 -0.12296501918E+02 -0.10530394815E+02  0.42035940672E+02  0.46142317826E+02  0.10000000590E+02 0.  0.
        -12    1    1    2    0    0  0.12296501918E+02  0.10530394815E+02 -0.42035940672E+02  0.45045682174E+02  0.00000000000E+00 0.  1.
         11    1    3    3    0    0 -0.72965138515E+00 -0.15314954731E+01  0.13052933058E+01  0.21404813485E+01  0.51100000000E-03 0. -1.
        -11    1    3    3    0    0  0.86039365049E+00 -0.24590412887E+01  0.64816217397E+01  0.69855981799E+01  0.51100000000E-03 0.  1.
         12    1    3    3    0    0 -0.12427244183E+02 -0.65398580530E+01  0.34249025626E+02  0.37016238297E+02  0.00000000000E+00 0. -1.
</event>
<event>
 7    1  0.4623443E-009  0.4614232E+02  0.7816164E-02  0.1320468E+00
        -11   -1    0    0    0    0  0.00000000000E+00  0.00000000000E+00  0.45593999997E+02  0.45594000000E+02  0.51100000000E-03 0. -1.
         11   -1    0    0    0    0 -0.00000000000E+00 -0.00000000000E+00 -0.45593999997E+02  0.45594000000E+02  0.51100000000E-03 0.  1.
    9900012    2    1    2    0    0 -0.37500883937E+01  0.30580839587E+02 -0.32861262409E+02  0.46142317854E+02  0.10000000851E+02 0.  0.
         12    1    1    2    0    0  0.37500883937E+01 -0.30580839587E+02  0.32861262409E+02  0.45045682146E+02  0.00000000000E+00 0. -1.
         11    1    3    3    0    0  0.20002265285E+01  0.10957098968E+02 -0.79151180131E+01  0.13664114218E+02  0.51100000000E-03 0. -1.
        -11    1    3    3    0    0 -0.41529388806E+01  0.17993080870E+02 -0.21461133264E+02  0.28312154665E+02  0.51100000000E-03 0.  1.
         12    1    3    3    0    0 -0.15973760416E+01  0.16306597500E+01 -0.34850111325E+01  0.41660489714E+01  0.00000000000E+00 0. -1.
</event>
<event>
 7    1  0.4623443E-009  0.4614232E+02  0.7816164E-02  0.1320468E+00
        -11   -1    0    0    0    0  0.00000000000E+00  0.00000000000E+00  0.45593999997E+02  0.45594000000E+02  0.51100000000E-03 0. -1.
         11   -1    0    0    0    0 -0.00000000000E+00 -0.00000000000E+00 -0.45593999997E+02  0.45594000000E+02  0.51100000000E-03 0.  1.
    9900012    2    1    2    0    0 -0.25030921600E+02 -0.13418196292E+02  0.34964531220E+02  0.46142317950E+02  0.10000001727E+02 0.  0.
        -12    1    1    2    0    0  0.25030921600E+02  0.13418196292E+02 -0.34964531220E+02  0.45045682050E+02  0.00000000000E+00 0.  1.
         11    1    3    3    0    0 -0.15991252927E+01 -0.35676555768E+01  0.47637983528E+01  0.61627220466E+01  0.51100000000E-03 0. -1.
        -11    1    3    3    0    0 -0.88089783273E+01 -0.20917934821E+01  0.68347273229E+01  0.11344037949E+02  0.51100000000E-03 0.  1.
         12    1    3    3    0    0 -0.14622817980E+02 -0.77587472329E+01  0.23366005545E+02  0.28635557955E+02  0.00000000000E+00 0. -1.
</event>
<event>
 7    1  0.4623443E-009  0.4614232E+02  0.7816164E-02  0.1320468E+00
        -11   -1    0    0    0    0  0.00000000000E+00  0.00000000000E+00  0.45593999997E+02  0.45594000000E+02  0.51100000000E-03 0. -1.
         11   -1    0    0    0    0 -0.00000000000E+00 -0.00000000000E+00 -0.45593999997E+02  0.45594000000E+02  0.51100000000E-03 0.  1.
    9900012    2    1    2    0    0  0.62479187455E+01  0.29418268706E+02 -0.33535690096E+02  0.46142317271E+02  0.99999955343E+01 0.  0.
         12    1    1    2    0    0 -0.62479187455E+01 -0.29418268706E+02  0.33535690096E+02  0.45045682729E+02  0.00000000000E+00 0. -1.
         11    1    3    3    0    0 -0.84990382195E+00  0.69709224333E+01 -0.10056318329E+02  0.12265628181E+02  0.51100000000E-03 0.  1.
        -11    1    3    3    0    0  0.41121504349E+01  0.19712272781E+02 -0.17637173378E+02  0.26768514423E+02  0.51100000000E-03 0. -1.
         12    1    3    3    0    0  0.29856721325E+01  0.27350734910E+01 -0.58421983885E+01  0.71081746668E+01  0.00000000000E+00 0. -1.
</event>
<event>
 7    1  0.4623443E-009  0.4614232E+02  0.7816164E-02  0.1320468E+00
        -11   -1    0    0    0    0  0.00000000000E+00  0.00000000000E+00  0.45593999997E+02  0.45594000000E+02  0.51100000000E-03 0. -1.
         11   -1    0    0    0    0 -0.00000000000E+00 -0.00000000000E+00 -0.45593999997E+02  0.45594000000E+02  0.51100000000E-03 0.  1.
    9900012    2    1    2    0    0 -0.32355070832E+02  0.27738400284E+02  0.14589177276E+02  0.46142317050E+02  0.99999935161E+01 0.  0.
        -12    1    1    2    0    0  0.32355070832E+02 -0.27738400284E+02 -0.14589177276E+02  0.45045682950E+02  0.00000000000E+00 0.  1.
         11    1    3    3    0    0 -0.94678149237E+01  0.61044149716E+01  0.17432205916E+01  0.11399220143E+02  0.51100000000E-03 0. -1.
        -11    1    3    3    0    0 -0.90637299179E+01  0.81281941173E+01  0.87368478205E+01  0.14985034192E+02  0.51100000000E-03 0.  1.
        -12    1    3    3    0    0 -0.13823525990E+02  0.13505791195E+02  0.41091088640E+01  0.19758062715E+02  0.00000000000E+00 0.  1.
</event>
<event>
 7    1  0.4623443E-009  0.4614232E+02  0.7816164E-02  0.1320468E+00
        -11   -1    0    0    0    0  0.00000000000E+00  0.00000000000E+00  0.45593999997E+02  0.45594000000E+02  0.51100000000E-03 0. -1.
         11   -1    0    0    0    0 -0.00000000000E+00 -0.00000000000E+00 -0.45593999997E+02  0.45594000000E+02  0.51100000000E-03 0.  1.
    9900012    2    1    2    0    0 -0.10589347795E+01 -0.25438451281E+01 -0.44961327807E+02  0.46142317753E+02  0.99999999264E+01 0.  0.
         12    1    1    2    0    0  0.10589347795E+01  0.25438451281E+01  0.44961327807E+02  0.45045682247E+02  0.00000000000E+00 0. -1.
         11    1    3    3    0    0 -0.49887776595E+01 -0.24620256285E+01 -0.22820021056E+02  0.23488355285E+02  0.51100000000E-03 0. -1.
        -11    1    3    3    0    0  0.19598667943E+01 -0.11840729592E+01 -0.14716788737E+02  0.14893857043E+02  0.51100000000E-03 0.  1.
         12    1    3    3    0    0  0.19699760856E+01  0.11022534596E+01 -0.74245180145E+01  0.77601054255E+01  0.00000000000E+00 0. -1.
</event>
<event>
 7    1  0.4623443E-009  0.4614232E+02  0.7816164E-02  0.1320468E+00
        -11   -1    0    0    0    0  0.00000000000E+00  0.00000000000E+00  0.45593999997E+02  0.45594000000E+02  0.51100000000E-03 0. -1.
         11   -1    0    0    0    0 -0.00000000000E+00 -0.00000000000E+00 -0.45593999997E+02  0.45594000000E+02  0.51100000000E-03 0.  1.
    9900012    2    1    2    0    0  0.15242312899E+02  0.36907038162E+02  0.20848403280E+02  0.46142317768E+02  0.10000000064E+02 0.  0.
        -12    1    1    2    0    0 -0.15242312899E+02 -0.36907038162E+02 -0.20848403280E+02  0.45045682232E+02  0.00000000000E+00 0.  1.
         11    1    3    3    0    0  0.38711430618E+01  0.35060909004E+01  0.10003809704E+01  0.53178176308E+01  0.51100000000E-03 0. -1.
        -11    1    3    3    0    0  0.79868663013E+01  0.18390713877E+02  0.88803737283E+01  0.21928735213E+02  0.51100000000E-03 0.  1.
         12    1    3    3    0    0  0.33843035362E+01  0.15010233385E+02  0.10967648581E+02  0.18895764925E+02  0.00000000000E+00 0. -1.
</event>
<event>
 7    1  0.4623443E-009  0.4614232E+02  0.7816164E-02  0.1320468E+00
        -11   -1    0    0    0    0  0.00000000000E+00  0.00000000000E+00  0.45593999997E+02  0.45594000000E+02  0.51100000000E-03 0. -1.
         11   -1    0    0    0    0 -0.00000000000E+00 -0.00000000000E+00 -0.45593999997E+02  0.45594000000E+02  0.51100000000E-03 0.  1.
    9900012    2    1    2    0    0  0.74076914467E+01  0.10184462694E+02  0.43249466011E+02  0.46142317819E+02  0.10000000529E+02 0.  0.
        -12    1    1    2    0    0 -0.74076914467E+01 -0.10184462694E+02 -0.43249466011E+02  0.45045682181E+02  0.00000000000E+00 0.  1.
         11    1    3    3    0    0 -0.68810986541E-01  0.38945196339E+01  0.48573061349E+01  0.62261899489E+01  0.51100000000E-03 0. -1.
        -11    1    3    3    0    0  0.26056264886E+01  0.15946350622E+01  0.51116862216E+01  0.59549547999E+01  0.51100000000E-03 0.  1.
        -12    1    3    3    0    0  0.48708759447E+01  0.46953079977E+01  0.33280473654E+02  0.33961173070E+02  0.00000000000E+00 0.  1.
</event>
<event>
 7    1  0.4623443E-009  0.4614232E+02  0.7816164E-02  0.1320468E+00
        -11   -1    0    0    0    0  0.00000000000E+00  0.00000000000E+00  0.45593999997E+02  0.45594000000E+02  0.51100000000E-03 0. -1.
         11   -1    0    0    0    0 -0.00000000000E+00 -0.00000000000E+00 -0.45593999997E+02  0.45594000000E+02  0.51100000000E-03 0.  1.
    9900012    2    1    2    0    0 -0.15774307788E+02 -0.30839384392E+02  0.28796130028E+02  0.46142317405E+02  0.99999967543E+01 0.  0.
        -12    1    1    2    0    0  0.15774307788E+02  0.30839384392E+02 -0.28796130028E+02  0.45045682595E+02  0.00000000000E+00 0.  1.
         11    1    3    3    0    0 -0.60903067493E+01 -0.11808337104E+02  0.96614089416E+01  0.16427765657E+02  0.51100000000E-03 0. -1.
        -11    1    3    3    0    0 -0.33220797048E+00 -0.49415237356E+01  0.12648389534E+01  0.51116373897E+01  0.51100000000E-03 0.  1.
        -12    1    3    3    0    0 -0.93517930682E+01 -0.14089523552E+02  0.17869882133E+02  0.24602914359E+02  0.00000000000E+00 0.  1.
</event>
<event>
 7    1  0.4623443E-009  0.4614232E+02  0.7816164E-02  0.1320468E+00
        -11   -1    0    0    0    0  0.00000000000E+00  0.00000000000E+00  0.45593999997E+02  0.45594000000E+02  0.51100000000E-03 0. -1.
         11   -1    0    0    0    0 -0.00000000000E+00 -0.00000000000E+00 -0.45593999997E+02  0.45594000000E+02  0.51100000000E-03 0.  1.
    9900012    2    1    2    0    0  0.42253488653E+02 -0.21789736234E+01 -0.15459890392E+02  0.46142318294E+02  0.10000004864E+02 0.  0.
         12    1    1    2    0    0 -0.42253488653E+02  0.21789736234E+01  0.15459890392E+02  0.45045681706E+02  0.00000000000E+00 0. -1.
         11    1    3    3    0    0  0.34450467424E+00 -0.99239055232E+00  0.30621515033E+00  0.10942076852E+01  0.51100000000E-03 0. -1.
        -11    1    3    3    0    0  0.18278227333E+02  0.18499588567E+01 -0.66253724510E+01  0.19529759409E+02  0.51100000000E-03 0.  1.
        -12    1    3    3    0    0  0.23630756646E+02 -0.30365419278E+01 -0.91407330916E+01  0.25518351200E+02  0.00000000000E+00 0.  1.
</event>
<event>
 7    1  0.4623443E-009  0.4614232E+02  0.7816164E-02  0.1320468E+00
        -11   -1    0    0    0    0  0.00000000000E+00  0.00000000000E+00  0.45593999997E+02  0.45594000000E+02  0.51100000000E-03 0. -1.
         11   -1    0    0    0    0 -0.00000000000E+00 -0.00000000000E+00 -0.45593999997E+02  0.45594000000E+02  0.51100000000E-03 0.  1.
    9900012    2    1    2    0    0  0.27986296161E+02 -0.31291671556E+02 -0.16331317841E+02  0.46142318475E+02  0.10000006510E+02 0.  0.
         12    1    1    2    0    0 -0.27986296161E+02  0.31291671556E+02  0.16331317841E+02  0.45045681525E+02  0.00000000000E+00 0. -1.
         11    1    3    3    0    0  0.26155799384E+01 -0.44677101056E+01 -0.92877629943E+00  0.52596879829E+01  0.51100000000E-03 0. -1.
        -11    1    3    3    0    0  0.14884234501E+02 -0.20156785665E+02 -0.74953780653E+01  0.26153721296E+02  0.51100000000E-03 0.  1.
        -12    1    3    3    0    0  0.10486481722E+02 -0.66671757857E+01 -0.79071634765E+01  0.14728909196E+02  0.00000000000E+00 0.  1.
</event>
<event>
 7    1  0.4623443E-009  0.4614232E+02  0.7816164E-02  0.1320468E+00
        -11   -1    0    0    0    0  0.00000000000E+00  0.00000000000E+00  0.45593999997E+02  0.45594000000E+02  0.51100000000E-03 0.  1.
         11   -1    0    0    0    0 -0.00000000000E+00 -0.00000000000E+00 -0.45593999997E+02  0.45594000000E+02  0.51100000000E-03 0. -1.
    9900012    2    1    2    0    0 -0.97540125958E+01 -0.41105262111E+02 -0.15631067289E+02  0.46142316527E+02  0.99999887487E+01 0.  0.
         12    1    1    2    0    0  0.97540125958E+01  0.41105262111E+02  0.15631067289E+02  0.45045683473E+02  0.00000000000E+00 0. -1.
         11    1    3    3    0    0 -0.41890937214E+00 -0.74339608601E+01 -0.47455285705E+01  0.88294564275E+01  0.51100000000E-03 0. -1.
        -11    1    3    3    0    0 -0.41410580788E+01 -0.24943069426E+02 -0.57434178977E+01  0.25928592785E+02  0.51100000000E-03 0.  1.
        -12    1    3    3    0    0 -0.51940451449E+01 -0.87282318250E+01 -0.51421208209E+01  0.11384267315E+02  0.00000000000E+00 0.  1.
</event>
<event>
 7    1  0.4623443E-009  0.4614232E+02  0.7816164E-02  0.1320468E+00
        -11   -1    0    0    0    0  0.00000000000E+00  0.00000000000E+00  0.45593999997E+02  0.45594000000E+02  0.51100000000E-03 0. -1.
         11   -1    0    0    0    0 -0.00000000000E+00 -0.00000000000E+00 -0.45593999997E+02  0.45594000000E+02  0.51100000000E-03 0.  1.
    9900012    2    1    2    0    0  0.37701293469E+02 -0.13648045192E+02 -0.20529413568E+02  0.46142317763E+02  0.10000000015E+02 0.  0.
         12    1    1    2    0    0 -0.37701293469E+02  0.13648045192E+02  0.20529413568E+02  0.45045682237E+02  0.00000000000E+00 0. -1.
         11    1    3    3    0    0  0.86826019698E+01 -0.45815423148E+01 -0.17436186077E+01  0.99708732345E+01  0.51100000000E-03 0.  1.
        -11    1    3    3    0    0  0.70866795901E+01 -0.20666133967E+01 -0.19049821550E+01  0.76237048615E+01  0.51100000000E-03 0. -1.
        -12    1    3    3    0    0  0.21932011909E+02 -0.69998894800E+01 -0.16880812805E+02  0.28547739667E+02  0.00000000000E+00 0.  1.
</event>
